   2   2   0   0
  0.1080000E+03  0.6000000E-09  0.6000000E-09  0.6000000E-09  0.5000000E-15
  1.000000000000000E-004
  CAR 
 unknown system                          
      8.94465894    -29.56567424  301     -8.43887269      1.00000000
    -29.566  0.0000E+00  0.0000E+00
    -29.437  0.0000E+00  0.0000E+00
    -29.309  0.0000E+00  0.0000E+00
    -29.181  0.0000E+00  0.0000E+00
    -29.052  0.0000E+00  0.0000E+00
    -28.924  0.0000E+00  0.0000E+00
    -28.795  0.0000E+00  0.0000E+00
    -28.667 -0.1136E-29 -0.1459E-30
    -28.539 -0.5854E-21 -0.7515E-22
    -28.410 -0.1082E-13 -0.1389E-14
    -28.282 -0.6747E-08 -0.8661E-09
    -28.154 -0.1447E-03 -0.1857E-04
    -28.025 -0.8866E-01 -0.1140E-01
    -27.897  0.1785E+00  0.1152E-01
    -27.769  0.1317E+02  0.1703E+01
    -27.640  0.2572E+01  0.2033E+01
    -27.512 -0.2544E+00  0.2000E+01
    -27.383 -0.1201E-02  0.2000E+01
    -27.255 -0.1439E-06  0.2000E+01
    -27.127 -0.5639E-12  0.2000E+01
    -26.998  0.0000E+00  0.2000E+01
    -26.870  0.0000E+00  0.2000E+01
    -26.742  0.0000E+00  0.2000E+01
    -26.613  0.0000E+00  0.2000E+01
    -26.485  0.0000E+00  0.2000E+01
    -26.356  0.0000E+00  0.2000E+01
    -26.228  0.0000E+00  0.2000E+01
    -26.100  0.0000E+00  0.2000E+01
    -25.971  0.0000E+00  0.2000E+01
    -25.843  0.0000E+00  0.2000E+01
    -25.715  0.0000E+00  0.2000E+01
    -25.586  0.0000E+00  0.2000E+01
    -25.458  0.0000E+00  0.2000E+01
    -25.330  0.0000E+00  0.2000E+01
    -25.201  0.0000E+00  0.2000E+01
    -25.073  0.0000E+00  0.2000E+01
    -24.944  0.0000E+00  0.2000E+01
    -24.816  0.0000E+00  0.2000E+01
    -24.688  0.0000E+00  0.2000E+01
    -24.559  0.0000E+00  0.2000E+01
    -24.431  0.0000E+00  0.2000E+01
    -24.303  0.0000E+00  0.2000E+01
    -24.174  0.0000E+00  0.2000E+01
    -24.046  0.0000E+00  0.2000E+01
    -23.917  0.0000E+00  0.2000E+01
    -23.789  0.0000E+00  0.2000E+01
    -23.661  0.0000E+00  0.2000E+01
    -23.532  0.0000E+00  0.2000E+01
    -23.404  0.0000E+00  0.2000E+01
    -23.276  0.0000E+00  0.2000E+01
    -23.147  0.0000E+00  0.2000E+01
    -23.019  0.0000E+00  0.2000E+01
    -22.891  0.0000E+00  0.2000E+01
    -22.762  0.0000E+00  0.2000E+01
    -22.634  0.0000E+00  0.2000E+01
    -22.505  0.0000E+00  0.2000E+01
    -22.377  0.0000E+00  0.2000E+01
    -22.249  0.0000E+00  0.2000E+01
    -22.120  0.0000E+00  0.2000E+01
    -21.992  0.0000E+00  0.2000E+01
    -21.864  0.0000E+00  0.2000E+01
    -21.735  0.0000E+00  0.2000E+01
    -21.607  0.0000E+00  0.2000E+01
    -21.479  0.0000E+00  0.2000E+01
    -21.350  0.0000E+00  0.2000E+01
    -21.222  0.0000E+00  0.2000E+01
    -21.093  0.0000E+00  0.2000E+01
    -20.965  0.0000E+00  0.2000E+01
    -20.837  0.0000E+00  0.2000E+01
    -20.708  0.0000E+00  0.2000E+01
    -20.580  0.0000E+00  0.2000E+01
    -20.452  0.0000E+00  0.2000E+01
    -20.323  0.0000E+00  0.2000E+01
    -20.195  0.0000E+00  0.2000E+01
    -20.066  0.0000E+00  0.2000E+01
    -19.938  0.0000E+00  0.2000E+01
    -19.810  0.0000E+00  0.2000E+01
    -19.681  0.0000E+00  0.2000E+01
    -19.553  0.0000E+00  0.2000E+01
    -19.425  0.0000E+00  0.2000E+01
    -19.296  0.0000E+00  0.2000E+01
    -19.168  0.0000E+00  0.2000E+01
    -19.040  0.0000E+00  0.2000E+01
    -18.911  0.0000E+00  0.2000E+01
    -18.783  0.0000E+00  0.2000E+01
    -18.654  0.0000E+00  0.2000E+01
    -18.526  0.0000E+00  0.2000E+01
    -18.398  0.0000E+00  0.2000E+01
    -18.269  0.0000E+00  0.2000E+01
    -18.141  0.0000E+00  0.2000E+01
    -18.013  0.0000E+00  0.2000E+01
    -17.884  0.0000E+00  0.2000E+01
    -17.756  0.0000E+00  0.2000E+01
    -17.627  0.0000E+00  0.2000E+01
    -17.499  0.0000E+00  0.2000E+01
    -17.371  0.0000E+00  0.2000E+01
    -17.242  0.0000E+00  0.2000E+01
    -17.114  0.0000E+00  0.2000E+01
    -16.986  0.0000E+00  0.2000E+01
    -16.857  0.0000E+00  0.2000E+01
    -16.729  0.0000E+00  0.2000E+01
    -16.601  0.0000E+00  0.2000E+01
    -16.472  0.0000E+00  0.2000E+01
    -16.344  0.0000E+00  0.2000E+01
    -16.215  0.0000E+00  0.2000E+01
    -16.087  0.0000E+00  0.2000E+01
    -15.959  0.0000E+00  0.2000E+01
    -15.830  0.0000E+00  0.2000E+01
    -15.702  0.0000E+00  0.2000E+01
    -15.574  0.0000E+00  0.2000E+01
    -15.445  0.0000E+00  0.2000E+01
    -15.317  0.0000E+00  0.2000E+01
    -15.188  0.0000E+00  0.2000E+01
    -15.060  0.0000E+00  0.2000E+01
    -14.932  0.0000E+00  0.2000E+01
    -14.803  0.0000E+00  0.2000E+01
    -14.675  0.0000E+00  0.2000E+01
    -14.547  0.0000E+00  0.2000E+01
    -14.418  0.0000E+00  0.2000E+01
    -14.290 -0.4561E-30  0.2000E+01
    -14.162 -0.2700E-21  0.2000E+01
    -14.033 -0.5739E-14  0.2000E+01
    -13.905 -0.4123E-08  0.2000E+01
    -13.776 -0.1021E-03  0.2000E+01
    -13.648 -0.7321E-01  0.1991E+01
    -13.520 -0.1991E-01  0.1988E+01
    -13.391  0.1285E+02  0.3637E+01
    -13.263  0.3117E+01  0.4037E+01
    -13.135 -0.2896E+00  0.4000E+01
    -13.006 -0.1623E-02  0.4000E+01
    -12.878 -0.2252E-06  0.4000E+01
    -12.749 -0.1014E-11  0.4000E+01
    -12.621  0.0000E+00  0.4000E+01
    -12.493  0.0000E+00  0.4000E+01
    -12.364  0.0000E+00  0.4000E+01
    -12.236  0.0000E+00  0.4000E+01
    -12.108  0.0000E+00  0.4000E+01
    -11.979  0.0000E+00  0.4000E+01
    -11.851  0.0000E+00  0.4000E+01
    -11.723  0.0000E+00  0.4000E+01
    -11.594  0.0000E+00  0.4000E+01
    -11.466 -0.3103E-30  0.4000E+01
    -11.337 -0.2163E-21  0.4000E+01
    -11.209 -0.5415E-14  0.4000E+01
    -11.081 -0.4593E-08  0.4000E+01
    -10.952 -0.1346E-03  0.4000E+01
    -10.824 -0.1159E+00  0.3985E+01
    -10.696 -0.4080E+00  0.3933E+01
    -10.567  0.2474E+02  0.7108E+01
    -10.439  0.7620E+01  0.8086E+01
    -10.311 -0.6660E+00  0.8001E+01
    -10.182 -0.4586E-02  0.8000E+01
    -10.054 -0.7555E-06  0.8000E+01
     -9.925 -0.4020E-11  0.8000E+01
     -9.797  0.0000E+00  0.8000E+01
     -9.669  0.0000E+00  0.8000E+01
     -9.540  0.0000E+00  0.8000E+01
     -9.412 -0.1899E-32  0.8000E+01
     -9.284 -0.2546E-23  0.8000E+01
     -9.155 -0.1229E-15  0.8000E+01
     -9.027 -0.2025E-09  0.8000E+01
     -8.898 -0.1165E-04  0.8000E+01
     -8.770 -0.2057E-01  0.7997E+01
     -8.642 -0.5282E+00  0.7930E+01
     -8.513  0.9611E+01  0.9163E+01
     -8.385  0.7023E+01  0.1006E+02
     -8.257 -0.4973E+00  0.1000E+02
     -8.128 -0.8388E-02  0.1000E+02
     -8.000 -0.2767E-05  0.1000E+02
     -7.872 -0.2875E-10  0.1000E+02
     -7.743  0.0000E+00  0.1000E+02
     -7.615  0.0000E+00  0.1000E+02
     -7.486  0.0000E+00  0.1000E+02
     -7.358  0.0000E+00  0.1000E+02
     -7.230  0.0000E+00  0.1000E+02
     -7.101  0.0000E+00  0.1000E+02
     -6.973  0.0000E+00  0.1000E+02
     -6.845  0.0000E+00  0.1000E+02
     -6.716  0.0000E+00  0.1000E+02
     -6.588  0.0000E+00  0.1000E+02
     -6.459  0.0000E+00  0.1000E+02
     -6.331  0.0000E+00  0.1000E+02
     -6.203  0.0000E+00  0.1000E+02
     -6.074  0.0000E+00  0.1000E+02
     -5.946  0.0000E+00  0.1000E+02
     -5.818  0.0000E+00  0.1000E+02
     -5.689  0.0000E+00  0.1000E+02
     -5.561  0.0000E+00  0.1000E+02
     -5.433  0.0000E+00  0.1000E+02
     -5.304  0.0000E+00  0.1000E+02
     -5.176  0.0000E+00  0.1000E+02
     -5.047  0.0000E+00  0.1000E+02
     -4.919  0.0000E+00  0.1000E+02
     -4.791  0.0000E+00  0.1000E+02
     -4.662  0.0000E+00  0.1000E+02
     -4.534  0.0000E+00  0.1000E+02
     -4.406  0.0000E+00  0.1000E+02
     -4.277  0.0000E+00  0.1000E+02
     -4.149  0.0000E+00  0.1000E+02
     -4.020  0.0000E+00  0.1000E+02
     -3.892  0.0000E+00  0.1000E+02
     -3.764  0.0000E+00  0.1000E+02
     -3.635  0.0000E+00  0.1000E+02
     -3.507  0.0000E+00  0.1000E+02
     -3.379  0.0000E+00  0.1000E+02
     -3.250  0.0000E+00  0.1000E+02
     -3.122  0.0000E+00  0.1000E+02
     -2.994  0.0000E+00  0.1000E+02
     -2.865  0.0000E+00  0.1000E+02
     -2.737 -0.9545E-28  0.1000E+02
     -2.608 -0.2755E-19  0.1000E+02
     -2.480 -0.2759E-12  0.1000E+02
     -2.352 -0.9833E-07  0.1000E+02
     -2.223 -0.1154E-02  0.1000E+02
     -2.095 -0.3623E+00  0.9953E+01
     -1.967  0.2954E+01  0.1033E+02
     -1.838  0.2722E+02  0.1383E+02
     -1.710  0.1624E+01  0.1403E+02
     -1.581 -0.2698E+00  0.1400E+02
     -1.453 -0.6396E-03  0.1400E+02
     -1.325 -0.4187E-07  0.1400E+02
     -1.196 -0.8995E-13  0.1400E+02
     -1.068 -0.1872E-30  0.1400E+02
     -0.940 -0.1268E-21  0.1400E+02
     -0.811 -0.3087E-14  0.1400E+02
     -0.683 -0.2543E-08  0.1400E+02
     -0.555 -0.7241E-04  0.1400E+02
     -0.426 -0.6038E-01  0.1399E+02
     -0.298 -0.1756E+00  0.1397E+02
     -0.169  0.1246E+02  0.1557E+02
     -0.041  0.3686E+01  0.1604E+02
      0.087 -0.3253E+00  0.1600E+02
      0.216 -0.2161E-02  0.1600E+02
      0.344 -0.3455E-06  0.1600E+02
      0.472 -0.1789E-11  0.1600E+02
      0.601  0.0000E+00  0.1600E+02
      0.729  0.0000E+00  0.1600E+02
      0.857  0.0000E+00  0.1600E+02
      0.986  0.0000E+00  0.1600E+02
      1.114  0.0000E+00  0.1600E+02
      1.243  0.0000E+00  0.1600E+02
      1.371  0.0000E+00  0.1600E+02
      1.499  0.0000E+00  0.1600E+02
      1.628  0.0000E+00  0.1600E+02
      1.756  0.0000E+00  0.1600E+02
      1.884  0.0000E+00  0.1600E+02
      2.013  0.0000E+00  0.1600E+02
      2.141 -0.5334E-26  0.1600E+02
      2.270 -0.7233E-18  0.1600E+02
      2.398 -0.3385E-11  0.1600E+02
      2.526 -0.5602E-06  0.1600E+02
      2.655 -0.3014E-02  0.1600E+02
      2.783 -0.4105E+00  0.1595E+02
      2.911  0.4017E+01  0.1646E+02
      3.040  0.2361E+02  0.1949E+02
      3.168  0.4387E+01  0.2006E+02
      3.296 -0.4351E+00  0.2000E+02
      3.425 -0.3944E+00  0.1995E+02
      3.553  0.2866E+01  0.2032E+02
      3.682  0.3276E+02  0.2452E+02
      3.810  0.1225E+02  0.2610E+02
      3.938 -0.7126E+00  0.2600E+02
      4.067 -0.3273E-01  0.2600E+02
      4.195 -0.2452E-04  0.2600E+02
      4.323 -0.5624E-09  0.2600E+02
      4.452 -0.1354E-14  0.2600E+02
      4.580 -0.1336E-08  0.2600E+02
      4.709 -0.4569E-04  0.2600E+02
      4.837 -0.4639E-01  0.2599E+02
      4.965 -0.3307E+00  0.2595E+02
      5.094  0.1185E+02  0.2747E+02
      5.222  0.4489E+01  0.2805E+02
      5.350 -0.3735E+00  0.2800E+02
      5.479 -0.3120E-02  0.2800E+02
      5.607 -0.6014E-06  0.2800E+02
      5.735 -0.4739E-08  0.2800E+02
      5.864 -0.1126E-03  0.2800E+02
      5.992 -0.7730E-01  0.2799E+02
      6.121  0.3162E-01  0.2799E+02
      6.249  0.1295E+02  0.2966E+02
      6.377  0.2960E+01  0.3004E+02
      6.506 -0.2796E+00  0.3000E+02
      6.634 -0.1493E-02  0.3000E+02
      6.762 -0.3427E-06  0.3000E+02
      6.891 -0.1201E-02  0.3000E+02
      7.019 -0.2544E+00  0.2997E+02
      7.148  0.2572E+01  0.3030E+02
      7.276  0.1317E+02  0.3199E+02
      7.404  0.1785E+00  0.3201E+02
      7.533 -0.8866E-01  0.3200E+02
      7.661 -0.1447E-03  0.3200E+02
      7.789 -0.6747E-08  0.3200E+02
      7.918 -0.1038E-13  0.3200E+02
      8.046  0.0000E+00  0.3200E+02
      8.174  0.0000E+00  0.3200E+02
      8.303  0.0000E+00  0.3200E+02
      8.431  0.0000E+00  0.3200E+02
      8.560  0.0000E+00  0.3200E+02
      8.688  0.0000E+00  0.3200E+02
      8.816  0.0000E+00  0.3200E+02
      8.945  0.0000E+00  0.3200E+02
