    2    2    1    1
  0.1080000E+03  0.6000000E-09  0.6000000E-09  0.6000000E-09  0.5000000E-15
  1.000000000000000E-004
  CAR 
 unknown system                          
     10      1     16
 
  0.0000000E+00  0.0000000E+00  0.0000000E+00  0.1000000E+01
    1      -27.815205   1.000000
    2      -13.432635   1.000000
    3      -10.602236   1.000000
    4      -10.602236   1.000000
    5       -8.523061   1.000000
    6       -1.907302   0.000000
    7       -1.907302   0.000000
    8       -0.205541   0.000000
    9        2.941517   0.000000
   10        3.012237   0.000000
   11        3.610291   0.000000
   12        3.610291   0.000000
   13        3.701754   0.000000
   14        5.064391   0.000000
   15        6.206129   0.000000
   16        7.194189   0.000000
