<?xml version="1.0" encoding="ISO-8859-1"?>
<modeling>
 <generator>
  <i name="program" type="string">vasp </i>
  <i name="version" type="string">5.4.1  </i>
  <i name="subversion" type="string">05Feb16 (build Feb 08 2018 09:21:51) complex                          parallel </i>
  <i name="platform" type="string">LinuxIFC </i>
  <i name="date" type="string">2019 10 28 </i>
  <i name="time" type="string">15:46:48 </i>
 </generator>
 <incar>
  <i type="string" name="PREC">normal</i>
  <i name="ENCUT">    350.00000000</i>
  <i type="int" name="ISMEAR">     1</i>
  <i name="SIGMA">      0.10000000</i>
  <i type="logical" name="LWAVE"> F  </i>
  <i type="logical" name="LCHARG"> F  </i>
  <v type="int" name="KPOINT_BSE">    -1     0     0     0</v>
 </incar>
 <kpoints>
  <generation param="Monkhorst-Pack">
   <v type="int" name="divisions">       1        1        1 </v>
   <v name="usershift">      0.00000000       0.00000000       0.00000000 </v>
   <v name="genvec1">      1.00000000       0.00000000       0.00000000 </v>
   <v name="genvec2">      0.00000000       1.00000000       0.00000000 </v>
   <v name="genvec3">      0.00000000       0.00000000       1.00000000 </v>
   <v name="shift">      0.00000000       0.00000000       0.00000000 </v>
  </generation>
  <varray name="kpointlist" >
   <v>       0.00000000       0.00000000       0.00000000 </v>
  </varray>
  <varray name="weights" >
   <v>       1.00000000 </v>
  </varray>
 </kpoints>
 <parameters>
  <separator name="general" >
   <i type="string" name="SYSTEM">unknown system</i>
   <i type="logical" name="LCOMPAT"> F  </i>
  </separator>
  <separator name="electronic" >
   <i type="string" name="PREC">normal</i>
   <i name="ENMAX">    350.00000000</i>
   <i name="ENAUG">    644.87300000</i>
   <i name="EDIFF">      0.00010000</i>
   <i type="int" name="IALGO">    38</i>
   <i type="int" name="IWAVPR">    10</i>
   <i type="int" name="NBANDS">    16</i>
   <i name="NELECT">     10.00000000</i>
   <i type="int" name="TURBO">     0</i>
   <i type="int" name="IRESTART">     0</i>
   <i type="int" name="NREBOOT">     0</i>
   <i type="int" name="NMIN">     0</i>
   <i name="EREF">      0.00000000</i>
   <separator name="electronic smearing" >
    <i type="int" name="ISMEAR">     1</i>
    <i name="SIGMA">      0.10000000</i>
    <i name="KSPACING">      0.50000000</i>
    <i type="logical" name="KGAMMA"> T  </i>
   </separator>
   <separator name="electronic projectors" >
    <i type="logical" name="LREAL"> F  </i>
    <v name="ROPT">      0.00000000      0.00000000</v>
    <i type="int" name="LMAXPAW">  -100</i>
    <i type="int" name="LMAXMIX">     2</i>
    <i type="logical" name="NLSPLINE"> F  </i>
   </separator>
   <separator name="electronic startup" >
    <i type="int" name="ISTART">     0</i>
    <i type="int" name="ICHARG">     2</i>
    <i type="int" name="INIWAV">     1</i>
   </separator>
   <separator name="electronic spin" >
    <i type="int" name="ISPIN">     1</i>
    <i type="logical" name="LNONCOLLINEAR"> F  </i>
    <v name="MAGMOM">      1.00000000      1.00000000</v>
    <i name="NUPDOWN">     -1.00000000</i>
    <i type="logical" name="LSORBIT"> F  </i>
    <v name="SAXIS">      0.00000000      0.00000000      1.00000000</v>
    <i type="logical" name="LSPIRAL"> F  </i>
    <v name="QSPIRAL">      0.00000000      0.00000000      0.00000000</v>
    <i type="logical" name="LZEROZ"> F  </i>
   </separator>
   <separator name="electronic exchange-correlation" >
    <i type="logical" name="LASPH"> F  </i>
    <i type="logical" name="LMETAGGA"> F  </i>
   </separator>
   <separator name="electronic convergence" >
    <i type="int" name="NELM">    60</i>
    <i type="int" name="NELMDL">    -5</i>
    <i type="int" name="NELMIN">     2</i>
    <i name="ENINI">    350.00000000</i>
    <separator name="electronic convergence detail" >
     <i type="logical" name="LDIAG"> T  </i>
     <i type="logical" name="LSUBROT"> F  </i>
     <i name="WEIMIN">      0.00000000</i>
     <i name="EBREAK">      0.00000156</i>
     <i name="DEPER">      0.30000000</i>
     <i type="int" name="NRMM">     4</i>
     <i name="TIME">      0.40000000</i>
    </separator>
   </separator>
   <separator name="electronic mixer" >
    <i name="AMIX">      0.40000000</i>
    <i name="BMIX">      1.00000000</i>
    <i name="AMIN">      0.10000000</i>
    <i name="AMIX_MAG">      1.60000000</i>
    <i name="BMIX_MAG">      1.00000000</i>
    <separator name="electronic mixer details" >
     <i type="int" name="IMIX">     4</i>
     <i type="logical" name="MIXFIRST"> F  </i>
     <i type="int" name="MAXMIX">   -45</i>
     <i name="WC">    100.00000000</i>
     <i type="int" name="INIMIX">     1</i>
     <i type="int" name="MIXPRE">     1</i>
     <i type="int" name="MREMOVE">     5</i>
    </separator>
   </separator>
   <separator name="electronic dipolcorrection" >
    <i type="logical" name="LDIPOL"> F  </i>
    <i type="logical" name="LMONO"> F  </i>
    <i type="int" name="IDIPOL">     0</i>
    <i name="EPSILON">      1.00000000</i>
    <v name="DIPOL">   -100.00000000   -100.00000000   -100.00000000</v>
    <i name="EFIELD">      0.00000000</i>
   </separator>
  </separator>
  <separator name="grids" >
   <i type="int" name="NGX">    28</i>
   <i type="int" name="NGY">    28</i>
   <i type="int" name="NGZ">    28</i>
   <i type="int" name="NGXF">    56</i>
   <i type="int" name="NGYF">    56</i>
   <i type="int" name="NGZF">    56</i>
   <i type="logical" name="ADDGRID"> F  </i>
  </separator>
  <separator name="ionic" >
   <i type="int" name="NSW">     0</i>
   <i type="int" name="IBRION">    -1</i>
   <i type="int" name="ISIF">     2</i>
   <i name="PSTRESS">      0.00000000</i>
   <i name="EDIFFG">      0.00100000</i>
   <i type="int" name="NFREE">     0</i>
   <i name="POTIM">      0.50000000</i>
   <i name="SMASS">     -3.00000000</i>
   <i name="SCALEE">      1.00000000</i>
  </separator>
  <separator name="ionic md" >
   <i name="TEBEG">      0.00010000</i>
   <i name="TEEND">      0.00010000</i>
   <i type="int" name="NBLOCK">     1</i>
   <i type="int" name="KBLOCK">     1</i>
   <i type="int" name="NPACO">   256</i>
   <i name="APACO">     16.00000000</i>
  </separator>
  <separator name="symmetry" >
   <i type="int" name="ISYM">     2</i>
   <i name="SYMPREC">      0.00001000</i>
  </separator>
  <separator name="dos" >
   <i type="logical" name="LORBIT"> F  </i>
   <v name="RWIGS">     -1.00000000     -1.00000000</v>
   <i type="int" name="NEDOS">   301</i>
   <i name="EMIN">     10.00000000</i>
   <i name="EMAX">    -10.00000000</i>
   <i name="EFERMI">      0.00000000</i>
  </separator>
  <separator name="writing" >
   <i type="int" name="NWRITE">     2</i>
   <i type="logical" name="LWAVE"> F  </i>
   <i type="logical" name="LCHARG"> F  </i>
   <i type="logical" name="LPARD"> F  </i>
   <i type="logical" name="LVTOT"> F  </i>
   <i type="logical" name="LVHAR"> F  </i>
   <i type="logical" name="LELF"> F  </i>
   <i type="logical" name="LOPTICS"> F  </i>
   <v name="STM">      0.00000000      0.00000000      0.00000000      0.00000000      0.00000000      0.00000000      0.00000000</v>
  </separator>
  <separator name="performance" >
   <i type="int" name="NPAR">     8</i>
   <i type="int" name="NSIM">     4</i>
   <i type="int" name="NBLK">    -1</i>
   <i type="logical" name="LPLANE"> T  </i>
   <i type="logical" name="LSCALAPACK"> F  </i>
   <i type="logical" name="LSCAAWARE"> F  </i>
   <i type="logical" name="LSCALU"> F  </i>
   <i type="logical" name="LASYNC"> F  </i>
   <i type="logical" name="LORBITALREAL"> F  </i>
  </separator>
  <separator name="miscellaneous" >
   <i type="int" name="IDIOT">     3</i>
   <i type="logical" name="LMUSIC"> F  </i>
   <v name="POMASS">     12.01100000     16.00000000</v>
   <v name="DARWINR">      0.00000000      0.00000000</v>
   <v name="DARWINV">      1.00000000      1.00000000</v>
   <i type="logical" name="LCORR"> T  </i>
  </separator>
  <i type="logical" name="GGA_COMPAT"> T  </i>
  <i type="logical" name="LBERRY"> F  </i>
  <i type="int" name="ICORELEVEL">     0</i>
  <i type="logical" name="LDAU"> F  </i>
  <i type="int" name="I_CONSTRAINED_M">     0</i>
  <separator name="electronic exchange-correlation" >
   <i type="string" name="GGA">--</i>
   <i type="int" name="VOSKOWN">     0</i>
   <i type="logical" name="LHFCALC"> F  </i>
   <i type="string" name="PRECFOCK"></i>
   <i type="logical" name="LSYMGRAD"> F  </i>
   <i type="logical" name="LHFONE"> F  </i>
   <i type="logical" name="LRHFCALC"> F  </i>
   <i type="logical" name="LTHOMAS"> F  </i>
   <i type="logical" name="LMODELHF"> F  </i>
   <i name="ENCUT4O">     -1.00000000</i>
   <i type="int" name="EXXOEP">     0</i>
   <i type="int" name="FOURORBIT">     0</i>
   <i name="AEXX">      0.00000000</i>
   <i name="HFALPHA">      0.00000000</i>
   <i name="MCALPHA">      0.00000000</i>
   <i name="ALDAX">      1.00000000</i>
   <i name="AGGAX">      1.00000000</i>
   <i name="ALDAC">      1.00000000</i>
   <i name="AGGAC">      1.00000000</i>
   <i type="int" name="NKREDX">     1</i>
   <i type="int" name="NKREDY">     1</i>
   <i type="int" name="NKREDZ">     1</i>
   <i type="logical" name="SHIFTRED"> F  </i>
   <i type="logical" name="ODDONLY"> F  </i>
   <i type="logical" name="EVENONLY"> F  </i>
   <i type="int" name="LMAXFOCK">     0</i>
   <i type="int" name="NMAXFOCKAE">     0</i>
   <i type="logical" name="LFOCKAEDFT"> F  </i>
   <i name="HFSCREEN">      0.00000000</i>
   <i name="HFSCREENC">      0.00000000</i>
   <i type="int" name="NBANDSGWLOW">     0</i>
  </separator>
  <separator name="vdW DFT" >
   <i type="logical" name="LUSE_VDW"> F  </i>
   <i name="Zab_VDW">     -0.84910000</i>
   <i name="PARAM1">      0.12340000</i>
   <i name="PARAM2">      1.00000000</i>
   <i name="PARAM3">      0.00000000</i>
  </separator>
  <separator name="model GW" >
   <i type="int" name="MODEL_GW">     0</i>
   <i name="MODEL_EPS0">     64.80000000</i>
   <i name="MODEL_ALPHA">      1.00000000</i>
  </separator>
  <separator name="linear response parameters" >
   <i type="logical" name="LEPSILON"> F  </i>
   <i type="logical" name="LRPA"> F  </i>
   <i type="logical" name="LNABLA"> F  </i>
   <i type="logical" name="LVEL"> F  </i>
   <i type="int" name="KINTER">     0</i>
   <i name="CSHIFT">      0.10000000</i>
   <i name="OMEGAMAX">     -1.00000000</i>
   <i name="DEG_THRESHOLD">      0.00200000</i>
  </separator>
  <separator name="orbital magnetization" >
   <i type="logical" name="NUCIND"> F  </i>
   <v name="MAGPOS">      0.00000000      0.00000000      0.00000000</v>
   <i type="logical" name="LNICSALL"> T  </i>
   <i type="logical" name="ORBITALMAG"> F  </i>
   <i type="logical" name="LMAGBLOCH"> F  </i>
   <i type="logical" name="LCHIMAG"> F  </i>
   <i type="logical" name="LGAUGE"> T  </i>
   <i type="int" name="MAGATOM">     0</i>
   <v name="MAGDIPOL">      0.00000000      0.00000000      0.00000000</v>
   <v name="AVECCONST">      0.00000000      0.00000000      0.00000000</v>
  </separator>
  <separator name="response functions" >
   <i type="logical" name="LADDER"> F  </i>
   <i type="logical" name="LFXC"> F  </i>
   <i type="logical" name="LHARTREE"> T  </i>
   <i type="int" name="IBSE">     0</i>
   <v type="int" name="KPOINT">    -1     0     0     0</v>
   <i type="logical" name="LTCTE"> F  </i>
   <i type="logical" name="LTETE"> F  </i>
   <i type="logical" name="LTRIPLET"> F  </i>
   <i type="logical" name="LFXCEPS"> F  </i>
   <i type="logical" name="LFXHEG"> F  </i>
   <i type="int" name="NATURALO">     0</i>
   <i type="logical" name="L2ORDER"> F  </i>
   <i type="logical" name="LUSEW"> F  </i>
   <i name="ENCUTGW">     -2.00000000</i>
   <i name="ENCUTGWSOFT">     -2.00000000</i>
   <i name="ENCUTLF">     -1.00000000</i>
   <i type="int" name="LMAXMP2">    -1</i>
   <i name="SCISSOR">      0.00000000</i>
   <i type="int" name="NOMEGA">     0</i>
   <i type="int" name="NOMEGAR">     0</i>
   <i type="int" name="NBANDSGW">    -1</i>
   <i type="int" name="NBANDSO">    -1</i>
   <i type="int" name="NBANDSV">    -1</i>
   <i type="int" name="NELM">     1</i>
   <i type="int" name="NELMHF">     1</i>
   <i type="int" name="DIM">     3</i>
   <i type="int" name="ANTIRES">     0</i>
   <i name="OMEGAMAX">    -30.00000000</i>
   <i name="OMEGAMIN">    -30.00000000</i>
   <i name="OMEGATL">   -200.00000000</i>
   <i type="int" name="OMEGAGRID">     0</i>
   <i name="CSHIFT">     -0.10000000</i>
   <i type="logical" name="SELFENERGY"> F  </i>
   <i type="logical" name="LSPECTRAL"> F  </i>
   <i type="logical" name="LSPECTRALGW"> F  </i>
   <i type="logical" name="LSINGLES"> F  </i>
   <i type="logical" name="LFERMIGW"> F  </i>
   <i type="logical" name="ODDONLYGW"> F  </i>
   <i type="logical" name="EVENONLYGW"> F  </i>
   <i type="int" name="NKREDLFX">     1</i>
   <i type="int" name="NKREDLFY">     1</i>
   <i type="int" name="NKREDLFZ">     1</i>
   <i type="int" name="MAXMEM">  1800</i>
   <i type="int" name="TELESCOPE">     0</i>
   <i type="int" name="TAUPAR">     1</i>
   <i type="int" name="OMEGAPAR">    -1</i>
   <i name="LAMBDA">      1.00000000</i>
  </separator>
  <separator name="External order field" >
   <i name="OFIELD_KAPPA">      0.00000000</i>
   <v name="OFIELD_K">      0.00000000      0.00000000      0.00000000</v>
   <i name="OFIELD_Q6_NEAR">      0.00000000</i>
   <i name="OFIELD_Q6_FAR">      0.00000000</i>
   <i name="OFIELD_A">      0.00000000</i>
  </separator>
 </parameters>
 <atominfo>
  <atoms>       2 </atoms>
  <types>       2 </types>
  <array name="atoms" >
   <dimension dim="1">ion</dimension>
   <field type="string">element</field>
   <field type="int">atomtype</field>
   <set>
    <rc><c>C </c><c>   1</c></rc>
    <rc><c>O </c><c>   2</c></rc>
   </set>
  </array>
  <array name="atomtypes" >
   <dimension dim="1">type</dimension>
   <field type="int">atomspertype</field>
   <field type="string">element</field>
   <field>mass</field>
   <field>valence</field>
   <field type="string">pseudopotential</field>
   <set>
    <rc><c>   1</c><c>C </c><c>     12.01100000</c><c>      4.00000000</c><c>  PAW_PBE C 08Apr2002                   </c></rc>
    <rc><c>   1</c><c>O </c><c>     16.00000000</c><c>      6.00000000</c><c>  PAW_PBE O 08Apr2002                   </c></rc>
   </set>
  </array>
 </atominfo>
 <structure name="initialpos" >
  <crystal>
   <varray name="basis" >
    <v>       6.00000000       0.00000000       0.00000000 </v>
    <v>       0.00000000       6.00000000       0.00000000 </v>
    <v>       0.00000000       0.00000000       6.00000000 </v>
   </varray>
   <i name="volume">    216.00000000 </i>
   <varray name="rec_basis" >
    <v>       0.16666667       0.00000000       0.00000000 </v>
    <v>       0.00000000       0.16666667       0.00000000 </v>
    <v>       0.00000000       0.00000000       0.16666667 </v>
   </varray>
  </crystal>
  <varray name="positions" >
   <v>       0.40000000       0.50000000       0.50000000 </v>
   <v>       0.60000000       0.50000000       0.50000000 </v>
  </varray>
 </structure>
 <calculation>
  <scstep>
   <time name="dav">    1.18    1.81</time>
   <time name="total">    2.06    3.12</time>
   <energy>
    <i name="alphaZ">      2.02295162 </i>
    <i name="ewald">    -47.36045935 </i>
    <i name="hartreedc">   -427.92920201 </i>
    <i name="XCdc">     38.95318195 </i>
    <i name="pawpsdc">    455.07152327 </i>
    <i name="pawaedc">   -457.43959975 </i>
    <i name="eentropy">      0.00579791 </i>
    <i name="bandstr">    -80.48225485 </i>
    <i name="atom">    579.07123046 </i>
    <i name="e_fr_energy">     61.91316926 </i>
    <i name="e_wo_entrp">     61.90737135 </i>
    <i name="e_0_energy">     61.91123662 </i>
   </energy>
  </scstep>
  <scstep>
   <time name="dav">    0.92    1.22</time>
   <time name="total">    0.97    1.29</time>
   <energy>
    <i name="e_fr_energy">     -6.50666088 </i>
    <i name="e_wo_entrp">     -6.51245879 </i>
    <i name="e_0_energy">     -6.50859352 </i>
   </energy>
  </scstep>
  <scstep>
   <time name="dav">    1.07    1.14</time>
   <time name="total">    1.08    1.14</time>
   <energy>
    <i name="e_fr_energy">    -15.20363010 </i>
    <i name="e_wo_entrp">    -15.20942801 </i>
    <i name="e_0_energy">    -15.20556274 </i>
   </energy>
  </scstep>
  <scstep>
   <time name="dav">    0.37    0.37</time>
   <time name="total">    0.37    0.38</time>
   <energy>
    <i name="e_fr_energy">    -15.28363040 </i>
    <i name="e_wo_entrp">    -15.28942830 </i>
    <i name="e_0_energy">    -15.28556303 </i>
   </energy>
  </scstep>
  <scstep>
   <time name="dav">    0.50    0.85</time>
   <time name="total">    0.64    1.07</time>
   <energy>
    <i name="e_fr_energy">    -15.28435847 </i>
    <i name="e_wo_entrp">    -15.29015638 </i>
    <i name="e_0_energy">    -15.28629111 </i>
   </energy>
  </scstep>
  <scstep>
   <time name="dav">    1.52    1.79</time>
   <time name="total">    2.73    3.10</time>
   <energy>
    <i name="e_fr_energy">    -14.82747622 </i>
    <i name="e_wo_entrp">    -14.83327412 </i>
    <i name="e_0_energy">    -14.82940885 </i>
   </energy>
  </scstep>
  <scstep>
   <time name="dav">    1.06    1.25</time>
   <time name="total">    2.20    2.91</time>
   <energy>
    <i name="e_fr_energy">    -14.71965345 </i>
    <i name="e_wo_entrp">    -14.72545136 </i>
    <i name="e_0_energy">    -14.72158609 </i>
   </energy>
  </scstep>
  <scstep>
   <time name="dav">    0.54    0.80</time>
   <time name="total">    1.07    1.60</time>
   <energy>
    <i name="e_fr_energy">    -14.68393020 </i>
    <i name="e_wo_entrp">    -14.68972811 </i>
    <i name="e_0_energy">    -14.68586284 </i>
   </energy>
  </scstep>
  <scstep>
   <time name="dav">    0.94    1.55</time>
   <time name="total">    1.38    2.25</time>
   <energy>
    <i name="e_fr_energy">    -14.68368222 </i>
    <i name="e_wo_entrp">    -14.68948013 </i>
    <i name="e_0_energy">    -14.68561486 </i>
   </energy>
  </scstep>
  <scstep>
   <time name="dav">    0.62    0.81</time>
   <time name="total">    1.45    1.82</time>
   <energy>
    <i name="e_fr_energy">    -14.68436252 </i>
    <i name="e_wo_entrp">    -14.69016043 </i>
    <i name="e_0_energy">    -14.68629516 </i>
   </energy>
  </scstep>
  <scstep>
   <time name="dav">    3.45    4.46</time>
   <time name="total">    6.34    8.30</time>
   <energy>
    <i name="e_fr_energy">    -14.68520805 </i>
    <i name="e_wo_entrp">    -14.69100596 </i>
    <i name="e_0_energy">    -14.68714068 </i>
   </energy>
  </scstep>
  <scstep>
   <time name="dav">    0.23    0.26</time>
   <time name="total">    1.56    1.94</time>
   <energy>
    <i name="e_fr_energy">    -14.68548709 </i>
    <i name="e_wo_entrp">    -14.69128499 </i>
    <i name="e_0_energy">    -14.68741972 </i>
   </energy>
  </scstep>
  <scstep>
   <time name="dav">    0.77    1.08</time>
   <time name="total">    1.18    1.64</time>
   <energy>
    <i name="alphaZ">      2.02295162 </i>
    <i name="ewald">    -47.36045935 </i>
    <i name="hartreedc">   -444.13924999 </i>
    <i name="XCdc">     39.93753559 </i>
    <i name="pawpsdc">    789.28710321 </i>
    <i name="pawaedc">   -791.55973893 </i>
    <i name="eentropy">      0.00579791 </i>
    <i name="bandstr">   -141.95074391 </i>
    <i name="atom">    579.07123046 </i>
    <i name="e_fr_energy">    -14.68557340 </i>
    <i name="e_wo_entrp">    -14.69137130 </i>
    <i name="e_0_energy">    -14.68750603 </i>
   </energy>
  </scstep>
  <structure>
   <crystal>
    <varray name="basis" >
     <v>       6.00000000       0.00000000       0.00000000 </v>
     <v>       0.00000000       6.00000000       0.00000000 </v>
     <v>       0.00000000       0.00000000       6.00000000 </v>
    </varray>
    <i name="volume">    216.00000000 </i>
    <varray name="rec_basis" >
     <v>       0.16666667       0.00000000       0.00000000 </v>
     <v>       0.00000000       0.16666667       0.00000000 </v>
     <v>       0.00000000       0.00000000       0.16666667 </v>
    </varray>
   </crystal>
   <varray name="positions" >
    <v>       0.40000000       0.50000000       0.50000000 </v>
    <v>       0.60000000       0.50000000       0.50000000 </v>
   </varray>
  </structure>
  <varray name="forces" >
   <v>       5.09691558       0.00000000      -0.00000000 </v>
   <v>      -5.09691558       0.00000000       0.00000000 </v>
  </varray>
  <varray name="stress" >
   <v>     -66.57639474      -0.00000000       0.00000000 </v>
   <v>       0.00000000     -17.64061119       0.00000000 </v>
   <v>       0.00000000       0.00000000     -17.64061119 </v>
  </varray>
  <energy>
   <i name="e_fr_energy">    -14.68557340 </i>
   <i name="e_wo_entrp">    -14.68750603 </i>
   <i name="e_0_energy">      0.00579791 </i>
  </energy>
  <time name="totalsc">   24.48   32.71</time>
  <eigenvalues>
   <array>
    <dimension dim="1">band</dimension>
    <dimension dim="2">kpoint</dimension>
    <dimension dim="3">spin</dimension>
    <field>eigene</field>
    <field>occ</field>
    <set>
     <set comment="spin 1">
      <set comment="kpoint 1">
       <r>  -27.8152    1.0000 </r>
       <r>  -13.4326    1.0000 </r>
       <r>  -10.6022    1.0000 </r>
       <r>  -10.6022    1.0000 </r>
       <r>   -8.5231    1.0000 </r>
       <r>   -1.9073    0.0000 </r>
       <r>   -1.9073    0.0000 </r>
       <r>   -0.2055    0.0000 </r>
       <r>    2.9415    0.0000 </r>
       <r>    3.0122    0.0000 </r>
       <r>    3.6103    0.0000 </r>
       <r>    3.6103    0.0000 </r>
       <r>    3.7018    0.0000 </r>
       <r>    5.0644    0.0000 </r>
       <r>    6.2061    0.0000 </r>
       <r>    7.1942    0.0000 </r>
      </set>
     </set>
    </set>
   </array>
  </eigenvalues>
  <separator name="orbital magnetization" >
   <v name="MAGDIPOLOUT">      0.00000000      0.00000000      0.00000000</v>
  </separator>
  <dos>
   <i name="efermi">     -8.43887269 </i>
   <total>
    <array>
     <dimension dim="1">gridpoints</dimension>
     <dimension dim="2">spin</dimension>
     <field>energy</field>
     <field>total</field>
     <field>integrated</field>
     <set>
      <set comment="spin 1">
       <r>   -29.5657     0.0000     0.0000 </r>
       <r>   -29.4373     0.0000     0.0000 </r>
       <r>   -29.3089     0.0000     0.0000 </r>
       <r>   -29.1806     0.0000     0.0000 </r>
       <r>   -29.0522     0.0000     0.0000 </r>
       <r>   -28.9238     0.0000     0.0000 </r>
       <r>   -28.7955     0.0000     0.0000 </r>
       <r>   -28.6671    -0.0000    -0.0000 </r>
       <r>   -28.5387    -0.0000    -0.0000 </r>
       <r>   -28.4104    -0.0000    -0.0000 </r>
       <r>   -28.2820    -0.0000    -0.0000 </r>
       <r>   -28.1536    -0.0001    -0.0000 </r>
       <r>   -28.0253    -0.0887    -0.0114 </r>
       <r>   -27.8969     0.1785     0.0115 </r>
       <r>   -27.7685    13.1740     1.7026 </r>
       <r>   -27.6402     2.5721     2.0328 </r>
       <r>   -27.5118    -0.2544     2.0002 </r>
       <r>   -27.3834    -0.0012     2.0000 </r>
       <r>   -27.2551    -0.0000     2.0000 </r>
       <r>   -27.1267    -0.0000     2.0000 </r>
       <r>   -26.9983     0.0000     2.0000 </r>
       <r>   -26.8700     0.0000     2.0000 </r>
       <r>   -26.7416     0.0000     2.0000 </r>
       <r>   -26.6132     0.0000     2.0000 </r>
       <r>   -26.4848     0.0000     2.0000 </r>
       <r>   -26.3565     0.0000     2.0000 </r>
       <r>   -26.2281     0.0000     2.0000 </r>
       <r>   -26.0997     0.0000     2.0000 </r>
       <r>   -25.9714     0.0000     2.0000 </r>
       <r>   -25.8430     0.0000     2.0000 </r>
       <r>   -25.7146     0.0000     2.0000 </r>
       <r>   -25.5863     0.0000     2.0000 </r>
       <r>   -25.4579     0.0000     2.0000 </r>
       <r>   -25.3295     0.0000     2.0000 </r>
       <r>   -25.2012     0.0000     2.0000 </r>
       <r>   -25.0728     0.0000     2.0000 </r>
       <r>   -24.9444     0.0000     2.0000 </r>
       <r>   -24.8161     0.0000     2.0000 </r>
       <r>   -24.6877     0.0000     2.0000 </r>
       <r>   -24.5593     0.0000     2.0000 </r>
       <r>   -24.4310     0.0000     2.0000 </r>
       <r>   -24.3026     0.0000     2.0000 </r>
       <r>   -24.1742     0.0000     2.0000 </r>
       <r>   -24.0459     0.0000     2.0000 </r>
       <r>   -23.9175     0.0000     2.0000 </r>
       <r>   -23.7891     0.0000     2.0000 </r>
       <r>   -23.6608     0.0000     2.0000 </r>
       <r>   -23.5324     0.0000     2.0000 </r>
       <r>   -23.4040     0.0000     2.0000 </r>
       <r>   -23.2757     0.0000     2.0000 </r>
       <r>   -23.1473     0.0000     2.0000 </r>
       <r>   -23.0189     0.0000     2.0000 </r>
       <r>   -22.8905     0.0000     2.0000 </r>
       <r>   -22.7622     0.0000     2.0000 </r>
       <r>   -22.6338     0.0000     2.0000 </r>
       <r>   -22.5054     0.0000     2.0000 </r>
       <r>   -22.3771     0.0000     2.0000 </r>
       <r>   -22.2487     0.0000     2.0000 </r>
       <r>   -22.1203     0.0000     2.0000 </r>
       <r>   -21.9920     0.0000     2.0000 </r>
       <r>   -21.8636     0.0000     2.0000 </r>
       <r>   -21.7352     0.0000     2.0000 </r>
       <r>   -21.6069     0.0000     2.0000 </r>
       <r>   -21.4785     0.0000     2.0000 </r>
       <r>   -21.3501     0.0000     2.0000 </r>
       <r>   -21.2218     0.0000     2.0000 </r>
       <r>   -21.0934     0.0000     2.0000 </r>
       <r>   -20.9650     0.0000     2.0000 </r>
       <r>   -20.8367     0.0000     2.0000 </r>
       <r>   -20.7083     0.0000     2.0000 </r>
       <r>   -20.5799     0.0000     2.0000 </r>
       <r>   -20.4516     0.0000     2.0000 </r>
       <r>   -20.3232     0.0000     2.0000 </r>
       <r>   -20.1948     0.0000     2.0000 </r>
       <r>   -20.0665     0.0000     2.0000 </r>
       <r>   -19.9381     0.0000     2.0000 </r>
       <r>   -19.8097     0.0000     2.0000 </r>
       <r>   -19.6814     0.0000     2.0000 </r>
       <r>   -19.5530     0.0000     2.0000 </r>
       <r>   -19.4246     0.0000     2.0000 </r>
       <r>   -19.2963     0.0000     2.0000 </r>
       <r>   -19.1679     0.0000     2.0000 </r>
       <r>   -19.0395     0.0000     2.0000 </r>
       <r>   -18.9111     0.0000     2.0000 </r>
       <r>   -18.7828     0.0000     2.0000 </r>
       <r>   -18.6544     0.0000     2.0000 </r>
       <r>   -18.5260     0.0000     2.0000 </r>
       <r>   -18.3977     0.0000     2.0000 </r>
       <r>   -18.2693     0.0000     2.0000 </r>
       <r>   -18.1409     0.0000     2.0000 </r>
       <r>   -18.0126     0.0000     2.0000 </r>
       <r>   -17.8842     0.0000     2.0000 </r>
       <r>   -17.7558     0.0000     2.0000 </r>
       <r>   -17.6275     0.0000     2.0000 </r>
       <r>   -17.4991     0.0000     2.0000 </r>
       <r>   -17.3707     0.0000     2.0000 </r>
       <r>   -17.2424     0.0000     2.0000 </r>
       <r>   -17.1140     0.0000     2.0000 </r>
       <r>   -16.9856     0.0000     2.0000 </r>
       <r>   -16.8573     0.0000     2.0000 </r>
       <r>   -16.7289     0.0000     2.0000 </r>
       <r>   -16.6005     0.0000     2.0000 </r>
       <r>   -16.4722     0.0000     2.0000 </r>
       <r>   -16.3438     0.0000     2.0000 </r>
       <r>   -16.2154     0.0000     2.0000 </r>
       <r>   -16.0871     0.0000     2.0000 </r>
       <r>   -15.9587     0.0000     2.0000 </r>
       <r>   -15.8303     0.0000     2.0000 </r>
       <r>   -15.7020     0.0000     2.0000 </r>
       <r>   -15.5736     0.0000     2.0000 </r>
       <r>   -15.4452     0.0000     2.0000 </r>
       <r>   -15.3169     0.0000     2.0000 </r>
       <r>   -15.1885     0.0000     2.0000 </r>
       <r>   -15.0601     0.0000     2.0000 </r>
       <r>   -14.9317     0.0000     2.0000 </r>
       <r>   -14.8034     0.0000     2.0000 </r>
       <r>   -14.6750     0.0000     2.0000 </r>
       <r>   -14.5466     0.0000     2.0000 </r>
       <r>   -14.4183     0.0000     2.0000 </r>
       <r>   -14.2899    -0.0000     2.0000 </r>
       <r>   -14.1615    -0.0000     2.0000 </r>
       <r>   -14.0332    -0.0000     2.0000 </r>
       <r>   -13.9048    -0.0000     2.0000 </r>
       <r>   -13.7764    -0.0001     2.0000 </r>
       <r>   -13.6481    -0.0732     1.9906 </r>
       <r>   -13.5197    -0.0199     1.9880 </r>
       <r>   -13.3913    12.8481     3.6373 </r>
       <r>   -13.2630     3.1166     4.0374 </r>
       <r>   -13.1346    -0.2896     4.0002 </r>
       <r>   -13.0062    -0.0016     4.0000 </r>
       <r>   -12.8779    -0.0000     4.0000 </r>
       <r>   -12.7495    -0.0000     4.0000 </r>
       <r>   -12.6211     0.0000     4.0000 </r>
       <r>   -12.4928     0.0000     4.0000 </r>
       <r>   -12.3644     0.0000     4.0000 </r>
       <r>   -12.2360     0.0000     4.0000 </r>
       <r>   -12.1077     0.0000     4.0000 </r>
       <r>   -11.9793     0.0000     4.0000 </r>
       <r>   -11.8509     0.0000     4.0000 </r>
       <r>   -11.7226     0.0000     4.0000 </r>
       <r>   -11.5942     0.0000     4.0000 </r>
       <r>   -11.4658    -0.0000     4.0000 </r>
       <r>   -11.3374    -0.0000     4.0000 </r>
       <r>   -11.2091    -0.0000     4.0000 </r>
       <r>   -11.0807    -0.0000     4.0000 </r>
       <r>   -10.9523    -0.0001     4.0000 </r>
       <r>   -10.8240    -0.1159     3.9851 </r>
       <r>   -10.6956    -0.4080     3.9327 </r>
       <r>   -10.5672    24.7353     7.1080 </r>
       <r>   -10.4389     7.6197     8.0861 </r>
       <r>   -10.3105    -0.6660     8.0006 </r>
       <r>   -10.1821    -0.0046     8.0000 </r>
       <r>   -10.0538    -0.0000     8.0000 </r>
       <r>    -9.9254    -0.0000     8.0000 </r>
       <r>    -9.7970     0.0000     8.0000 </r>
       <r>    -9.6687     0.0000     8.0000 </r>
       <r>    -9.5403     0.0000     8.0000 </r>
       <r>    -9.4119    -0.0000     8.0000 </r>
       <r>    -9.2836    -0.0000     8.0000 </r>
       <r>    -9.1552    -0.0000     8.0000 </r>
       <r>    -9.0268    -0.0000     8.0000 </r>
       <r>    -8.8985    -0.0000     8.0000 </r>
       <r>    -8.7701    -0.0206     7.9974 </r>
       <r>    -8.6417    -0.5282     7.9296 </r>
       <r>    -8.5134     9.6115     9.1634 </r>
       <r>    -8.3850     7.0232    10.0649 </r>
       <r>    -8.2566    -0.4973    10.0011 </r>
       <r>    -8.1283    -0.0084    10.0000 </r>
       <r>    -7.9999    -0.0000    10.0000 </r>
       <r>    -7.8715    -0.0000    10.0000 </r>
       <r>    -7.7432     0.0000    10.0000 </r>
       <r>    -7.6148     0.0000    10.0000 </r>
       <r>    -7.4864     0.0000    10.0000 </r>
       <r>    -7.3580     0.0000    10.0000 </r>
       <r>    -7.2297     0.0000    10.0000 </r>
       <r>    -7.1013     0.0000    10.0000 </r>
       <r>    -6.9729     0.0000    10.0000 </r>
       <r>    -6.8446     0.0000    10.0000 </r>
       <r>    -6.7162     0.0000    10.0000 </r>
       <r>    -6.5878     0.0000    10.0000 </r>
       <r>    -6.4595     0.0000    10.0000 </r>
       <r>    -6.3311     0.0000    10.0000 </r>
       <r>    -6.2027     0.0000    10.0000 </r>
       <r>    -6.0744     0.0000    10.0000 </r>
       <r>    -5.9460     0.0000    10.0000 </r>
       <r>    -5.8176     0.0000    10.0000 </r>
       <r>    -5.6893     0.0000    10.0000 </r>
       <r>    -5.5609     0.0000    10.0000 </r>
       <r>    -5.4325     0.0000    10.0000 </r>
       <r>    -5.3042     0.0000    10.0000 </r>
       <r>    -5.1758     0.0000    10.0000 </r>
       <r>    -5.0474     0.0000    10.0000 </r>
       <r>    -4.9191     0.0000    10.0000 </r>
       <r>    -4.7907     0.0000    10.0000 </r>
       <r>    -4.6623     0.0000    10.0000 </r>
       <r>    -4.5340     0.0000    10.0000 </r>
       <r>    -4.4056     0.0000    10.0000 </r>
       <r>    -4.2772     0.0000    10.0000 </r>
       <r>    -4.1489     0.0000    10.0000 </r>
       <r>    -4.0205     0.0000    10.0000 </r>
       <r>    -3.8921     0.0000    10.0000 </r>
       <r>    -3.7638     0.0000    10.0000 </r>
       <r>    -3.6354     0.0000    10.0000 </r>
       <r>    -3.5070     0.0000    10.0000 </r>
       <r>    -3.3786     0.0000    10.0000 </r>
       <r>    -3.2503     0.0000    10.0000 </r>
       <r>    -3.1219     0.0000    10.0000 </r>
       <r>    -2.9935     0.0000    10.0000 </r>
       <r>    -2.8652     0.0000    10.0000 </r>
       <r>    -2.7368    -0.0000    10.0000 </r>
       <r>    -2.6084    -0.0000    10.0000 </r>
       <r>    -2.4801    -0.0000    10.0000 </r>
       <r>    -2.3517    -0.0000    10.0000 </r>
       <r>    -2.2233    -0.0012     9.9999 </r>
       <r>    -2.0950    -0.3623     9.9533 </r>
       <r>    -1.9666     2.9544    10.3326 </r>
       <r>    -1.8382    27.2164    13.8263 </r>
       <r>    -1.7099     1.6235    14.0347 </r>
       <r>    -1.5815    -0.2698    14.0001 </r>
       <r>    -1.4531    -0.0006    14.0000 </r>
       <r>    -1.3248    -0.0000    14.0000 </r>
       <r>    -1.1964    -0.0000    14.0000 </r>
       <r>    -1.0680    -0.0000    14.0000 </r>
       <r>    -0.9397    -0.0000    14.0000 </r>
       <r>    -0.8113    -0.0000    14.0000 </r>
       <r>    -0.6829    -0.0000    14.0000 </r>
       <r>    -0.5546    -0.0001    14.0000 </r>
       <r>    -0.4262    -0.0604    13.9922 </r>
       <r>    -0.2978    -0.1756    13.9697 </r>
       <r>    -0.1695    12.4583    15.5689 </r>
       <r>    -0.0411     3.6855    16.0420 </r>
       <r>     0.0873    -0.3253    16.0003 </r>
       <r>     0.2157    -0.0022    16.0000 </r>
       <r>     0.3440    -0.0000    16.0000 </r>
       <r>     0.4724    -0.0000    16.0000 </r>
       <r>     0.6008     0.0000    16.0000 </r>
       <r>     0.7291     0.0000    16.0000 </r>
       <r>     0.8575     0.0000    16.0000 </r>
       <r>     0.9859     0.0000    16.0000 </r>
       <r>     1.1142     0.0000    16.0000 </r>
       <r>     1.2426     0.0000    16.0000 </r>
       <r>     1.3710     0.0000    16.0000 </r>
       <r>     1.4993     0.0000    16.0000 </r>
       <r>     1.6277     0.0000    16.0000 </r>
       <r>     1.7561     0.0000    16.0000 </r>
       <r>     1.8844     0.0000    16.0000 </r>
       <r>     2.0128     0.0000    16.0000 </r>
       <r>     2.1412    -0.0000    16.0000 </r>
       <r>     2.2695    -0.0000    16.0000 </r>
       <r>     2.3979    -0.0000    16.0000 </r>
       <r>     2.5263    -0.0000    16.0000 </r>
       <r>     2.6546    -0.0030    15.9996 </r>
       <r>     2.7830    -0.4105    15.9469 </r>
       <r>     2.9114     4.0171    16.4626 </r>
       <r>     3.0397    23.6067    19.4929 </r>
       <r>     3.1681     4.3874    20.0561 </r>
       <r>     3.2965    -0.4351    20.0003 </r>
       <r>     3.4248    -0.3944    19.9496 </r>
       <r>     3.5532     2.8657    20.3175 </r>
       <r>     3.6816    32.7636    24.5233 </r>
       <r>     3.8099    12.2490    26.0957 </r>
       <r>     3.9383    -0.7126    26.0042 </r>
       <r>     4.0667    -0.0327    26.0000 </r>
       <r>     4.1951    -0.0000    26.0000 </r>
       <r>     4.3234    -0.0000    26.0000 </r>
       <r>     4.4518    -0.0000    26.0000 </r>
       <r>     4.5802    -0.0000    26.0000 </r>
       <r>     4.7085    -0.0000    26.0000 </r>
       <r>     4.8369    -0.0464    25.9940 </r>
       <r>     4.9653    -0.3307    25.9516 </r>
       <r>     5.0936    11.8453    27.4721 </r>
       <r>     5.2220     4.4887    28.0484 </r>
       <r>     5.3504    -0.3735    28.0004 </r>
       <r>     5.4787    -0.0031    28.0000 </r>
       <r>     5.6071    -0.0000    28.0000 </r>
       <r>     5.7355    -0.0000    28.0000 </r>
       <r>     5.8638    -0.0001    28.0000 </r>
       <r>     5.9922    -0.0773    27.9901 </r>
       <r>     6.1206     0.0316    27.9941 </r>
       <r>     6.2489    12.9473    29.6561 </r>
       <r>     6.3773     2.9597    30.0361 </r>
       <r>     6.5057    -0.2796    30.0002 </r>
       <r>     6.6340    -0.0015    30.0000 </r>
       <r>     6.7624    -0.0000    30.0000 </r>
       <r>     6.8908    -0.0012    29.9998 </r>
       <r>     7.0191    -0.2544    29.9672 </r>
       <r>     7.1475     2.5721    30.2974 </r>
       <r>     7.2759    13.1740    31.9885 </r>
       <r>     7.4042     0.1785    32.0114 </r>
       <r>     7.5326    -0.0887    32.0000 </r>
       <r>     7.6610    -0.0001    32.0000 </r>
       <r>     7.7893    -0.0000    32.0000 </r>
       <r>     7.9177    -0.0000    32.0000 </r>
       <r>     8.0461     0.0000    32.0000 </r>
       <r>     8.1745     0.0000    32.0000 </r>
       <r>     8.3028     0.0000    32.0000 </r>
       <r>     8.4312     0.0000    32.0000 </r>
       <r>     8.5596     0.0000    32.0000 </r>
       <r>     8.6879     0.0000    32.0000 </r>
       <r>     8.8163     0.0000    32.0000 </r>
       <r>     8.9447     0.0000    32.0000 </r>
      </set>
     </set>
    </array>
   </total>
  </dos>
 </calculation>
 <structure name="finalpos" >
  <crystal>
   <varray name="basis" >
    <v>       6.00000000       0.00000000       0.00000000 </v>
    <v>       0.00000000       6.00000000       0.00000000 </v>
    <v>       0.00000000       0.00000000       6.00000000 </v>
   </varray>
   <i name="volume">    216.00000000 </i>
   <varray name="rec_basis" >
    <v>       0.16666667       0.00000000       0.00000000 </v>
    <v>       0.00000000       0.16666667       0.00000000 </v>
    <v>       0.00000000       0.00000000       0.16666667 </v>
   </varray>
  </crystal>
  <varray name="positions" >
   <v>       0.40000000       0.50000000       0.50000000 </v>
   <v>       0.60000000       0.50000000       0.50000000 </v>
  </varray>
 </structure>
</modeling>
