unknown system                          
           1
     6.000000    0.000000    0.000000
     0.000000    6.000000    0.000000
     0.000000    0.000000    6.000000
   C    O 
   1   1
Direct configuration=     1
   0.40000000  0.50000000  0.50000000
   0.60000000  0.50000000  0.50000000
