----- GAMESS execution script 'rungms' -----
This job is running on host dftfe.crc.nd.edu
under operating system Linux at Thu Feb 26 00:17:13 EST 2015
Available scratch disk space (Kbyte units) at beginning of the job is
Filesystem     1K-blocks     Used Available Use% Mounted on
/dev/sda2      147771864 22813792 117451640  17% /
GAMESS temporary binary files will be written to /tmp
GAMESS supplementary output files will be written to /tmp
Copying input file gamess.inp to your run's scratch directory...

 Distributed Data Interface kickoff program.
 Initiating 1 compute processes on 1 nodes to run the following command:
 /opt/crc/gamess/2012R1/gamess/gamess.00.x gamess 

          ******************************************************
          *         GAMESS VERSION =  1 MAY 2012 (R1)          *
          *             FROM IOWA STATE UNIVERSITY             *
          * M.W.SCHMIDT, K.K.BALDRIDGE, J.A.BOATZ, S.T.ELBERT, *
          *   M.S.GORDON, J.H.JENSEN, S.KOSEKI, N.MATSUNAGA,   *
          *          K.A.NGUYEN, S.J.SU, T.L.WINDUS,           *
          *       TOGETHER WITH M.DUPUIS, J.A.MONTGOMERY       *
          *         J.COMPUT.CHEM.  14, 1347-1363(1993)        *
          **************** 64 BIT LINUX VERSION ****************

  SINCE 1993, STUDENTS AND POSTDOCS WORKING AT IOWA STATE UNIVERSITY
  AND ALSO IN THEIR VARIOUS JOBS AFTER LEAVING ISU HAVE MADE IMPORTANT
  CONTRIBUTIONS TO THE CODE:
     IVANA ADAMOVIC, CHRISTINE AIKENS, YURI ALEXEEV, POOJA ARORA,
     ANDREY ASADCHEV, ROB BELL, PRADIPTA BANDYOPADHYAY, JONATHAN BENTZ,
     BRETT BODE, GALINA CHABAN, WEI CHEN, CHEOL HO CHOI, PAUL DAY,
     ALBERT DEFUSCO, TIM DUDLEY, DMITRI FEDOROV, GRAHAM FLETCHER,
     MARK FREITAG, KURT GLAESEMANN, DAN KEMP, GRANT MERRILL,
     NORIYUKI MINEZAWA, JONATHAN MULLIN, TAKESHI NAGATA,
     SEAN NEDD, HEATHER NETZLOFF, BOSILJKA NJEGIC, RYAN OLSON, MIKE PAK,
     JIM SHOEMAKER, LYUDMILA SLIPCHENKO, SAROM SOK, JIE SONG,
     TETSUYA TAKETSUGU, SIMON WEBB, SOOHAENG YOO, FEDERICO ZAHARIEV

  ADDITIONAL CODE HAS BEEN PROVIDED BY COLLABORATORS IN OTHER GROUPS:
     IOWA STATE UNIVERSITY:
          JOE IVANIC, LAIMUTIS BYTAUTAS, KLAUS RUEDENBERG
     UNIVERSITY OF TOKYO: KIMIHIKO HIRAO, TAKAHITO NAKAJIMA,
          TAKAO TSUNEDA, MUNEAKI KAMIYA, SUSUMU YANAGISAWA,
          KIYOSHI YAGI, MAHITO CHIBA, SEIKEN TOKURA, NAOAKI KAWAKAMI
     UNIVERSITY OF AARHUS: FRANK JENSEN
     UNIVERSITY OF IOWA: VISVALDAS KAIRYS, HUI LI
     NATIONAL INST. OF STANDARDS AND TECHNOLOGY: WALT STEVENS, DAVID GARMER
     UNIVERSITY OF PISA: BENEDETTA MENNUCCI, JACOPO TOMASI
     UNIVERSITY OF MEMPHIS: HENRY KURTZ, PRAKASHAN KORAMBATH
     UNIVERSITY OF ALBERTA: TOBY ZENG, MARIUSZ KLOBUKOWSKI
     UNIVERSITY OF NEW ENGLAND: MARK SPACKMAN
     MIE UNIVERSITY: HIROAKI UMEDA
     MICHIGAN STATE UNIVERSITY:
          KAROL KOWALSKI, MARTA WLOCH, JEFFREY GOUR, JESSE LUTZ, PIOTR PIECUCH
     UNIVERSITY OF SILESIA: MONIKA MUSIAL, STANISLAW KUCHARSKI
     FACULTES UNIVERSITAIRES NOTRE-DAME DE LA PAIX:
          OLIVIER QUINET, BENOIT CHAMPAGNE
     UNIVERSITY OF CALIFORNIA - SANTA BARBARA: BERNARD KIRTMAN
     INSTITUTE FOR MOLECULAR SCIENCE:
          KAZUYA ISHIMURA, MICHIO KATOUDA, AND SHIGERU NAGASE
     UNIVERSITY OF NOTRE DAME: DAN CHIPMAN
     KYUSHU UNIVERSITY:
          HARUYUKI NAKANO,
          FENG LONG GU, JACEK KORCHOWIEC, MARCIN MAKOWSKI, AND YURIKO AOKI,
          HIROTOSHI MORI AND EISAKU MIYOSHI
     PENNSYLVANIA STATE UNIVERSITY:
          TZVETELIN IORDANOV, CHET SWALINA, JONATHAN SKONE,
          SHARON HAMMES-SCHIFFER
     WASEDA UNIVERSITY:
          MASATO KOBAYASHI, TOMOKO AKAMA, TSUGUKI TOUMA,
          TAKESHI YOSHIKAWA, YASUHIRO IKABATA, HIROMI NAKAI
     UNIVERSITY OF NEBRASKA:
          PEIFENG SU, DEJUN SI, NANDUN THELLAMUREGE, YALI WANG, HUI LI
     UNIVERSITY OF ZURICH:
          ROBERTO PEVERATI, KIM BALDRIDGE
     N. COPERNICUS UNIVERSITY AND JACKSON STATE UNIVERSITY:
          MARIA BARYSZ

 EXECUTION OF GAMESS BEGUN Thu Feb 26 00:17:13 2015

            ECHO OF THE FIRST FEW INPUT CARDS -
 INPUT CARD> $BASIS GBASIS=PC1 $END                                                         
 INPUT CARD> $CONTRL COORD=ZMT ISPHER=1 RUNTYP=ENERGY DFTTYP=PBE $END                       
 INPUT CARD>                                                                                
 INPUT CARD> $DATA                                                                          
 INPUT CARD>Title                                                                           
 INPUT CARD>Cnv 2                                                                           
 INPUT CARD>                                                                                
 INPUT CARD>S                                                                               
 INPUT CARD>O 1 1.50                                                                        
 INPUT CARD>O 1 1.50 2 150.0                                                                
 INPUT CARD> $END                                                                           
    1000000 WORDS OF MEMORY AVAILABLE

     BASIS OPTIONS
     -------------
     GBASIS=PC1          IGAUSS=       0      POLAR=NONE    
     NDFUNC=       0     NFFUNC=       0     DIFFSP=       F
     NPFUNC=       0      DIFFS=       F     BASNAM=        


     RUN TITLE
     ---------
 Title                                                                           

 THE POINT GROUP OF THE MOLECULE IS CNV     
 THE ORDER OF THE PRINCIPAL AXIS IS     2

 YOUR FULLY SUBSTITUTED Z-MATRIX IS
 S   
 O      1   1.5000000
 O      1   1.5000000  2  150.0000

 THE MOMENTS OF INERTIA ARE (AMU-ANGSTROM**2)
 IXX=     2.410   IYY=    67.156   IZZ=    69.566

 ATOM      ATOMIC                      COORDINATES (BOHR)
           CHARGE         X                   Y                   Z
 S          16.0     0.0000000000        0.0000000000       -0.3669246034
 O           8.0    -2.7380027042        0.0000000000        0.3667210101
 O           8.0     2.7380027042        0.0000000000        0.3667210101

          INTERNUCLEAR DISTANCES (ANGS.)
          ------------------------------

                1 S          2 O          3 O     

   1 S       0.0000000    1.5000000 *  1.5000000 *
   2 O       1.5000000 *  0.0000000    2.8977775 *
   3 O       1.5000000 *  2.8977775 *  0.0000000  

  * ... LESS THAN  3.000


     ATOMIC BASIS SET
     ----------------
 THE CONTRACTED PRIMITIVE FUNCTIONS HAVE BEEN UNNORMALIZED
 THE CONTRACTED BASIS FUNCTIONS ARE NOW NORMALIZED TO UNITY

  SHELL TYPE  PRIMITIVE        EXPONENT          CONTRACTION COEFFICIENT(S)

 S         

      1   S       1         55510.0000000    0.000587229760
      1   S       2          8326.7000000    0.004532413947
      1   S       3          1895.6000000    0.023265261648
      1   S       4           536.7700000    0.089696133027
      1   S       5           174.6700000    0.254098332277
      1   S       6            62.5780000    0.438665087637
      1   S       7            23.5730000    0.314547135094
      1   S       8             5.8908000    0.032727897102

      2   S       9          8326.7000000   -0.000019755715
      2   S      10          1895.6000000   -0.000043822381
      2   S      11           536.7700000   -0.001730264906
      2   S      12           174.6700000   -0.009381263460
      2   S      13            62.5780000   -0.064050766303
      2   S      14            23.5730000   -0.082478179196
      2   S      15             5.8908000    0.478342956889
      2   S      16             2.1852000    0.626896670208

      3   S      17          1895.6000000    0.000016227260
      3   S      18           536.7700000    0.000191135619
      3   S      19           174.6700000    0.001952069674
      3   S      20            62.5780000    0.010578701087
      3   S      21            23.5730000    0.022164934551
      3   S      22             5.8908000   -0.184968323118
      3   S      23             2.1852000   -0.480920750976
      3   S      24             0.4528200    1.243822243872

      4   S      25             0.1620200    1.000000000000

      5   P      26           395.4500000    0.004642761329
      5   P      27            92.8340000    0.036023396489
      5   P      28            29.2660000    0.149058869978
      5   P      29            10.5950000    0.360033266263
      5   P      30             4.0272000    0.455756476221
      5   P      31             1.5484000    0.206167664178

      6   P      32            92.8340000    0.000169901442
      6   P      33            29.2660000   -0.002541839934
      6   P      34            10.5950000   -0.007867614595
      6   P      35             4.0272000   -0.037231009184
      6   P      36             1.5484000    0.161417246830
      6   P      37             0.4613400    0.902230419976

      7   P      38             0.1313100    1.000000000000

      8   D      39             0.5500000    1.000000000000

 O         

     15   S      40          2306.7000000    0.005424388755
     15   S      41           347.1500000    0.040474749465
     15   S      42            78.8900000    0.180219634554
     15   S      43            21.8760000    0.462370311787
     15   S      44             6.6646000    0.454888396263

     16   S      45           347.1500000   -0.000655003786
     16   S      46            78.8900000   -0.005362052952
     16   S      47            21.8760000   -0.074902158894
     16   S      48             6.6646000   -0.181442579655
     16   S      49             1.0669000    1.102006874042

     17   S      50             0.3070000    1.000000000000

     18   P      51            17.0220000    0.068979967443
     18   P      52             3.6838000    0.351985516325
     18   P      53             0.9923400    0.724036547822

     19   P      54             0.2448700    1.000000000000

     20   D      55             1.0000000    1.000000000000

 TOTAL NUMBER OF BASIS SET SHELLS             =   20
 NUMBER OF CARTESIAN GAUSSIAN BASIS FUNCTIONS =   49
 NOTE: THIS RUN WILL RESTRICT THE MO VARIATION SPACE TO SPHERICAL HARMONICS.
 THE NUMBER OF ORBITALS KEPT IN THE VARIATIONAL SPACE WILL BE PRINTED LATER.
 NUMBER OF ELECTRONS                          =   32
 CHARGE OF MOLECULE                           =    0
 SPIN MULTIPLICITY                            =    1
 NUMBER OF OCCUPIED ORBITALS (ALPHA)          =   16
 NUMBER OF OCCUPIED ORBITALS (BETA )          =   16
 TOTAL NUMBER OF ATOMS                        =    3
 THE NUCLEAR REPULSION ENERGY IS      102.0002686992

     LEBEDEV GRID-BASED DFT OPTIONS
     ------------------------------
     DFTTYP=PBE     
     NRAD  =      96     NLEB  =     302
     NRAD0 =      24     NLEB0 =     110
     SWOFF =    5.00E-03 (PURE SCF -> DFT)
     SWITCH=    3.00E-04 (COARSE -> TIGHT GRID)
     THRESH=    0.00E+00 GTHRE=    1.00E+00

 GRIMME'S EMPIRICAL DISPERSION CORRECTION= F

     $CONTRL OPTIONS
     ---------------
 SCFTYP=RHF          RUNTYP=ENERGY       EXETYP=RUN     
 MPLEVL=       0     CITYP =NONE         CCTYP =NONE         VBTYP =NONE    
 DFTTYP=PBE          TDDFT =NONE    
 MULT  =       1     ICHARG=       0     NZVAR =       0     COORD =ZMT     
 PP    =NONE         RELWFN=NONE         LOCAL =NONE         NUMGRD=       F
 ISPHER=       1     NOSYM =       0     MAXIT =      30     UNITS =ANGS    
 PLTORB=       F     MOLPLT=       F     AIMPAC=       F     FRIEND=        
 NPRINT=       7     IREST =       0     GEOM  =INPUT   
 NORMF =       0     NORMP =       0     ITOL  =      20     ICUT  =       9
 INTTYP=BEST         GRDTYP=BEST         QMTTOL= 1.0E-06

     $SYSTEM OPTIONS
     ---------------
  REPLICATED MEMORY=     1000000 WORDS (ON EVERY NODE).
 DISTRIBUTED MEMDDI=           0 MILLION WORDS IN AGGREGATE,
 MEMDDI DISTRIBUTED OVER   1 PROCESSORS IS           0 WORDS/PROCESSOR.
 TOTAL MEMORY REQUESTED ON EACH PROCESSOR=     1000000 WORDS.
 TIMLIM=      525600.00 MINUTES, OR     365.0 DAYS.
 PARALL= F  BALTYP=  DLB     KDIAG=    0  COREFL= F
 MXSEQ2=     300 MXSEQ3=     150

          ----------------
          PROPERTIES INPUT
          ----------------

     MOMENTS            FIELD           POTENTIAL          DENSITY
 IEMOM =       1   IEFLD =       0   IEPOT =       0   IEDEN =       0
 WHERE =COMASS     WHERE =NUCLEI     WHERE =NUCLEI     WHERE =NUCLEI  
 OUTPUT=BOTH       OUTPUT=BOTH       OUTPUT=BOTH       OUTPUT=BOTH    
 IEMINT=       0   IEFINT=       0                     IEDINT=       0
                                                       MORB  =       0
          EXTRAPOLATION IN EFFECT
          DIIS IN EFFECT
 ORBITAL PRINTING OPTION: NPREO=     1    49     2     1

     -------------------------------
     INTEGRAL TRANSFORMATION OPTIONS
     -------------------------------
     NWORD  =            0
     CUTOFF = 1.0E-09     MPTRAN =       0
     DIRTRF =       F     AOINTS =DUP     

          ----------------------
          INTEGRAL INPUT OPTIONS
          ----------------------
 NOPK  =       1 NORDER=       0 SCHWRZ=       F

   --- ENCODED Z MATRIX ---
 COORD  TYPE   I   J   K   L   M   N
    1      1    3   1
    2      1    2   1
    3      2    2   1   3

 THE DETERMINANT OF THE G MATRIX IS 10**(    -4)

 THE DETERMINANT OF THE G MATRIX IS 10**(    -4)
 * * * WARNING * * *
 YOUR B MATRIX HAS A SMALL DETERMINANT.
 THIS SUGGESTS YOU MAY HAVE BADLY CHOSEN COORDINATES.

     ------------------------------------------
     THE POINT GROUP IS CNV, NAXIS= 2, ORDER= 4
     ------------------------------------------

 -- VARIATIONAL SPACE WILL BE RESTRICTED TO PURE SPHERICAL HARMONICS ONLY --
 AFTER EXCLUDING CONTAMINANT COMBINATIONS FROM THE CARTESIAN GAUSSIAN BASIS
 SET, THE NUMBER OF SPHERICAL HARMONICS KEPT IN THE VARIATION SPACE IS   46

     DIMENSIONS OF THE SYMMETRY SUBSPACES ARE
 A1  =   19     A2  =    5     B1  =   14     B2  =    8

 ..... DONE SETTING UP THE RUN .....
 STEP CPU TIME =     0.01 TOTAL CPU TIME =        0.0 (    0.0 MIN)
 TOTAL WALL CLOCK TIME=        0.0 SECONDS, CPU UTILIZATION IS  50.00%

          ********************
          1 ELECTRON INTEGRALS
          ********************
 ...... END OF ONE-ELECTRON INTEGRALS ......
 STEP CPU TIME =     0.01 TOTAL CPU TIME =        0.0 (    0.0 MIN)
 TOTAL WALL CLOCK TIME=        0.0 SECONDS, CPU UTILIZATION IS 100.00%

          -------------
          GUESS OPTIONS
          -------------
          GUESS =HUCKEL            NORB  =       0          NORDER=       0
          MIX   =       F          PRTMO =       F          PUNMO =       F
          TOLZ  = 1.0E-08          TOLE  = 1.0E-05
          SYMDEN=       F          PURIFY=       F

 INITIAL GUESS ORBITALS GENERATED BY HUCKEL   ROUTINE.
 HUCKEL GUESS REQUIRES     21583 WORDS.

 STATISTICS FOR GENERATION OF SYMMETRY ORBITAL -Q- MATRIX
 NUMBER OF CARTESIAN ATOMIC ORBITALS=         49
 NUMBER OF SPHERICAL CONTAMINANTS DROPPED=     3
 NUMBER OF LINEARLY DEPENDENT MOS DROPPED=     0
 TOTAL NUMBER OF MOS IN VARIATION SPACE=      46

 SYMMETRIES FOR INITIAL GUESS ORBITALS FOLLOW.   BOTH SET(S).
    16 ORBITALS ARE OCCUPIED (    7 CORE ORBITALS).
     8=?A1      9=?B1     10=A1      11=B2      12=A1      13=B1      14=A2  
    15=B1      16=A1      17=B2      18=A1      19=B1      20=A1      21=A1  
    22=A1      23=A1      24=A1      25=A1      26=?A1 
 ...... END OF INITIAL ORBITAL SELECTION ......
 STEP CPU TIME =     0.00 TOTAL CPU TIME =        0.0 (    0.0 MIN)
 TOTAL WALL CLOCK TIME=        0.0 SECONDS, CPU UTILIZATION IS  66.67%

                    ----------------------
                    AO INTEGRAL TECHNOLOGY
                    ----------------------
     S,P,L SHELL ROTATED AXIS INTEGRALS, REPROGRAMMED BY
        KAZUYA ISHIMURA (IMS) AND JOSE SIERRA (SYNSTAR).
     S,P,D,L SHELL ROTATED AXIS INTEGRALS PROGRAMMED BY
        KAZUYA ISHIMURA (INSTITUTE FOR MOLECULAR SCIENCE).
     S,P,D,F,G SHELL TO TOTAL QUARTET ANGULAR MOMENTUM SUM 5,
        ERIC PROGRAM BY GRAHAM FLETCHER (ELORET AND NASA ADVANCED
        SUPERCOMPUTING DIVISION, AMES RESEARCH CENTER).
     S,P,D,F,G,L SHELL GENERAL RYS QUADRATURE PROGRAMMED BY
        MICHEL DUPUIS (PACIFIC NORTHWEST NATIONAL LABORATORY).

          --------------------
          2 ELECTRON INTEGRALS
          --------------------

 THE -PK- OPTION IS OFF, THE INTEGRALS ARE NOT IN SUPERMATRIX FORM.
 STORING   15000 INTEGRALS/RECORD ON DISK, USING 12 BYTES/INTEGRAL.
 TWO ELECTRON INTEGRAL EVALUATION REQUIRES   90606 WORDS OF MEMORY.
 II,JST,KST,LST =  1  1  1  1 NREC =         1 INTLOC =    1
 II,JST,KST,LST =  2  1  1  1 NREC =         1 INTLOC =    2
 II,JST,KST,LST =  3  1  1  1 NREC =         1 INTLOC =    7
 II,JST,KST,LST =  4  1  1  1 NREC =         1 INTLOC =   22
 II,JST,KST,LST =  5  1  1  1 NREC =         1 INTLOC =   56
 II,JST,KST,LST =  6  1  1  1 NREC =         1 INTLOC =  125
 II,JST,KST,LST =  7  1  1  1 NREC =         1 INTLOC =  329
 II,JST,KST,LST =  8  1  1  1 NREC =         1 INTLOC =  776
 II,JST,KST,LST =  9  1  1  1 NREC =         1 INTLOC = 2864
 II,JST,KST,LST = 10  1  1  1 NREC =         1 INTLOC = 2864
 II,JST,KST,LST = 11  1  1  1 NREC =         1 INTLOC = 2864
 II,JST,KST,LST = 12  1  1  1 NREC =         1 INTLOC = 2864
 II,JST,KST,LST = 13  1  1  1 NREC =         1 INTLOC = 2864
 II,JST,KST,LST = 14  1  1  1 NREC =         1 INTLOC = 2864
 II,JST,KST,LST = 15  1  1  1 NREC =         1 INTLOC = 2864
 II,JST,KST,LST = 16  1  1  1 NREC =         1 INTLOC = 5103
 II,JST,KST,LST = 17  1  1  1 NREC =         1 INTLOC = 8260
 II,JST,KST,LST = 18  1  1  1 NREC =         1 INTLOC =12685
 II,JST,KST,LST = 19  1  1  1 NREC =         2 INTLOC =14918
 II,JST,KST,LST = 20  1  1  1 NREC =         5 INTLOC =  850
 TOTAL NUMBER OF NONZERO TWO-ELECTRON INTEGRALS =              171846
         12 INTEGRAL RECORDS WERE STORED ON DISK FILE  8.
  ...... END OF TWO-ELECTRON INTEGRALS .....
 STEP CPU TIME =     0.16 TOTAL CPU TIME =        0.2 (    0.0 MIN)
 TOTAL WALL CLOCK TIME=        0.2 SECONDS, CPU UTILIZATION IS 100.00%

          --------------------------
               R-PBE SCF CALCULATION
          --------------------------

     NUCLEAR ENERGY =       102.0002686992
     MAXIT =   30     NPUNCH=    2
     EXTRAP=T  DAMP=F  SHIFT=F  RSTRCT=F  DIIS=T  DEM=F  SOSCF=F
         DENSITY MATRIX CONVERGENCE THRESHOLD=  1.00E-05
     COARSE -> FINE DFT GRID SWITCH THRESHOLD=  3.00E-04 (SWITCH IN $DFT)
                   HF -> DFT SWITCH THRESHOLD=  5.00E-03 (SWOFF IN $DFT)
     MEMORY REQUIRED FOR RHF ITERS=    183108 WORDS.

 DFT CODE IS SWITCHING FROM THE FINE GRID NRAD= 96,  NLEB=  302
                      TO THE COARSE GRID NRAD0= 24, NLEB0=  110

     EXCHANGE FUNCTIONAL   =PBE       
     CORRELATION FUNCTIONAL=PBE       
     DFT THRESHOLD         =.460E-07
     GRID CHANGE THRESHOLD =.300E-03
 FOR AN EULER-MACLAURIN QUADRATURE USING  96 RADIAL POINTS:
 SMALLEST GAUSSIAN PRIMITIVE EXPONENT=        0.1313100000 OF TYPE -P-
 ON ATOM NUMBER   1 HAS RADIAL NORMALIZATION=  1.000000
  LARGEST GAUSSIAN PRIMITIVE EXPONENT=    55510.0000000000 OF TYPE -S-
 ON ATOM NUMBER   1 HAS RADIAL NORMALIZATION=  0.999999
 DFT IS SWITCHED OFF, PERFORMING PURE SCF UNTIL SWOFF THRESHOLD IS REACHED.

 ITER EX DEM     TOTAL ENERGY        E CHANGE  DENSITY CHANGE    DIIS ERROR
   1  0  0     -545.9932863388  -545.9932863388   0.383457948   1.479228731
          * * *   INITIATING DIIS PROCEDURE   * * *
   2  1  0     -546.7362968321    -0.7430104933   0.466075937   0.288910007
   3  2  0     -546.8445589199    -0.1082620877   0.152429603   0.294616388
   4  3  0     -547.0395403965    -0.1949814767   0.063328650   0.027504270
   5  4  0     -547.0449366489    -0.0053962524   0.058079064   0.014723992
   6  5  0     -547.0471927516    -0.0022561027   0.042779132   0.007511612
   7  6  0     -547.0481259466    -0.0009331949   0.014667933   0.002158928
   8  7  0     -547.0482128520    -0.0000869054   0.000874466   0.000466204
 CONVERGED TO SWOFF, SO DFT CALCULATION IS NOW SWITCHED ON.
          * * *   INITIATING DIIS PROCEDURE   * * *
   9  8  0     -548.2134805643    -1.1652677123   0.239939398   0.106361352
  10  9  0     -548.2207535835    -0.0072730193   0.204441603   0.093014693
  11 10  0     -548.2192161316     0.0015374519   0.079371563   0.121817017
  12 11  0     -548.2525056216    -0.0332894900   0.013140055   0.021730821
  13 12  0     -548.2535005811    -0.0009949594   0.003414917   0.001587607
  14 13  0     -548.2535062053    -0.0000056242   0.001410304   0.000263079
  15 14  0     -548.2535066559    -0.0000004507   0.000115199   0.000035928
 DFT CODE IS SWITCHING BACK TO THE FINE GRID
          * * *   INITIATING DIIS PROCEDURE   * * *
  16 15  0     -548.2228242545     0.0306824015   0.015476300   0.010900119
  17 16  0     -548.2231388097    -0.0003145553   0.008469548   0.003176585
  18 17  0     -548.2231635707    -0.0000247610   0.002040265   0.001885196
  19 18  0     -548.2231737049    -0.0000101342   0.000996740   0.001028626
  20 19  0     -548.2231758805    -0.0000021757   0.000291031   0.000301475
  21 20  0     -548.2231761696    -0.0000002891   0.000010057   0.000010684
  22 21  0     -548.2231761700    -0.0000000004   0.000000948   0.000000954
  23 22  0     -548.2231761700     0.0000000000   0.000000328   0.000000123

          -----------------
          DENSITY CONVERGED
          -----------------
     TIME TO FORM FOCK OPERATORS=       4.3 SECONDS (       0.2 SEC/ITER)
     TIME TO SOLVE SCF EQUATIONS=       0.0 SECONDS (       0.0 SEC/ITER)

 FINAL R-PBE ENERGY IS     -548.2231761700 AFTER  23 ITERATIONS
 DFT EXCHANGE + CORRELATION ENERGY =       -42.4665400870
 TOTAL ELECTRON NUMBER             =        32.0000015522

          ------------
          EIGENVECTORS
          ------------

                      1          2          3          4          5
                  -88.2148   -18.8152   -18.8152    -7.8331    -5.8549
                     A1         B1         A1         A1         B1  
    1  S  1  S    1.002985   0.000000  -0.000035  -0.274059   0.000000
    2  S  1  S   -0.010296   0.000000  -0.000236   1.039307   0.000000
    3  S  1  S    0.001835   0.000000  -0.000501   0.040767   0.000000
    4  S  1  S   -0.000582   0.000000   0.008201  -0.009583   0.000000
    5  S  1  X    0.000000   0.000040   0.000000   0.000000   0.996672
    6  S  1  Y    0.000000   0.000000   0.000000   0.000000   0.000000
    7  S  1  Z    0.000068   0.000000  -0.000013   0.013085   0.000000
    8  S  1  X    0.000000  -0.001891   0.000000   0.000000   0.009140
    9  S  1  Y    0.000000   0.000000   0.000000   0.000000   0.000000
   10  S  1  Z    0.000055   0.000000   0.000518   0.001442   0.000000
   11  S  1  X    0.000000  -0.008098   0.000000   0.000000  -0.000514
   12  S  1  Y    0.000000   0.000000   0.000000   0.000000   0.000000
   13  S  1  Z    0.000022   0.000000   0.001944  -0.000249   0.000000
   14  S  1 XX    0.000200   0.000000   0.000640   0.002008   0.000000
   15  S  1 YY   -0.000109   0.000000  -0.000447  -0.001006   0.000000
   16  S  1 ZZ   -0.000092   0.000000  -0.000192  -0.001002   0.000000
   17  S  1 XY    0.000000   0.000000   0.000000   0.000000   0.000000
   18  S  1 XZ    0.000000  -0.000515   0.000000   0.000000   0.001060
   19  S  1 YZ    0.000000   0.000000   0.000000   0.000000   0.000000
   20  O  2  S    0.000016   0.703316   0.703245   0.000003   0.000399
   21  O  2  S    0.000066   0.026418   0.025586   0.000165  -0.000159
   22  O  2  S   -0.000196  -0.014691  -0.011718  -0.001116  -0.000551
   23  O  2  X   -0.000054   0.000830   0.001018  -0.000526  -0.000713
   24  O  2  Y    0.000000   0.000000   0.000000   0.000000   0.000000
   25  O  2  Z    0.000015  -0.000306  -0.000027   0.000135   0.000202
   26  O  2  X   -0.000215  -0.003089  -0.003449  -0.001766  -0.000240
   27  O  2  Y    0.000000   0.000000   0.000000   0.000000   0.000000
   28  O  2  Z    0.000068   0.001579   0.000170   0.000637   0.000265
   29  O  2 XX   -0.000145  -0.000303  -0.000449  -0.000717  -0.000637
   30  O  2 YY    0.000084   0.000199   0.000240   0.000423   0.000398
   31  O  2 ZZ    0.000060   0.000104   0.000209   0.000294   0.000239
   32  O  2 XY    0.000000   0.000000   0.000000   0.000000   0.000000
   33  O  2 XZ    0.000084   0.000249   0.000117   0.000440   0.000481
   34  O  2 YZ    0.000000   0.000000   0.000000   0.000000   0.000000
   35  O  3  S    0.000016  -0.703316   0.703245   0.000003  -0.000399
   36  O  3  S    0.000066  -0.026418   0.025586   0.000165   0.000159
   37  O  3  S   -0.000196   0.014691  -0.011718  -0.001116   0.000551
   38  O  3  X    0.000054   0.000830  -0.001018   0.000526  -0.000713
   39  O  3  Y    0.000000   0.000000   0.000000   0.000000   0.000000
   40  O  3  Z    0.000015   0.000306  -0.000027   0.000135  -0.000202
   41  O  3  X    0.000215  -0.003089   0.003449   0.001766  -0.000240
   42  O  3  Y    0.000000   0.000000   0.000000   0.000000   0.000000
   43  O  3  Z    0.000068  -0.001579   0.000170   0.000637  -0.000265
   44  O  3 XX   -0.000145   0.000303  -0.000449  -0.000717   0.000637
   45  O  3 YY    0.000084  -0.000199   0.000240   0.000423  -0.000398
   46  O  3 ZZ    0.000060  -0.000104   0.000209   0.000294  -0.000239
   47  O  3 XY    0.000000   0.000000   0.000000   0.000000   0.000000
   48  O  3 XZ   -0.000084   0.000249  -0.000117  -0.000440   0.000481
   49  O  3 YZ    0.000000   0.000000   0.000000   0.000000   0.000000

                      6          7          8          9         10
                   -5.8527    -5.8485    -1.0305    -0.9699    -0.5906
                     B2         A1         A1         B1         A1  
    1  S  1  S    0.000000   0.003698   0.050523   0.000000   0.064346
    2  S  1  S    0.000000  -0.013947  -0.147380   0.000000  -0.176946
    3  S  1  S    0.000000   0.000305   0.293801   0.000000   0.413839
    4  S  1  S    0.000000  -0.001122   0.154900   0.000000   0.359607
    5  S  1  X    0.000000   0.000000   0.000000   0.131726   0.000000
    6  S  1  Y    0.996948   0.000000   0.000000   0.000000   0.000000
    7  S  1  Z    0.000000   0.996925  -0.036816   0.000000   0.001082
    8  S  1  X    0.000000   0.000000   0.000000  -0.251337   0.000000
    9  S  1  Y    0.008756   0.000000   0.000000   0.000000   0.000000
   10  S  1  Z    0.000000   0.008474   0.074631   0.000000   0.007514
   11  S  1  X    0.000000   0.000000   0.000000  -0.007612   0.000000
   12  S  1  Y   -0.000138   0.000000   0.000000   0.000000   0.000000
   13  S  1  Z    0.000000  -0.000196   0.003406   0.000000  -0.018252
   14  S  1 XX    0.000000  -0.000843   0.066860   0.000000  -0.023591
   15  S  1 YY    0.000000  -0.000310  -0.037106   0.000000   0.016075
   16  S  1 ZZ    0.000000   0.001152  -0.029754   0.000000   0.007516
   17  S  1 XY    0.000000   0.000000   0.000000   0.000000   0.000000
   18  S  1 XZ    0.000000   0.000000   0.000000  -0.043620   0.000000
   19  S  1 YZ    0.000851   0.000000   0.000000   0.000000   0.000000
   20  O  2  S    0.000000  -0.000125  -0.124436  -0.145070   0.106215
   21  O  2  S    0.000000  -0.000056   0.249165   0.289866  -0.219354
   22  O  2  S    0.000000   0.000711   0.274412   0.351268  -0.359204
   23  O  2  X    0.000000   0.000308   0.108781   0.104653   0.179806
   24  O  2  Y    0.000062   0.000000   0.000000   0.000000   0.000000
   25  O  2  Z    0.000000  -0.000027  -0.022788  -0.024273  -0.045830
   26  O  2  X    0.000000   0.000384   0.040191   0.040567   0.088330
   27  O  2  Y   -0.000035   0.000000   0.000000   0.000000   0.000000
   28  O  2  Z    0.000000  -0.000161  -0.004109  -0.012658  -0.017557
   29  O  2 XX    0.000000   0.000339   0.011633   0.009325   0.010886
   30  O  2 YY    0.000000  -0.000146  -0.004704  -0.004313  -0.006896
   31  O  2 ZZ    0.000000  -0.000193  -0.006929  -0.005012  -0.003991
   32  O  2 XY    0.000126   0.000000   0.000000   0.000000   0.000000
   33  O  2 XZ    0.000000  -0.000062  -0.001362  -0.004647  -0.005860
   34  O  2 YZ   -0.000057   0.000000   0.000000   0.000000   0.000000
   35  O  3  S    0.000000  -0.000125  -0.124436   0.145070   0.106215
   36  O  3  S    0.000000  -0.000056   0.249165  -0.289866  -0.219354
   37  O  3  S    0.000000   0.000711   0.274412  -0.351268  -0.359204
   38  O  3  X    0.000000  -0.000308  -0.108781   0.104653  -0.179806
   39  O  3  Y    0.000062   0.000000   0.000000   0.000000   0.000000
   40  O  3  Z    0.000000  -0.000027  -0.022788   0.024273  -0.045830
   41  O  3  X    0.000000  -0.000384  -0.040191   0.040567  -0.088330
   42  O  3  Y   -0.000035   0.000000   0.000000   0.000000   0.000000
   43  O  3  Z    0.000000  -0.000161  -0.004109   0.012658  -0.017557
   44  O  3 XX    0.000000   0.000339   0.011633  -0.009325   0.010886
   45  O  3 YY    0.000000  -0.000146  -0.004704   0.004313  -0.006896
   46  O  3 ZZ    0.000000  -0.000193  -0.006929   0.005012  -0.003991
   47  O  3 XY   -0.000126   0.000000   0.000000   0.000000   0.000000
   48  O  3 XZ    0.000000   0.000062   0.001362  -0.004647   0.005860
   49  O  3 YZ   -0.000057   0.000000   0.000000   0.000000   0.000000

                     11         12         13         14         15
                   -0.4487    -0.4348    -0.4279    -0.3436    -0.3347
                     B1         B2         A1         A2         B1  
    1  S  1  S    0.000000   0.000000  -0.008844   0.000000   0.000000
    2  S  1  S    0.000000   0.000000   0.031798   0.000000   0.000000
    3  S  1  S    0.000000   0.000000  -0.047187   0.000000   0.000000
    4  S  1  S    0.000000   0.000000  -0.120319   0.000000   0.000000
    5  S  1  X   -0.165074   0.000000   0.000000   0.000000  -0.015951
    6  S  1  Y    0.000000  -0.200349   0.000000   0.000000   0.000000
    7  S  1  Z    0.000000   0.000000  -0.196035   0.000000   0.000000
    8  S  1  X    0.390020   0.000000   0.000000   0.000000   0.032984
    9  S  1  Y    0.000000   0.466035   0.000000   0.000000   0.000000
   10  S  1  Z    0.000000   0.000000   0.453744   0.000000   0.000000
   11  S  1  X    0.001600   0.000000   0.000000   0.000000   0.058413
   12  S  1  Y    0.000000   0.250312   0.000000   0.000000   0.000000
   13  S  1  Z    0.000000   0.000000   0.236861   0.000000   0.000000
   14  S  1 XX    0.000000   0.000000  -0.038600   0.000000   0.000000
   15  S  1 YY    0.000000   0.000000  -0.012843   0.000000   0.000000
   16  S  1 ZZ    0.000000   0.000000   0.051443   0.000000   0.000000
   17  S  1 XY    0.000000   0.000000   0.000000  -0.129747   0.000000
   18  S  1 XZ    0.031854   0.000000   0.000000   0.000000  -0.124462
   19  S  1 YZ    0.000000   0.037334   0.000000   0.000000   0.000000
   20  O  2  S   -0.066205   0.000000   0.008841   0.000000  -0.000334
   21  O  2  S    0.138841   0.000000  -0.018784   0.000000  -0.000652
   22  O  2  S    0.225083   0.000000  -0.031924   0.000000   0.017312
   23  O  2  X   -0.364316   0.000000   0.141991   0.000000   0.159479
   24  O  2  Y    0.000000   0.314335   0.000000   0.461384   0.000000
   25  O  2  Z    0.115708   0.000000   0.282928   0.000000   0.433441
   26  O  2  X   -0.206410   0.000000   0.094079   0.000000   0.109004
   27  O  2  Y    0.000000   0.187167   0.000000   0.323810   0.000000
   28  O  2  Z    0.074732   0.000000   0.169190   0.000000   0.303133
   29  O  2 XX   -0.012583   0.000000   0.013938   0.000000   0.005848
   30  O  2 YY    0.008199   0.000000  -0.003547   0.000000   0.000924
   31  O  2 ZZ    0.004384   0.000000  -0.010391   0.000000  -0.006772
   32  O  2 XY    0.000000   0.021951   0.000000   0.018782   0.000000
   33  O  2 XZ    0.009684   0.000000   0.016720   0.000000   0.018464
   34  O  2 YZ    0.000000  -0.004756   0.000000  -0.004318   0.000000
   35  O  3  S    0.066205   0.000000   0.008841   0.000000   0.000334
   36  O  3  S   -0.138841   0.000000  -0.018784   0.000000   0.000652
   37  O  3  S   -0.225083   0.000000  -0.031924   0.000000  -0.017312
   38  O  3  X   -0.364316   0.000000  -0.141991   0.000000   0.159479
   39  O  3  Y    0.000000   0.314335   0.000000  -0.461384   0.000000
   40  O  3  Z   -0.115708   0.000000   0.282928   0.000000  -0.433441
   41  O  3  X   -0.206410   0.000000  -0.094079   0.000000   0.109004
   42  O  3  Y    0.000000   0.187167   0.000000  -0.323810   0.000000
   43  O  3  Z   -0.074732   0.000000   0.169190   0.000000  -0.303133
   44  O  3 XX    0.012583   0.000000   0.013938   0.000000  -0.005848
   45  O  3 YY   -0.008199   0.000000  -0.003547   0.000000  -0.000924
   46  O  3 ZZ   -0.004384   0.000000  -0.010391   0.000000   0.006772
   47  O  3 XY    0.000000  -0.021951   0.000000   0.018782   0.000000
   48  O  3 XZ    0.009684   0.000000  -0.016720   0.000000   0.018464
   49  O  3 YZ    0.000000  -0.004756   0.000000   0.004318   0.000000

                     16         17         18         19         20
                   -0.2481    -0.1667    -0.1115     0.1410     0.3606
                     A1         B2         A1         B1         B2  
    1  S  1  S    0.026930   0.000000   0.018115   0.000000   0.000000
    2  S  1  S   -0.128758   0.000000  -0.087186   0.000000   0.000000
    3  S  1  S    0.107982   0.000000   0.076888   0.000000   0.000000
    4  S  1  S    0.681059   0.000000   0.561253   0.000000   0.000000
    5  S  1  X    0.000000   0.000000   0.000000  -0.142566   0.000000
    6  S  1  Y    0.000000  -0.214231   0.000000   0.000000   0.285890
    7  S  1  Z    0.100277   0.000000  -0.188529   0.000000   0.000000
    8  S  1  X    0.000000   0.000000   0.000000   0.370355   0.000000
    9  S  1  Y    0.000000   0.543698   0.000000   0.000000  -1.110485
   10  S  1  Z   -0.243015   0.000000   0.488953   0.000000   0.000000
   11  S  1  X    0.000000   0.000000   0.000000   1.617534   0.000000
   12  S  1  Y    0.000000   0.476959   0.000000   0.000000   1.261757
   13  S  1  Z   -0.114629   0.000000   0.531632   0.000000   0.000000
   14  S  1 XX   -0.183697   0.000000  -0.136062   0.000000   0.000000
   15  S  1 YY    0.093671   0.000000   0.093420   0.000000   0.000000
   16  S  1 ZZ    0.090026   0.000000   0.042642   0.000000   0.000000
   17  S  1 XY    0.000000   0.000000   0.000000   0.000000   0.000000
   18  S  1 XZ    0.000000   0.000000   0.000000  -0.160247   0.000000
   19  S  1 YZ    0.000000  -0.018511   0.000000   0.000000  -0.168295
   20  O  2  S    0.011919   0.000000   0.028698  -0.075003   0.000000
   21  O  2  S   -0.031325   0.000000  -0.061938   0.119110   0.000000
   22  O  2  S   -0.093331   0.000000  -0.218658   0.887523   0.000000
   23  O  2  X   -0.279964   0.000000  -0.318069   0.138102   0.000000
   24  O  2  Y    0.000000  -0.392677   0.000000   0.000000  -0.066939
   25  O  2  Z    0.317171   0.000000  -0.242703  -0.185765   0.000000
   26  O  2  X   -0.206887   0.000000  -0.284455   0.347930   0.000000
   27  O  2  Y    0.000000  -0.328154   0.000000   0.000000  -0.108688
   28  O  2  Z    0.236670   0.000000  -0.210942  -0.217086   0.000000
   29  O  2 XX   -0.002973   0.000000  -0.000777   0.012983   0.000000
   30  O  2 YY    0.002051   0.000000   0.001690  -0.003786   0.000000
   31  O  2 ZZ    0.000923   0.000000  -0.000914  -0.009198   0.000000
   32  O  2 XY    0.000000  -0.000752   0.000000   0.000000  -0.028507
   33  O  2 XZ    0.004637   0.000000   0.002324   0.003516   0.000000
   34  O  2 YZ    0.000000  -0.000707   0.000000   0.000000   0.002637
   35  O  3  S    0.011919   0.000000   0.028698   0.075003   0.000000
   36  O  3  S   -0.031325   0.000000  -0.061938  -0.119110   0.000000
   37  O  3  S   -0.093331   0.000000  -0.218658  -0.887523   0.000000
   38  O  3  X    0.279964   0.000000   0.318069   0.138102   0.000000
   39  O  3  Y    0.000000  -0.392677   0.000000   0.000000  -0.066939
   40  O  3  Z    0.317171   0.000000  -0.242703   0.185765   0.000000
   41  O  3  X    0.206887   0.000000   0.284455   0.347930   0.000000
   42  O  3  Y    0.000000  -0.328154   0.000000   0.000000  -0.108688
   43  O  3  Z    0.236670   0.000000  -0.210942   0.217086   0.000000
   44  O  3 XX   -0.002973   0.000000  -0.000777  -0.012983   0.000000
   45  O  3 YY    0.002051   0.000000   0.001690   0.003786   0.000000
   46  O  3 ZZ    0.000923   0.000000  -0.000914   0.009198   0.000000
   47  O  3 XY    0.000000   0.000752   0.000000   0.000000   0.028507
   48  O  3 XZ   -0.004637   0.000000  -0.002324   0.003516   0.000000
   49  O  3 YZ    0.000000  -0.000707   0.000000   0.000000   0.002637

                     21         22         23         24         25
                    0.3608     0.4015     0.4239     0.5135     0.5148
                     A1         A1         B1         B2         A1  
    1  S  1  S   -0.030202  -0.113207   0.000000   0.000000  -0.001693
    2  S  1  S   -0.132636  -0.381440   0.000000   0.000000   0.006734
    3  S  1  S   -0.491921  -1.708083   0.000000   0.000000  -0.010484
    4  S  1  S    0.874652   2.156496   0.000000   0.000000  -0.086804
    5  S  1  X    0.000000   0.000000   0.312003   0.000000   0.000000
    6  S  1  Y    0.000000   0.000000   0.000000   0.053176   0.000000
    7  S  1  Z    0.268028  -0.084463   0.000000   0.000000  -0.051878
    8  S  1  X    0.000000   0.000000  -1.126041   0.000000   0.000000
    9  S  1  Y    0.000000   0.000000   0.000000  -0.206973   0.000000
   10  S  1  Z   -1.030690   0.338302   0.000000   0.000000   0.200009
   11  S  1  X    0.000000   0.000000   1.363137   0.000000   0.000000
   12  S  1  Y    0.000000   0.000000   0.000000   0.194925   0.000000
   13  S  1  Z    1.272780  -0.258265   0.000000   0.000000  -0.213462
   14  S  1 XX    0.145748  -0.012539   0.000000   0.000000  -0.000519
   15  S  1 YY    0.066259  -0.031043   0.000000   0.000000   0.836050
   16  S  1 ZZ   -0.212007   0.043582   0.000000   0.000000  -0.835531
   17  S  1 XY    0.000000   0.000000   0.000000   0.000000   0.000000
   18  S  1 XZ    0.000000   0.000000   0.278531   0.000000   0.000000
   19  S  1 YZ    0.000000   0.000000   0.000000   0.966618   0.000000
   20  O  2  S    0.013240   0.012556  -0.002376   0.000000  -0.004303
   21  O  2  S   -0.000010  -0.020946  -0.061301   0.000000   0.010117
   22  O  2  S   -0.317961  -0.317211   0.486455   0.000000   0.052672
   23  O  2  X    0.091622   0.148441  -0.310843   0.000000   0.030683
   24  O  2  Y    0.000000   0.000000   0.000000  -0.140168   0.000000
   25  O  2  Z   -0.091030  -0.061533   0.130548   0.000000   0.143009
   26  O  2  X   -0.170776  -0.166709   0.042209   0.000000   0.036517
   27  O  2  Y    0.000000   0.000000   0.000000   0.031256   0.000000
   28  O  2  Z   -0.057706   0.076018  -0.019049   0.000000  -0.045125
   29  O  2 XX   -0.042885  -0.045610   0.042148   0.000000  -0.002625
   30  O  2 YY    0.021480   0.027440  -0.029985   0.000000   0.026476
   31  O  2 ZZ    0.021406   0.018170  -0.012163   0.000000  -0.023851
   32  O  2 XY    0.000000   0.000000   0.000000   0.020159   0.000000
   33  O  2 XZ   -0.008746   0.034686  -0.040595   0.000000  -0.021252
   34  O  2 YZ    0.000000   0.000000   0.000000   0.029334   0.000000
   35  O  3  S    0.013240   0.012556   0.002376   0.000000  -0.004303
   36  O  3  S   -0.000010  -0.020946   0.061301   0.000000   0.010117
   37  O  3  S   -0.317961  -0.317211  -0.486455   0.000000   0.052672
   38  O  3  X   -0.091622  -0.148441  -0.310843   0.000000  -0.030683
   39  O  3  Y    0.000000   0.000000   0.000000  -0.140168   0.000000
   40  O  3  Z   -0.091030  -0.061533  -0.130548   0.000000   0.143009
   41  O  3  X    0.170776   0.166709   0.042209   0.000000  -0.036517
   42  O  3  Y    0.000000   0.000000   0.000000   0.031256   0.000000
   43  O  3  Z   -0.057706   0.076018   0.019049   0.000000  -0.045125
   44  O  3 XX   -0.042885  -0.045610  -0.042148   0.000000  -0.002625
   45  O  3 YY    0.021480   0.027440   0.029985   0.000000   0.026476
   46  O  3 ZZ    0.021406   0.018170   0.012163   0.000000  -0.023851
   47  O  3 XY    0.000000   0.000000   0.000000  -0.020159   0.000000
   48  O  3 XZ    0.008746  -0.034686  -0.040595   0.000000   0.021252
   49  O  3 YZ    0.000000   0.000000   0.000000   0.029334   0.000000

                     26         27         28         29         30
                    0.5465     0.6239     0.6609     0.7582     0.7659
                     A2         B1         A1         B1         A2  
    1  S  1  S    0.000000   0.000000   0.022279   0.000000   0.000000
    2  S  1  S    0.000000   0.000000   0.033245   0.000000   0.000000
    3  S  1  S    0.000000   0.000000   0.304267   0.000000   0.000000
    4  S  1  S    0.000000   0.000000   1.167040   0.000000   0.000000
    5  S  1  X    0.000000  -0.151772   0.000000  -0.032543   0.000000
    6  S  1  Y    0.000000   0.000000   0.000000   0.000000   0.000000
    7  S  1  Z    0.000000   0.000000  -0.057177   0.000000   0.000000
    8  S  1  X    0.000000   0.710240   0.000000   0.302876   0.000000
    9  S  1  Y    0.000000   0.000000   0.000000   0.000000   0.000000
   10  S  1  Z    0.000000   0.000000   0.292743   0.000000   0.000000
   11  S  1  X    0.000000   0.333753   0.000000  -0.224169   0.000000
   12  S  1  Y    0.000000   0.000000   0.000000   0.000000   0.000000
   13  S  1  Z    0.000000   0.000000   0.076178   0.000000   0.000000
   14  S  1 XX    0.000000   0.000000   0.644927   0.000000   0.000000
   15  S  1 YY    0.000000   0.000000  -0.347205   0.000000   0.000000
   16  S  1 ZZ    0.000000   0.000000  -0.297722   0.000000   0.000000
   17  S  1 XY    0.850922   0.000000   0.000000   0.000000   0.551701
   18  S  1 XZ    0.000000   0.738239   0.000000   0.169725   0.000000
   19  S  1 YZ    0.000000   0.000000   0.000000   0.000000   0.000000
   20  O  2  S    0.000000  -0.053656   0.061284  -0.004642   0.000000
   21  O  2  S    0.000000   0.171270  -0.169373  -0.054626   0.000000
   22  O  2  S    0.000000   0.356830  -0.473868   0.062854   0.000000
   23  O  2  X    0.000000  -0.015328   0.343310  -0.404593   0.000000
   24  O  2  Y    0.396051   0.000000   0.000000   0.000000  -0.524407
   25  O  2  Z    0.000000   0.304263  -0.020519  -0.456939   0.000000
   26  O  2  X    0.000000   0.652627  -1.095872   0.651905   0.000000
   27  O  2  Y   -0.125823   0.000000   0.000000   0.000000   0.786518
   28  O  2  Z    0.000000  -0.324954   0.253945   0.542505   0.000000
   29  O  2 XX    0.000000  -0.040669   0.001405  -0.030819   0.000000
   30  O  2 YY    0.000000   0.006301  -0.004388   0.013605   0.000000
   31  O  2 ZZ    0.000000   0.034368   0.002983   0.017213   0.000000
   32  O  2 XY   -0.061371   0.000000   0.000000   0.000000  -0.062271
   33  O  2 XZ    0.000000  -0.028924  -0.008778  -0.002916   0.000000
   34  O  2 YZ    0.024605   0.000000   0.000000   0.000000   0.022234
   35  O  3  S    0.000000   0.053656   0.061284   0.004642   0.000000
   36  O  3  S    0.000000  -0.171270  -0.169373   0.054626   0.000000
   37  O  3  S    0.000000  -0.356830  -0.473868  -0.062854   0.000000
   38  O  3  X    0.000000  -0.015328  -0.343310  -0.404593   0.000000
   39  O  3  Y   -0.396051   0.000000   0.000000   0.000000   0.524407
   40  O  3  Z    0.000000  -0.304263  -0.020519   0.456939   0.000000
   41  O  3  X    0.000000   0.652627   1.095872   0.651905   0.000000
   42  O  3  Y    0.125823   0.000000   0.000000   0.000000  -0.786518
   43  O  3  Z    0.000000   0.324954   0.253945  -0.542505   0.000000
   44  O  3 XX    0.000000   0.040669   0.001405   0.030819   0.000000
   45  O  3 YY    0.000000  -0.006301  -0.004388  -0.013605   0.000000
   46  O  3 ZZ    0.000000  -0.034368   0.002983  -0.017213   0.000000
   47  O  3 XY   -0.061371   0.000000   0.000000   0.000000  -0.062271
   48  O  3 XZ    0.000000  -0.028924   0.008778  -0.002916   0.000000
   49  O  3 YZ   -0.024605   0.000000   0.000000   0.000000  -0.022234

                     31         32         33         34         35
                    0.8378     0.8404     0.8497     1.1084     1.5594
                     A1         B1         B2         A1         A1  
    1  S  1  S    0.006761   0.000000   0.000000  -0.019481  -0.013395
    2  S  1  S    0.041481   0.000000   0.000000  -0.234901  -0.149965
    3  S  1  S    0.129737   0.000000   0.000000  -0.517865  -0.313084
    4  S  1  S   -0.084365   0.000000   0.000000   0.948608   1.867023
    5  S  1  X    0.000000  -0.026818   0.000000   0.000000   0.000000
    6  S  1  Y    0.000000   0.000000  -0.025015   0.000000   0.000000
    7  S  1  Z   -0.025706   0.000000   0.000000  -0.044341  -0.006689
    8  S  1  X    0.000000  -0.126588   0.000000   0.000000   0.000000
    9  S  1  Y    0.000000   0.000000   0.103099   0.000000   0.000000
   10  S  1  Z    0.117368   0.000000   0.000000   0.129091   0.086740
   11  S  1  X    0.000000   0.160262   0.000000   0.000000   0.000000
   12  S  1  Y    0.000000   0.000000  -0.719182   0.000000   0.000000
   13  S  1  Z   -0.702408   0.000000   0.000000   0.059344   0.454993
   14  S  1 XX    0.103075   0.000000   0.000000   1.048333   0.307600
   15  S  1 YY    0.113921   0.000000   0.000000  -0.575250  -0.194295
   16  S  1 ZZ   -0.216996   0.000000   0.000000  -0.473083  -0.113305
   17  S  1 XY    0.000000   0.000000   0.000000   0.000000   0.000000
   18  S  1 XZ    0.000000   0.669572   0.000000   0.000000   0.000000
   19  S  1 YZ    0.000000   0.000000  -0.187351   0.000000   0.000000
   20  O  2  S   -0.006602  -0.005355   0.000000   0.036685  -0.006084
   21  O  2  S    0.105248   0.003435   0.000000  -0.094990   1.182392
   22  O  2  S   -0.035784   0.127131   0.000000  -0.428084  -1.821881
   23  O  2  X   -0.130986   0.476150   0.000000  -0.533093   0.060221
   24  O  2  Y    0.000000   0.000000  -0.620580   0.000000   0.000000
   25  O  2  Z   -0.596248  -0.299015   0.000000   0.178352   0.064497
   26  O  2  X    0.164189  -0.431391   0.000000   0.142385  -0.683972
   27  O  2  Y    0.000000   0.000000   0.946600   0.000000   0.000000
   28  O  2  Z    0.915243   0.504594   0.000000   0.024333  -0.022580
   29  O  2 XX   -0.004359  -0.015270   0.000000  -0.034765   0.182986
   30  O  2 YY    0.001101  -0.019269   0.000000  -0.009543  -0.097872
   31  O  2 ZZ    0.003258   0.034539   0.000000   0.044308  -0.085114
   32  O  2 XY    0.000000   0.000000  -0.037878   0.000000   0.000000
   33  O  2 XZ   -0.039220  -0.080874   0.000000  -0.070425  -0.031978
   34  O  2 YZ    0.000000   0.000000   0.000440   0.000000   0.000000
   35  O  3  S   -0.006602   0.005355   0.000000   0.036685  -0.006084
   36  O  3  S    0.105248  -0.003435   0.000000  -0.094990   1.182392
   37  O  3  S   -0.035784  -0.127131   0.000000  -0.428084  -1.821881
   38  O  3  X    0.130986   0.476150   0.000000   0.533093  -0.060221
   39  O  3  Y    0.000000   0.000000  -0.620580   0.000000   0.000000
   40  O  3  Z   -0.596248   0.299015   0.000000   0.178352   0.064497
   41  O  3  X   -0.164189  -0.431391   0.000000  -0.142385   0.683972
   42  O  3  Y    0.000000   0.000000   0.946600   0.000000   0.000000
   43  O  3  Z    0.915243  -0.504594   0.000000   0.024333  -0.022580
   44  O  3 XX   -0.004359   0.015270   0.000000  -0.034765   0.182986
   45  O  3 YY    0.001101   0.019269   0.000000  -0.009543  -0.097872
   46  O  3 ZZ    0.003258  -0.034539   0.000000   0.044308  -0.085114
   47  O  3 XY    0.000000   0.000000   0.037878   0.000000   0.000000
   48  O  3 XZ    0.039220  -0.080874   0.000000   0.070425   0.031978
   49  O  3 YZ    0.000000   0.000000   0.000440   0.000000   0.000000

                     36         37         38         39         40
                    1.7629     2.0532     2.0533     2.0686     2.0747
                     B1         A2         B1         B2         A1  
    1  S  1  S    0.000000   0.000000   0.000000   0.000000   0.002105
    2  S  1  S    0.000000   0.000000   0.000000   0.000000   0.010243
    3  S  1  S    0.000000   0.000000   0.000000   0.000000   0.038015
    4  S  1  S    0.000000   0.000000   0.000000   0.000000  -0.021628
    5  S  1  X   -0.022930   0.000000   0.000443   0.000000   0.000000
    6  S  1  Y    0.000000   0.000000   0.000000  -0.023520   0.000000
    7  S  1  Z    0.000000   0.000000   0.000000   0.000000  -0.008528
    8  S  1  X    0.260281   0.000000  -0.003486   0.000000   0.000000
    9  S  1  Y    0.000000   0.000000   0.000000   0.077598   0.000000
   10  S  1  Z    0.000000   0.000000   0.000000   0.000000   0.032976
   11  S  1  X    1.631104   0.000000   0.030139   0.000000   0.000000
   12  S  1  Y    0.000000   0.000000   0.000000   0.032148   0.000000
   13  S  1  Z    0.000000   0.000000   0.000000   0.000000  -0.001846
   14  S  1 XX    0.000000   0.000000   0.000000   0.000000  -0.038512
   15  S  1 YY    0.000000   0.000000   0.000000   0.000000   0.107079
   16  S  1 ZZ    0.000000   0.000000   0.000000   0.000000  -0.068567
   17  S  1 XY    0.000000   0.021332   0.000000   0.000000   0.000000
   18  S  1 XZ    0.189235   0.000000  -0.020744   0.000000   0.000000
   19  S  1 YZ    0.000000   0.000000   0.000000  -0.058385   0.000000
   20  O  2  S   -0.004263   0.000000   0.000296   0.000000  -0.001426
   21  O  2  S   -1.265232   0.000000  -0.017539   0.000000   0.021321
   22  O  2  S    2.222913   0.000000   0.028702   0.000000  -0.008758
   23  O  2  X    0.009211   0.000000   0.000644   0.000000   0.020003
   24  O  2  Y    0.000000  -0.004457   0.000000   0.022348   0.000000
   25  O  2  Z    0.077645   0.000000   0.006756   0.000000  -0.000684
   26  O  2  X    0.468428   0.000000  -0.000618   0.000000  -0.017236
   27  O  2  Y    0.000000   0.007636   0.000000  -0.037947   0.000000
   28  O  2  Z   -0.315988   0.000000  -0.012296   0.000000  -0.001306
   29  O  2 XX   -0.183734   0.000000  -0.087934   0.000000  -0.023790
   30  O  2 YY    0.103041   0.000000   0.614193   0.000000  -0.592704
   31  O  2 ZZ    0.080693   0.000000  -0.526260   0.000000   0.616494
   32  O  2 XY    0.000000   0.257728   0.000000  -0.096390   0.000000
   33  O  2 XZ    0.123707   0.000000  -0.242641   0.000000   0.112171
   34  O  2 YZ    0.000000   0.658598   0.000000   0.702052   0.000000
   35  O  3  S    0.004263   0.000000  -0.000296   0.000000  -0.001426
   36  O  3  S    1.265232   0.000000   0.017539   0.000000   0.021321
   37  O  3  S   -2.222913   0.000000  -0.028702   0.000000  -0.008758
   38  O  3  X    0.009211   0.000000   0.000644   0.000000  -0.020003
   39  O  3  Y    0.000000   0.004457   0.000000   0.022348   0.000000
   40  O  3  Z   -0.077645   0.000000  -0.006756   0.000000  -0.000684
   41  O  3  X    0.468428   0.000000  -0.000618   0.000000   0.017236
   42  O  3  Y    0.000000  -0.007636   0.000000  -0.037947   0.000000
   43  O  3  Z    0.315988   0.000000   0.012296   0.000000  -0.001306
   44  O  3 XX    0.183734   0.000000   0.087934   0.000000  -0.023790
   45  O  3 YY   -0.103041   0.000000  -0.614193   0.000000  -0.592704
   46  O  3 ZZ   -0.080693   0.000000   0.526260   0.000000   0.616494
   47  O  3 XY    0.000000   0.257728   0.000000   0.096390   0.000000
   48  O  3 XZ    0.123707   0.000000  -0.242641   0.000000  -0.112171
   49  O  3 YZ    0.000000  -0.658598   0.000000   0.702052   0.000000

                     41         42         43         44         45
                    2.1210     2.1967     2.2868     2.3466     2.7616
                     B2         A1         B1         A2         B1  
    1  S  1  S    0.000000  -0.007809   0.000000   0.000000   0.000000
    2  S  1  S    0.000000  -0.018634   0.000000   0.000000   0.000000
    3  S  1  S    0.000000  -0.121225   0.000000   0.000000   0.000000
    4  S  1  S    0.000000  -0.183959   0.000000   0.000000   0.000000
    5  S  1  X    0.000000   0.000000   0.042075   0.000000  -0.215696
    6  S  1  Y    0.054643   0.000000   0.000000   0.000000   0.000000
    7  S  1  Z    0.000000   0.061646   0.000000   0.000000   0.000000
    8  S  1  X    0.000000   0.000000  -0.233691   0.000000   1.176471
    9  S  1  Y   -0.176854   0.000000   0.000000   0.000000   0.000000
   10  S  1  Z    0.000000  -0.226228   0.000000   0.000000   0.000000
   11  S  1  X    0.000000   0.000000  -0.082497   0.000000   0.485993
   12  S  1  Y   -0.122619   0.000000   0.000000   0.000000   0.000000
   13  S  1  Z    0.000000  -0.179144   0.000000   0.000000   0.000000
   14  S  1 XX    0.000000   0.174421   0.000000   0.000000   0.000000
   15  S  1 YY    0.000000   0.043021   0.000000   0.000000   0.000000
   16  S  1 ZZ    0.000000  -0.217441   0.000000   0.000000   0.000000
   17  S  1 XY    0.000000   0.000000   0.000000   0.527585   0.000000
   18  S  1 XZ    0.000000   0.000000   0.431968   0.000000   0.448314
   19  S  1 YZ   -0.169140   0.000000   0.000000   0.000000   0.000000
   20  O  2  S    0.000000   0.002218  -0.000959   0.000000  -0.028542
   21  O  2  S    0.000000  -0.212845   0.177981   0.000000  -0.587830
   22  O  2  S    0.000000   0.278611  -0.231775   0.000000   1.235780
   23  O  2  X    0.000000  -0.098778   0.060421   0.000000   0.014163
   24  O  2  Y   -0.063597   0.000000   0.000000  -0.033432   0.000000
   25  O  2  Z    0.000000  -0.044511  -0.056275   0.000000   0.012558
   26  O  2  X    0.000000   0.205137  -0.095568   0.000000   0.660768
   27  O  2  Y    0.136366   0.000000   0.000000   0.165438   0.000000
   28  O  2  Z    0.000000   0.131373   0.179449   0.000000  -0.164731
   29  O  2 XX    0.000000   0.421358   0.198187   0.000000   0.774027
   30  O  2 YY    0.000000  -0.143588   0.128991   0.000000  -0.371337
   31  O  2 ZZ    0.000000  -0.277771  -0.327178   0.000000  -0.402690
   32  O  2 XY    0.714917   0.000000   0.000000   0.697674   0.000000
   33  O  2 XZ    0.000000   0.577182   0.652009   0.000000  -0.208756
   34  O  2 YZ    0.090944   0.000000   0.000000  -0.267827   0.000000
   35  O  3  S    0.000000   0.002218   0.000959   0.000000   0.028542
   36  O  3  S    0.000000  -0.212845  -0.177981   0.000000   0.587830
   37  O  3  S    0.000000   0.278611   0.231775   0.000000  -1.235780
   38  O  3  X    0.000000   0.098778   0.060421   0.000000   0.014163
   39  O  3  Y   -0.063597   0.000000   0.000000   0.033432   0.000000
   40  O  3  Z    0.000000  -0.044511   0.056275   0.000000  -0.012558
   41  O  3  X    0.000000  -0.205137  -0.095568   0.000000   0.660768
   42  O  3  Y    0.136366   0.000000   0.000000  -0.165438   0.000000
   43  O  3  Z    0.000000   0.131373  -0.179449   0.000000   0.164731
   44  O  3 XX    0.000000   0.421358  -0.198187   0.000000  -0.774027
   45  O  3 YY    0.000000  -0.143588  -0.128991   0.000000   0.371337
   46  O  3 ZZ    0.000000  -0.277771   0.327178   0.000000   0.402690
   47  O  3 XY   -0.714917   0.000000   0.000000   0.697674   0.000000
   48  O  3 XZ    0.000000  -0.577182   0.652009   0.000000  -0.208756
   49  O  3 YZ    0.090944   0.000000   0.000000   0.267827   0.000000

                     46
                    2.8248
                     A1  
    1  S  1  S    0.042914
    2  S  1  S   -0.024168
    3  S  1  S    0.501478
    4  S  1  S    1.338549
    5  S  1  X    0.000000
    6  S  1  Y    0.000000
    7  S  1  Z   -0.056637
    8  S  1  X    0.000000
    9  S  1  Y    0.000000
   10  S  1  Z    0.325235
   11  S  1  X    0.000000
   12  S  1  Y    0.000000
   13  S  1  Z    0.130567
   14  S  1 XX    0.940886
   15  S  1 YY   -0.498426
   16  S  1 ZZ   -0.442460
   17  S  1 XY    0.000000
   18  S  1 XZ    0.000000
   19  S  1 YZ    0.000000
   20  O  2  S    0.036677
   21  O  2  S    0.562344
   22  O  2  S   -1.336844
   23  O  2  X   -0.072811
   24  O  2  Y    0.000000
   25  O  2  Z    0.033256
   26  O  2  X   -0.760365
   27  O  2  Y    0.000000
   28  O  2  Z    0.221805
   29  O  2 XX   -0.682324
   30  O  2 YY    0.429521
   31  O  2 ZZ    0.252803
   32  O  2 XY    0.000000
   33  O  2 XZ    0.501925
   34  O  2 YZ    0.000000
   35  O  3  S    0.036677
   36  O  3  S    0.562344
   37  O  3  S   -1.336844
   38  O  3  X    0.072811
   39  O  3  Y    0.000000
   40  O  3  Z    0.033256
   41  O  3  X    0.760365
   42  O  3  Y    0.000000
   43  O  3  Z    0.221805
   44  O  3 XX   -0.682324
   45  O  3 YY    0.429521
   46  O  3 ZZ    0.252803
   47  O  3 XY    0.000000
   48  O  3 XZ   -0.501925
   49  O  3 YZ    0.000000
 ...... END OF RHF CALCULATION ......
 STEP CPU TIME =     4.32 TOTAL CPU TIME =        4.5 (    0.1 MIN)
 TOTAL WALL CLOCK TIME=        4.5 SECONDS, CPU UTILIZATION IS 100.00%

     ---------------------------------------------------------------------
     PROPERTIES FOR THE PBE      DFT FUNCTIONAL (RHF  TYPE) DENSITY MATRIX
     ---------------------------------------------------------------------

          -----------------
          ENERGY COMPONENTS
          -----------------

         WAVEFUNCTION NORMALIZATION =       1.0000000000

                ONE ELECTRON ENERGY =    -958.1631583284
                TWO ELECTRON ENERGY =     307.9397134593
           NUCLEAR REPULSION ENERGY =     102.0002686992
                                      ------------------
                       TOTAL ENERGY =    -548.2231761700

 ELECTRON-ELECTRON POTENTIAL ENERGY =     307.9397134593
  NUCLEUS-ELECTRON POTENTIAL ENERGY =   -1505.6539142885
   NUCLEUS-NUCLEUS POTENTIAL ENERGY =     102.0002686992
                                      ------------------
             TOTAL POTENTIAL ENERGY =   -1095.7139321300
               TOTAL KINETIC ENERGY =     547.4907559600
                 VIRIAL RATIO (V/T) =       2.0013377764

          ---------------------------------------
          MULLIKEN AND LOWDIN POPULATION ANALYSES
          ---------------------------------------

     ATOMIC MULLIKEN POPULATION IN EACH MOLECULAR ORBITAL

                      1          2          3          4          5

                  2.000000   2.000000   2.000000   2.000000   2.000000

    1             2.000026   0.001866   0.000989   2.001733   1.999647
    2            -0.000013   0.999067   0.999505  -0.000867   0.000177
    3            -0.000013   0.999067   0.999505  -0.000867   0.000177

                      6          7          8          9         10

                  2.000000   2.000000   2.000000   2.000000   2.000000

    1             1.999999   1.999929   0.681971   0.330347   0.830823
    2             0.000000   0.000035   0.659014   0.834826   0.584589
    3             0.000000   0.000035   0.659014   0.834826   0.584589

                     11         12         13         14         15

                  2.000000   2.000000   2.000000   2.000000   2.000000

    1             0.370696   1.006503   0.986359   0.106186   0.117687
    2             0.814652   0.496749   0.506820   0.946907   0.941157
    3             0.814652   0.496749   0.506820   0.946907   0.941157

                     16

                  2.000000

    1             0.830042
    2             0.584979
    3             0.584979

               ----- POPULATIONS IN EACH AO -----
                             MULLIKEN      LOWDIN
              1  S  1  S      2.00023     1.99587
              2  S  1  S      2.01024     1.96792
              3  S  1  S      0.96671     0.59685
              4  S  1  S      0.96545     0.57630
              5  S  1  X      1.99676     1.95393
              6  S  1  Y      1.99619     1.95377
              7  S  1  Z      1.99680     1.95913
              8  S  1  X      0.67582     0.60238
              9  S  1  Y      0.62906     0.59420
             10  S  1  Z      0.75986     0.73156
             11  S  1  X      0.02992     0.24473
             12  S  1  Y      0.37492     0.43244
             13  S  1  Z      0.37372     0.45656
             14  S  1 XX      0.07218     0.33978
             15  S  1 YY      0.18668     0.30311
             16  S  1 ZZ      0.10619     0.30209
             17  S  1 XY      0.11774     0.12847
             18  S  1 XZ      0.00634     0.14288
             19  S  1 YZ      0.00000     0.00603
             20  O  2  S      1.99806     1.98077
             21  O  2  S      0.84326     0.65837
             22  O  2  S      1.04736     0.55740
             23  O  2  X      0.89922     0.85976
             24  O  2  Y      0.86285     0.82339
             25  O  2  Z      1.04968     1.01586
             26  O  2  X      0.43015     0.54092
             27  O  2  Y      0.57465     0.61159
             28  O  2  Z      0.64236     0.67852
             29  O  2 XX      0.00245     0.21052
             30  O  2 YY      0.00580     0.20337
             31  O  2 ZZ      0.00584     0.19980
             32  O  2 XY      0.00560     0.00715
             33  O  2 XZ      0.00033     0.00817
             34  O  2 YZ      0.00000     0.00041
             35  O  3  S      1.99806     1.98077
             36  O  3  S      0.84326     0.65837
             37  O  3  S      1.04736     0.55740
             38  O  3  X      0.89922     0.85976
             39  O  3  Y      0.86285     0.82339
             40  O  3  Z      1.04968     1.01586
             41  O  3  X      0.43015     0.54092
             42  O  3  Y      0.57465     0.61159
             43  O  3  Z      0.64236     0.67852
             44  O  3 XX      0.00245     0.21052
             45  O  3 YY      0.00580     0.20337
             46  O  3 ZZ      0.00584     0.19980
             47  O  3 XY      0.00560     0.00715
             48  O  3 XZ      0.00033     0.00817
             49  O  3 YZ      0.00000     0.00041

          ----- MULLIKEN ATOMIC OVERLAP POPULATIONS -----
          (OFF-DIAGONAL ELEMENTS NEED TO BE MULTIPLIED BY 2)

             1           2           3

    1   14.8312393
    2    0.2167823   8.1476937
    3    0.2167823   0.0031221   8.1476937

          TOTAL MULLIKEN AND LOWDIN ATOMIC POPULATIONS
       ATOM         MULL.POP.    CHARGE          LOW.POP.     CHARGE
    1 S            15.264804    0.735196        15.287989    0.712011
    2 O             8.367598   -0.367598         8.356005   -0.356005
    3 O             8.367598   -0.367598         8.356005   -0.356005

          MULLIKEN SPHERICAL HARMONIC POPULATIONS
       ATOM           S       P       D      F      G      H      I    TOTAL
    1 S             5.94    8.83    0.49   0.00   0.00   0.00   0.00   15.26
    2 O             3.89    4.46    0.02   0.00   0.00   0.00   0.00    8.37
    3 O             3.89    4.46    0.02   0.00   0.00   0.00   0.00    8.37

          -------------------------------
          BOND ORDER AND VALENCE ANALYSIS     BOND ORDER THRESHOLD=0.050
          -------------------------------

                   BOND                       BOND                       BOND
  ATOM PAIR DIST  ORDER      ATOM PAIR DIST  ORDER      ATOM PAIR DIST  ORDER
    1   2  1.500  1.810        1   3  1.500  1.810        2   3  2.898  0.332

                       TOTAL       BONDED        FREE
      ATOM            VALENCE     VALENCE     VALENCE
    1 S                 3.621       3.621       0.000
    2 O                 2.143       2.143       0.000
    3 O                 2.143       2.143       0.000

          ---------------------
          ELECTROSTATIC MOMENTS
          ---------------------

 POINT   1           X           Y           Z (BOHR)    CHARGE
                 0.000000    0.000000    0.000000        0.00 (A.U.)
         DX          DY          DZ         /D/  (DEBYE)
     0.000000    0.000000   -0.401164    0.401164
 ...... END OF PROPERTY EVALUATION ......
 STEP CPU TIME =     0.01 TOTAL CPU TIME =        4.5 (    0.1 MIN)
 TOTAL WALL CLOCK TIME=        4.5 SECONDS, CPU UTILIZATION IS 100.00%
               580000  WORDS OF DYNAMIC MEMORY USED
 EXECUTION OF GAMESS TERMINATED NORMALLY Thu Feb 26 00:17:18 2015
 DDI: 263624 bytes (0.3 MB / 0 MWords) used by master data server.

 ----------------------------------------
 CPU timing information for all processes
 ========================================
 0: 4.494 + 0.23 = 4.518
 ----------------------------------------
 ddikick.x: exited gracefully.
----- accounting info -----
Files used on the master node dftfe.crc.nd.edu were:
-rw-r--r-- 1 pmehta1 campus   37475 Feb 26 00:17 /tmp/gamess.dat
-rw-r--r-- 1 pmehta1 campus     142 Feb 26 00:17 /tmp/gamess.F05
-rw-r--r-- 1 pmehta1 campus 2160288 Feb 26 00:17 /tmp/gamess.F08
-rw-r--r-- 1 pmehta1 campus 1220440 Feb 26 00:17 /tmp/gamess.F10
Thu Feb 26 00:17:21 EST 2015
0.238u 0.185s 0:07.95 5.1%	0+0k 0+112io 0pf+0w
