   4   4   1   0
  0.1820629E+02  0.4176000E-09  0.4176000E-09  0.4176000E-09  0.3500000E-15
  1.000000000000000E-004
  CAR 
 Au, FCC                                 
     13.30931468     -5.04819431  301      4.79923178      1.00000000
     -5.048  0.0000E+00  0.0000E+00
     -4.987  0.0000E+00  0.0000E+00
     -4.926  0.0000E+00  0.0000E+00
     -4.865  0.0000E+00  0.0000E+00
     -4.803  0.0000E+00  0.0000E+00
     -4.742  0.0000E+00  0.0000E+00
     -4.681  0.0000E+00  0.0000E+00
     -4.620  0.4032E-16  0.2467E-17
     -4.559  0.3164E-13  0.1938E-14
     -4.497  0.1269E-10  0.7785E-12
     -4.436  0.2443E-08  0.1503E-09
     -4.375  0.2265E-06  0.1401E-07
     -4.314  0.1016E-04  0.6355E-06
     -4.253  0.2212E-03  0.1417E-04
     -4.192  0.2352E-02  0.1581E-03
     -4.130  0.1227E-01  0.9092E-03
     -4.069  0.3158E-01  0.2841E-02
     -4.008  0.4017E-01  0.5300E-02
     -3.947  0.2529E-01  0.6847E-02
     -3.886  0.7864E-02  0.7328E-02
     -3.824  0.1204E-02  0.7402E-02
     -3.763  0.9504E-04  0.7407E-02
     -3.702  0.1515E-03  0.7417E-02
     -3.641  0.2280E-02  0.7556E-02
     -3.580  0.1716E-01  0.8607E-02
     -3.518  0.6356E-01  0.1250E-01
     -3.457  0.1162E+00  0.1961E-01
     -3.396  0.1052E+00  0.2604E-01
     -3.335  0.4705E-01  0.2892E-01
     -3.274  0.1039E-01  0.2956E-01
     -3.212  0.1156E-02  0.2963E-01
     -3.151  0.7108E-03  0.2967E-01
     -3.090  0.6959E-02  0.3010E-01
     -3.029  0.3649E-01  0.3233E-01
     -2.968  0.9434E-01  0.3810E-01
     -2.906  0.1206E+00  0.4548E-01
     -2.845  0.7629E-01  0.5015E-01
     -2.784  0.2400E-01  0.5162E-01
     -2.723  0.5490E-02  0.5196E-01
     -2.662  0.1081E-01  0.5262E-01
     -2.601  0.3169E-01  0.5456E-01
     -2.539  0.5901E-01  0.5817E-01
     -2.478  0.9421E-01  0.6393E-01
     -2.417  0.1270E+00  0.7170E-01
     -2.356  0.1045E+00  0.7810E-01
     -2.295  0.4482E-01  0.8084E-01
     -2.233  0.1126E-01  0.8153E-01
     -2.172  0.1830E-01  0.8265E-01
     -2.111  0.8734E-01  0.8799E-01
     -2.050  0.2273E+00  0.1019E+00
     -1.989  0.3246E+00  0.1218E+00
     -1.927  0.2832E+00  0.1391E+00
     -1.866  0.1852E+00  0.1504E+00
     -1.805  0.1524E+00  0.1598E+00
     -1.744  0.2077E+00  0.1725E+00
     -1.683  0.2362E+00  0.1869E+00
     -1.621  0.1697E+00  0.1973E+00
     -1.560  0.1454E+00  0.2062E+00
     -1.499  0.2892E+00  0.2239E+00
     -1.438  0.5336E+00  0.2565E+00
     -1.377  0.7010E+00  0.2994E+00
     -1.316  0.6827E+00  0.3412E+00
     -1.254  0.6222E+00  0.3793E+00
     -1.193  0.6989E+00  0.4221E+00
     -1.132  0.7907E+00  0.4704E+00
     -1.071  0.8218E+00  0.5207E+00
     -1.010  0.8489E+00  0.5727E+00
     -0.948  0.7858E+00  0.6208E+00
     -0.887  0.6854E+00  0.6627E+00
     -0.826  0.6377E+00  0.7017E+00
     -0.765  0.6541E+00  0.7418E+00
     -0.704  0.8497E+00  0.7937E+00
     -0.642  0.9959E+00  0.8547E+00
     -0.581  0.7763E+00  0.9022E+00
     -0.520  0.5166E+00  0.9338E+00
     -0.459  0.4368E+00  0.9605E+00
     -0.398  0.4316E+00  0.9869E+00
     -0.336  0.5348E+00  0.1020E+01
     -0.275  0.6989E+00  0.1062E+01
     -0.214  0.7891E+00  0.1111E+01
     -0.153  0.7688E+00  0.1158E+01
     -0.092  0.7490E+00  0.1204E+01
     -0.030  0.7387E+00  0.1249E+01
      0.031  0.6459E+00  0.1288E+01
      0.092  0.6840E+00  0.1330E+01
      0.153  0.9663E+00  0.1389E+01
      0.214  0.1248E+01  0.1466E+01
      0.275  0.1216E+01  0.1540E+01
      0.337  0.8266E+00  0.1591E+01
      0.398  0.5356E+00  0.1623E+01
      0.459  0.6876E+00  0.1666E+01
      0.520  0.1170E+01  0.1737E+01
      0.581  0.1526E+01  0.1830E+01
      0.643  0.1425E+01  0.1918E+01
      0.704  0.1130E+01  0.1987E+01
      0.765  0.1048E+01  0.2051E+01
      0.826  0.1231E+01  0.2126E+01
      0.887  0.1348E+01  0.2209E+01
      0.949  0.1135E+01  0.2278E+01
      1.010  0.8239E+00  0.2329E+01
      1.071  0.7015E+00  0.2372E+01
      1.132  0.7532E+00  0.2418E+01
      1.193  0.8239E+00  0.2468E+01
      1.255  0.8880E+00  0.2522E+01
      1.316  0.9162E+00  0.2578E+01
      1.377  0.8542E+00  0.2631E+01
      1.438  0.7048E+00  0.2674E+01
      1.499  0.5635E+00  0.2708E+01
      1.561  0.7171E+00  0.2752E+01
      1.622  0.1087E+01  0.2819E+01
      1.683  0.1243E+01  0.2895E+01
      1.744  0.1152E+01  0.2965E+01
      1.805  0.9992E+00  0.3026E+01
      1.866  0.8207E+00  0.3077E+01
      1.928  0.6245E+00  0.3115E+01
      1.989  0.5463E+00  0.3148E+01
      2.050  0.5790E+00  0.3184E+01
      2.111  0.6603E+00  0.3224E+01
      2.172  0.8068E+00  0.3274E+01
      2.234  0.8500E+00  0.3326E+01
      2.295  0.8849E+00  0.3380E+01
      2.356  0.1070E+01  0.3445E+01
      2.417  0.1042E+01  0.3509E+01
      2.478  0.6817E+00  0.3551E+01
      2.540  0.4125E+00  0.3576E+01
      2.601  0.4908E+00  0.3606E+01
      2.662  0.9034E+00  0.3661E+01
      2.723  0.1368E+01  0.3745E+01
      2.784  0.1455E+01  0.3834E+01
      2.846  0.1277E+01  0.3912E+01
      2.907  0.1097E+01  0.3979E+01
      2.968  0.8447E+00  0.4031E+01
      3.029  0.6725E+00  0.4072E+01
      3.090  0.6919E+00  0.4114E+01
      3.151  0.6274E+00  0.4153E+01
      3.213  0.3948E+00  0.4177E+01
      3.274  0.2157E+00  0.4190E+01
      3.335  0.1322E+00  0.4198E+01
      3.396  0.1421E+00  0.4207E+01
      3.457  0.2768E+00  0.4224E+01
      3.519  0.3614E+00  0.4246E+01
      3.580  0.2488E+00  0.4261E+01
      3.641  0.1161E+00  0.4268E+01
      3.702  0.1066E+00  0.4275E+01
      3.763  0.1333E+00  0.4283E+01
      3.825  0.1280E+00  0.4291E+01
      3.886  0.1322E+00  0.4299E+01
      3.947  0.1194E+00  0.4306E+01
      4.008  0.6203E-01  0.4310E+01
      4.069  0.1632E-01  0.4311E+01
      4.131  0.2120E-02  0.4311E+01
      4.192  0.1349E-03  0.4311E+01
      4.253  0.4723E-05  0.4311E+01
      4.314  0.2835E-04  0.4311E+01
      4.375  0.7165E-03  0.4311E+01
      4.437  0.8971E-02  0.4312E+01
      4.498  0.5662E-01  0.4315E+01
      4.559  0.1874E+00  0.4327E+01
      4.620  0.3495E+00  0.4348E+01
      4.681  0.4014E+00  0.4373E+01
      4.742  0.2972E+00  0.4391E+01
      4.804  0.1597E+00  0.4401E+01
      4.865  0.1218E+00  0.4408E+01
      4.926  0.1305E+00  0.4416E+01
      4.987  0.1205E+00  0.4423E+01
      5.048  0.1670E+00  0.4434E+01
      5.110  0.2423E+00  0.4448E+01
      5.171  0.1986E+00  0.4461E+01
      5.232  0.8160E-01  0.4466E+01
      5.293  0.1656E-01  0.4467E+01
      5.354  0.1650E-02  0.4467E+01
      5.416  0.8030E-04  0.4467E+01
      5.477  0.1985E-05  0.4467E+01
      5.538  0.5926E-05  0.4467E+01
      5.599  0.2000E-03  0.4467E+01
      5.660  0.3322E-02  0.4467E+01
      5.722  0.2718E-01  0.4469E+01
      5.783  0.1101E+00  0.4475E+01
      5.844  0.2218E+00  0.4489E+01
      5.905  0.2256E+00  0.4503E+01
      5.966  0.1370E+00  0.4511E+01
      6.028  0.1289E+00  0.4519E+01
      6.089  0.2092E+00  0.4532E+01
      6.150  0.2242E+00  0.4545E+01
      6.211  0.1529E+00  0.4555E+01
      6.272  0.1493E+00  0.4564E+01
      6.333  0.2296E+00  0.4578E+01
      6.395  0.2219E+00  0.4592E+01
      6.456  0.1083E+00  0.4598E+01
      6.517  0.2615E-01  0.4600E+01
      6.578  0.3104E-02  0.4600E+01
      6.639  0.1842E-03  0.4600E+01
      6.701  0.1531E-03  0.4600E+01
      6.762  0.2664E-02  0.4600E+01
      6.823  0.2344E-01  0.4602E+01
      6.884  0.1014E+00  0.4608E+01
      6.945  0.2163E+00  0.4621E+01
      7.007  0.2283E+00  0.4635E+01
      7.068  0.1192E+00  0.4642E+01
      7.129  0.3085E-01  0.4644E+01
      7.190  0.6080E-02  0.4645E+01
      7.251  0.2079E-01  0.4646E+01
      7.313  0.9722E-01  0.4652E+01
      7.374  0.2435E+00  0.4667E+01
      7.435  0.3609E+00  0.4689E+01
      7.496  0.3615E+00  0.4711E+01
      7.557  0.2450E+00  0.4726E+01
      7.618  0.9838E-01  0.4732E+01
      7.680  0.2108E-01  0.4733E+01
      7.741  0.4369E-02  0.4733E+01
      7.802  0.1451E-01  0.4734E+01
      7.863  0.4804E-01  0.4737E+01
      7.924  0.7961E-01  0.4742E+01
      7.986  0.6757E-01  0.4746E+01
      8.047  0.4740E-01  0.4749E+01
      8.108  0.9984E-01  0.4755E+01
      8.169  0.2177E+00  0.4769E+01
      8.230  0.2790E+00  0.4786E+01
      8.292  0.2789E+00  0.4803E+01
      8.353  0.2882E+00  0.4820E+01
      8.414  0.2652E+00  0.4837E+01
      8.475  0.2600E+00  0.4853E+01
      8.536  0.2564E+00  0.4868E+01
      8.598  0.1579E+00  0.4878E+01
      8.659  0.5013E-01  0.4881E+01
      8.720  0.7885E-02  0.4881E+01
      8.781  0.6084E-03  0.4881E+01
      8.842  0.2289E-04  0.4881E+01
      8.904  0.4547E-06  0.4881E+01
      8.965  0.2671E-05  0.4881E+01
      9.026  0.9361E-04  0.4881E+01
      9.087  0.1599E-02  0.4882E+01
      9.148  0.1336E-01  0.4882E+01
      9.209  0.5485E-01  0.4886E+01
      9.271  0.1112E+00  0.4893E+01
      9.332  0.1115E+00  0.4899E+01
      9.393  0.5531E-01  0.4903E+01
      9.454  0.1364E-01  0.4904E+01
      9.515  0.3236E-02  0.4904E+01
      9.577  0.1357E-01  0.4905E+01
      9.638  0.5676E-01  0.4908E+01
      9.699  0.1291E+00  0.4916E+01
      9.760  0.1970E+00  0.4928E+01
      9.821  0.2576E+00  0.4944E+01
      9.883  0.2502E+00  0.4959E+01
      9.944  0.1396E+00  0.4968E+01
     10.005  0.4937E-01  0.4971E+01
     10.066  0.6117E-01  0.4974E+01
     10.127  0.1714E+00  0.4985E+01
     10.189  0.3021E+00  0.5003E+01
     10.250  0.3361E+00  0.5024E+01
     10.311  0.3126E+00  0.5043E+01
     10.372  0.2762E+00  0.5060E+01
     10.433  0.1665E+00  0.5070E+01
     10.494  0.5391E-01  0.5073E+01
     10.556  0.9065E-02  0.5074E+01
     10.617  0.4576E-02  0.5074E+01
     10.678  0.2339E-01  0.5076E+01
     10.739  0.7696E-01  0.5080E+01
     10.800  0.1592E+00  0.5090E+01
     10.862  0.2505E+00  0.5106E+01
     10.923  0.3210E+00  0.5125E+01
     10.984  0.2903E+00  0.5143E+01
     11.045  0.1551E+00  0.5152E+01
     11.106  0.4406E-01  0.5155E+01
     11.168  0.6344E-02  0.5156E+01
     11.229  0.4523E-03  0.5156E+01
     11.290  0.1578E-04  0.5156E+01
     11.351  0.2673E-06  0.5156E+01
     11.412  0.2188E-08  0.5156E+01
     11.474  0.8612E-11  0.5156E+01
     11.535  0.1629E-13  0.5156E+01
     11.596  0.0000E+00  0.5156E+01
     11.657  0.0000E+00  0.5156E+01
     11.718  0.8971E-14  0.5156E+01
     11.780  0.4702E-11  0.5156E+01
     11.841  0.1185E-08  0.5156E+01
     11.902  0.1440E-06  0.5156E+01
     11.963  0.8490E-05  0.5156E+01
     12.024  0.2452E-03  0.5156E+01
     12.085  0.3516E-02  0.5156E+01
     12.147  0.2553E-01  0.5157E+01
     12.208  0.9650E-01  0.5163E+01
     12.269  0.1956E+00  0.5175E+01
     12.330  0.2179E+00  0.5189E+01
     12.391  0.1339E+00  0.5197E+01
     12.453  0.4458E-01  0.5199E+01
     12.514  0.7811E-02  0.5200E+01
     12.575  0.6994E-03  0.5200E+01
     12.636  0.3130E-04  0.5200E+01
     12.697  0.6889E-06  0.5200E+01
     12.759  0.7379E-08  0.5200E+01
     12.820  0.3820E-10  0.5200E+01
     12.881  0.9507E-13  0.5200E+01
     12.942  0.1210E-15  0.5200E+01
     13.003  0.0000E+00  0.5200E+01
     13.065  0.0000E+00  0.5200E+01
     13.126  0.0000E+00  0.5200E+01
     13.187  0.0000E+00  0.5200E+01
     13.248  0.0000E+00  0.5200E+01
     13.309  0.0000E+00  0.5200E+01
     13.30931468     -5.04819431  301      4.79923178      1.00000000
     -5.048  0.0000E+00  0.0000E+00  0.0000E+00  0.0000E+00  0.0000E+00  0.0000E+00  0.0000E+00  0.0000E+00  0.0000E+00
     -4.987  0.0000E+00  0.0000E+00  0.0000E+00  0.0000E+00  0.0000E+00  0.0000E+00  0.0000E+00  0.0000E+00  0.0000E+00
     -4.926  0.0000E+00  0.0000E+00  0.0000E+00  0.0000E+00  0.0000E+00  0.0000E+00  0.0000E+00  0.0000E+00  0.0000E+00
     -4.865  0.0000E+00  0.0000E+00  0.0000E+00  0.0000E+00  0.0000E+00  0.0000E+00  0.0000E+00  0.0000E+00  0.0000E+00
     -4.803  0.0000E+00  0.0000E+00  0.0000E+00  0.0000E+00  0.0000E+00  0.0000E+00  0.0000E+00  0.0000E+00  0.0000E+00
     -4.742  0.0000E+00  0.0000E+00  0.0000E+00  0.0000E+00  0.0000E+00  0.0000E+00  0.0000E+00  0.0000E+00  0.0000E+00
     -4.681  0.0000E+00  0.0000E+00  0.0000E+00  0.0000E+00  0.0000E+00  0.0000E+00  0.0000E+00  0.0000E+00  0.0000E+00
     -4.620  0.5735E-16  0.2991E-18  0.2991E-18  0.2995E-18  0.2493E-19  0.2491E-19  0.1671E-23  0.2493E-19  0.5182E-23
     -4.559  0.4500E-13  0.2347E-15  0.2347E-15  0.2350E-15  0.1956E-16  0.1954E-16  0.1311E-20  0.1956E-16  0.4066E-20
     -4.497  0.1805E-10  0.9415E-13  0.9415E-13  0.9428E-13  0.7847E-14  0.7839E-14  0.5258E-18  0.7847E-14  0.1631E-17
     -4.436  0.3475E-08  0.1813E-10  0.1813E-10  0.1815E-10  0.1511E-11  0.1509E-11  0.1012E-15  0.1511E-11  0.3140E-15
     -4.375  0.3222E-06  0.1681E-08  0.1681E-08  0.1683E-08  0.1401E-09  0.1399E-09  0.9387E-14  0.1401E-09  0.2912E-13
     -4.314  0.1445E-04  0.7535E-07  0.7534E-07  0.7545E-07  0.6280E-08  0.6274E-08  0.4208E-12  0.6280E-08  0.1305E-11
     -4.253  0.3146E-03  0.1641E-05  0.1641E-05  0.1643E-05  0.1368E-06  0.1366E-06  0.9165E-11  0.1368E-06  0.2843E-10
     -4.192  0.3345E-02  0.1745E-04  0.1745E-04  0.1747E-04  0.1454E-05  0.1453E-05  0.9745E-10  0.1454E-05  0.3023E-09
     -4.130  0.1746E-01  0.9106E-04  0.9106E-04  0.9119E-04  0.7589E-05  0.7582E-05  0.5086E-09  0.7590E-05  0.1578E-08
     -4.069  0.4492E-01  0.2343E-03  0.2343E-03  0.2346E-03  0.1953E-04  0.1951E-04  0.1308E-08  0.1953E-04  0.4059E-08
     -4.008  0.5714E-01  0.2980E-03  0.2980E-03  0.2984E-03  0.2484E-04  0.2481E-04  0.1664E-08  0.2484E-04  0.5163E-08
     -3.947  0.3597E-01  0.1876E-03  0.1876E-03  0.1878E-03  0.1563E-04  0.1562E-04  0.1048E-08  0.1564E-04  0.3250E-08
     -3.886  0.1119E-01  0.5834E-04  0.5834E-04  0.5842E-04  0.4862E-05  0.4858E-05  0.3268E-09  0.4863E-05  0.1014E-08
     -3.824  0.1713E-02  0.8934E-05  0.8933E-05  0.8950E-05  0.7449E-06  0.7439E-06  0.1850E-09  0.7450E-06  0.5601E-09
     -3.763  0.1349E-03  0.7011E-06  0.7011E-06  0.9727E-06  0.8373E-07  0.6109E-07  0.8810E-08  0.8373E-07  0.2643E-07
     -3.702  0.2053E-03  0.9991E-06  0.9991E-06  0.9547E-05  0.8822E-06  0.1688E-06  0.2781E-06  0.8822E-06  0.8343E-06
     -3.641  0.3085E-02  0.1499E-04  0.1499E-04  0.1464E-03  0.1354E-04  0.2565E-05  0.4277E-05  0.1354E-04  0.1283E-04
     -3.580  0.2323E-01  0.1128E-03  0.1128E-03  0.1102E-02  0.1019E-03  0.1931E-04  0.3220E-04  0.1019E-03  0.9659E-04
     -3.518  0.8601E-01  0.4178E-03  0.4178E-03  0.4083E-02  0.3773E-03  0.7150E-04  0.1192E-03  0.3773E-03  0.3577E-03
     -3.457  0.1573E+00  0.7640E-03  0.7640E-03  0.7466E-02  0.6900E-03  0.1308E-03  0.2180E-03  0.6900E-03  0.6541E-03
     -3.396  0.1423E+00  0.6913E-03  0.6913E-03  0.6754E-02  0.6243E-03  0.1183E-03  0.1973E-03  0.6243E-03  0.5918E-03
     -3.335  0.6368E-01  0.3093E-03  0.3093E-03  0.3023E-02  0.2794E-03  0.5294E-04  0.8827E-04  0.2794E-03  0.2648E-03
     -3.274  0.1406E-01  0.6833E-04  0.6829E-04  0.6673E-03  0.6171E-04  0.1169E-04  0.1949E-04  0.6168E-04  0.5846E-04
     -3.212  0.1562E-02  0.9073E-05  0.7553E-05  0.7404E-04  0.8399E-05  0.1595E-05  0.2266E-05  0.7016E-05  0.6341E-05
     -3.151  0.9080E-03  0.3687E-04  0.3588E-05  0.4032E-04  0.3777E-04  0.7228E-05  0.3453E-05  0.7519E-05  0.3364E-06
     -3.090  0.8842E-02  0.3899E-03  0.3416E-04  0.3900E-03  0.3999E-03  0.7652E-04  0.3570E-04  0.7657E-04  0.1157E-07
     -3.029  0.4636E-01  0.2045E-02  0.1791E-03  0.2045E-02  0.2097E-02  0.4013E-03  0.1872E-03  0.4015E-03  0.1532E-07
     -2.968  0.1199E+00  0.5286E-02  0.4631E-03  0.5286E-02  0.5422E-02  0.1038E-02  0.4841E-03  0.1038E-02  0.3933E-07
     -2.906  0.1532E+00  0.6757E-02  0.5920E-03  0.6758E-02  0.6931E-02  0.1326E-02  0.6188E-03  0.1327E-02  0.5028E-07
     -2.845  0.9692E-01  0.4275E-02  0.3747E-03  0.4275E-02  0.4385E-02  0.8396E-03  0.3914E-03  0.8401E-03  0.3187E-07
     -2.784  0.3047E-01  0.1342E-02  0.1231E-03  0.1342E-02  0.1385E-02  0.2774E-03  0.1223E-03  0.2775E-03  0.1746E-07
     -2.723  0.6726E-02  0.2763E-03  0.8878E-04  0.2772E-03  0.3876E-03  0.2170E-03  0.1898E-04  0.2172E-03  0.4675E-06
     -2.662  0.1230E-01  0.4202E-03  0.4060E-03  0.4457E-03  0.1027E-02  0.1012E-02  0.6150E-05  0.1014E-02  0.1419E-04
     -2.601  0.3602E-01  0.1149E-02  0.1148E-02  0.1529E-02  0.2880E-02  0.2845E-02  0.7042E-04  0.2879E-02  0.2111E-03
     -2.539  0.6758E-01  0.1671E-02  0.1671E-02  0.4439E-02  0.4257E-02  0.4017E-02  0.5127E-03  0.4257E-02  0.1538E-02
     -2.478  0.1092E+00  0.1419E-02  0.1419E-02  0.1134E-01  0.3840E-02  0.2986E-02  0.1838E-02  0.3841E-02  0.5515E-02
     -2.417  0.1482E+00  0.9594E-03  0.9594E-03  0.1853E-01  0.2921E-02  0.1410E-02  0.3255E-02  0.2921E-02  0.9766E-02
     -2.356  0.1223E+00  0.5791E-03  0.5790E-03  0.1598E-01  0.1906E-02  0.5821E-03  0.2852E-02  0.1906E-02  0.8557E-02
     -2.295  0.5243E-01  0.2326E-03  0.2293E-03  0.6912E-02  0.7857E-03  0.2014E-03  0.1238E-02  0.7745E-03  0.3711E-02
     -2.233  0.1298E-01  0.1170E-03  0.5151E-04  0.1699E-02  0.4525E-03  0.1117E-03  0.3033E-03  0.2239E-03  0.8584E-03
     -2.172  0.1949E-01  0.6940E-03  0.4200E-04  0.2409E-02  0.2953E-02  0.7699E-03  0.4188E-03  0.6773E-03  0.7430E-03
     -2.111  0.9188E-01  0.3405E-02  0.2191E-03  0.1124E-01  0.1499E-01  0.4411E-02  0.1928E-02  0.3872E-02  0.3275E-02
     -2.050  0.2355E+00  0.8440E-02  0.7615E-03  0.2837E-01  0.4021E-01  0.1486E-01  0.4738E-02  0.1341E-01  0.8166E-02
     -1.989  0.3248E+00  0.1078E-01  0.1622E-02  0.3773E-01  0.6144E-01  0.3167E-01  0.5930E-02  0.2949E-01  0.1058E-01
     -1.927  0.2633E+00  0.7512E-02  0.2065E-02  0.2817E-01  0.6190E-01  0.4491E-01  0.3923E-02  0.4295E-01  0.7504E-02
     -1.866  0.1481E+00  0.3510E-02  0.1525E-02  0.1303E-01  0.5308E-01  0.4772E-01  0.1493E-02  0.4666E-01  0.3120E-02
     -1.805  0.9512E-01  0.2642E-02  0.7533E-03  0.5288E-02  0.6092E-01  0.5668E-01  0.5023E-03  0.5636E-01  0.8151E-03
     -1.744  0.1121E+00  0.3882E-02  0.5556E-03  0.4302E-02  0.9484E-01  0.8730E-01  0.4999E-03  0.8726E-01  0.2779E-03
     -1.683  0.1197E+00  0.3937E-02  0.6751E-03  0.4040E-02  0.1108E+00  0.1033E+00  0.1626E-02  0.1034E+00  0.1512E-02
     -1.621  0.7958E-01  0.2223E-02  0.5794E-03  0.3030E-02  0.7424E-01  0.7042E-01  0.1107E-01  0.7038E-01  0.1301E-01
     -1.560  0.6024E-01  0.1509E-02  0.4975E-03  0.6203E-02  0.3367E-01  0.3063E-01  0.4940E-01  0.3003E-01  0.6155E-01
     -1.499  0.1274E+00  0.4511E-02  0.9406E-03  0.1833E-01  0.4823E-01  0.3664E-01  0.1134E+00  0.3277E-01  0.1511E+00
     -1.438  0.2545E+00  0.1166E-01  0.1850E-02  0.3392E-01  0.1335E+00  0.1077E+00  0.1384E+00  0.9069E-01  0.2102E+00
     -1.377  0.3296E+00  0.1631E-01  0.2765E-02  0.3990E-01  0.2262E+00  0.2056E+00  0.1094E+00  0.1622E+00  0.2142E+00
     -1.316  0.2823E+00  0.1264E-01  0.3505E-02  0.3323E-01  0.2496E+00  0.2420E+00  0.8924E-01  0.1844E+00  0.2011E+00
     -1.254  0.2010E+00  0.7568E-02  0.4113E-02  0.2653E-01  0.2544E+00  0.2255E+00  0.1245E+00  0.1865E+00  0.1806E+00
     -1.193  0.1935E+00  0.7228E-02  0.3837E-02  0.3318E-01  0.2685E+00  0.2143E+00  0.2404E+00  0.1941E+00  0.2125E+00
     -1.132  0.2116E+00  0.8899E-02  0.3149E-02  0.4009E-01  0.2603E+00  0.2218E+00  0.3480E+00  0.1779E+00  0.2729E+00
     -1.071  0.1831E+00  0.1072E-01  0.4151E-02  0.3038E-01  0.2692E+00  0.3051E+00  0.3564E+00  0.1803E+00  0.2924E+00
     -1.010  0.1471E+00  0.1381E-01  0.7394E-02  0.1643E-01  0.3070E+00  0.4109E+00  0.2952E+00  0.2424E+00  0.2789E+00
     -0.948  0.1275E+00  0.1669E-01  0.1108E-01  0.1008E-01  0.3582E+00  0.3557E+00  0.1929E+00  0.3275E+00  0.2024E+00
     -0.887  0.1200E+00  0.1937E-01  0.1241E-01  0.1227E-01  0.4316E+00  0.1984E+00  0.1137E+00  0.3790E+00  0.1075E+00
     -0.826  0.1319E+00  0.2221E-01  0.1092E-01  0.1865E-01  0.4781E+00  0.1225E+00  0.9308E-01  0.3446E+00  0.6416E-01
     -0.765  0.1334E+00  0.2104E-01  0.9573E-02  0.2075E-01  0.4875E+00  0.1642E+00  0.1606E+00  0.2535E+00  0.7241E-01
     -0.704  0.1105E+00  0.1723E-01  0.1171E-01  0.2087E-01  0.5297E+00  0.3225E+00  0.3659E+00  0.2334E+00  0.1415E+00
     -0.642  0.7998E-01  0.1415E-01  0.1387E-01  0.2173E-01  0.4850E+00  0.4596E+00  0.5228E+00  0.2657E+00  0.2123E+00
     -0.581  0.5085E-01  0.1221E-01  0.1173E-01  0.1808E-01  0.2921E+00  0.3608E+00  0.4196E+00  0.2572E+00  0.1937E+00
     -0.520  0.3870E-01  0.1474E-01  0.9527E-02  0.1456E-01  0.1681E+00  0.1641E+00  0.2577E+00  0.2565E+00  0.1419E+00
     -0.459  0.3363E-01  0.1773E-01  0.9135E-02  0.1458E-01  0.1646E+00  0.1145E+00  0.2046E+00  0.2330E+00  0.1054E+00
     -0.398  0.2432E-01  0.1624E-01  0.1131E-01  0.1362E-01  0.1682E+00  0.2548E+00  0.1632E+00  0.1703E+00  0.7422E-01
     -0.336  0.1904E-01  0.1605E-01  0.1843E-01  0.1353E-01  0.2012E+00  0.4393E+00  0.1388E+00  0.1996E+00  0.8010E-01
     -0.275  0.1478E-01  0.1828E-01  0.2477E-01  0.1746E-01  0.2756E+00  0.4717E+00  0.2241E+00  0.2957E+00  0.1363E+00
     -0.214  0.9539E-02  0.1832E-01  0.2401E-01  0.2381E-01  0.2808E+00  0.4227E+00  0.3849E+00  0.3045E+00  0.2009E+00
     -0.153  0.8839E-02  0.1920E-01  0.1788E-01  0.2978E-01  0.2216E+00  0.3860E+00  0.5057E+00  0.2273E+00  0.2027E+00
     -0.092  0.1195E-01  0.2088E-01  0.1361E-01  0.3269E-01  0.1734E+00  0.4098E+00  0.5656E+00  0.1769E+00  0.1693E+00
     -0.030  0.1350E-01  0.1677E-01  0.1389E-01  0.2808E-01  0.1328E+00  0.4930E+00  0.5416E+00  0.1762E+00  0.1489E+00
      0.031  0.1351E-01  0.1066E-01  0.1558E-01  0.1825E-01  0.1135E+00  0.4643E+00  0.4451E+00  0.1967E+00  0.1063E+00
      0.092  0.1885E-01  0.1096E-01  0.2155E-01  0.1268E-01  0.1721E+00  0.4359E+00  0.4424E+00  0.2962E+00  0.6871E-01
      0.153  0.3181E-01  0.2026E-01  0.3074E-01  0.1425E-01  0.2969E+00  0.5683E+00  0.5527E+00  0.4561E+00  0.1211E+00
      0.214  0.4828E-01  0.3705E-01  0.3534E-01  0.1952E-01  0.4348E+00  0.6607E+00  0.6507E+00  0.5300E+00  0.2736E+00
      0.275  0.5314E-01  0.4458E-01  0.3060E-01  0.2111E-01  0.4864E+00  0.5159E+00  0.6417E+00  0.4455E+00  0.3735E+00
      0.337  0.3609E-01  0.2988E-01  0.1771E-01  0.1444E-01  0.3652E+00  0.2743E+00  0.4668E+00  0.2710E+00  0.3057E+00
      0.398  0.2360E-01  0.1352E-01  0.9029E-02  0.9556E-02  0.2623E+00  0.1869E+00  0.2902E+00  0.1695E+00  0.2077E+00
      0.459  0.3895E-01  0.1427E-01  0.1526E-01  0.1586E-01  0.3871E+00  0.3084E+00  0.3000E+00  0.2347E+00  0.1961E+00
      0.520  0.6516E-01  0.2909E-01  0.3946E-01  0.2885E-01  0.6633E+00  0.5274E+00  0.4624E+00  0.4945E+00  0.2400E+00
      0.581  0.6629E-01  0.4119E-01  0.6610E-01  0.3495E-01  0.8073E+00  0.6117E+00  0.5980E+00  0.7929E+00  0.2939E+00
      0.643  0.4065E-01  0.3561E-01  0.6288E-01  0.2712E-01  0.7077E+00  0.4642E+00  0.5926E+00  0.7848E+00  0.3898E+00
      0.704  0.1724E-01  0.2109E-01  0.3390E-01  0.1405E-01  0.6111E+00  0.2801E+00  0.4922E+00  0.5570E+00  0.4792E+00
      0.765  0.1069E-01  0.1478E-01  0.1603E-01  0.8711E-02  0.7152E+00  0.2278E+00  0.3916E+00  0.5315E+00  0.4516E+00
      0.826  0.1897E-01  0.2150E-01  0.2133E-01  0.1431E-01  0.8902E+00  0.2960E+00  0.3399E+00  0.7368E+00  0.4457E+00
      0.887  0.3214E-01  0.3076E-01  0.3053E-01  0.2262E-01  0.8596E+00  0.3598E+00  0.2996E+00  0.8131E+00  0.5737E+00
      0.949  0.4490E-01  0.3091E-01  0.2381E-01  0.2663E-01  0.6705E+00  0.2886E+00  0.2337E+00  0.5869E+00  0.6115E+00
      1.010  0.5851E-01  0.2554E-01  0.9881E-02  0.2942E-01  0.5392E+00  0.1563E+00  0.1877E+00  0.3247E+00  0.4772E+00
      1.071  0.5920E-01  0.1763E-01  0.3993E-02  0.2867E-01  0.4218E+00  0.1026E+00  0.1898E+00  0.3068E+00  0.4149E+00
      1.132  0.4284E-01  0.1199E-01  0.8686E-02  0.2239E-01  0.3059E+00  0.1423E+00  0.2155E+00  0.4891E+00  0.4497E+00
      1.193  0.3350E-01  0.1829E-01  0.2656E-01  0.2211E-01  0.2593E+00  0.2438E+00  0.2298E+00  0.6292E+00  0.3761E+00
      1.255  0.4342E-01  0.3326E-01  0.5081E-01  0.3276E-01  0.2324E+00  0.3819E+00  0.2547E+00  0.6063E+00  0.2967E+00
      1.316  0.4854E-01  0.4010E-01  0.5601E-01  0.3868E-01  0.1706E+00  0.4501E+00  0.2886E+00  0.4484E+00  0.4314E+00
      1.377  0.3307E-01  0.3384E-01  0.3904E-01  0.3257E-01  0.1218E+00  0.3792E+00  0.2837E+00  0.2751E+00  0.6646E+00
      1.438  0.1488E-01  0.2334E-01  0.2106E-01  0.2261E-01  0.1018E+00  0.2458E+00  0.2366E+00  0.1847E+00  0.7120E+00
      1.499  0.7833E-02  0.1387E-01  0.1086E-01  0.1305E-01  0.1003E+00  0.1362E+00  0.1999E+00  0.1779E+00  0.6146E+00
      1.561  0.1165E-01  0.1297E-01  0.1161E-01  0.8625E-02  0.1857E+00  0.1000E+00  0.2514E+00  0.3326E+00  0.7394E+00
      1.622  0.2063E-01  0.2248E-01  0.2144E-01  0.9776E-02  0.3315E+00  0.1335E+00  0.3204E+00  0.6014E+00  0.1050E+01
      1.683  0.2397E-01  0.2801E-01  0.2525E-01  0.1055E-01  0.3613E+00  0.1931E+00  0.2874E+00  0.7021E+00  0.1236E+01
      1.744  0.1937E-01  0.2261E-01  0.1673E-01  0.9296E-02  0.2681E+00  0.2262E+00  0.2726E+00  0.5803E+00  0.1246E+01
      1.805  0.1402E-01  0.1684E-01  0.7781E-02  0.7001E-02  0.1897E+00  0.1881E+00  0.3894E+00  0.3826E+00  0.1114E+01
      1.866  0.1356E-01  0.1295E-01  0.4052E-02  0.5600E-02  0.1294E+00  0.1125E+00  0.4803E+00  0.1954E+00  0.9436E+00
      1.928  0.1705E-01  0.7381E-02  0.2445E-02  0.9245E-02  0.8956E-01  0.5554E-01  0.4384E+00  0.1021E+00  0.7208E+00
      1.989  0.2228E-01  0.3573E-02  0.1522E-02  0.1904E-01  0.1114E+00  0.4242E-01  0.3951E+00  0.1217E+00  0.5448E+00
      2.050  0.2356E-01  0.4079E-02  0.2177E-02  0.2494E-01  0.1435E+00  0.7671E-01  0.3980E+00  0.1737E+00  0.4940E+00
      2.111  0.1707E-01  0.8989E-02  0.6125E-02  0.2199E-01  0.1442E+00  0.1824E+00  0.4667E+00  0.2410E+00  0.4421E+00
      2.172  0.1081E-01  0.1525E-01  0.1184E-01  0.1929E-01  0.1376E+00  0.3377E+00  0.5668E+00  0.3603E+00  0.4080E+00
      2.234  0.8951E-02  0.1490E-01  0.1256E-01  0.1666E-01  0.1186E+00  0.3948E+00  0.5454E+00  0.4422E+00  0.4183E+00
      2.295  0.1501E-01  0.9507E-02  0.9162E-02  0.1523E-01  0.1211E+00  0.3552E+00  0.4881E+00  0.5289E+00  0.5296E+00
      2.356  0.3066E-01  0.7593E-02  0.8754E-02  0.2129E-01  0.1856E+00  0.3134E+00  0.5127E+00  0.6753E+00  0.7569E+00
      2.417  0.3969E-01  0.7524E-02  0.8968E-02  0.2535E-01  0.2350E+00  0.2131E+00  0.4979E+00  0.6271E+00  0.7846E+00
      2.478  0.2908E-01  0.5077E-02  0.5789E-02  0.1780E-01  0.2040E+00  0.8792E-01  0.3806E+00  0.3707E+00  0.4928E+00
      2.540  0.1375E-01  0.2620E-02  0.2398E-02  0.7574E-02  0.1712E+00  0.4245E-01  0.3360E+00  0.1799E+00  0.2188E+00
      2.601  0.1125E-01  0.3318E-02  0.2017E-02  0.4729E-02  0.2315E+00  0.1727E+00  0.4523E+00  0.1457E+00  0.1531E+00
      2.662  0.1719E-01  0.6862E-02  0.5199E-02  0.7858E-02  0.3575E+00  0.6403E+00  0.5984E+00  0.2740E+00  0.2626E+00
      2.723  0.1712E-01  0.9546E-02  0.9392E-02  0.1021E-01  0.4056E+00  0.1245E+01  0.6025E+00  0.5125E+00  0.4705E+00
      2.784  0.1044E-01  0.8431E-02  0.9817E-02  0.8546E-02  0.3502E+00  0.1373E+01  0.4997E+00  0.6560E+00  0.5750E+00
      2.846  0.7722E-02  0.7100E-02  0.8618E-02  0.6972E-02  0.3208E+00  0.1091E+01  0.4448E+00  0.6711E+00  0.5125E+00
      2.907  0.1154E-01  0.9453E-02  0.1043E-01  0.9164E-02  0.3375E+00  0.7869E+00  0.4402E+00  0.6185E+00  0.4048E+00
      2.968  0.1367E-01  0.1088E-01  0.1127E-01  0.1048E-01  0.3018E+00  0.5761E+00  0.3597E+00  0.4490E+00  0.2815E+00
      3.029  0.9027E-02  0.7214E-02  0.7295E-02  0.6690E-02  0.2178E+00  0.7362E+00  0.2098E+00  0.2607E+00  0.1646E+00
      3.090  0.3986E-02  0.3095E-02  0.2999E-02  0.2371E-02  0.1697E+00  0.1147E+01  0.9621E-01  0.1729E+00  0.8634E-01
      3.151  0.4595E-02  0.2245E-02  0.1520E-02  0.1591E-02  0.1680E+00  0.1098E+01  0.5651E-01  0.1449E+00  0.4330E-01
      3.213  0.1212E-01  0.4362E-02  0.1910E-02  0.4054E-02  0.1742E+00  0.5553E+00  0.7506E-01  0.9475E-01  0.1903E-01
      3.274  0.2005E-01  0.6779E-02  0.2637E-02  0.6757E-02  0.1702E+00  0.1465E+00  0.1045E+00  0.3590E-01  0.5783E-02
      3.335  0.2036E-01  0.6153E-02  0.2164E-02  0.6809E-02  0.1384E+00  0.2070E-01  0.9617E-01  0.7673E-02  0.1220E-02
      3.396  0.2925E-01  0.5758E-02  0.1173E-02  0.9790E-02  0.1618E+00  0.2055E-02  0.1083E+00  0.1969E-02  0.1407E-02
      3.457  0.6250E-01  0.9612E-02  0.1050E-02  0.2163E-01  0.3192E+00  0.1023E-02  0.2040E+00  0.3056E-02  0.3924E-02
      3.519  0.8320E-01  0.1203E-01  0.1253E-02  0.2978E-01  0.4167E+00  0.1335E-02  0.2612E+00  0.4610E-02  0.5950E-02
      3.580  0.5837E-01  0.8150E-02  0.1126E-02  0.2179E-01  0.2829E+00  0.1200E-02  0.1736E+00  0.6331E-02  0.6346E-02
      3.641  0.2998E-01  0.4161E-02  0.1856E-02  0.1296E-01  0.1117E+00  0.1766E-02  0.6147E-01  0.1852E-01  0.1321E-01
      3.702  0.3254E-01  0.4628E-02  0.4250E-02  0.1696E-01  0.6277E-01  0.3890E-02  0.2009E-01  0.4710E-01  0.3181E-01
      3.763  0.4290E-01  0.5666E-02  0.5635E-02  0.2441E-01  0.6697E-01  0.5084E-02  0.1546E-01  0.6567E-01  0.4403E-01
      3.825  0.4529E-01  0.4040E-02  0.4039E-02  0.3160E-01  0.5922E-01  0.3390E-02  0.1306E-01  0.5916E-01  0.3907E-01
      3.886  0.5268E-01  0.2084E-02  0.2084E-02  0.4455E-01  0.5461E-01  0.1246E-02  0.1171E-01  0.5461E-01  0.3514E-01
      3.947  0.4957E-01  0.1174E-02  0.1174E-02  0.4426E-01  0.4711E-01  0.3606E-03  0.9988E-02  0.4711E-01  0.2996E-01
      4.008  0.2595E-01  0.5434E-03  0.5434E-03  0.2338E-01  0.2427E-01  0.1152E-03  0.5134E-02  0.2427E-01  0.1540E-01
      4.069  0.6835E-02  0.1403E-03  0.1403E-03  0.6167E-02  0.6378E-02  0.2744E-04  0.1349E-02  0.6378E-02  0.4046E-02
      4.131  0.8880E-03  0.1818E-04  0.1818E-04  0.8013E-03  0.8283E-03  0.3510E-05  0.1751E-03  0.8283E-03  0.5254E-03
      4.192  0.5649E-04  0.1156E-05  0.1156E-05  0.5098E-04  0.5269E-04  0.2228E-06  0.1114E-04  0.5269E-04  0.3342E-04
      4.253  0.2001E-05  0.8506E-07  0.3983E-07  0.1628E-05  0.2220E-05  0.8900E-08  0.6010E-06  0.1634E-05  0.1046E-05
      4.314  0.1296E-04  0.2566E-05  0.2110E-06  0.2579E-05  0.3024E-04  0.1049E-06  0.1316E-04  0.1297E-06  0.6024E-06
      4.375  0.3251E-03  0.6547E-04  0.5529E-05  0.6525E-04  0.7587E-03  0.2763E-05  0.3304E-03  0.2773E-05  0.1513E-04
      4.437  0.4032E-02  0.8301E-03  0.7695E-04  0.8280E-03  0.9393E-02  0.3872E-04  0.4092E-02  0.3883E-04  0.1964E-03
      4.498  0.2511E-01  0.5372E-02  0.6204E-03  0.5363E-02  0.5828E-01  0.3157E-03  0.2541E-01  0.3164E-03  0.1343E-02