    4    4   10    1
  0.1820629E+02  0.4176000E-09  0.4176000E-09  0.4176000E-09  0.3500000E-15
  1.000000000000000E-004
  CAR 
 Au, FCC                                 
   44   10   26
 
  0.8333333E-01  0.8333333E-01  0.8333333E-01  0.3703704E-01
   1       -4.048194
   2       -1.492748
   3       -1.492435
   4       -1.491456
   5       -1.226983
   6       -1.224724
   7       -1.222430
   8        0.438665
   9        0.577008
  10        0.577397
  11        1.826776
  12        1.827230
  13        2.704385
  14        2.714387
  15        2.714814
  16        2.730510
  17        2.733165
  18        2.739872
  19        3.135189
  20        3.135333
  21        3.137160
  22        6.066054
  23        6.072793
  24        6.079550
  25       10.765770
  26       10.768395
 
  0.2500000E+00  0.8333333E-01  0.8333333E-01  0.1111111E+00
   1       -3.465918
   2       -1.342714
   3       -1.169988
   4       -1.169470
   5       -1.021217
   6       -0.873116
   7       -0.872919
   8        0.206327
   9        0.791493
  10        0.798209
  11        1.581731
  12        1.638254
  13        1.638378
  14        1.984736
  15        2.008183
  16        2.367675
  17        2.389152
  18        2.390453
  19        2.918007
  20        3.095475
  21        3.097432
  22        3.892633
  23        7.383197
  24        7.383355
  25       10.336703
  26       10.337510
 
  0.4166667E+00  0.8333333E-01  0.8333333E-01  0.1111111E+00
   1       -2.428452
   2       -1.469721
   3       -0.659622
   4       -0.659008
   5       -0.656717
   6       -0.297145
   7       -0.296800
   8       -0.209190
   9        0.547799
  10        0.548266
  11        0.936006
  12        1.069028
  13        1.222244
  14        1.601759
  15        1.790552
  16        1.873421
  17        1.874633
  18        2.265410
  19        2.413853
  20        2.601837
  21        3.080417
  22        3.082343
  23        8.498261
  24        8.498759
  25       10.194658
  26       10.195130
 
  0.2500000E+00  0.2500000E+00  0.8333333E-01  0.1111111E+00
   1       -2.946318
   2       -1.057217
   3       -1.029382
   4       -1.026981
   5       -0.674070
   6       -0.667279
   7       -0.463421
   8        0.182415
   9        0.810120
  10        0.860612
  11        0.992864
  12        0.997882
  13        1.249962
  14        1.587862
  15        2.033105
  16        2.131814
  17        2.153689
  18        2.163086
  19        2.835491
  20        2.845198
  21        2.874985
  22        5.092941
  23        5.094321
  24        8.175952
  25        9.270901
  26       12.309315
 
  0.4166667E+00  0.2500000E+00  0.8333333E-01  0.2222222E+00
   1       -2.034541
   2       -1.165075
   3       -0.685026
   4       -0.513018
   5       -0.351615
   6       -0.216211
   7       -0.118111
   8       -0.044607
   9        0.243463
  10        0.493064
  11        0.593077
  12        0.700030
  13        1.143060
  14        1.613717
  15        1.698354
  16        1.725521
  17        1.815136
  18        2.357483
  19        2.651689
  20        2.707849
  21        2.719220
  22        3.491070
  23        6.332489
  24        7.487142
  25        9.835009
  26       10.939966
 
  0.4166667E+00  0.4166667E+00  0.8333333E-01  0.1111111E+00
   1       -1.414750
   2       -0.830521
   3       -0.819119
   4       -0.720688
   5        0.087761
   6        0.111686
   7        0.119064
   8        0.132171
   9        0.240462
  10        0.243251
  11        0.589715
  12        0.597672
  13        1.108670
  14        1.385739
  15        1.415953
  16        1.423329
  17        1.722225
  18        2.176964
  19        2.195970
  20        2.324949
  21        3.468103
  22        4.587992
  23        4.600609
  24        5.850410
  25       10.854225
  26       12.251042
 
  0.2500000E+00  0.2500000E+00  0.2500000E+00  0.3703704E-01
   1       -2.571879
   2       -1.066026
   3       -1.065559
   4       -1.064588
   5       -0.229707
   6       -0.226880
   7       -0.223097
   8        0.420097
   9        0.756814
  10        0.757684
  11        0.850748
  12        0.858540
  13        0.865735
  14        1.571558
  15        1.572719
  16        1.573583
  17        2.013411
  18        2.014074
  19        3.006288
  20        3.007182
  21        3.009965
  22        5.832632
  23        5.838089
  24        5.842661
  25       10.130494
  26       10.135208
 
  0.4166667E+00  0.2500000E+00  0.2500000E+00  0.1111111E+00
   1       -1.954126
   2       -1.351432
   3       -0.956643
   4       -0.956032
   5       -0.045835
   6       -0.045105
   7        0.223953
   8        0.507491
   9        0.544080
  10        0.657586
  11        0.828142
  12        0.866595
  13        0.867012
  14        1.117029
  15        1.321391
  16        1.322385
  17        2.353486
  18        2.510499
  19        2.852433
  20        2.853726
  21        2.886952
  22        3.726470
  23        6.949957
  24        6.950189
  25        8.332378
  26        8.332651
 
  0.4166667E+00  0.4166667E+00  0.2500000E+00  0.1111111E+00
   1       -1.745206
   2       -1.394560
   3       -1.388535
   4       -1.261340
   5        0.163755
   6        0.261212
   7        0.271427
   8        0.529004
   9        0.701685
  10        0.872653
  11        0.876803
  12        0.938052
  13        1.235191
  14        1.254256
  15        1.295385
  16        1.396792
  17        2.317632
  18        2.724668
  19        2.734372
  20        2.742109
  21        3.257084
  22        4.679081
  23        4.686113
  24        6.117997
  25        8.180115
  26        9.699167
 
  0.4166667E+00  0.4166667E+00  0.4166667E+00  0.3703704E-01
   1       -1.870038
   2       -1.701091
   3       -1.699954
   4       -1.698414
   5        0.377957
   6        0.379598
   7        0.381285
   8        0.522934
   9        0.523475
  10        0.608979
  11        0.609608
  12        0.610632
  13        2.165096
  14        2.174734
  15        2.182910
  16        2.780129
  17        2.780388
  18        2.930896
  19        2.937821
  20        2.938933
  21        2.940310
  22        4.888119
  23        4.888729
  24        4.888730
  25        7.902059
  26        7.912501
