       N       E                     dE             d eps       ncg     rms          rms(c)
DAV:   1     0.352257495395E+03    0.35226E+03   -0.17740E+04   520   0.124E+03
DAV:   2     0.248470278393E+01   -0.34977E+03   -0.33914E+03   546   0.422E+02
DAV:   3    -0.134561768805E+02   -0.15941E+02   -0.15291E+02   620   0.888E+01
DAV:   4    -0.137624091931E+02   -0.30623E+00   -0.30512E+00   568   0.118E+01
DAV:   5    -0.137672755877E+02   -0.48664E-02   -0.48654E-02   562   0.136E+00    0.576E+00
RMM:   6    -0.128261391123E+02    0.94114E+00   -0.26846E+00   520   0.145E+01    0.150E+00
RMM:   7    -0.127745947427E+02    0.51544E-01   -0.28882E-01   524   0.335E+00    0.581E-01
RMM:   8    -0.127626093211E+02    0.11985E-01   -0.12375E-02   524   0.112E+00    0.842E-02
RMM:   9    -0.127625149298E+02    0.94391E-04   -0.15257E-03   514   0.234E-01    0.281E-02
RMM:  10    -0.127625154348E+02   -0.50493E-06   -0.57712E-05   274   0.594E-02
   1 F= -.12762515E+02 E0= -.12759407E+02  d E =-.621739E-02
 Found     1 degrees of freedom:
       N       E                     dE             d eps       ncg     rms          rms(c)
DAV:   1    -0.127611426731E+02    0.13723E-02   -0.15953E+00   936   0.700E+00    0.280E-02
RMM:   2    -0.127619985209E+02   -0.85585E-03   -0.86031E-03   934   0.684E-01    0.383E-02
RMM:   3    -0.127619984964E+02    0.24557E-07   -0.17258E-04   509   0.103E-01
   2 F= -.12761998E+02 E0= -.12758868E+02  d E =-.626136E-02
       N       E                     dE             d eps       ncg     rms          rms(c)
DAV:   1    -0.127593560749E+02    0.26424E-02   -0.48337E+00   936   0.119E+01    0.563E-02
RMM:   2    -0.127620549415E+02   -0.26989E-02   -0.27407E-02   936   0.124E+00    0.559E-02
RMM:   3    -0.127620633489E+02   -0.84074E-05   -0.72883E-04   784   0.188E-01
   3 F= -.12762063E+02 E0= -.12758943E+02  d E =-.624018E-02
