 vasp.5.2.2 15Apr09 complex 
 executed on             LinuxIFC date 2009.12.01  11:25:21
 running on    1 nodes
 distr:  one band on    1 nodes,    1 groups


--------------------------------------------------------------------------------------------------------


 INCAR:
 POTCAR:   PAW_GGA Au 18Jul2000                   
 POTCAR:   PAW_GGA Au 18Jul2000                   
  local pseudopotential read in
  partial core-charges read in
  atomic valenz-charges read in
  non local Contribution for L=           2  read in
    real space projection operators read in
  non local Contribution for L=           2  read in
    real space projection operators read in
  non local Contribution for L=           0  read in
    real space projection operators read in
  non local Contribution for L=           0  read in
    real space projection operators read in
  non local Contribution for L=           1  read in
    real space projection operators read in
  non local Contribution for L=           1  read in
    real space projection operators read in
    PAW grid and wavefunctions read in
 
   number of l-projection  operators is LMAX  =           6
   number of lm-projection operators is LMMAX =          18
 
 PAW_GGA Au 18Jul2000                   :
 energy of atom  1       EATOM= -927.0928
 kinetic energy error for atom=    0.0152 (will be added to EATOM!!)
 
 
 POSCAR: Pure FCC metal                          
  positions in direct lattice
  velocities in cartesian coordinates
 exchange correlation table for  LEXCH =        7
   RHO(1)=    0.500       N(1)  =     2000
   RHO(2)=  100.500       N(2)  =     4000
 


--------------------------------------------------------------------------------------------------------


 ion  position               nearest neighbor table
   1  0.000  0.000  0.000-   2 2.95   3 2.95   4 2.95   3 2.95   4 2.95   2 2.95   4 2.95   4 2.95
                             2 2.95   3 2.95   3 2.95   2 2.95
   2  0.500  0.500  0.000-   1 2.95   3 2.95   4 2.95   3 2.95   4 2.95   1 2.95   3 2.95   3 2.95
                             1 2.95   4 2.95   4 2.95   1 2.95
   3  0.500  0.000  0.500-   1 2.95   2 2.95   4 2.95   1 2.95   2 2.95   2 2.95   4 2.95   2 2.95
                             1 2.95   4 2.95   1 2.95   4 2.95
   4  0.000  0.500  0.500-   1 2.95   2 2.95   3 2.95   1 2.95   2 2.95   1 2.95   3 2.95   1 2.95
                             2 2.95   3 2.95   2 2.95   3 2.95
 
  LATTYP: Found a simple cubic cell.
 ALAT       =     4.1760000000
  
  Lattice vectors:
  
 A1 = (   4.1760000000,   0.0000000000,   0.0000000000)
 A2 = (   0.0000000000,   4.1760000000,   0.0000000000)
 A3 = (   0.0000000000,   0.0000000000,   4.1760000000)
 Subroutine PRICEL returns following result:
 
  LATTYP: Found a face centered cubic cell.
 ALAT       =     4.1760000000
  
  Lattice vectors:
  
 A1 = (   2.0880000000,   2.0880000000,   0.0000000000)
 A2 = (   2.0880000000,   0.0000000000,  -2.0880000000)
 A3 = (   0.0000000000,   2.0880000000,  -2.0880000000)
 
   4 primitive cells build up your supercell.
 

Analysis of symmetry for initial positions (statically):

 Routine SETGRP: Setting up the symmetry group for a 
 simple cubic supercell.


 Subroutine GETGRP returns: Found 48 space group operations
 (whereof 48 operations were pure point group operations)
 out of a pool of 48 trial point group operations.


The static configuration has the point symmetry O_h .

Analysis of symmetry for dynamics (positions and initial velocities):

 Subroutine DYNSYM returns: Found 48 space group operations
 (whereof 48 operations were pure point group operations)
 out of a pool of 48 trial space group operations
 (whereof 48 operations were pure point group operations)
 and found also     4 'primitive' translations


The dynamic configuration has the point symmetry O_h .
 
 
 KPOINTS: 6x6x6 title card                        

Automatic generation of k-mesh.
 
 Subroutine IBZKPT returns following result:
 ===========================================
 
 Found     10 irreducible k-points:
 
 Following reciprocal coordinates:
            Coordinates               Weight
  0.083333  0.083333  0.083333      8.000000
  0.250000  0.083333  0.083333     24.000000
  0.416667  0.083333  0.083333     24.000000
  0.250000  0.250000  0.083333     24.000000
  0.416667  0.250000  0.083333     48.000000
  0.416667  0.416667  0.083333     24.000000
  0.250000  0.250000  0.250000      8.000000
  0.416667  0.250000  0.250000     24.000000
  0.416667  0.416667  0.250000     24.000000
  0.416667  0.416667  0.416667      8.000000
 
 Following cartesian coordinates:
            Coordinates               Weight
  0.083333  0.083333  0.083333      8.000000
  0.250000  0.083333  0.083333     24.000000
  0.416667  0.083333  0.083333     24.000000
  0.250000  0.250000  0.083333     24.000000
  0.416667  0.250000  0.083333     48.000000
  0.416667  0.416667  0.083333     24.000000
  0.250000  0.250000  0.250000      8.000000
  0.416667  0.250000  0.250000     24.000000
  0.416667  0.416667  0.250000     24.000000
  0.416667  0.416667  0.416667      8.000000
 
 
 Subroutine IBZKPT_HF returns following result:
 ==============================================
 
 Found    216 k-points in 1st BZ
 the following    216 k-points will be used (e.g. in the exchange kernel)
 Following reciprocal coordinates:   # in IRBZ
  0.083333  0.083333  0.083333       1
  0.250000  0.083333  0.083333       2
  0.416667  0.083333  0.083333       3
  0.250000  0.250000  0.083333       4
  0.416667  0.250000  0.083333       5
  0.416667  0.416667  0.083333       6
  0.250000  0.250000  0.250000       7
  0.416667  0.250000  0.250000       8
  0.416667  0.416667  0.250000       9
  0.416667  0.416667  0.416667      10
 -0.083333 -0.083333 -0.083333       1
 -0.083333  0.083333  0.083333       1
  0.083333 -0.083333 -0.083333       1
 -0.083333 -0.083333  0.083333       1
  0.083333  0.083333 -0.083333       1
  0.083333 -0.083333  0.083333       1
 -0.083333  0.083333 -0.083333       1
 -0.250000 -0.083333 -0.083333       2
  0.083333  0.250000  0.083333       2
 -0.083333 -0.250000 -0.083333       2
  0.083333  0.083333  0.250000       2
 -0.083333 -0.083333 -0.250000       2
 -0.083333  0.250000  0.083333       2
  0.083333 -0.250000 -0.083333       2
 -0.250000  0.083333  0.083333       2
  0.250000 -0.083333 -0.083333       2
 -0.083333  0.083333  0.250000       2
  0.083333 -0.083333 -0.250000       2
 -0.250000 -0.083333  0.083333       2
  0.250000  0.083333 -0.083333       2
 -0.083333 -0.250000  0.083333       2
  0.083333  0.250000 -0.083333       2
 -0.083333 -0.083333  0.250000       2
  0.083333  0.083333 -0.250000       2
  0.083333 -0.250000  0.083333       2
 -0.083333  0.250000 -0.083333       2
  0.250000 -0.083333  0.083333       2
 -0.250000  0.083333 -0.083333       2
  0.083333 -0.083333  0.250000       2
 -0.083333  0.083333 -0.250000       2
 -0.416667 -0.083333 -0.083333       3
  0.083333  0.416667  0.083333       3
 -0.083333 -0.416667 -0.083333       3
  0.083333  0.083333  0.416667       3
 -0.083333 -0.083333 -0.416667       3
 -0.083333  0.416667  0.083333       3
  0.083333 -0.416667 -0.083333       3
 -0.416667  0.083333  0.083333       3
  0.416667 -0.083333 -0.083333       3
 -0.083333  0.083333  0.416667       3
  0.083333 -0.083333 -0.416667       3
 -0.416667 -0.083333  0.083333       3
  0.416667  0.083333 -0.083333       3
 -0.083333 -0.416667  0.083333       3
  0.083333  0.416667 -0.083333       3
 -0.083333 -0.083333  0.416667       3
  0.083333  0.083333 -0.416667       3
  0.083333 -0.416667  0.083333       3
 -0.083333  0.416667 -0.083333       3
  0.416667 -0.083333  0.083333       3
 -0.416667  0.083333 -0.083333       3
  0.083333 -0.083333  0.416667       3
 -0.083333  0.083333 -0.416667       3
 -0.250000 -0.250000 -0.083333       4
  0.083333  0.250000  0.250000       4
 -0.083333 -0.250000 -0.250000       4
  0.250000  0.083333  0.250000       4
 -0.250000 -0.083333 -0.250000       4
 -0.250000  0.250000  0.083333       4
  0.250000 -0.250000 -0.083333       4
 -0.250000  0.083333  0.250000       4
  0.250000 -0.083333 -0.250000       4
 -0.083333  0.250000  0.250000       4
  0.083333 -0.250000 -0.250000       4
 -0.250000 -0.250000  0.083333       4
  0.250000  0.250000 -0.083333       4
 -0.083333 -0.250000  0.250000       4
  0.083333  0.250000 -0.250000       4
 -0.250000 -0.083333  0.250000       4
  0.250000  0.083333 -0.250000       4
  0.250000 -0.250000  0.083333       4
 -0.250000  0.250000 -0.083333       4
  0.250000 -0.083333  0.250000       4
 -0.250000  0.083333 -0.250000       4
  0.083333 -0.250000  0.250000       4
 -0.083333  0.250000 -0.250000       4
 -0.416667 -0.250000 -0.083333       5
  0.083333  0.416667  0.250000       5
 -0.083333 -0.416667 -0.250000       5
  0.250000  0.083333  0.416667       5
 -0.250000 -0.083333 -0.416667       5
 -0.250000  0.416667  0.083333       5
  0.250000 -0.416667 -0.083333       5
 -0.416667  0.083333  0.250000       5
  0.416667 -0.083333 -0.250000       5
 -0.083333  0.250000  0.416667       5
  0.083333 -0.250000 -0.416667       5
 -0.416667 -0.250000  0.083333       5
  0.416667  0.250000 -0.083333       5
 -0.083333 -0.416667  0.250000       5
  0.083333  0.416667 -0.250000       5
 -0.250000 -0.083333  0.416667       5
  0.250000  0.083333 -0.416667       5
  0.250000 -0.416667  0.083333       5
 -0.250000  0.416667 -0.083333       5
  0.416667 -0.083333  0.250000       5
 -0.416667  0.083333 -0.250000       5
  0.083333 -0.250000  0.416667       5
 -0.083333  0.250000 -0.416667       5
  0.083333 -0.416667 -0.250000       5
 -0.083333  0.416667  0.250000       5
  0.250000 -0.083333 -0.416667       5
 -0.250000  0.083333  0.416667       5
  0.416667 -0.250000 -0.083333       5
 -0.416667  0.250000  0.083333       5
  0.083333  0.250000 -0.416667       5
 -0.083333 -0.250000  0.416667       5
  0.250000  0.416667 -0.083333       5
 -0.250000 -0.416667  0.083333       5
  0.416667  0.083333 -0.250000       5
 -0.416667 -0.083333  0.250000       5
 -0.250000  0.083333 -0.416667       5
  0.250000 -0.083333  0.416667       5
 -0.416667  0.250000 -0.083333       5
  0.416667 -0.250000  0.083333       5
 -0.083333  0.416667 -0.250000       5
  0.083333 -0.416667  0.250000       5
 -0.416667 -0.083333 -0.250000       5
  0.416667  0.083333  0.250000       5
 -0.250000 -0.416667 -0.083333       5
  0.250000  0.416667  0.083333       5
 -0.083333 -0.250000 -0.416667       5
  0.083333  0.250000  0.416667       5
 -0.416667 -0.416667 -0.083333       6
  0.083333  0.416667  0.416667       6
 -0.083333 -0.416667 -0.416667       6
  0.416667  0.083333  0.416667       6
 -0.416667 -0.083333 -0.416667       6
 -0.416667  0.416667  0.083333       6
  0.416667 -0.416667 -0.083333       6
 -0.416667  0.083333  0.416667       6
  0.416667 -0.083333 -0.416667       6
 -0.083333  0.416667  0.416667       6
  0.083333 -0.416667 -0.416667       6
 -0.416667 -0.416667  0.083333       6
  0.416667  0.416667 -0.083333       6
 -0.083333 -0.416667  0.416667       6
  0.083333  0.416667 -0.416667       6
 -0.416667 -0.083333  0.416667       6
  0.416667  0.083333 -0.416667       6
  0.416667 -0.416667  0.083333       6
 -0.416667  0.416667 -0.083333       6
  0.416667 -0.083333  0.416667       6
 -0.416667  0.083333 -0.416667       6
  0.083333 -0.416667  0.416667       6
 -0.083333  0.416667 -0.416667       6
 -0.250000 -0.250000 -0.250000       7
 -0.250000  0.250000  0.250000       7
  0.250000 -0.250000 -0.250000       7
 -0.250000 -0.250000  0.250000       7
  0.250000  0.250000 -0.250000       7
  0.250000 -0.250000  0.250000       7
 -0.250000  0.250000 -0.250000       7
 -0.416667 -0.250000 -0.250000       8
  0.250000  0.416667  0.250000       8
 -0.250000 -0.416667 -0.250000       8
  0.250000  0.250000  0.416667       8
 -0.250000 -0.250000 -0.416667       8
 -0.250000  0.416667  0.250000       8
  0.250000 -0.416667 -0.250000       8
 -0.416667  0.250000  0.250000       8
  0.416667 -0.250000 -0.250000       8
 -0.250000  0.250000  0.416667       8
  0.250000 -0.250000 -0.416667       8
 -0.416667 -0.250000  0.250000       8
  0.416667  0.250000 -0.250000       8
 -0.250000 -0.416667  0.250000       8
  0.250000  0.416667 -0.250000       8
 -0.250000 -0.250000  0.416667       8
  0.250000  0.250000 -0.416667       8
  0.250000 -0.416667  0.250000       8
 -0.250000  0.416667 -0.250000       8
  0.416667 -0.250000  0.250000       8
 -0.416667  0.250000 -0.250000       8
  0.250000 -0.250000  0.416667       8
 -0.250000  0.250000 -0.416667       8
 -0.416667 -0.416667 -0.250000       9
  0.250000  0.416667  0.416667       9
 -0.250000 -0.416667 -0.416667       9
  0.416667  0.250000  0.416667       9
 -0.416667 -0.250000 -0.416667       9
 -0.416667  0.416667  0.250000       9
  0.416667 -0.416667 -0.250000       9
 -0.416667  0.250000  0.416667       9
  0.416667 -0.250000 -0.416667       9
 -0.250000  0.416667  0.416667       9
  0.250000 -0.416667 -0.416667       9
 -0.416667 -0.416667  0.250000       9
  0.416667  0.416667 -0.250000       9
 -0.250000 -0.416667  0.416667       9
  0.250000  0.416667 -0.416667       9
 -0.416667 -0.250000  0.416667       9
  0.416667  0.250000 -0.416667       9
  0.416667 -0.416667  0.250000       9
 -0.416667  0.416667 -0.250000       9
  0.416667 -0.250000  0.416667       9
 -0.416667  0.250000 -0.416667       9
  0.250000 -0.416667  0.416667       9
 -0.250000  0.416667 -0.416667       9
 -0.416667 -0.416667 -0.416667      10
 -0.416667  0.416667  0.416667      10
  0.416667 -0.416667 -0.416667      10
 -0.416667 -0.416667  0.416667      10
  0.416667  0.416667 -0.416667      10
  0.416667 -0.416667  0.416667      10
 -0.416667  0.416667 -0.416667      10


--------------------------------------------------------------------------------------------------------




 Dimension of arrays:
   k-points           NKPTS =     10   k-points in BZ     NKDIM =     10   number of bands    NBANDS=     26
   number of dos      NEDOS =    301   number of ions     NIONS =      4
   non local maximal  LDIM  =      6   non local SUM 2l+1 LMDIM =     18
   total plane-waves  NPLWV =   8000
   max r-space proj   IRMAX =      1   max aug-charges    IRDMAX=   6917
   dimension x,y,z NGX =    20 NGY =   20 NGZ =   20
   dimension x,y,z NGXF=    40 NGYF=   40 NGZF=   40
   support grid    NGXF=    40 NGYF=   40 NGZF=   40
   ions per type =               4
 NGX,Y,Z   is equivalent  to a cutoff of   7.96,  7.96,  7.96 a.u.
 NGXF,Y,Z  is equivalent  to a cutoff of  15.92, 15.92, 15.92 a.u.


 I would recommend the setting:
   dimension x,y,z NGX =    19 NGY =   19 NGZ =   19
 SYSTEM =  Au, FCC                                 
 POSCAR =  Pure FCC metal                          

 Startparameter for this run:
   NWRITE =      1    write-flag & timer
   PREC   = normal    medium, high low
   ISTART =      0    job   : 0-new  1-cont  2-samecut
   ICHARG =      2    charge: 1-file 2-atom 10-const
   ISPIN  =      1    spin polarized calculation?
   LNONCOLLINEAR =      F non collinear calculations
   LSORBIT =      F    spin-orbit coupling
   INIWAV =      1    electr: 0-lowe 1-rand  2-diag
   LASPH  =      F    aspherical Exc in radial PAW
   METAGGA=      F    non-selfconsistent MetaGGA calc.

 Electronic Relaxation 1
   ENCUT  =  350.0 eV  25.72 Ry    5.07 a.u.   6.37  6.37  6.37*2*pi/ulx,y,z
   ENINI  =  350.0     initial cutoff
   ENAUG  =  356.7 eV  augmentation charge cutoff
   NELM   =     60;   NELMIN=  2; NELMDL= -5     # of ELM steps 
   EDIFF  = 0.1E-03   stopping-criterion for ELM
   LREAL  =      F    real-space projection
   LCOMPAT=      F    compatible to vasp.4.4
   LREAL_COMPAT= F    compatible to vasp.4.5.1-3
   GGA_COMPAT  = T    GGA compatible to vasp.4.4-vasp.4.6
   LMAXPAW     = -100 max onsite density
   LMAXMIX     =    2 max onsite mixed and CHGCAR
   VOSKOWN=      0    Vosko Wilk Nusair interpolation
   ROPT   =    0.00000
 Ionic relaxation
   EDIFFG = -.5E-01   stopping-criterion for IOM
   NSW    =     80    number of steps for IOM
   NBLOCK =      1;   KBLOCK =     10    inner block; outer block 
   IBRION =      6    ionic relax: 0-MD 1-quasi-New 2-CG
   NFREE  =      2    steps in history (QN), initial steepest desc. (CG)
   ISIF   =      2    stress and relaxation
   IWAVPR =     11    prediction:  0-non 1-charg 2-wave 3-comb
   ISYM   =      2    0-nonsym 1-usesym 2-fastsym
   LCORR  =      T    Harris-Foulkes like correction to forces

   POTIM  = 0.3500    time-step for ionic-motion
   TEIN   =    0.0    initial temperature
   TEBEG  =    0.0;   TEEND  =   0.0 temperature during run
   SMASS  =  -3.00    Nose mass-parameter (am)
   estimated Nose-frequenzy (Omega)   =  0.10E-29 period in steps =****** mass=  -0.399E-27a.u.
   NPACO  =    256;   APACO  = 16.0  distance and # of slots for P.C.
   PSTRESS=    0.0 pullay stress

  Mass of Ions in am
   POMASS = 196.97
  Ionic Valenz
   ZVAL   =  11.00
  Atomic Wigner-Seitz radii
   RWIGS  =  -1.00
   NELECT =      44.0000    total number of electrons
   NUPDOWN=      -1.0000    fix difference up-down

 DOS related values:
   EMIN   =  10.00;   EMAX   =-10.00  energy-range for DOS
   EFERMI =   0.00
   ISMEAR =     0;   SIGMA  =   0.10  broadening in eV -4-tet -1-fermi 0-gaus

 Electronic relaxation 2 (details)
   IALGO  =     68    algorithm
   LDIAG  =      T    sub-space diagonalisation
   IMIX   =      4    mixing-type and parameters
     AMIX     =   0.40;   BMIX     =  1.00
     AMIX_MAG =   1.60;   BMIX_MAG =  1.00
     AMIN     =   0.10
     WC   =   100.;   INIMIX=   1;  MIXPRE=   1

 Intra band minimization:
   WEIMIN = 0.0010     energy-eigenvalue tresh-hold
   EBREAK =  0.96E-06  absolut break condition
   DEPER  =   0.30     relativ break condition  

   TIME   =   0.40     timestep for ELM

  volume/ion in A,a.u.               =      18.21       122.86
  Fermi-wavevector in a.u.,A,eV,Ry     =   1.383987  2.615356 26.060858  1.915419
  Thomas-Fermi vector in A             =   2.508533
 
 Write flags
   LWAVE  =      F    write WAVECAR
   LCHARG =      T    write CHGCAR
   LVTOT  =      F    write LOCPOT, local potential
   LELF   =      F    write electronic localiz. function (ELF)
   LORBIT =     11    0 simple, 1 ext, 2 COOP (PROOUT)


 Dipole corrections
   LMONO  =      F    monopole corrections only (constant potential shift)
   LDIPOL =      F    correct potential (dipole corrections)
   IDIPOL =      0    1-x, 2-y, 3-z, 4-all directions 
   EPSILON=  1.0000000 bulk dielectric constant

 Exchange correlation treatment:
   GGA     =    --    GGA type
   LEXCH   =     7    internal setting for exchange type
   VOSKOWN=      0    Vosko Wilk Nusair interpolation
   LHFCALC =     F    Hartree Fock is set to
   LHFONE  =     F    Hartree Fock one center treatment
   AEXX    =    0.0000 exact exchange contribution

 Linear response parameters
   LEPSILON=     F    determine dielectric tensor
   LRPA    =     F    only Hartree local field effects (RPA)
   LNABLA  =     F    use nabla operator in PAW spheres
   LVEL    =     F    velocity operator in full k-point grid
   LINTERFAST=   F  fast interpolation
   KINTER  =     0    interpolate to denser k-point grid
   CSHIFT  =0.1000    complex shift for real part using Kramers Kronig
   OMEGAMAX=  -1.0    maximum frequency

 Orbital magnetization related:
   ORBITALMAG=     F  switch on orbital magnetization
   LCHIMAG   =     F  perturbation theory with respect to B field



--------------------------------------------------------------------------------------------------------


 finite differences with symmetry
 charge density and potential will be updated during run
 non-spin polarized calculation
 RMM-DIIS sequential band-by-band and
  variant of blocked Davidson during initial phase
 perform sub-space diagonalisation
    before iterative eigenvector-optimisation
 modified Broyden-mixing scheme, WC =      100.0
 initial mixing is a Kerker type mixing with AMIX =  0.4000 and BMIX =      1.0000
 Hartree-type preconditioning will be used
 using additional bands            4
 reciprocal scheme for non local part
 use partial core corrections
 calculate Harris-corrections to forces 
   (improved forces if not selfconsistent)
 use gradient corrections 
 use of overlap-Matrix (Vanderbilt PP)
 Gauss-broadening in eV      SIGMA  =   0.10


--------------------------------------------------------------------------------------------------------


  energy-cutoff  :      350.00
  volume of cell :       72.83
      direct lattice vectors                 reciprocal lattice vectors
     4.176000000  0.000000000  0.000000000     0.239463602  0.000000000  0.000000000
     0.000000000  4.176000000  0.000000000     0.000000000  0.239463602  0.000000000
     0.000000000  0.000000000  4.176000000     0.000000000  0.000000000  0.239463602

  length of vectors
     4.176000000  4.176000000  4.176000000     0.239463602  0.239463602  0.239463602


 
 k-points in units of 2pi/SCALE and weight: 6x6x6 title card                        
   0.08333333  0.08333333  0.08333333       0.037
   0.25000000  0.08333333  0.08333333       0.111
   0.41666667  0.08333333  0.08333333       0.111
   0.25000000  0.25000000  0.08333333       0.111
   0.41666667  0.25000000  0.08333333       0.222
   0.41666667  0.41666667  0.08333333       0.111
   0.25000000  0.25000000  0.25000000       0.037
   0.41666667  0.25000000  0.25000000       0.111
   0.41666667  0.41666667  0.25000000       0.111
   0.41666667  0.41666667  0.41666667       0.037
 
 k-points in reciprocal lattice and weights: 6x6x6 title card                        
   0.08333333  0.08333333  0.08333333       0.037
   0.25000000  0.08333333  0.08333333       0.111
   0.41666667  0.08333333  0.08333333       0.111
   0.25000000  0.25000000  0.08333333       0.111
   0.41666667  0.25000000  0.08333333       0.222
   0.41666667  0.41666667  0.08333333       0.111
   0.25000000  0.25000000  0.25000000       0.037
   0.41666667  0.25000000  0.25000000       0.111
   0.41666667  0.41666667  0.25000000       0.111
   0.41666667  0.41666667  0.41666667       0.037
 
 position of ions in fractional coordinates (direct lattice) 
   0.00000000  0.00000000  0.00000000
   0.50000000  0.50000000  0.00000000
   0.50000000  0.00000000  0.50000000
   0.00000000  0.50000000  0.50000000
 
 position of ions in cartesian coordinates  (Angst):
   0.00000000  0.00000000  0.00000000
   2.08800000  2.08800000  0.00000000
   2.08800000  0.00000000  2.08800000
   0.00000000  2.08800000  2.08800000
 


--------------------------------------------------------------------------------------------------------


 k-point  1 :  0.08330.08330.0833  plane waves:    1081
 k-point  2 :  0.25000.08330.0833  plane waves:    1084
 k-point  3 :  0.41670.08330.0833  plane waves:    1086
 k-point  4 :  0.25000.25000.0833  plane waves:    1082
 k-point  5 :  0.41670.25000.0833  plane waves:    1097
 k-point  6 :  0.41670.41670.0833  plane waves:    1075
 k-point  7 :  0.25000.25000.2500  plane waves:    1069
 k-point  8 :  0.41670.25000.2500  plane waves:    1078
 k-point  9 :  0.41670.41670.2500  plane waves:    1074
 k-point 10 :  0.41670.41670.4167  plane waves:    1070

 maximum and minimum number of plane-waves per node :    1097   1069

 maximum number of plane-waves:    1097
 maximal index in each direction: 
   IXMAX=  6   IYMAX=  6   IZMAX=  6
   IXMIN= -6   IYMIN= -6   IZMIN= -6

 WARNING: aliasing errors must be expected set NGX to  26 to avoid them
 WARNING: aliasing errors must be expected set NGY to  26 to avoid them
 WARNING: aliasing errors must be expected set NGZ to  26 to avoid them
 aliasing errors are usually negligible using standard VASP settings
 and one can safely disregard these warnings

 serial   3D FFT for wavefunctions
 parallel 3D FFT for charge:
    minimum data exchange during FFTs selected (reduces bandwidth)


 total amount of memory used by VASP on root node  42358. kBytes
========================================================================

   base      :    30000. kBytes
   nonl-proj :     1649. kBytes
   fftplans  :     2284. kBytes
   grid      :     3500. kBytes
   one-center:       62. kBytes
   wavefun   :     4863. kBytes
 
 Broyden mixing: mesh for mixing (old mesh)
   NGX = 13   NGY = 13   NGZ = 13
  (NGX  = 40   NGY  = 40   NGZ  = 40)
  gives a total of   2197 points

 initial charge density was supplied:
 charge density of overlapping atoms calculated
 number of electron   44.0000000 magnetization 
 keeping initial charge density in first step


--------------------------------------------------------------------------------------------------------


 Maximum index for augmentation-charges         6619 (set IRDMAX)


--------------------------------------------------------------------------------------------------------


 First call to EWALD:  gamma=   0.424
 Maximum number of real-space cells 3x 3x 3
 Maximum number of reciprocal cells 3x 3x 3

    FEWALD:  cpu time    0.00: real time    0.00
   RESPFUN:  cpu time    0.00: real time    0.00


----------------------------------------- Iteration    1(   1)  ---------------------------------------


    POTLOK:  cpu time    0.12: real time    0.12
    SETDIJ:  cpu time    0.02: real time    0.03
     EDDAV:  cpu time    1.35: real time    1.35
       DOS:  cpu time    0.00: real time    0.00
    --------------------------------------------
      LOOP:  cpu time    1.50: real time    1.50

 eigenvalue-minimisations  :   520
 total energy-change (2. order) : 0.3522575E+03  (-0.1774041E+04)
 number of electron   44.0000000 magnetization 
 augmentation part    44.0000000 magnetization 

 Free energy of the ion-electron system (eV)
  ---------------------------------------------------
  alpha Z        PSCENC =       410.59993510
  Ewald energy   TEWEN  =     -3825.93184368
  -1/2 Hartree   DENC   =      -529.55712152
  -exchange  EXHF       =         0.00000000
  -V(xc)+E(xc)   XCENC  =        59.97000211
  PAW double counting   =      2990.61254974    -2898.25794382
  entropy T*S    EENTRO =        -0.01923079
  eigenvalues    EBANDS =       436.53069051
  atomic energy  EATOM  =      3708.31045775
  ---------------------------------------------------
  free energy    TOTEN  =       352.25749540 eV

  energy without entropy =      352.27672618  energy(sigma->0) =      352.26711079


--------------------------------------------------------------------------------------------------------




----------------------------------------- Iteration    1(   2)  ---------------------------------------


     EDDAV:  cpu time    1.39: real time    1.39
       DOS:  cpu time    0.00: real time    0.00
    --------------------------------------------
      LOOP:  cpu time    1.39: real time    1.39

 eigenvalue-minimisations  :   546
 total energy-change (2. order) :-0.3497728E+03  (-0.3391430E+03)
 number of electron   44.0000000 magnetization 
 augmentation part    44.0000000 magnetization 

 Free energy of the ion-electron system (eV)
  ---------------------------------------------------
  alpha Z        PSCENC =       410.59993510
  Ewald energy   TEWEN  =     -3825.93184368
  -1/2 Hartree   DENC   =      -529.55712152
  -exchange  EXHF       =         0.00000000
  -V(xc)+E(xc)   XCENC  =        59.97000211
  PAW double counting   =      2990.61254974    -2898.25794382
  entropy T*S    EENTRO =        -0.01063639
  eigenvalues    EBANDS =        86.74930349
  atomic energy  EATOM  =      3708.31045775
  ---------------------------------------------------
  free energy    TOTEN  =         2.48470278 eV

  energy without entropy =        2.49533917  energy(sigma->0) =        2.49002098


--------------------------------------------------------------------------------------------------------




----------------------------------------- Iteration    1(   3)  ---------------------------------------


     EDDAV:  cpu time    1.54: real time    1.54
       DOS:  cpu time    0.00: real time    0.00
    --------------------------------------------
      LOOP:  cpu time    1.54: real time    1.54

 eigenvalue-minimisations  :   620
 total energy-change (2. order) :-0.1594088E+02  (-0.1529132E+02)
 number of electron   44.0000000 magnetization 
 augmentation part    44.0000000 magnetization 

 Free energy of the ion-electron system (eV)
  ---------------------------------------------------
  alpha Z        PSCENC =       410.59993510
  Ewald energy   TEWEN  =     -3825.93184368
  -1/2 Hartree   DENC   =      -529.55712152
  -exchange  EXHF       =         0.00000000
  -V(xc)+E(xc)   XCENC  =        59.97000211
  PAW double counting   =      2990.61254974    -2898.25794382
  entropy T*S    EENTRO =        -0.02160671
  eigenvalues    EBANDS =        70.81939416
  atomic energy  EATOM  =      3708.31045775
  ---------------------------------------------------
  free energy    TOTEN  =       -13.45617688 eV

  energy without entropy =      -13.43457017  energy(sigma->0) =      -13.44537352


--------------------------------------------------------------------------------------------------------




----------------------------------------- Iteration    1(   4)  ---------------------------------------


     EDDAV:  cpu time    1.43: real time    1.43
       DOS:  cpu time    0.00: real time    0.00
    --------------------------------------------
      LOOP:  cpu time    1.44: real time    1.44

 eigenvalue-minimisations  :   568
 total energy-change (2. order) :-0.3062323E+00  (-0.3051161E+00)
 number of electron   44.0000000 magnetization 
 augmentation part    44.0000000 magnetization 

 Free energy of the ion-electron system (eV)
  ---------------------------------------------------
  alpha Z        PSCENC =       410.59993510
  Ewald energy   TEWEN  =     -3825.93184368
  -1/2 Hartree   DENC   =      -529.55712152
  -exchange  EXHF       =         0.00000000
  -V(xc)+E(xc)   XCENC  =        59.97000211
  PAW double counting   =      2990.61254974    -2898.25794382
  entropy T*S    EENTRO =        -0.02170452
  eigenvalues    EBANDS =        70.51325965
  atomic energy  EATOM  =      3708.31045775
  ---------------------------------------------------
  free energy    TOTEN  =       -13.76240919 eV

  energy without entropy =      -13.74070468  energy(sigma->0) =      -13.75155694


--------------------------------------------------------------------------------------------------------




----------------------------------------- Iteration    1(   5)  ---------------------------------------


     EDDAV:  cpu time    1.44: real time    1.44
       DOS:  cpu time    0.00: real time    0.00
    CHARGE:  cpu time    0.13: real time    0.13
    MIXING:  cpu time    0.00: real time    0.00
    --------------------------------------------
      LOOP:  cpu time    1.58: real time    1.59

 eigenvalue-minimisations  :   562
 total energy-change (2. order) :-0.4866395E-02  (-0.4865355E-02)
 number of electron   43.9999947 magnetization 
 augmentation part    15.4987063 magnetization 

 Broyden mixing:
  rms(total) = 0.57562E+00    rms(broyden)= 0.57561E+00
  rms(prec ) = 0.14546E+01
  weight for this iteration     100.00

 Free energy of the ion-electron system (eV)
  ---------------------------------------------------
  alpha Z        PSCENC =       410.59993510
  Ewald energy   TEWEN  =     -3825.93184368
  -1/2 Hartree   DENC   =      -529.55712152
  -exchange  EXHF       =         0.00000000
  -V(xc)+E(xc)   XCENC  =        59.97000211
  PAW double counting   =      2990.61254974    -2898.25794382
  entropy T*S    EENTRO =        -0.02170678
  eigenvalues    EBANDS =        70.50839552
  atomic energy  EATOM  =      3708.31045775
  ---------------------------------------------------
  free energy    TOTEN  =       -13.76727559 eV

  energy without entropy =      -13.74556880  energy(sigma->0) =      -13.75642220


--------------------------------------------------------------------------------------------------------




----------------------------------------- Iteration    1(   6)  ---------------------------------------


    POTLOK:  cpu time    0.12: real time    0.12
    SETDIJ:  cpu time    0.02: real time    0.03
    EDDIAG:  cpu time    0.27: real time    0.27
  RMM-DIIS:  cpu time    0.99: real time    0.99
    ORTHCH:  cpu time    0.03: real time    0.03
       DOS:  cpu time    0.00: real time    0.00
    CHARGE:  cpu time    0.13: real time    0.13
    MIXING:  cpu time    0.00: real time    0.00
    --------------------------------------------
      LOOP:  cpu time    1.57: real time    1.58

 eigenvalue-minimisations  :   520
 total energy-change (2. order) : 0.9411365E+00  (-0.2684579E+00)
 number of electron   43.9999946 magnetization 
 augmentation part    16.0398528 magnetization 

 Broyden mixing:
  rms(total) = 0.15013E+00    rms(broyden)= 0.15010E+00
  rms(prec ) = 0.36086E+00
  weight for this iteration     100.00

 eigenvalues of (default mixing * dielectric matrix)
  average eigenvalue GAMMA=   1.2212
  1.2212

 Free energy of the ion-electron system (eV)
  ---------------------------------------------------
  alpha Z        PSCENC =       410.59993510
  Ewald energy   TEWEN  =     -3825.93184368
  -1/2 Hartree   DENC   =      -498.67505301
  -exchange  EXHF       =         0.00000000
  -V(xc)+E(xc)   XCENC  =        58.55596771
  PAW double counting   =      2958.99352156    -2871.16886915
  entropy T*S    EENTRO =        -0.00985167
  eigenvalues    EBANDS =        46.49959628
  atomic energy  EATOM  =      3708.31045775
  ---------------------------------------------------
  free energy    TOTEN  =       -12.82613911 eV

  energy without entropy =      -12.81628744  energy(sigma->0) =      -12.82121328


--------------------------------------------------------------------------------------------------------




----------------------------------------- Iteration    1(   7)  ---------------------------------------


    POTLOK:  cpu time    0.12: real time    0.12
    SETDIJ:  cpu time    0.02: real time    0.03
    EDDIAG:  cpu time    0.27: real time    0.27
  RMM-DIIS:  cpu time    0.99: real time    0.99
    ORTHCH:  cpu time    0.03: real time    0.03
       DOS:  cpu time    0.00: real time    0.00
    CHARGE:  cpu time    0.13: real time    0.13
    MIXING:  cpu time    0.00: real time    0.00
    --------------------------------------------
      LOOP:  cpu time    1.57: real time    1.58

 eigenvalue-minimisations  :   524
 total energy-change (2. order) : 0.5154437E-01  (-0.2888208E-01)
 number of electron   43.9999946 magnetization 
 augmentation part    16.1757575 magnetization 

 Broyden mixing:
  rms(total) = 0.58056E-01    rms(broyden)= 0.58043E-01
  rms(prec ) = 0.83490E-01
  weight for this iteration     100.00

 eigenvalues of (default mixing * dielectric matrix)
  average eigenvalue GAMMA=   1.7378
  1.2488  2.2267

 Free energy of the ion-electron system (eV)
  ---------------------------------------------------
  alpha Z        PSCENC =       410.59993510
  Ewald energy   TEWEN  =     -3825.93184368
  -1/2 Hartree   DENC   =      -489.39229541
  -exchange  EXHF       =         0.00000000
  -V(xc)+E(xc)   XCENC  =        58.11575873
  PAW double counting   =      2965.95612559    -2880.92895846
  entropy T*S    EENTRO =        -0.00603821
  eigenvalues    EBANDS =        40.50226386
  atomic energy  EATOM  =      3708.31045775
  ---------------------------------------------------
  free energy    TOTEN  =       -12.77459474 eV

  energy without entropy =      -12.76855654  energy(sigma->0) =      -12.77157564


--------------------------------------------------------------------------------------------------------




----------------------------------------- Iteration    1(   8)  ---------------------------------------


    POTLOK:  cpu time    0.12: real time    0.12
    SETDIJ:  cpu time    0.02: real time    0.03
    EDDIAG:  cpu time    0.27: real time    0.27
  RMM-DIIS:  cpu time    0.99: real time    0.99
    ORTHCH:  cpu time    0.03: real time    0.03
       DOS:  cpu time    0.00: real time    0.00
    CHARGE:  cpu time    0.13: real time    0.13
    MIXING:  cpu time    0.00: real time    0.00
    --------------------------------------------
      LOOP:  cpu time    1.57: real time    1.57

 eigenvalue-minimisations  :   524
 total energy-change (2. order) : 0.1198542E-01  (-0.1237480E-02)
 number of electron   43.9999946 magnetization 
 augmentation part    16.1579702 magnetization 

 Broyden mixing:
  rms(total) = 0.84229E-02    rms(broyden)= 0.84208E-02
  rms(prec ) = 0.21256E-01
  weight for this iteration     100.00

 eigenvalues of (default mixing * dielectric matrix)
  average eigenvalue GAMMA=   1.7205
  2.6404  1.2605  1.2605

 Free energy of the ion-electron system (eV)
  ---------------------------------------------------
  alpha Z        PSCENC =       410.59993510
  Ewald energy   TEWEN  =     -3825.93184368
  -1/2 Hartree   DENC   =      -487.94082664
  -exchange  EXHF       =         0.00000000
  -V(xc)+E(xc)   XCENC  =        58.02767215
  PAW double counting   =      2989.57154281    -2906.57225850
  entropy T*S    EENTRO =        -0.00648342
  eigenvalues    EBANDS =        41.17919511
  atomic energy  EATOM  =      3708.31045775
  ---------------------------------------------------
  free energy    TOTEN  =       -12.76260932 eV

  energy without entropy =      -12.75612590  energy(sigma->0) =      -12.75936761


--------------------------------------------------------------------------------------------------------




----------------------------------------- Iteration    1(   9)  ---------------------------------------


    POTLOK:  cpu time    0.12: real time    0.12
    SETDIJ:  cpu time    0.02: real time    0.03
    EDDIAG:  cpu time    0.27: real time    0.27
  RMM-DIIS:  cpu time    0.97: real time    0.98
    ORTHCH:  cpu time    0.03: real time    0.03
       DOS:  cpu time    0.00: real time    0.00
    CHARGE:  cpu time    0.13: real time    0.13
    MIXING:  cpu time    0.00: real time    0.00
    --------------------------------------------
      LOOP:  cpu time    1.55: real time    1.56

 eigenvalue-minimisations  :   514
 total energy-change (2. order) : 0.9439127E-04  (-0.1525717E-03)
 number of electron   43.9999946 magnetization 
 augmentation part    16.1680262 magnetization 

 Broyden mixing:
  rms(total) = 0.28112E-02    rms(broyden)= 0.28102E-02
  rms(prec ) = 0.53189E-02
  weight for this iteration     100.00

 eigenvalues of (default mixing * dielectric matrix)
  average eigenvalue GAMMA=   1.8639
  1.1544  1.0431  2.6836  2.5746

 Free energy of the ion-electron system (eV)
  ---------------------------------------------------
  alpha Z        PSCENC =       410.59993510
  Ewald energy   TEWEN  =     -3825.93184368
  -1/2 Hartree   DENC   =      -487.12369980
  -exchange  EXHF       =         0.00000000
  -V(xc)+E(xc)   XCENC  =        57.98808205
  PAW double counting   =      2992.55626966    -2909.81782439
  entropy T*S    EENTRO =        -0.00620129
  eigenvalues    EBANDS =        40.66230968
  atomic energy  EATOM  =      3708.31045775
  ---------------------------------------------------
  free energy    TOTEN  =       -12.76251493 eV

  energy without entropy =      -12.75631364  energy(sigma->0) =      -12.75941429


--------------------------------------------------------------------------------------------------------




----------------------------------------- Iteration    1(  10)  ---------------------------------------


    POTLOK:  cpu time    0.12: real time    0.12
    SETDIJ:  cpu time    0.02: real time    0.02
    EDDIAG:  cpu time    0.27: real time    0.27
  RMM-DIIS:  cpu time    0.57: real time    0.57
    ORTHCH:  cpu time    0.03: real time    0.03
       DOS:  cpu time    0.00: real time    0.00
    --------------------------------------------
      LOOP:  cpu time    1.01: real time    1.01

 eigenvalue-minimisations  :   274
 total energy-change (2. order) :-0.5049251E-06  (-0.5771213E-05)
 number of electron   43.9999946 magnetization 
 augmentation part    16.1680262 magnetization 

 Free energy of the ion-electron system (eV)
  ---------------------------------------------------
  alpha Z        PSCENC =       410.59993510
  Ewald energy   TEWEN  =     -3825.93184368
  -1/2 Hartree   DENC   =      -487.25535205
  -exchange  EXHF       =         0.00000000
  -V(xc)+E(xc)   XCENC  =        57.99384906
  PAW double counting   =      2993.68098170    -2910.82270695
  entropy T*S    EENTRO =        -0.00621739
  eigenvalues    EBANDS =        40.66838103
  atomic energy  EATOM  =      3708.31045775
  ---------------------------------------------------
  free energy    TOTEN  =       -12.76251543 eV

  energy without entropy =      -12.75629805  energy(sigma->0) =      -12.75940674


--------------------------------------------------------------------------------------------------------




 average (electrostatic) potential at core
  the test charge radii are     1.2098
  (the norm of the test charge is              1.0000)
       1 -46.1476       2 -46.1476       3 -46.1476       4 -46.1476
 
 
 
 E-fermi :   4.7986     XC(G=0): -12.3428     alpha+bet : -9.5478
   add alpha+bet to get absolut eigen values

 k-point   1 :       0.0833    0.0833    0.0833
  band No.  band energies     occupation 
      1      -4.0482      2.00000
      2      -1.4927      2.00000
      3      -1.4927      2.00000
      4      -1.4927      2.00000
      5      -1.2254      2.00000
      6      -1.2254      2.00000
      7      -1.2254      2.00000
      8       0.4378      2.00000
      9       0.5764      2.00000
     10       0.5764      2.00000
     11       1.8261      2.00000
     12       1.8261      2.00000
     13       2.7137      2.00000
     14       2.7137      2.00000
     15       2.7137      2.00000
     16       2.7300      2.00000
     17       2.7300      2.00000
     18       2.7300      2.00000
     19       3.1348      2.00000
     20       3.1348      2.00000
     21       3.1348      2.00000
     22       6.0724      0.00000
     23       6.0724      0.00000
     24       6.0724      0.00000
     25      10.7670      0.00000
     26      10.7670      0.00000

 k-point   2 :       0.2500    0.0833    0.0833
  band No.  band energies     occupation 
      1      -3.4659      2.00000
      2      -1.3432      2.00000
      3      -1.1703      2.00000
      4      -1.1703      2.00000
      5      -1.0218      2.00000
      6      -0.8736      2.00000
      7      -0.8736      2.00000
      8       0.2052      2.00000
      9       0.7909      2.00000
     10       0.7977      2.00000
     11       1.5809      2.00000
     12       1.6373      2.00000
     13       1.6373      2.00000
     14       1.9841      2.00000
     15       2.0079      2.00000
     16       2.3667      2.00000
     17       2.3883      2.00000
     18       2.3883      2.00000
     19       2.9168      2.00000
     20       3.0954      2.00000
     21       3.0954      2.00000
     22       3.8918      2.00000
     23       7.3829      0.00000
     24       7.3829      0.00000
     25      10.3367      0.00000
     26      10.3367      0.00000

 k-point   3 :       0.4167    0.0833    0.0833
  band No.  band energies     occupation 
      1      -2.4283      2.00000
      2      -1.4701      2.00000
      3      -0.6597      2.00000
      4      -0.6597      2.00000
      5      -0.6573      2.00000
      6      -0.2973      2.00000
      7      -0.2973      2.00000
      8      -0.2106      2.00000
      9       0.5472      2.00000
     10       0.5472      2.00000
     11       0.9370      2.00000
     12       1.0664      2.00000
     13       1.2216      2.00000
     14       1.6011      2.00000
     15       1.7900      2.00000
     16       1.8728      2.00000
     17       1.8728      2.00000
     18       2.2639      2.00000
     19       2.4128      2.00000
     20       2.6005      2.00000
     21       3.0802      2.00000
     22       3.0802      2.00000
     23       8.4980      0.00000
     24       8.4980      0.00000
     25      10.1945      0.00000
     26      10.1945      0.00000

 k-point   4 :       0.2500    0.2500    0.0833
  band No.  band energies     occupation 
      1      -2.9463      2.00000
      2      -1.0573      2.00000
      3      -1.0289      2.00000
      4      -1.0289      2.00000
      5      -0.6712      2.00000
      6      -0.6712      2.00000
      7      -0.4640      2.00000
      8       0.1815      2.00000
      9       0.8099      2.00000
     10       0.8601      2.00000
     11       0.9945      2.00000
     12       0.9945      2.00000
     13       1.2490      2.00000
     14       1.5866      2.00000
     15       2.0325      2.00000
     16       2.1342      2.00000
     17       2.1553      2.00000
     18       2.1553      2.00000
     19       2.8396      2.00000
     20       2.8396      2.00000
     21       2.8730      2.00000
     22       5.0930      0.00003
     23       5.0930      0.00003
     24       8.1754      0.00000
     25       9.2705      0.00000
     26      12.3090      0.00000

 k-point   5 :       0.4167    0.2500    0.0833
  band No.  band energies     occupation 
      1      -2.0345      2.00000
      2      -1.1654      2.00000
      3      -0.6855      2.00000
      4      -0.5135      2.00000
      5      -0.3518      2.00000
      6      -0.2166      2.00000
      7      -0.1183      2.00000
      8      -0.0458      2.00000
      9       0.2423      2.00000
     10       0.4932      2.00000
     11       0.5922      2.00000
     12       0.6983      2.00000
     13       1.1423      2.00000
     14       1.6137      2.00000
     15       1.6971      2.00000
     16       1.7241      2.00000
     17       1.8138      2.00000
     18       2.3565      2.00000
     19       2.6506      2.00000
     20       2.7091      2.00000
     21       2.7154      2.00000
     22       3.4901      2.00000
     23       6.3319      0.00000
     24       7.4864      0.00000
     25       9.8346      0.00000
     26      10.9397      0.00000

 k-point   6 :       0.4167    0.4167    0.0833
  band No.  band energies     occupation 
      1      -1.4148      2.00000
      2      -0.8251      2.00000
      3      -0.8251      2.00000
      4      -0.7213      2.00000
      5       0.0897      2.00000
      6       0.1165      2.00000
      7       0.1165      2.00000
      8       0.1268      2.00000
      9       0.2408      2.00000
     10       0.2408      2.00000
     11       0.5890      2.00000
     12       0.5969      2.00000
     13       1.1076      2.00000
     14       1.3854      2.00000
     15       1.4182      2.00000
     16       1.4182      2.00000
     17       1.7213      2.00000
     18       2.1855      2.00000
     19       2.1855      2.00000
     20       2.3229      2.00000
     21       3.4671      2.00000
     22       4.5935      1.99627
     23       4.5935      1.99627
     24       5.8496      0.00000
     25      10.8540      0.00000
     26      12.2516      0.00000

 k-point   7 :       0.2500    0.2500    0.2500
  band No.  band energies     occupation 
      1      -2.5719      2.00000
      2      -1.0659      2.00000
      3      -1.0659      2.00000
      4      -1.0659      2.00000
      5      -0.2270      2.00000
      6      -0.2270      2.00000
      7      -0.2270      2.00000
      8       0.4195      2.00000
      9       0.7573      2.00000
     10       0.7573      2.00000
     11       0.8570      2.00000
     12       0.8570      2.00000
     13       0.8570      2.00000
     14       1.5717      2.00000
     15       1.5717      2.00000
     16       1.5717      2.00000
     17       2.0123      2.00000
     18       2.0123      2.00000
     19       3.0067      2.00000
     20       3.0067      2.00000
     21       3.0067      2.00000
     22       5.8372      0.00000
     23       5.8372      0.00000
     24       5.8372      0.00000
     25      10.1329      0.00000
     26      10.1329      0.00000

 k-point   8 :       0.4167    0.2500    0.2500
  band No.  band energies     occupation 
      1      -1.9543      2.00000
      2      -1.3518      2.00000
      3      -0.9569      2.00000
      4      -0.9569      2.00000
      5      -0.0459      2.00000
      6      -0.0459      2.00000
      7       0.2236      2.00000
      8       0.5082      2.00000
      9       0.5428      2.00000
     10       0.6561      2.00000
     11       0.8277      2.00000
     12       0.8657      2.00000
     13       0.8657      2.00000
     14       1.1162      2.00000
     15       1.3206      2.00000
     16       1.3206      2.00000
     17       2.3527      2.00000
     18       2.5092      2.00000
     19       2.8520      2.00000
     20       2.8520      2.00000
     21       2.8857      2.00000
     22       3.7257      2.00000
     23       6.9496      0.00000
     24       6.9496      0.00000
     25       8.3319      0.00000
     26       8.3319      0.00000

 k-point   9 :       0.4167    0.4167    0.2500
  band No.  band energies     occupation 
      1      -1.7455      2.00000
      2      -1.3920      2.00000
      3      -1.3920      2.00000
      4      -1.2618      2.00000
      5       0.1633      2.00000
      6       0.2658      2.00000
      7       0.2658      2.00000
      8       0.5281      2.00000
      9       0.7008      2.00000
     10       0.8739      2.00000
     11       0.8739      2.00000
     12       0.9372      2.00000
     13       1.2443      2.00000
     14       1.2443      2.00000
     15       1.2943      2.00000
     16       1.3952      2.00000
     17       2.3166      2.00000
     18       2.7304      2.00000
     19       2.7304      2.00000
     20       2.7369      2.00000
     21       3.2561      2.00000
     22       4.6819      1.90098
     23       4.6819      1.90098
     24       6.1174      0.00000
     25       8.1797      0.00000
     26       9.7028      0.00000

 k-point  10 :       0.4167    0.4167    0.4167
  band No.  band energies     occupation 
      1      -1.8705      2.00000
      2      -1.7003      2.00000
      3      -1.7003      2.00000
      4      -1.7003      2.00000
      5       0.3789      2.00000
      6       0.3789      2.00000
      7       0.3789      2.00000
      8       0.5223      2.00000
      9       0.5223      2.00000
     10       0.6088      2.00000
     11       0.6088      2.00000
     12       0.6088      2.00000
     13       2.1735      2.00000
     14       2.1735      2.00000
     15       2.1735      2.00000
     16       2.7792      2.00000
     17       2.7792      2.00000
     18       2.9314      2.00000
     19       2.9376      2.00000
     20       2.9376      2.00000
     21       2.9377      2.00000
     22       4.8881      0.20545
     23       4.8881      0.20545
     24       4.8881      0.20544
     25       7.9075      0.00000
     26       7.9075      0.00000


--------------------------------------------------------------------------------------------------------


 soft charge-density along one line, spin component           1
         0         1         2         3         4         5         6         7         8         9
 total charge-density along one line
 
 pseudopotential strength for first ion, spin component:           1
-10.058   0.000   0.000   0.000   0.000  -0.066   0.000   0.000
  0.000 -10.058   0.000   0.000   0.000   0.000  -0.066   0.000
  0.000   0.000 -10.044   0.000   0.000   0.000   0.000  -0.068
  0.000   0.000   0.000 -10.058   0.000   0.000   0.000   0.000
  0.000   0.000   0.000   0.000 -10.044   0.000   0.000   0.000
 -0.066   0.000   0.000   0.000   0.000   0.280   0.000   0.000
  0.000  -0.066   0.000   0.000   0.000   0.000   0.280   0.000
  0.000   0.000  -0.068   0.000   0.000   0.000   0.000   0.280
  0.000   0.000   0.000  -0.066   0.000   0.000   0.000   0.000
  0.000   0.000   0.000   0.000  -0.068   0.000   0.000   0.000
  0.000   0.000   0.000   0.000   0.000   0.000   0.000   0.000
  0.000   0.000   0.000   0.000   0.000   0.000   0.000   0.000
  0.000   0.000   0.000   0.000   0.000   0.000   0.000   0.000
  0.000   0.000   0.000   0.000   0.000   0.000   0.000   0.000
  0.000   0.000   0.000   0.000   0.000   0.000   0.000   0.000
  0.000   0.000   0.000   0.000   0.000   0.000   0.000   0.000
  0.000   0.000   0.000   0.000   0.000   0.000   0.000   0.000
  0.000   0.000   0.000   0.000   0.000   0.000   0.000   0.000
 total augmentation occupancy for first ion, spin component:           1
  1.909   0.000   0.000   0.000   0.000  -0.053   0.000   0.000   0.000   0.000   0.000   0.000   0.000   0.000   0.000   0.000
  0.000   1.909   0.000   0.000   0.000   0.000  -0.053   0.000   0.000   0.000   0.000   0.000   0.000   0.000   0.000   0.000
  0.000   0.000   1.955   0.000   0.000   0.000   0.000  -0.093   0.000   0.000   0.000   0.000   0.000   0.000   0.000   0.000
  0.000   0.000   0.000   1.909   0.000   0.000   0.000   0.000  -0.053   0.000   0.000   0.000   0.000   0.000   0.000   0.000
  0.000   0.000   0.000   0.000   1.955   0.000   0.000   0.000   0.000  -0.093   0.000   0.000   0.000   0.000   0.000   0.000
 -0.053   0.000   0.000   0.000   0.000   0.182   0.000   0.000   0.000   0.000   0.000   0.000   0.000   0.000   0.000   0.000
  0.000  -0.053   0.000   0.000   0.000   0.000   0.182   0.000   0.000   0.000   0.000   0.000   0.000   0.000   0.000   0.000
  0.000   0.000  -0.093   0.000   0.000   0.000   0.000   0.143   0.000   0.000   0.000   0.000   0.000   0.000   0.000   0.000
  0.000   0.000   0.000  -0.053   0.000   0.000   0.000   0.000   0.182   0.000   0.000   0.000   0.000   0.000   0.000   0.000
  0.000   0.000   0.000   0.000  -0.093   0.000   0.000   0.000   0.000   0.143   0.000   0.000   0.000   0.000   0.000   0.000
  0.000   0.000   0.000   0.000   0.000   0.000   0.000   0.000   0.000   0.000   1.054  -0.348   0.000   0.000   0.000   0.000
  0.000   0.000   0.000   0.000   0.000   0.000   0.000   0.000   0.000   0.000  -0.348   0.220   0.000   0.000   0.000   0.000
  0.000   0.000   0.000   0.000   0.000   0.000   0.000   0.000   0.000   0.000   0.000   0.000   0.140   0.000   0.000  -0.010
  0.000   0.000   0.000   0.000   0.000   0.000   0.000   0.000   0.000   0.000   0.000   0.000   0.000   0.140   0.000   0.000
  0.000   0.000   0.000   0.000   0.000   0.000   0.000   0.000   0.000   0.000   0.000   0.000   0.000   0.000   0.140   0.000
  0.000   0.000   0.000   0.000   0.000   0.000   0.000   0.000   0.000   0.000   0.000   0.000  -0.010   0.000   0.000   0.001
  0.000   0.000   0.000   0.000   0.000   0.000   0.000   0.000   0.000   0.000   0.000   0.000   0.000  -0.010   0.000   0.000
  0.000   0.000   0.000   0.000   0.000   0.000   0.000   0.000   0.000   0.000   0.000   0.000   0.000   0.000  -0.010   0.000


------------------------ aborting loop because EDIFF is reached ----------------------------------------


 


 total charge     
 
# of ion     s       p       d       tot
----------------------------------------
  1        0.525   0.311   8.749   9.585
  2        0.525   0.311   8.749   9.585
  3        0.525   0.311   8.749   9.585
  4        0.525   0.311   8.749   9.585
------------------------------------------------
tot        2.100   1.244  34.998  38.341
 


--------------------------------------------------------------------------------------------------------



  FREE ENERGIE OF THE ION-ELECTRON SYSTEM (eV)
  ---------------------------------------------------
  free  energy   TOTEN  =       -12.762515 eV

  energy  without entropy=      -12.756298  energy(sigma->0) =      -12.759407
 
    CHARGE:  cpu time    0.13: real time    0.13
    FORLOC:  cpu time    0.01: real time    0.01
    FORNL :  cpu time    0.55: real time    0.55
    STRESS:  cpu time    0.58: real time    0.59
    FORCOR:  cpu time    0.12: real time    0.12
    FORHAR:  cpu time    0.03: real time    0.03
    MIXING:  cpu time    0.00: real time    0.00

  FORCE on cell =-STRESS in cart. coord.  units (eV):
  Direction    XX          YY          ZZ          XY          YZ          ZX
  --------------------------------------------------------------------------------------
  Alpha Z   410.59994   410.59994   410.59994
  Ewald   -1275.31118 -1275.31118 -1275.31118     0.00000     0.00000     0.00000
  Hartree   162.48736   162.48736   162.48736     0.00000     0.00000     0.00000
  E(xc)    -198.63689  -198.63689  -198.63689     0.00000     0.00000     0.00000
  Local     318.93549   318.93549   318.93549     0.00000     0.00000     0.00000
  n-local  -189.50399  -204.34014  -210.21969     0.70393     5.58944     3.19701
  augment   171.12770   171.12772   171.12770    -0.00005    -0.00001    -0.00003
  Kinetic   615.75698   613.14273   607.63873    -5.80984    -2.38599    -3.19484
  Fock        0.00000     0.00000     0.00000     0.00000     0.00000     0.00000
  -------------------------------------------------------------------------------------
  Total       0.02730     0.02730     0.02730     0.00000     0.00000     0.00000
  in kB       0.60068     0.60068     0.60068     0.00000     0.00000     0.00000
  external pressure =        0.60 kB  Pullay stress =        0.00 kB


 VOLUME and BASIS-vectors are now :
 -----------------------------------------------------------------------------
  energy-cutoff  :      350.00
  volume of cell :       72.83
      direct lattice vectors                 reciprocal lattice vectors
     4.176000000  0.000000000  0.000000000     0.239463602  0.000000000  0.000000000
     0.000000000  4.176000000  0.000000000     0.000000000  0.239463602  0.000000000
     0.000000000  0.000000000  4.176000000     0.000000000  0.000000000  0.239463602

  length of vectors
     4.176000000  4.176000000  4.176000000     0.239463602  0.239463602  0.239463602


 FORCES acting on ions
    electron-ion (+dipol)            ewald-force                    non-local-force                 convergence-correction
 -----------------------------------------------------------------------------------------------
   0.388E-13 0.374E-13 -.202E-13   0.317E-15 -.132E-13 -.573E-14   0.212E-21 -.318E-21 0.212E-21   -.291E-13 0.663E-14 -.128E-13
   -.324E-13 -.262E-13 -.361E-12   0.263E-13 -.259E-14 -.570E-14   0.318E-21 -.741E-21 0.424E-21   0.435E-13 0.240E-13 0.343E-14
   -.324E-13 0.353E-13 0.306E-12   -.131E-13 0.370E-14 0.458E-14   0.159E-21 0.424E-21 0.101E-20   0.438E-13 -.249E-14 -.672E-14
   0.387E-13 -.344E-13 -.103E-12   -.396E-14 0.143E-13 0.461E-14   0.212E-21 -.318E-21 0.900E-21   -.246E-13 0.315E-13 -.192E-14
 -----------------------------------------------------------------------------------------------
   0.127E-13 0.121E-13 -.178E-12   0.959E-14 0.222E-14 -.224E-14   0.900E-21 -.953E-21 0.254E-20   0.336E-13 0.597E-13 -.180E-13
 
 
 POSITION                                       TOTAL-FORCE (eV/Angst)
 -----------------------------------------------------------------------------------
      0.00000      0.00000      0.00000         0.000000      0.000000      0.000000
      2.08800      2.08800      0.00000         0.000000      0.000000      0.000000
      2.08800      0.00000      2.08800         0.000000      0.000000      0.000000
      0.00000      2.08800      2.08800         0.000000      0.000000      0.000000
 -----------------------------------------------------------------------------------
    total drift:                                0.000000      0.000000      0.000000


--------------------------------------------------------------------------------------------------------


    POTLOK:  cpu time    0.14: real time    0.14


--------------------------------------------------------------------------------------------------------



 ----------------------------------------------------------------------------- 
|                                                                             |
|           W    W    AA    RRRRR   N    N  II  N    N   GGGG   !!!           |
|           W    W   A  A   R    R  NN   N  II  NN   N  G    G  !!!           |
|           W    W  A    A  R    R  N N  N  II  N N  N  G       !!!           |
|           W WW W  AAAAAA  RRRRR   N  N N  II  N  N N  G  GGG   !            |
|           WW  WW  A    A  R   R   N   NN  II  N   NN  G    G                |
|           W    W  A    A  R    R  N    N  II  N    N   GGGG   !!!           |
|                                                                             |
|      Your timestep is larger than 0.1 Angst.                                |
|      For finite differences this really does not make sense. I will         |
|      reset POTIM to 0.015. I recommend to use 0.01 to 0.02 for finite       |
|      differences.                                                           |
|                                                                             |
 ----------------------------------------------------------------------------- 

 
 
Found     1 degrees of freedom:
 
 
        Directions for atom     1:
        --------------------------
 
              1.0000000000000000      0.0000000000000000      0.0000000000000000
 Finite differences:
   Step               POTIM =   1.500000000000000E-002
   Degrees of freedom DOF   =            1
  LATTYP: Found a simple cubic cell.
 ALAT       =     4.1760000000
  
  Lattice vectors:
  
 A1 = (   4.1760000000,   0.0000000000,   0.0000000000)
 A2 = (   0.0000000000,   4.1760000000,   0.0000000000)
 A3 = (   0.0000000000,   0.0000000000,   4.1760000000)
 Subroutine PRICEL returns:
 Original cell was already a primitive cell.
 

Analysis of symmetry for initial positions (statically):

 Routine SETGRP: Setting up the symmetry group for a 
 simple cubic supercell.


 Subroutine GETGRP returns: Found  8 space group operations
 (whereof  8 operations were pure point group operations)
 out of a pool of 48 trial point group operations.


The static configuration has the point symmetry C_4v.

Analysis of symmetry for dynamics (positions and initial velocities):

 Subroutine DYNSYM returns: Found  8 space group operations
 (whereof  8 operations were pure point group operations)
 out of a pool of  8 trial space group operations
 (whereof  8 operations were pure point group operations)
 and found also     1 'primitive' translations


The dynamic configuration has the point symmetry C_4v.
 
 KPOINTS: 6x6x6 title card                        

Automatic generation of k-mesh.
 
 Subroutine IBZKPT returns following result:
 ===========================================
 
 Found     18 irreducible k-points:
 
 Following reciprocal coordinates:
            Coordinates               Weight
  0.083333  0.083333  0.083333      8.000000
  0.250000  0.083333  0.083333      8.000000
  0.416667  0.083333  0.083333      8.000000
  0.083333  0.250000  0.083333     16.000000
  0.250000  0.250000  0.083333     16.000000
  0.416667  0.250000  0.083333     16.000000
  0.083333  0.416667  0.083333     16.000000
  0.250000  0.416667  0.083333     16.000000
  0.416667  0.416667  0.083333     16.000000
  0.083333  0.250000  0.250000      8.000000
  0.250000  0.250000  0.250000      8.000000
  0.416667  0.250000  0.250000      8.000000
  0.083333  0.416667  0.250000     16.000000
  0.250000  0.416667  0.250000     16.000000
  0.416667  0.416667  0.250000     16.000000
  0.083333  0.416667  0.416667      8.000000
  0.250000  0.416667  0.416667      8.000000
  0.416667  0.416667  0.416667      8.000000
 
 Following cartesian coordinates:
            Coordinates               Weight
  0.083333  0.083333  0.083333      8.000000
  0.250000  0.083333  0.083333      8.000000
  0.416667  0.083333  0.083333      8.000000
  0.083333  0.250000  0.083333     16.000000
  0.250000  0.250000  0.083333     16.000000
  0.416667  0.250000  0.083333     16.000000
  0.083333  0.416667  0.083333     16.000000
  0.250000  0.416667  0.083333     16.000000
  0.416667  0.416667  0.083333     16.000000
  0.083333  0.250000  0.250000      8.000000
  0.250000  0.250000  0.250000      8.000000
  0.416667  0.250000  0.250000      8.000000
  0.083333  0.416667  0.250000     16.000000
  0.250000  0.416667  0.250000     16.000000
  0.416667  0.416667  0.250000     16.000000
  0.083333  0.416667  0.416667      8.000000
  0.250000  0.416667  0.416667      8.000000
  0.416667  0.416667  0.416667      8.000000
 
    WAVPRE:  cpu time    0.02: real time    0.02
    FEWALD:  cpu time    0.00: real time    0.00
    ORTHCH:  cpu time    0.12: real time    0.12
     LOOP+:  cpu time   16.76: real time   16.81
   RESPFUN:  cpu time    0.00: real time    0.00


----------------------------------------- Iteration    2(   1)  ---------------------------------------


    POTLOK:  cpu time    0.12: real time    0.12
    SETDIJ:  cpu time    0.02: real time    0.03
     EDDAV:  cpu time    2.43: real time    2.43
       DOS:  cpu time    0.00: real time    0.00
    CHARGE:  cpu time    0.21: real time    0.21
    MIXING:  cpu time    0.00: real time    0.00
    --------------------------------------------
      LOOP:  cpu time    2.80: real time    2.80

 eigenvalue-minimisations  :   936
 total energy-change (2. order) : 0.1372257E-02  (-0.1595311E+00)
 number of electron   43.9999946 magnetization 
 augmentation part    16.1668969 magnetization 

  free energy =  -0.127611426731E+02  energy without entropy=  -0.127548744358E+02


--------------------------------------------------------------------------------------------------------




----------------------------------------- Iteration    2(   2)  ---------------------------------------


    POTLOK:  cpu time    0.12: real time    0.12
    SETDIJ:  cpu time    0.02: real time    0.03
    EDDIAG:  cpu time    0.48: real time    0.48
  RMM-DIIS:  cpu time    1.75: real time    1.75
    ORTHCH:  cpu time    0.04: real time    0.05
       DOS:  cpu time    0.00: real time    0.00
    CHARGE:  cpu time    0.21: real time    0.21
    MIXING:  cpu time    0.00: real time    0.00
    --------------------------------------------
      LOOP:  cpu time    2.64: real time    2.65

 eigenvalue-minimisations  :   934
 total energy-change (2. order) :-0.8558479E-03  (-0.8603112E-03)
 number of electron   43.9999946 magnetization 
 augmentation part    16.1673131 magnetization 

 eigenvalues of (default mixing * dielectric matrix)
  average eigenvalue GAMMA=   0.3688
  0.3688

  free energy =  -0.127619985209E+02  energy without entropy=  -0.127557376608E+02


--------------------------------------------------------------------------------------------------------




----------------------------------------- Iteration    2(   3)  ---------------------------------------


    POTLOK:  cpu time    0.12: real time    0.12
    SETDIJ:  cpu time    0.02: real time    0.02
    EDDIAG:  cpu time    0.48: real time    0.48
  RMM-DIIS:  cpu time    1.04: real time    1.04
    ORTHCH:  cpu time    0.05: real time    0.05
       DOS:  cpu time    0.00: real time    0.00
    --------------------------------------------
      LOOP:  cpu time    1.72: real time    1.73

 eigenvalue-minimisations  :   509
 total energy-change (2. order) : 0.2455727E-07  (-0.1725795E-04)
 number of electron   43.9999946 magnetization 
 augmentation part    16.1673131 magnetization 

  free energy =  -0.127619984964E+02  energy without entropy=  -0.127557371322E+02


--------------------------------------------------------------------------------------------------------




 average (electrostatic) potential at core
  the test charge radii are     1.2098
  (the norm of the test charge is              1.0000)
       1 -46.1465       2 -46.1433       3 -46.1433       4 -46.1433
 
 
 
 E-fermi :   4.7997     XC(G=0): -12.3425     alpha+bet : -9.5478
   add alpha+bet to get absolut eigen values

 k-point   1 :       0.0833    0.0833    0.0833
  band No.  band energies     occupation 
      1      -4.0481      2.00000
      2      -1.4921      2.00000
      3      -1.4917      2.00000
      4      -1.4910      2.00000
      5      -1.2262      2.00000
      6      -1.2240      2.00000
      7      -1.2217      2.00000
      8       0.4396      2.00000
      9       0.5779      2.00000
     10       0.5783      2.00000
     11       1.8278      2.00000
     12       1.8283      2.00000
     13       2.7057      2.00000
     14       2.7152      2.00000
     15       2.7158      2.00000
     16       2.7315      2.00000
     17       2.7341      2.00000
     18       2.7412      2.00000
     19       3.1365      2.00000
     20       3.1367      2.00000
     21       3.1379      2.00000
     22       6.0661      0.00000
     23       6.0730      0.00000
     24       6.0801      0.00000
     25      10.7668      0.00000
     26      10.7695      0.00000

 k-point   2 :       0.2500    0.0833    0.0833
  band No.  band energies     occupation 
      1      -3.4658      2.00000
      2      -1.3421      2.00000
      3      -1.1692      2.00000
      4      -1.1690      2.00000
      5      -1.0205      2.00000
      6      -0.8723      2.00000
      7      -0.8722      2.00000
      8       0.2072      2.00000
      9       0.7924      2.00000
     10       0.7991      2.00000
     11       1.5828      2.00000
     12       1.6391      2.00000
     13       1.6393      2.00000
     14       1.9858      2.00000
     15       2.0090      2.00000
     16       2.3687      2.00000
     17       2.3906      2.00000
     18       2.3912      2.00000
     19       2.9191      2.00000
     20       3.0970      2.00000
     21       3.0981      2.00000
     22       3.8933      2.00000
     23       7.3837      0.00000
     24       7.3838      0.00000
     25      10.3372      0.00000
     26      10.3377      0.00000

 k-point   3 :       0.4167    0.0833    0.0833
  band No.  band energies     occupation 
      1      -2.4283      2.00000
      2      -1.4694      2.00000
      3      -0.6587      2.00000
      4      -0.6585      2.00000
      5      -0.6560      2.00000
      6      -0.2963      2.00000
      7      -0.2962      2.00000
      8      -0.2084      2.00000
      9       0.5487      2.00000
     10       0.5489      2.00000
     11       0.9370      2.00000
     12       1.0698      2.00000
     13       1.2232      2.00000
     14       1.6027      2.00000
     15       1.7916      2.00000
     16       1.8749      2.00000
     17       1.8752      2.00000
     18       2.2665      2.00000
     19       2.4148      2.00000
     20       2.6029      2.00000
     21       3.0820      2.00000
     22       3.0830      2.00000
     23       8.4988      0.00000
     24       8.4991      0.00000
     25      10.1951      0.00000
     26      10.1954      0.00000

 k-point   4 :       0.2500    0.2500    0.0833
  band No.  band energies     occupation 
      1      -2.9462      2.00000
      2      -1.0565      2.00000
      3      -1.0288      2.00000
      4      -1.0263      2.00000
      5      -0.6733      2.00000
      6      -0.6666      2.00000
      7      -0.4627      2.00000
      8       0.1833      2.00000
      9       0.8110      2.00000
     10       0.8615      2.00000
     11       0.9937      2.00000
     12       0.9986      2.00000
     13       1.2508      2.00000
     14       1.5889      2.00000
     15       2.0342      2.00000
     16       2.1329      2.00000
     17       2.1546      2.00000
     18       2.1642      2.00000
     19       2.8367      2.00000
     20       2.8462      2.00000
     21       2.8761      2.00000
     22       5.0939      0.00003
     23       5.0947      0.00003
     24       8.1765      0.00000
     25       9.2712      0.00000
     26      12.3089      0.00000

 k-point   5 :       0.4167    0.2500    0.0833
  band No.  band energies     occupation 
      1      -2.0344      2.00000
      2      -1.1647      2.00000
      3      -0.6843      2.00000
      4      -0.5123      2.00000
      5      -0.3509      2.00000
      6      -0.2155      2.00000
      7      -0.1174      2.00000
      8      -0.0438      2.00000
      9       0.2442      2.00000
     10       0.4939      2.00000
     11       0.5939      2.00000
     12       0.7010      2.00000
     13       1.1440      2.00000
     14       1.6147      2.00000
     15       1.6994      2.00000
     16       1.7265      2.00000
     17       1.8161      2.00000
     18       2.3585      2.00000
     19       2.6527      2.00000
     20       2.7089      2.00000
     21       2.7203      2.00000
     22       3.4920      2.00000
     23       6.3331      0.00000
     24       7.4876      0.00000
     25       9.8355      0.00000
     26      10.9403      0.00000

 k-point   6 :       0.4167    0.4167    0.0833
  band No.  band energies     occupation 
      1      -1.4144      2.00000
      2      -0.8301      2.00000
      3      -0.8185      2.00000
      4      -0.7200      2.00000
      5       0.0885      2.00000
      6       0.1125      2.00000
      7       0.1199      2.00000
      8       0.1330      2.00000
      9       0.2412      2.00000
     10       0.2440      2.00000
     11       0.5904      2.00000
     12       0.5985      2.00000
     13       1.1096      2.00000
     14       1.3867      2.00000
     15       1.4168      2.00000
     16       1.4244      2.00000
     17       1.7232      2.00000
     18       2.1780      2.00000
     19       2.1970      2.00000
     20       2.3260      2.00000
     21       3.4691      2.00000
     22       4.5890      1.99712
     23       4.6012      1.99500
     24       5.8511      0.00000
     25      10.8547      0.00000
     26      12.2528      0.00000

 k-point   7 :       0.2500    0.2500    0.2500
  band No.  band energies     occupation 
      1      -2.5717      2.00000
      2      -1.0653      2.00000
      3      -1.0648      2.00000
      4      -1.0641      2.00000
      5      -0.2290      2.00000
      6      -0.2260      2.00000
      7      -0.2226      2.00000
      8       0.4208      2.00000
      9       0.7577      2.00000
     10       0.7586      2.00000
     11       0.8516      2.00000
     12       0.8590      2.00000
     13       0.8667      2.00000
     14       1.5728      2.00000
     15       1.5740      2.00000
     16       1.5741      2.00000
     17       2.0145      2.00000
     18       2.0151      2.00000
     19       3.0074      2.00000
     20       3.0086      2.00000
     21       3.0109      2.00000
     22       5.8330      0.00000
     23       5.8386      0.00000
     24       5.8436      0.00000
     25      10.1316      0.00000
     26      10.1366      0.00000

 k-point   8 :       0.4167    0.2500    0.2500
  band No.  band energies     occupation 
      1      -1.9538      2.00000
      2      -1.3509      2.00000
      3      -0.9558      2.00000
      4      -0.9556      2.00000
      5      -0.0448      2.00000
      6      -0.0446      2.00000
      7       0.2247      2.00000
      8       0.5082      2.00000
      9       0.5448      2.00000
     10       0.6585      2.00000
     11       0.8291      2.00000
     12       0.8675      2.00000
     13       0.8677      2.00000
     14       1.1180      2.00000
     15       1.3227      2.00000
     16       1.3230      2.00000
     17       2.3545      2.00000
     18       2.5116      2.00000
     19       2.8539      2.00000
     20       2.8545      2.00000
     21       2.8881      2.00000
     22       3.7273      2.00000
     23       6.9505      0.00000
     24       6.9507      0.00000
     25       8.3329      0.00000
     26       8.3331      0.00000

 k-point   9 :       0.4167    0.4167    0.2500
  band No.  band energies     occupation 
      1      -1.7448      2.00000
      2      -1.3941      2.00000
      3      -1.3880      2.00000
      4      -1.2608      2.00000
      5       0.1646      2.00000
      6       0.2620      2.00000
      7       0.2723      2.00000
      8       0.5299      2.00000
      9       0.7026      2.00000
     10       0.8736      2.00000
     11       0.8777      2.00000
     12       0.9390      2.00000
     13       1.2359      2.00000
     14       1.2550      2.00000
     15       1.2960      2.00000
     16       1.3975      2.00000
     17       2.3187      2.00000
     18       2.7259      2.00000
     19       2.7351      2.00000
     20       2.7434      2.00000
     21       3.2580      2.00000
     22       4.6800      1.90962
     23       4.6866      1.89045
     24       6.1185      0.00000
     25       8.1807      0.00000
     26       9.7078      0.00000

 k-point  10 :       0.4167    0.4167    0.4167
  band No.  band energies     occupation 
      1      -1.8695      2.00000
      2      -1.7006      2.00000
      3      -1.6993      2.00000
      4      -1.6979      2.00000
      5       0.3788      2.00000
      6       0.3805      2.00000
      7       0.3822      2.00000
      8       0.5238      2.00000
      9       0.5244      2.00000
     10       0.6101      2.00000
     11       0.6107      2.00000
     12       0.6111      2.00000
     13       2.1660      2.00000
     14       2.1754      2.00000
     15       2.1838      2.00000
     16       2.7812      2.00000
     17       2.7815      2.00000
     18       2.9313      2.00000
     19       2.9390      2.00000
     20       2.9402      2.00000
     21       2.9411      2.00000
     22       4.8883      0.21026
     23       4.8891      0.20650
     24       4.8893      0.20532
     25       7.9040      0.00000
     26       7.9148      0.00000

 k-point  11 :       0.0833    0.2500    0.0833
  band No.  band energies     occupation 
      1      -3.4658      2.00000
      2      -1.3422      2.00000
      3      -1.1717      2.00000
      4      -1.1665      2.00000
      5      -1.0205      2.00000
      6      -0.8755      2.00000
      7      -0.8689      2.00000
      8       0.2068      2.00000
      9       0.7927      2.00000
     10       0.7995      2.00000
     11       1.5803      2.00000
     12       1.6342      2.00000
     13       1.6456      2.00000
     14       1.9848      2.00000
     15       2.0109      2.00000
     16       2.3684      2.00000
     17       2.3863      2.00000
     18       2.3955      2.00000
     19       2.9191      2.00000
     20       3.0968      2.00000
     21       3.0986      2.00000
     22       3.8931      2.00000
     23       7.3796      0.00000
     24       7.3878      0.00000
     25      10.3328      0.00000
     26      10.3420      0.00000

 k-point  12 :       0.0833    0.4167    0.0833
  band No.  band energies     occupation 
      1      -2.4282      2.00000
      2      -1.4695      2.00000
      3      -0.6614      2.00000
      4      -0.6567      2.00000
      5      -0.6550      2.00000
      6      -0.2984      2.00000
      7      -0.2943      2.00000
      8      -0.2083      2.00000
      9       0.5445      2.00000
     10       0.5523      2.00000
     11       0.9389      2.00000
     12       1.0676      2.00000
     13       1.2237      2.00000
     14       1.6027      2.00000
     15       1.7915      2.00000
     16       1.8730      2.00000
     17       1.8781      2.00000
     18       2.2662      2.00000
     19       2.4148      2.00000
     20       2.6028      2.00000
     21       3.0822      2.00000
     22       3.0831      2.00000
     23       8.4985      0.00000
     24       8.4994      0.00000
     25      10.1859      0.00000
     26      10.2044      0.00000

 k-point  13 :       0.2500    0.4167    0.0833
  band No.  band energies     occupation 
      1      -2.0342      2.00000
      2      -1.1647      2.00000
      3      -0.6844      2.00000
      4      -0.5123      2.00000
[...]
  0.004   0.000   0.000   0.000   0.000   0.000   0.000   0.000
  0.000   0.000   0.000   0.004   0.000   0.000   0.000   0.000
  0.000   0.000  -0.002   0.000   0.004   0.000   0.000   0.000
 -0.002   0.000   0.000   0.000   0.000   0.000   0.000   0.000
  0.000   0.000   0.000  -0.002   0.000   0.000   0.000   0.000
  0.000   0.000   0.001   0.000  -0.002   0.000   0.000   0.000
 total augmentation occupancy for first ion, spin component:           1
  1.910   0.000   0.000   0.000   0.000  -0.052   0.000   0.000   0.000   0.000   0.000   0.000   0.000   0.000   0.000   0.000
  0.000   1.910   0.000   0.000   0.000   0.000  -0.054   0.000   0.000   0.000   0.000   0.000   0.000   0.000   0.000   0.000
  0.000   0.000   1.955   0.000   0.000   0.000   0.000  -0.093   0.000  -0.001   0.000   0.000   0.000   0.000   0.000   0.000
  0.000   0.000   0.000   1.910   0.000   0.000   0.000   0.000  -0.052   0.000   0.000   0.000   0.000   0.000   0.000   0.000
  0.000   0.000   0.000   0.000   1.955   0.000   0.000  -0.001   0.000  -0.092   0.000   0.000   0.000   0.000   0.000   0.000
 -0.052   0.000   0.000   0.000   0.000   0.182   0.000   0.000   0.000   0.000   0.000   0.000  -0.002   0.000   0.000   0.000
  0.000  -0.054   0.000   0.000   0.000   0.000   0.182   0.000   0.000   0.000   0.000   0.000   0.000   0.000   0.000   0.000
  0.000   0.000  -0.093   0.000  -0.001   0.000   0.000   0.143   0.000   0.000   0.000   0.000   0.000   0.000   0.000   0.000
  0.000   0.000   0.000  -0.052   0.000   0.000   0.000   0.000   0.182   0.000   0.000   0.000   0.000  -0.002   0.000   0.000
  0.000   0.000  -0.001   0.000  -0.092   0.000   0.000   0.000   0.000   0.143   0.000   0.000   0.000   0.000  -0.001   0.000
  0.000   0.000   0.000   0.000   0.000   0.000   0.000   0.000   0.000   0.000   1.055  -0.347   0.000   0.000  -0.002   0.000
  0.000   0.000   0.000   0.000   0.000   0.000   0.000   0.000   0.000   0.000  -0.347   0.219   0.000   0.000   0.002   0.000
  0.000   0.000   0.000   0.000   0.000  -0.002   0.000   0.000   0.000   0.000   0.000   0.000   0.140   0.000   0.000  -0.010
  0.000   0.000   0.000   0.000   0.000   0.000   0.000   0.000  -0.002   0.000   0.000   0.000   0.000   0.140   0.000   0.000
  0.000   0.000   0.000   0.000   0.000   0.000   0.000   0.000   0.000  -0.001  -0.002   0.002   0.000   0.000   0.140   0.000
  0.000   0.000   0.000   0.000   0.000   0.000   0.000   0.000   0.000   0.000   0.000   0.000  -0.010   0.000   0.000   0.001
  0.000   0.000   0.000   0.000   0.000   0.000   0.000   0.000   0.000   0.000   0.000   0.000   0.000  -0.010   0.000   0.000
  0.000   0.000   0.000   0.000   0.000   0.000   0.000   0.000   0.000   0.000   0.001  -0.001   0.000   0.000  -0.010   0.000


------------------------ aborting loop because EDIFF is reached ----------------------------------------


 


 total charge     
 
# of ion     s       p       d       tot
----------------------------------------
  1        0.525   0.311   8.750   9.586
  2        0.525   0.311   8.749   9.585
  3        0.525   0.311   8.749   9.585
  4        0.525   0.311   8.749   9.585
------------------------------------------------
tot        2.100   1.244  34.998  38.341
 


--------------------------------------------------------------------------------------------------------



  FREE ENERGIE OF THE ION-ELECTRON SYSTEM (eV)
  ---------------------------------------------------
  free  energy   TOTEN  =       -12.762063 eV

  energy  without entropy=      -12.755823  energy(sigma->0) =      -12.758943
 
    CHARGE:  cpu time    0.21: real time    0.21
    FORLOC:  cpu time    0.01: real time    0.01
    FORNL :  cpu time    0.93: real time    0.93
    STRESS:  cpu time    0.96: real time    0.96
    FORCOR:  cpu time    0.12: real time    0.12
    FORHAR:  cpu time    0.03: real time    0.03
    MIXING:  cpu time    0.00: real time    0.00

  FORCE on cell =-STRESS in cart. coord.  units (eV):
  Direction    XX          YY          ZZ          XY          YZ          ZX
  --------------------------------------------------------------------------------------
  Alpha Z   410.59994   410.59994   410.59994
  Ewald   -1275.37064 -1275.26453 -1275.26453     0.00000     0.00000     0.00000
  Hartree   162.43623   162.49873   162.49873     0.00000     0.00000     0.00000
  E(xc)    -198.64203  -198.64198  -198.64197     0.00000     0.00000     0.00000
  Local     318.99887   318.83268   318.83268     0.00000     0.00000     0.00000
  n-local  -201.37082  -194.46690  -208.27357     1.53569     3.16470     4.79294
  augment   171.10412   171.10514   171.10513     0.00001    -0.00001     0.00000
  Kinetic   612.18692   614.89213   609.47963    -4.93729    -3.79702    -2.65649
  Fock        0.00000     0.00000     0.00000     0.00000     0.00000     0.00000
  -------------------------------------------------------------------------------------
  Total      -0.05742    -0.05438    -0.05438     0.00000     0.00000     0.00000
  in kB      -1.26322    -1.19637    -1.19637     0.00000     0.00000     0.00000
  external pressure =       -1.22 kB  Pullay stress =        0.00 kB


 VOLUME and BASIS-vectors are now :
 -----------------------------------------------------------------------------
  energy-cutoff  :      350.00
  volume of cell :       72.83
      direct lattice vectors                 reciprocal lattice vectors
     4.176000000  0.000000000  0.000000000     0.239463602  0.000000000  0.000000000
     0.000000000  4.176000000  0.000000000     0.000000000  0.239463602  0.000000000
     0.000000000  0.000000000  4.176000000     0.000000000  0.000000000  0.239463602

  length of vectors
     4.176000000  4.176000000  4.176000000     0.239463602  0.239463602  0.239463602


 FORCES acting on ions
    electron-ion (+dipol)            ewald-force                    non-local-force                 convergence-correction
 -----------------------------------------------------------------------------------------------
   -.407E+01 0.358E-13 -.184E-05   0.451E+01 -.263E-14 -.940E-15   0.255E+00 -.130E-17 0.244E-18   -.587E+00 -.226E-14 0.437E-13
   0.298E+01 -.255E-13 -.371E-12   -.306E+01 -.118E-13 -.577E-14   -.180E-01 0.000E+00 0.678E-20   0.460E-01 0.295E-13 -.161E-13
   0.298E+01 0.386E-13 0.301E-12   -.306E+01 0.405E-14 0.407E-14   -.180E-01 -.271E-19 -.867E-18   0.460E-01 -.995E-14 -.118E-13
   -.154E+01 -.343E-13 -.102E-12   0.161E+01 0.126E-13 0.397E-15   -.735E-02 0.000E+00 -.217E-18   -.486E-01 0.327E-13 -.141E-13
 -----------------------------------------------------------------------------------------------
   0.343E+00 0.146E-13 -.184E-05   0.910E-14 0.222E-14 -.224E-14   0.212E+00 -.133E-17 -.833E-18   -.544E+00 0.500E-13 0.175E-14
 
 
 POSITION                                       TOTAL-FORCE (eV/Angst)
 -----------------------------------------------------------------------------------
     -0.01500      0.00000      0.00000         0.099828      0.000000      0.000000
      2.08800      2.08800      0.00000        -0.054966      0.000000      0.000000
      2.08800      0.00000      2.08800        -0.054966      0.000000      0.000000
      0.00000      2.08800      2.08800         0.010103      0.000000      0.000000
 -----------------------------------------------------------------------------------
    total drift:                                0.011489      0.000000     -0.000002
 d Force = 0.1485418E-04[-0.299E-02, 0.302E-02]  d Energy = 0.6485254E-04-0.500E-04
 d Force = 0.5551115E-16[-0.135E+00, 0.135E+00]  d Ewald  =-0.4547474E-11 0.455E-11


--------------------------------------------------------------------------------------------------------


    POTLOK:  cpu time    0.14: real time    0.14


--------------------------------------------------------------------------------------------------------


 Finite differences progress:
  Degree of freedom:   1/  1
  Displacement:        2/  2
  Total:               2/  2


--------------------------------------------------------------------------------------------------------




--------------------------------------------------------------------------------------------------------


 
 SECOND DERIVATIVES (NOT SYMMETRIZED)
 ------------------------------------
               1X          1Y          1Z          2X          2Y          2Z          3X          3Y          3Z          4X          4Y          4Z 
  1X    -6.688200    0.000000    0.000000    3.665242    0.000000    0.000000    3.665242    0.000000    0.000000   -0.642283    0.000000    0.000000
  1Y     0.000000   -6.688200    0.000000    0.000000    3.665242    0.000000    0.000000   -0.642283    0.000000    0.000000    3.665242    0.000000
  1Z     0.000000    0.000000   -6.688200    0.000000    0.000000   -0.642283    0.000000    0.000000    3.665242    0.000000    0.000000    3.665242
  2X     3.665242    0.000000    0.000000   -6.688200    0.000000    0.000000   -0.642283    0.000000    0.000000    3.665242    0.000000    0.000000
  2Y     0.000000    3.665242    0.000000    0.000000   -6.688200    0.000000    0.000000    3.665242    0.000000    0.000000   -0.642283    0.000000
  2Z     0.000000    0.000000   -0.642283    0.000000    0.000000   -6.688200    0.000000    0.000000    3.665242    0.000000    0.000000    3.665242
  3X     3.665242    0.000000    0.000000   -0.642283    0.000000    0.000000   -6.688200    0.000000    0.000000    3.665242    0.000000    0.000000
  3Y     0.000000   -0.642283    0.000000    0.000000    3.665242    0.000000    0.000000   -6.688200    0.000000    0.000000    3.665242    0.000000
  3Z     0.000000    0.000000    3.665242    0.000000    0.000000    3.665242    0.000000    0.000000   -6.688200    0.000000    0.000000   -0.642283
  4X    -0.642283    0.000000    0.000000    3.665242    0.000000    0.000000    3.665242    0.000000    0.000000   -6.688200    0.000000    0.000000
  4Y     0.000000    3.665242    0.000000    0.000000   -0.642283    0.000000    0.000000    3.665242    0.000000    0.000000   -6.688200    0.000000
  4Z     0.000000    0.000000    3.665242    0.000000    0.000000    3.665242    0.000000    0.000000   -0.642283    0.000000    0.000000   -6.688200
 
 
 Eigenvectors and eigenvalues of the dynamical matrix
 ----------------------------------------------------
 
 
   1 f  =    4.265170 THz    26.798856 2PiTHz  142.270765 cm-1    17.639333 meV
             X         Y         Z           dx          dy          dz
      0.000000  0.000000  0.000000    -0.486404    0.115808    0.000000  
      2.088000  2.088000  0.000000     0.486404   -0.115808    0.000000  
      2.088000  0.000000  2.088000     0.486404    0.115808    0.000000  
      0.000000  2.088000  2.088000    -0.486404   -0.115808    0.000000  
 
   2 f  =    4.265170 THz    26.798856 2PiTHz  142.270765 cm-1    17.639333 meV
             X         Y         Z           dx          dy          dz
      0.000000  0.000000  0.000000     0.000000    0.000000    0.500000  
      2.088000  2.088000  0.000000     0.000000    0.000000    0.500000  
      2.088000  0.000000  2.088000     0.000000    0.000000   -0.500000  
      0.000000  2.088000  2.088000     0.000000    0.000000   -0.500000  
 
   3 f  =    4.265170 THz    26.798856 2PiTHz  142.270765 cm-1    17.639333 meV
             X         Y         Z           dx          dy          dz
      0.000000  0.000000  0.000000     0.115808    0.486404    0.000000  
      2.088000  2.088000  0.000000    -0.115808   -0.486404    0.000000  
      2.088000  0.000000  2.088000    -0.115808    0.486404    0.000000  
      0.000000  2.088000  2.088000     0.115808   -0.486404    0.000000  
 
   4 f  =    2.738963 THz    17.209413 2PiTHz   91.361973 cm-1    11.327445 meV
             X         Y         Z           dx          dy          dz
      0.000000  0.000000  0.000000     0.171709   -0.181306    0.196340  
      2.088000  2.088000  0.000000     0.184840    0.590661   -0.196340  
      2.088000  0.000000  2.088000    -0.184840    0.181306   -0.126684  
      0.000000  2.088000  2.088000    -0.171709   -0.590661    0.126684  
 
   5 f  =    2.738963 THz    17.209413 2PiTHz   91.361973 cm-1    11.327445 meV
             X         Y         Z           dx          dy          dz
      0.000000  0.000000  0.000000     0.139045    0.020405   -0.330128  
      2.088000  2.088000  0.000000    -0.555876    0.249534    0.330128  
      2.088000  0.000000  2.088000     0.555876   -0.020405    0.000000  
      0.000000  2.088000  2.088000    -0.139045   -0.249534    0.000000  
 
   6 f  =    2.738963 THz    17.209413 2PiTHz   91.361973 cm-1    11.327445 meV
             X         Y         Z           dx          dy          dz
      0.000000  0.000000  0.000000     0.630812   -0.143663   -0.046407  
      2.088000  2.088000  0.000000     0.065887   -0.254373    0.046407  
      2.088000  0.000000  2.088000    -0.065887    0.143663   -0.101179  
      0.000000  2.088000  2.088000    -0.630812    0.254373    0.101179  
 
   7 f  =    2.738963 THz    17.209413 2PiTHz   91.361973 cm-1    11.327445 meV
             X         Y         Z           dx          dy          dz
      0.000000  0.000000  0.000000    -0.102597    0.149812   -0.152806  
      2.088000  2.088000  0.000000     0.055759   -0.033029    0.152806  
      2.088000  0.000000  2.088000    -0.055759   -0.149812   -0.662933  
      0.000000  2.088000  2.088000     0.102597    0.033029    0.662933  
 
   8 f  =    2.738963 THz    17.209413 2PiTHz   91.361973 cm-1    11.327445 meV
             X         Y         Z           dx          dy          dz
      0.000000  0.000000  0.000000     0.177086    0.535721    0.394746  
      2.088000  2.088000  0.000000    -0.157676    0.028511   -0.394746  
      2.088000  0.000000  2.088000     0.157676   -0.535721   -0.012013  
      0.000000  2.088000  2.088000    -0.177086   -0.028511    0.012013  
 
   9 f  =    2.738963 THz    17.209413 2PiTHz   91.361973 cm-1    11.327445 meV
             X         Y         Z           dx          dy          dz
      0.000000  0.000000  0.000000    -0.106646   -0.369637    0.413688  
      2.088000  2.088000  0.000000    -0.352880   -0.149143   -0.413688  
      2.088000  0.000000  2.088000     0.352880    0.369637   -0.184633  
      0.000000  2.088000  2.088000     0.106646    0.149143    0.184633  
 
  10 f/i=    0.000000 THz     0.000001 2PiTHz    0.000003 cm-1     0.000000 meV
             X         Y         Z           dx          dy          dz
      0.000000  0.000000  0.000000    -0.048248   -0.127059   -0.481174  
      2.088000  2.088000  0.000000    -0.048248   -0.127059   -0.481174  
      2.088000  0.000000  2.088000    -0.048248   -0.127059   -0.481174  
      0.000000  2.088000  2.088000    -0.048248   -0.127059   -0.481174  
 
  11 f/i=    0.000000 THz     0.000001 2PiTHz    0.000003 cm-1     0.000000 meV
             X         Y         Z           dx          dy          dz
      0.000000  0.000000  0.000000     0.448013   -0.221585    0.013589  
      2.088000  2.088000  0.000000     0.448013   -0.221585    0.013589  
      2.088000  0.000000  2.088000     0.448013   -0.221585    0.013589  
      0.000000  2.088000  2.088000     0.448013   -0.221585    0.013589  
 
  12 f/i=    0.000000 THz     0.000001 2PiTHz    0.000004 cm-1     0.000000 meV
             X         Y         Z           dx          dy          dz
      0.000000  0.000000  0.000000    -0.216695   -0.429833    0.135230  
      2.088000  2.088000  0.000000    -0.216695   -0.429833    0.135230  
      2.088000  0.000000  2.088000    -0.216695   -0.429833    0.135230  
      0.000000  2.088000  2.088000    -0.216695   -0.429833    0.135230  
 


--------------------------------------------------------------------------------------------------------


  LATTYP: Found a simple cubic cell.
 ALAT       =     4.1760000000
  
  Lattice vectors:
  
 A1 = (   4.1760000000,   0.0000000000,   0.0000000000)
 A2 = (   0.0000000000,   4.1760000000,   0.0000000000)
 A3 = (   0.0000000000,   0.0000000000,   4.1760000000)
 Subroutine PRICEL returns following result:
 
  LATTYP: Found a face centered cubic cell.
 ALAT       =     4.1760000000
  
  Lattice vectors:
  
 A1 = (   2.0880000000,   2.0880000000,   0.0000000000)
 A2 = (   2.0880000000,   0.0000000000,  -2.0880000000)
 A3 = (   0.0000000000,   2.0880000000,  -2.0880000000)
 
   4 primitive cells build up your supercell.
 

Analysis of symmetry for initial positions (statically):

 Routine SETGRP: Setting up the symmetry group for a 
 simple cubic supercell.


 Subroutine GETGRP returns: Found 48 space group operations
 (whereof 48 operations were pure point group operations)
 out of a pool of 48 trial point group operations.


The static configuration has the point symmetry O_h .

Analysis of symmetry for dynamics (positions and initial velocities):

 Subroutine DYNSYM returns: Found 48 space group operations
 (whereof 48 operations were pure point group operations)
 out of a pool of 48 trial space group operations
 (whereof 48 operations were pure point group operations)
 and found also     4 'primitive' translations


The dynamic configuration has the point symmetry O_h .
 
 KPOINTS: 6x6x6 title card                        

Automatic generation of k-mesh.
 
 Subroutine IBZKPT returns following result:
 ===========================================
 
 Found     10 irreducible k-points:
 
 Following reciprocal coordinates:
            Coordinates               Weight
  0.083333  0.083333  0.083333      8.000000
  0.250000  0.083333  0.083333     24.000000
  0.416667  0.083333  0.083333     24.000000
  0.250000  0.250000  0.083333     24.000000
  0.416667  0.250000  0.083333     48.000000
  0.416667  0.416667  0.083333     24.000000
  0.250000  0.250000  0.250000      8.000000
  0.416667  0.250000  0.250000     24.000000
  0.416667  0.416667  0.250000     24.000000
  0.416667  0.416667  0.416667      8.000000
 
 Following cartesian coordinates:
            Coordinates               Weight
  0.083333  0.083333  0.083333      8.000000
  0.250000  0.083333  0.083333     24.000000
  0.416667  0.083333  0.083333     24.000000
  0.250000  0.250000  0.083333     24.000000
  0.416667  0.250000  0.083333     48.000000
  0.416667  0.416667  0.083333     24.000000
  0.250000  0.250000  0.250000      8.000000
  0.416667  0.250000  0.250000     24.000000
  0.416667  0.416667  0.250000     24.000000
  0.416667  0.416667  0.416667      8.000000
 
     LOOP+:  cpu time   10.26: real time   10.31
    4ORBIT:  cpu time    0.00: real time    0.00
 


 total charge     
 
# of ion     s       p       d       tot
----------------------------------------
  1        0.525   0.311   8.750   9.586
  2        0.525   0.311   8.749   9.585
  3        0.525   0.311   8.749   9.585
  4        0.525   0.311   8.749   9.585
------------------------------------------------
tot        2.100   1.244  34.998  38.341
 

 total amount of memory used by VASP on root node  42358. kBytes
========================================================================

   base      :    30000. kBytes
   nonl-proj :     1649. kBytes
   fftplans  :     2284. kBytes
   grid      :     3500. kBytes
   one-center:       62. kBytes
   wavefun   :     4863. kBytes
 
  
  
 General timing and accounting informations for this job:
 ========================================================
  
                  Total CPU time used (sec):       37.880
                            User time (sec):       37.297
                          System time (sec):        0.583
                         Elapsed time (sec):       38.412
  
                   Maximum memory used (kb):           0.
                   Average memory used (kb):           0.
  
                          Minor page faults:        14284
                          Major page faults:         1072
                 Voluntary context switches:        20244
