PROCAR lm decomposed
# of k-points:   10         # of bands:  26         # of ions:   4

 k-point    1 :    0.08333333 0.08333333 0.08333333     weight = 0.03703704

band   1 # energy   -4.04819431 # occ.  2.00000000
 
ion      s     py     pz     px    dxy    dyz    dz2    dxz    dx2    tot
  1  0.142  0.001  0.001  0.001  0.000  0.000  0.000  0.000  0.000  0.145
  2  0.142  0.001  0.001  0.001  0.000  0.000  0.000  0.000  0.000  0.145
  3  0.142  0.001  0.001  0.001  0.000  0.000  0.000  0.000  0.000  0.145
  4  0.142  0.001  0.001  0.001  0.000  0.000  0.000  0.000  0.000  0.145
tot  0.569  0.003  0.003  0.003  0.000  0.000  0.000  0.000  0.000  0.579
 
band   2 # energy   -1.49274793 # occ.  2.00000000
 
ion      s     py     pz     px    dxy    dyz    dz2    dxz    dx2    tot
  1  0.006  0.000  0.000  0.001  0.001  0.004  0.057  0.001  0.170  0.241
  2  0.008  0.001  0.000  0.000  0.001  0.003  0.042  0.002  0.170  0.227
  3  0.008  0.000  0.001  0.000  0.002  0.003  0.172  0.001  0.040  0.227
  4  0.034  0.000  0.000  0.000  0.001  0.003  0.013  0.001  0.040  0.092
tot  0.056  0.001  0.001  0.001  0.005  0.013  0.284  0.005  0.420  0.788
 
band   3 # energy   -1.49243522 # occ.  2.00000000
 
ion      s     py     pz     px    dxy    dyz    dz2    dxz    dx2    tot
  1  0.000  0.001  0.001  0.000  0.003  0.000  0.199  0.003  0.066  0.272
  2  0.028  0.000  0.000  0.000  0.003  0.000  0.022  0.003  0.066  0.122
  3  0.028  0.000  0.000  0.000  0.003  0.000  0.022  0.003  0.066  0.122
  4  0.000  0.001  0.001  0.000  0.003  0.000  0.198  0.003  0.066  0.272
tot  0.056  0.001  0.001  0.001  0.012  0.000  0.441  0.012  0.264  0.788
 
band   4 # energy   -1.49145611 # occ.  2.00000000
 
ion      s     py     pz     px    dxy    dyz    dz2    dxz    dx2    tot
  1  0.036  0.000  0.000  0.000  0.001  0.002  0.009  0.001  0.028  0.079
  2  0.006  0.000  0.001  0.000  0.002  0.002  0.200  0.002  0.028  0.241
  3  0.006  0.001  0.000  0.000  0.002  0.002  0.070  0.002  0.159  0.241
  4  0.009  0.000  0.000  0.001  0.002  0.003  0.053  0.002  0.158  0.227
tot  0.057  0.001  0.001  0.001  0.006  0.010  0.333  0.006  0.373  0.788
 
band   5 # energy   -1.22698282 # occ.  2.00000000
 
ion      s     py     pz     px    dxy    dyz    dz2    dxz    dx2    tot
  1  0.000  0.000  0.000  0.001  0.049  0.107  0.001  0.049  0.003  0.211
  2  0.000  0.000  0.000  0.000  0.052  0.106  0.003  0.052  0.002  0.216
  3  0.000  0.000  0.000  0.000  0.052  0.106  0.003  0.052  0.003  0.216
  4  0.000  0.000  0.000  0.001  0.049  0.107  0.001  0.049  0.003  0.210
tot  0.001  0.002  0.002  0.001  0.202  0.425  0.008  0.202  0.010  0.853
 
band   6 # energy   -1.22472413 # occ.  2.00000000
 
ion      s     py     pz     px    dxy    dyz    dz2    dxz    dx2    tot
  1  0.000  0.000  0.000  0.000  0.106  0.000  0.006  0.106  0.002  0.220
  2  0.000  0.000  0.000  0.001  0.101  0.000  0.001  0.101  0.002  0.206
  3  0.000  0.000  0.000  0.001  0.101  0.000  0.001  0.101  0.002  0.206
  4  0.000  0.000  0.000  0.000  0.106  0.000  0.006  0.106  0.002  0.220
tot  0.001  0.001  0.001  0.002  0.414  0.000  0.012  0.414  0.007  0.853
 
band   7 # energy   -1.22243036 # occ.  2.00000000
 
ion      s     py     pz     px    dxy    dyz    dz2    dxz    dx2    tot
  1  0.000  0.000  0.000  0.001  0.052  0.100  0.001  0.052  0.003  0.210
  2  0.000  0.000  0.000  0.000  0.054  0.101  0.003  0.054  0.003  0.217
  3  0.000  0.000  0.000  0.000  0.054  0.101  0.003  0.054  0.003  0.217
  4  0.000  0.000  0.000  0.001  0.051  0.100  0.001  0.051  0.003  0.209
tot  0.001  0.002  0.002  0.001  0.212  0.403  0.009  0.212  0.012  0.853
 
band   8 # energy    0.43866523 # occ.  2.00000000
 
ion      s     py     pz     px    dxy    dyz    dz2    dxz    dx2    tot
  1  0.000  0.000  0.000  0.000  0.076  0.076  0.000  0.076  0.000  0.229
  2  0.000  0.000  0.000  0.000  0.076  0.076  0.000  0.076  0.000  0.229
  3  0.000  0.000  0.000  0.000  0.076  0.076  0.000  0.076  0.000  0.229
  4  0.000  0.000  0.000  0.000  0.076  0.076  0.000  0.076  0.000  0.229
tot  0.000  0.001  0.001  0.001  0.306  0.303  0.000  0.306  0.000  0.917
 
band   9 # energy    0.57700770 # occ.  2.00000000
 
ion      s     py     pz     px    dxy    dyz    dz2    dxz    dx2    tot
  1  0.000  0.000  0.000  0.000  0.115  0.000  0.001  0.115  0.000  0.231
  2  0.000  0.000  0.000  0.000  0.115  0.000  0.001  0.115  0.000  0.231
  3  0.000  0.000  0.000  0.000  0.115  0.000  0.001  0.115  0.000  0.231
  4  0.000  0.000  0.000  0.000  0.115  0.000  0.001  0.115  0.000  0.231
tot  0.000  0.000  0.000  0.000  0.460  0.000  0.003  0.460  0.001  0.924
 
band  10 # energy    0.57739679 # occ.  2.00000000
 
ion      s     py     pz     px    dxy    dyz    dz2    dxz    dx2    tot
  1  0.000  0.000  0.000  0.000  0.038  0.154  0.000  0.038  0.001  0.231
  2  0.000  0.000  0.000  0.000  0.038  0.154  0.000  0.038  0.001  0.231
  3  0.000  0.000  0.000  0.000  0.038  0.154  0.000  0.038  0.001  0.231
  4  0.000  0.000  0.000  0.000  0.038  0.153  0.000  0.038  0.001  0.231
tot  0.000  0.000  0.000  0.000  0.152  0.615  0.001  0.153  0.003  0.924
 
band  11 # energy    1.82677569 # occ.  2.00000000
 
ion      s     py     pz     px    dxy    dyz    dz2    dxz    dx2    tot
  1  0.000  0.000  0.000  0.000  0.000  0.000  0.179  0.000  0.060  0.240
  2  0.000  0.000  0.000  0.000  0.000  0.000  0.178  0.000  0.060  0.238
  3  0.000  0.000  0.000  0.000  0.000  0.000  0.178  0.000  0.059  0.239
  4  0.000  0.000  0.000  0.000  0.000  0.000  0.179  0.000  0.060  0.239
tot  0.000  0.000  0.000  0.000  0.002  0.000  0.714  0.002  0.239  0.956
 
band  12 # energy    1.82722964 # occ.  2.00000000
 
ion      s     py     pz     px    dxy    dyz    dz2    dxz    dx2    tot
  1  0.000  0.000  0.000  0.000  0.000  0.001  0.060  0.000  0.179  0.240
  2  0.000  0.000  0.000  0.000  0.000  0.001  0.059  0.000  0.179  0.239
  3  0.000  0.000  0.000  0.000  0.000  0.001  0.060  0.000  0.178  0.239
  4  0.000  0.000  0.000  0.000  0.000  0.001  0.059  0.000  0.178  0.238
tot  0.000  0.000  0.000  0.000  0.001  0.002  0.239  0.001  0.714  0.956
 
band  13 # energy    2.70438468 # occ.  2.00000000
 
ion      s     py     pz     px    dxy    dyz    dz2    dxz    dx2    tot
  1  0.002  0.001  0.001  0.009  0.103  0.035  0.022  0.103  0.066  0.344
  2  0.001  0.001  0.000  0.008  0.102  0.000  0.021  0.045  0.006  0.185
  3  0.001  0.000  0.001  0.008  0.045  0.000  0.020  0.102  0.008  0.185
  4  0.001  0.001  0.001  0.007  0.043  0.032  0.023  0.043  0.069  0.219
tot  0.005  0.003  0.003  0.032  0.294  0.067  0.086  0.294  0.150  0.933
 
band  14 # energy    2.71438734 # occ.  2.00000000
 
ion      s     py     pz     px    dxy    dyz    dz2    dxz    dx2    tot
  1  0.000  0.005  0.005  0.000  0.050  0.000  0.011  0.050  0.004  0.123
  2  0.003  0.007  0.007  0.000  0.057  0.203  0.011  0.055  0.004  0.347
  3  0.003  0.007  0.007  0.000  0.055  0.203  0.000  0.057  0.015  0.347
  4  0.000  0.005  0.005  0.000  0.048  0.000  0.001  0.048  0.000  0.107
tot  0.006  0.023  0.023  0.000  0.209  0.407  0.023  0.210  0.022  0.923
 
band  15 # energy    2.71481412 # occ.  2.00000000
 
ion      s     py     pz     px    dxy    dyz    dz2    dxz    dx2    tot
  1  0.002  0.006  0.006  0.000  0.027  0.179  0.001  0.027  0.002  0.251
  2  0.000  0.004  0.005  0.001  0.023  0.000  0.004  0.092  0.002  0.131
  3  0.000  0.005  0.004  0.001  0.092  0.000  0.005  0.023  0.001  0.131
  4  0.004  0.007  0.007  0.002  0.101  0.184  0.001  0.101  0.003  0.410
tot  0.006  0.022  0.022  0.004  0.243  0.364  0.011  0.243  0.008  0.922
 
band  16 # energy    2.73051017 # occ.  2.00000000
 
ion      s     py     pz     px    dxy    dyz    dz2    dxz    dx2    tot
  1  0.000  0.000  0.000  0.000  0.011  0.000  0.155  0.011  0.052  0.229
  2  0.000  0.001  0.000  0.000  0.011  0.021  0.155  0.002  0.105  0.294
  3  0.000  0.000  0.001  0.000  0.002  0.021  0.117  0.011  0.142  0.294
  4  0.000  0.000  0.000  0.000  0.002  0.000  0.110  0.002  0.037  0.151
tot  0.000  0.002  0.002  0.000  0.026  0.041  0.537  0.026  0.335  0.969
 
band  17 # energy    2.73316476 # occ.  2.00000000
 
ion      s     py     pz     px    dxy    dyz    dz2    dxz    dx2    tot
  1  0.000  0.000  0.000  0.000  0.004  0.000  0.086  0.004  0.029  0.122
  2  0.000  0.000  0.000  0.000  0.004  0.010  0.087  0.014  0.199  0.315
  3  0.000  0.000  0.000  0.000  0.014  0.010  0.135  0.004  0.151  0.315
  4  0.000  0.001  0.001  0.000  0.014  0.000  0.141  0.014  0.047  0.217
tot  0.000  0.001  0.001  0.001  0.036  0.019  0.448  0.036  0.426  0.969
 
band  18 # energy    2.73987158 # occ.  2.00000000
 
ion      s     py     pz     px    dxy    dyz    dz2    dxz    dx2    tot
  1  0.001  0.000  0.000  0.003  0.039  0.020  0.061  0.039  0.183  0.347
  2  0.000  0.000  0.000  0.003  0.038  0.000  0.060  0.025  0.021  0.148
  3  0.000  0.000  0.000  0.003  0.025  0.000  0.061  0.038  0.020  0.148
  4  0.000  0.000  0.000  0.003  0.025  0.019  0.060  0.025  0.181  0.315
tot  0.002  0.001  0.001  0.013  0.128  0.039  0.242  0.128  0.405  0.958
 
band  19 # energy    3.13518942 # occ.  2.00000000
 
ion      s     py     pz     px    dxy    dyz    dz2    dxz    dx2    tot
  1  0.000  0.000  0.000  0.000  0.152  0.000  0.019  0.153  0.006  0.330
  2  0.000  0.000  0.000  0.000  0.152  0.076  0.019  0.035  0.004  0.286
  3  0.000  0.000  0.000  0.000  0.036  0.076  0.005  0.153  0.018  0.288
  4  0.000  0.000  0.000  0.000  0.036  0.000  0.005  0.035  0.001  0.077
tot  0.000  0.000  0.000  0.000  0.375  0.151  0.048  0.377  0.030  0.981
 
band  20 # energy    3.13533284 # occ.  2.00000000
 
ion      s     py     pz     px    dxy    dyz    dz2    dxz    dx2    tot
  1  0.000  0.000  0.000  0.000  0.057  0.225  0.007  0.056  0.021  0.367
  2  0.000  0.000  0.000  0.000  0.057  0.000  0.007  0.057  0.002  0.124
  3  0.000  0.000  0.000  0.000  0.057  0.000  0.007  0.056  0.002  0.122
  4  0.000  0.000  0.000  0.000  0.057  0.226  0.007  0.057  0.021  0.368
tot  0.000  0.000  0.000  0.000  0.228  0.451  0.029  0.226  0.047  0.981
 
band  21 # energy    3.13715975 # occ.  2.00000000
 
ion      s     py     pz     px    dxy    dyz    dz2    dxz    dx2    tot
  1  0.000  0.000  0.000  0.000  0.017  0.000  0.002  0.017  0.001  0.036
  2  0.000  0.000  0.000  0.000  0.017  0.151  0.002  0.134  0.023  0.327
  3  0.000  0.000  0.000  0.000  0.134  0.151  0.017  0.017  0.008  0.327
  4  0.000  0.000  0.000  0.000  0.134  0.000  0.017  0.134  0.006  0.291
tot  0.000  0.000  0.000  0.000  0.302  0.302  0.038  0.302  0.037  0.981
 
band  22 # energy    6.06605438 # occ.  0.00000000
 
ion      s     py     pz     px    dxy    dyz    dz2    dxz    dx2    tot
  1  0.038  0.022  0.022  0.044  0.011  0.015  0.002  0.011  0.006  0.171
  2  0.012  0.026  0.026  0.045  0.011  0.000  0.008  0.011  0.006  0.144
  3  0.012  0.026  0.026  0.045  0.011  0.000  0.008  0.011  0.006  0.144
  4  0.037  0.022  0.022  0.045  0.011  0.015  0.002  0.011  0.006  0.170
tot  0.098  0.095  0.095  0.179  0.043  0.030  0.020  0.043  0.024  0.628
 
band  23 # energy    6.07279266 # occ.  0.00000000
 
ion      s     py     pz     px    dxy    dyz    dz2    dxz    dx2    tot
  1  0.000  0.049  0.049  0.000  0.007  0.000  0.012  0.007  0.004  0.130
  2  0.048  0.043  0.043  0.000  0.007  0.029  0.001  0.007  0.004  0.184
  3  0.048  0.043  0.043  0.000  0.007  0.029  0.001  0.007  0.004  0.184
  4  0.000  0.049  0.049  0.000  0.007  0.000  0.012  0.007  0.004  0.130
tot  0.097  0.185  0.185  0.000  0.029  0.058  0.027  0.029  0.016  0.627
 
band  24 # energy    6.07955022 # occ.  0.00000000
 
ion      s     py     pz     px    dxy    dyz    dz2    dxz    dx2    tot
  1  0.034  0.021  0.021  0.048  0.011  0.014  0.002  0.011  0.007  0.170
  2  0.013  0.024  0.024  0.048  0.011  0.000  0.007  0.011  0.006  0.143
  3  0.013  0.024  0.024  0.048  0.011  0.000  0.007  0.011  0.006  0.143
  4  0.036  0.021  0.021  0.048  0.011  0.014  0.002  0.011  0.006  0.171
tot  0.095  0.090  0.090  0.191  0.044  0.028  0.018  0.044  0.025  0.626
 
band  25 # energy   10.76577011 # occ.  0.00000000
 
ion      s     py     pz     px    dxy    dyz    dz2    dxz    dx2    tot
  1  0.182  0.007  0.000  0.014  0.000  0.000  0.004  0.000  0.026  0.235
  2  0.087  0.008  0.004  0.017  0.000  0.000  0.017  0.000  0.026  0.160
  3  0.137  0.009  0.002  0.015  0.000  0.000  0.009  0.000  0.028  0.199
  4  0.121  0.007  0.002  0.017  0.000  0.000  0.011  0.000  0.027  0.187
tot  0.527  0.031  0.007  0.064  0.001  0.001  0.041  0.001  0.108  0.781
 
band  26 # energy   10.76839548 # occ.  0.00000000
 
ion      s     py     pz     px    dxy    dyz    dz2    dxz    dx2    tot
  1  0.080  0.017  0.005  0.009  0.000  0.000  0.020  0.000  0.025  0.154
  2  0.199  0.014  0.000  0.006  0.000  0.000  0.003  0.000  0.025  0.248
  3  0.134  0.015  0.002  0.009  0.000  0.000  0.008  0.000  0.028  0.197
  4  0.111  0.018  0.003  0.007  0.000  0.000  0.012  0.000  0.028  0.179
tot  0.524  0.064  0.009  0.031  0.001  0.001  0.043  0.001  0.106  0.779
 

 k-point    2 :    0.25000000 0.08333333 0.08333333     weight = 0.11111111

band   1 # energy   -3.46591767 # occ.  2.00000000
 
ion      s     py     pz     px    dxy    dyz    dz2    dxz    dx2    tot
  1  0.135  0.001  0.001  0.006  0.001  0.000  0.000  0.001  0.001  0.145
  2  0.135  0.001  0.001  0.006  0.001  0.000  0.000  0.001  0.001  0.145
  3  0.135  0.001  0.001  0.006  0.001  0.000  0.000  0.001  0.001  0.145
  4  0.135  0.001  0.001  0.006  0.001  0.000  0.000  0.001  0.001  0.145
tot  0.541  0.003  0.003  0.026  0.002  0.000  0.001  0.002  0.002  0.580
 
band   2 # energy   -1.34271350 # occ.  2.00000000
 
ion      s     py     pz     px    dxy    dyz    dz2    dxz    dx2    tot
  1  0.025  0.000  0.000  0.005  0.000  0.007  0.039  0.000  0.116  0.192
  2  0.025  0.000  0.000  0.005  0.000  0.007  0.038  0.000  0.116  0.191
  3  0.025  0.000  0.000  0.005  0.000  0.007  0.039  0.000  0.115  0.191
  4  0.025  0.000  0.000  0.004  0.000  0.007  0.038  0.000  0.115  0.191
tot  0.100  0.001  0.001  0.018  0.001  0.029  0.154  0.001  0.461  0.766
 
band   3 # energy   -1.16998806 # occ.  2.00000000
 
ion      s     py     pz     px    dxy    dyz    dz2    dxz    dx2    tot
  1  0.000  0.000  0.000  0.000  0.021  0.000  0.184  0.021  0.061  0.288
  2  0.019  0.000  0.000  0.003  0.017  0.000  0.014  0.017  0.043  0.115
  3  0.019  0.000  0.000  0.003  0.017  0.000  0.014  0.017  0.043  0.115
  4  0.000  0.000  0.000  0.000  0.021  0.000  0.184  0.021  0.061  0.288
tot  0.038  0.001  0.001  0.007  0.077  0.000  0.397  0.077  0.209  0.806
 
band   4 # energy   -1.16947032 # occ.  2.00000000
 
ion      s     py     pz     px    dxy    dyz    dz2    dxz    dx2    tot
  1  0.019  0.000  0.000  0.003  0.017  0.000  0.014  0.017  0.043  0.115
  2  0.000  0.000  0.000  0.000  0.021  0.000  0.184  0.021  0.061  0.288
  3  0.000  0.000  0.000  0.000  0.021  0.000  0.183  0.021  0.062  0.288
  4  0.019  0.000  0.000  0.003  0.017  0.000  0.014  0.017  0.043  0.116
tot  0.038  0.001  0.001  0.007  0.077  0.000  0.396  0.077  0.209  0.806
 
band   5 # energy   -1.02121693 # occ.  2.00000000
 
ion      s     py     pz     px    dxy    dyz    dz2    dxz    dx2    tot
  1  0.000  0.001  0.001  0.000  0.000  0.206  0.002  0.000  0.005  0.215
  2  0.000  0.001  0.001  0.000  0.000  0.206  0.002  0.000  0.005  0.214
  3  0.000  0.001  0.001  0.000  0.000  0.206  0.002  0.000  0.005  0.214
  4  0.000  0.001  0.001  0.000  0.000  0.206  0.002  0.000  0.005  0.214
tot  0.002  0.002  0.002  0.000  0.001  0.824  0.006  0.001  0.018  0.857
 
band   6 # energy   -0.87311565 # occ.  2.00000000
 
ion      s     py     pz     px    dxy    dyz    dz2    dxz    dx2    tot
  1  0.000  0.002  0.002  0.000  0.088  0.000  0.042  0.088  0.014  0.237
  2  0.001  0.002  0.002  0.003  0.082  0.001  0.003  0.082  0.009  0.184
  3  0.001  0.002  0.002  0.003  0.082  0.001  0.003  0.082  0.009  0.184
  4  0.000  0.002  0.002  0.000  0.088  0.000  0.042  0.088  0.014  0.237
tot  0.002  0.008  0.008  0.007  0.340  0.001  0.090  0.340  0.046  0.841
 
band   7 # energy   -0.87291897 # occ.  2.00000000
 
ion      s     py     pz     px    dxy    dyz    dz2    dxz    dx2    tot
  1  0.001  0.002  0.002  0.003  0.082  0.001  0.003  0.082  0.009  0.184
  2  0.000  0.002  0.002  0.000  0.088  0.000  0.042  0.088  0.014  0.237
  3  0.000  0.002  0.002  0.000  0.088  0.000  0.042  0.088  0.014  0.237
  4  0.001  0.002  0.002  0.003  0.082  0.001  0.003  0.082  0.009  0.183
tot  0.002  0.008  0.008  0.007  0.339  0.001  0.090  0.340  0.046  0.841
 
band   8 # energy    0.20632671 # occ.  2.00000000
 
ion      s     py     pz     px    dxy    dyz    dz2    dxz    dx2    tot
  1  0.000  0.000  0.000  0.000  0.011  0.203  0.000  0.011  0.000  0.226
  2  0.000  0.000  0.000  0.000  0.011  0.203  0.000  0.011  0.000  0.226
  3  0.000  0.000  0.000  0.000  0.011  0.203  0.000  0.011  0.000  0.226
  4  0.000  0.000  0.000  0.000  0.011  0.203  0.000  0.011  0.000  0.226
tot  0.001  0.002  0.002  0.000  0.043  0.813  0.000  0.043  0.000  0.904
 
band   9 # energy    0.79149256 # occ.  2.00000000
 
ion      s     py     pz     px    dxy    dyz    dz2    dxz    dx2    tot
  1  0.000  0.000  0.000  0.000  0.099  0.022  0.002  0.099  0.007  0.231
  2  0.000  0.000  0.000  0.000  0.098  0.022  0.003  0.099  0.007  0.231
  3  0.000  0.000  0.000  0.000  0.099  0.022  0.002  0.098  0.007  0.231
  4  0.000  0.000  0.000  0.000  0.099  0.022  0.002  0.099  0.007  0.231
tot  0.001  0.001  0.001  0.001  0.395  0.090  0.010  0.395  0.030  0.924
 
band  10 # energy    0.79820926 # occ.  2.00000000
 
ion      s     py     pz     px    dxy    dyz    dz2    dxz    dx2    tot
  1  0.000  0.000  0.000  0.000  0.112  0.000  0.006  0.112  0.002  0.232
  2  0.000  0.000  0.000  0.000  0.111  0.000  0.006  0.111  0.002  0.231
  3  0.000  0.000  0.000  0.000  0.111  0.000  0.006  0.111  0.002  0.231
  4  0.000  0.000  0.000  0.000  0.111  0.000  0.006  0.111  0.002  0.231
tot  0.000  0.002  0.002  0.000  0.445  0.000  0.023  0.445  0.008  0.925
 
band  11 # energy    1.58173100 # occ.  2.00000000
 
ion      s     py     pz     px    dxy    dyz    dz2    dxz    dx2    tot
  1  0.001  0.000  0.000  0.000  0.005  0.001  0.056  0.005  0.169  0.237
  2  0.001  0.000  0.000  0.000  0.004  0.001  0.056  0.005  0.169  0.235
  3  0.001  0.000  0.000  0.000  0.005  0.001  0.057  0.004  0.168  0.235
  4  0.001  0.000  0.000  0.000  0.005  0.001  0.056  0.005  0.167  0.234
tot  0.003  0.000  0.000  0.001  0.018  0.004  0.224  0.018  0.672  0.941
 
band  12 # energy    1.63825401 # occ.  2.00000000
 
ion      s     py     pz     px    dxy    dyz    dz2    dxz    dx2    tot
  1  0.000  0.009  0.009  0.000  0.080  0.000  0.008  0.079  0.003  0.187
  2  0.006  0.008  0.008  0.000  0.098  0.020  0.003  0.097  0.009  0.249
  3  0.006  0.008  0.008  0.000  0.097  0.020  0.003  0.097  0.008  0.249
  4  0.000  0.009  0.009  0.000  0.080  0.000  0.008  0.079  0.003  0.187
tot  0.012  0.034  0.034  0.000  0.354  0.041  0.022  0.352  0.022  0.871
 
band  13 # energy    1.63837767 # occ.  2.00000000
 
ion      s     py     pz     px    dxy    dyz    dz2    dxz    dx2    tot
  1  0.006  0.008  0.008  0.000  0.097  0.020  0.003  0.097  0.008  0.248
  2  0.000  0.009  0.009  0.000  0.080  0.000  0.008  0.079  0.003  0.187
  3  0.000  0.009  0.009  0.000  0.078  0.000  0.007  0.080  0.003  0.187
  4  0.006  0.008  0.008  0.000  0.097  0.020  0.003  0.097  0.009  0.249
tot  0.012  0.034  0.034  0.001  0.352  0.041  0.021  0.353  0.024  0.871
 
band  14 # energy    1.98473578 # occ.  2.00000000
 
ion      s     py     pz     px    dxy    dyz    dz2    dxz    dx2    tot
  1  0.000  0.000  0.000  0.000  0.004  0.000  0.174  0.004  0.058  0.241
  2  0.000  0.000  0.000  0.000  0.004  0.000  0.173  0.004  0.058  0.239
  3  0.000  0.000  0.000  0.000  0.004  0.000  0.173  0.004  0.057  0.239
  4  0.000  0.000  0.000  0.000  0.004  0.000  0.174  0.004  0.058  0.241
tot  0.000  0.000  0.000  0.000  0.016  0.000  0.694  0.016  0.232  0.959
 
band  15 # energy    2.00818282 # occ.  2.00000000
 
ion      s     py     pz     px    dxy    dyz    dz2    dxz    dx2    tot
  1  0.017  0.000  0.000  0.018  0.079  0.001  0.004  0.079  0.013  0.212
  2  0.017  0.000  0.000  0.018  0.079  0.001  0.005  0.080  0.013  0.213
  3  0.017  0.000  0.000  0.018  0.080  0.001  0.004  0.079  0.013  0.213
  4  0.018  0.000  0.000  0.018  0.079  0.001  0.005  0.079  0.014  0.215
tot  0.070  0.001  0.001  0.071  0.316  0.004  0.018  0.316  0.053  0.852
 
band  16 # energy    2.36767547 # occ.  2.00000000
 
ion      s     py     pz     px    dxy    dyz    dz2    dxz    dx2    tot
  1  0.000  0.001  0.001  0.000  0.056  0.000  0.091  0.056  0.030  0.235
  2  0.000  0.001  0.001  0.000  0.057  0.000  0.093  0.057  0.035  0.243
  3  0.000  0.001  0.001  0.000  0.057  0.000  0.094  0.057  0.034  0.243
  4  0.000  0.001  0.001  0.000  0.056  0.000  0.090  0.056  0.030  0.234
tot  0.000  0.003  0.003  0.000  0.226  0.001  0.368  0.226  0.129  0.955
 
band  17 # energy    2.38915190 # occ.  2.00000000
 
ion      s     py     pz     px    dxy    dyz    dz2    dxz    dx2    tot
  1  0.001  0.001  0.001  0.002  0.003  0.021  0.090  0.003  0.270  0.391
  2  0.000  0.000  0.000  0.000  0.002  0.000  0.058  0.002  0.019  0.083
  3  0.000  0.000  0.000  0.000  0.002  0.000  0.058  0.002  0.019  0.083
  4  0.001  0.001  0.001  0.002  0.003  0.021  0.090  0.003  0.271  0.392
tot  0.001  0.003  0.003  0.004  0.010  0.042  0.296  0.010  0.579  0.949
 
band  18 # energy    2.39045327 # occ.  2.00000000
 
ion      s     py     pz     px    dxy    dyz    dz2    dxz    dx2    tot
  1  0.000  0.000  0.000  0.000  0.003  0.000  0.058  0.003  0.019  0.084
  2  0.001  0.001  0.001  0.002  0.003  0.021  0.090  0.003  0.266  0.389
  3  0.001  0.001  0.001  0.002  0.003  0.021  0.089  0.003  0.268  0.389
  4  0.000  0.000  0.000  0.000  0.003  0.000  0.060  0.003  0.020  0.086
tot  0.001  0.003  0.003  0.004  0.013  0.041  0.297  0.013  0.574  0.949
 
band  19 # energy    2.91800740 # occ.  2.00000000
 
ion      s     py     pz     px    dxy    dyz    dz2    dxz    dx2    tot
  1  0.000  0.000  0.000  0.000  0.062  0.000  0.090  0.062  0.030  0.244
  2  0.000  0.000  0.000  0.000  0.062  0.000  0.090  0.062  0.030  0.244
  3  0.000  0.000  0.000  0.000  0.062  0.000  0.090  0.062  0.030  0.244
  4  0.000  0.000  0.000  0.000  0.062  0.000  0.090  0.062  0.030  0.244
tot  0.000  0.001  0.001  0.000  0.248  0.000  0.359  0.248  0.120  0.976
 
band  20 # energy    3.09547452 # occ.  2.00000000
 
ion      s     py     pz     px    dxy    dyz    dz2    dxz    dx2    tot
  1  0.000  0.000  0.000  0.000  0.007  0.434  0.003  0.007  0.008  0.460
  2  0.000  0.000  0.000  0.000  0.013  0.000  0.002  0.013  0.001  0.029
  3  0.000  0.000  0.000  0.000  0.013  0.000  0.002  0.013  0.001  0.029
  4  0.000  0.000  0.000  0.000  0.007  0.435  0.003  0.007  0.008  0.461
tot  0.000  0.000  0.000  0.000  0.040  0.870  0.010  0.040  0.018  0.978
 
band  21 # energy    3.09743179 # occ.  2.00000000
 
ion      s     py     pz     px    dxy    dyz    dz2    dxz    dx2    tot
  1  0.000  0.000  0.000  0.000  0.013  0.000  0.002  0.013  0.001  0.028
  2  0.000  0.000  0.000  0.000  0.007  0.435  0.003  0.007  0.008  0.461
  3  0.000  0.000  0.000  0.000  0.007  0.435  0.003  0.007  0.008  0.461
  4  0.000  0.000  0.000  0.000  0.013  0.000  0.002  0.013  0.001  0.029
tot  0.000  0.001  0.001  0.000  0.040  0.870  0.010  0.040  0.018  0.978
 
band  22 # energy    3.89263283 # occ.  2.00000000
 
ion      s     py     pz     px    dxy    dyz    dz2    dxz    dx2    tot
  1  0.042  0.001  0.001  0.038  0.039  0.000  0.008  0.039  0.025  0.193
  2  0.042  0.001  0.001  0.038  0.039  0.000  0.008  0.039  0.025  0.193
  3  0.042  0.001  0.001  0.038  0.039  0.000  0.008  0.039  0.025  0.193
  4  0.042  0.001  0.001  0.038  0.039  0.000  0.008  0.039  0.025  0.193
tot  0.168  0.003  0.003  0.151  0.157  0.001  0.033  0.157  0.099  0.772
 
band  23 # energy    7.38319745 # occ.  0.00000000
 
ion      s     py     pz     px    dxy    dyz    dz2    dxz    dx2    tot
  1  0.083  0.034  0.034  0.001  0.020  0.012  0.002  0.020  0.005  0.209
  2  0.000  0.038  0.038  0.000  0.023  0.000  0.015  0.023  0.005  0.140
  3  0.000  0.038  0.038  0.000  0.023  0.000  0.015  0.023  0.005  0.140
  4  0.083  0.034  0.034  0.001  0.020  0.012  0.002  0.020  0.005  0.209
tot  0.165  0.143  0.143  0.002  0.085  0.024  0.033  0.085  0.020  0.698
 
band  24 # energy    7.38335507 # occ.  0.00000000
 
ion      s     py     pz     px    dxy    dyz    dz2    dxz    dx2    tot
  1  0.000  0.038  0.038  0.000  0.023  0.000  0.015  0.023  0.005  0.140
  2  0.083  0.034  0.034  0.001  0.020  0.012  0.002  0.020  0.005  0.209
  3  0.083  0.034  0.034  0.001  0.020  0.012  0.002  0.020  0.005  0.209
  4  0.000  0.038  0.038  0.000  0.023  0.000  0.015  0.023  0.005  0.140
tot  0.165  0.143  0.143  0.002  0.085  0.024  0.033  0.085  0.020  0.698
 
band  25 # energy   10.33670276 # occ.  0.00000000
 
ion      s     py     pz     px    dxy    dyz    dz2    dxz    dx2    tot
  1  0.232  0.006  0.006  0.012  0.006  0.000  0.004  0.006  0.013  0.287
  2  0.000  0.030  0.030  0.000  0.000  0.000  0.006  0.000  0.002  0.069
  3  0.000  0.030  0.030  0.000  0.000  0.000  0.006  0.000  0.002  0.069
  4  0.232  0.006  0.006  0.012  0.006  0.000  0.004  0.006  0.013  0.287
tot  0.465  0.072  0.072  0.024  0.012  0.000  0.021  0.012  0.031  0.711
 
band  26 # energy   10.33750995 # occ.  0.00000000
 
ion      s     py     pz     px    dxy    dyz    dz2    dxz    dx2    tot
  1  0.000  0.030  0.030  0.000  0.000  0.000  0.006  0.000  0.002  0.069
  2  0.233  0.006  0.006  0.012  0.006  0.000  0.004  0.006  0.013  0.287
  3  0.233  0.006  0.006  0.012  0.006  0.000  0.004  0.006  0.013  0.287
  4  0.000  0.030  0.030  0.000  0.000  0.000  0.006  0.000  0.002  0.069
tot  0.465  0.072  0.072  0.024  0.012  0.000  0.021  0.012  0.031  0.711
 

 k-point    3 :    0.41666667 0.08333333 0.08333333     weight = 0.11111111

band   1 # energy   -2.42845237 # occ.  2.00000000
 
ion      s     py     pz     px    dxy    dyz    dz2    dxz    dx2    tot
  1  0.117  0.001  0.001  0.015  0.002  0.000  0.003  0.002  0.008  0.148
  2  0.117  0.001  0.001  0.015  0.002  0.000  0.003  0.002  0.008  0.148
  3  0.117  0.001  0.001  0.015  0.002  0.000  0.003  0.002  0.008  0.148
  4  0.117  0.001  0.001  0.015  0.002  0.000  0.003  0.002  0.008  0.148
tot  0.468  0.002  0.002  0.062  0.007  0.002  0.011  0.007  0.033  0.593
 
band   2 # energy   -1.46972129 # occ.  2.00000000
 
ion      s     py     pz     px    dxy    dyz    dz2    dxz    dx2    tot
  1  0.069  0.000  0.000  0.015  0.002  0.003  0.019  0.002  0.058  0.168
  2  0.069  0.000  0.000  0.015  0.002  0.003  0.019  0.002  0.058  0.168
  3  0.069  0.000  0.000  0.015  0.002  0.003  0.019  0.002  0.058  0.168
  4  0.069  0.000  0.000  0.015  0.002  0.003  0.019  0.002  0.058  0.168
tot  0.275  0.001  0.001  0.062  0.006  0.011  0.077  0.006  0.231  0.671
 
band   3 # energy   -0.65962167 # occ.  2.00000000
 
ion      s     py     pz     px    dxy    dyz    dz2    dxz    dx2    tot
  1  0.000  0.000  0.000  0.000  0.013  0.000  0.243  0.013  0.081  0.350
  2  0.006  0.001  0.001  0.011  0.012  0.000  0.004  0.012  0.013  0.059
  3  0.006  0.001  0.001  0.011  0.012  0.000  0.004  0.012  0.013  0.059
  4  0.000  0.000  0.000  0.000  0.013  0.000  0.242  0.013  0.081  0.349
tot  0.012  0.001  0.001  0.022  0.049  0.001  0.493  0.049  0.187  0.816
 
band   4 # energy   -0.65900758 # occ.  2.00000000
 
ion      s     py     pz     px    dxy    dyz    dz2    dxz    dx2    tot
  1  0.005  0.001  0.001  0.010  0.011  0.024  0.004  0.011  0.012  0.077
  2  0.000  0.000  0.000  0.000  0.012  0.022  0.216  0.012  0.072  0.334
  3  0.000  0.000  0.000  0.000  0.012  0.022  0.216  0.012  0.072  0.334
  4  0.005  0.001  0.001  0.010  0.011  0.023  0.004  0.011  0.012  0.077
tot  0.011  0.001  0.001  0.020  0.045  0.092  0.439  0.045  0.168  0.821
 
band   5 # energy   -0.65671723 # occ.  2.00000000
 
ion      s     py     pz     px    dxy    dyz    dz2    dxz    dx2    tot
  1  0.001  0.001  0.001  0.001  0.002  0.189  0.001  0.002  0.003  0.200
  2  0.000  0.000  0.000  0.000  0.002  0.188  0.027  0.002  0.010  0.231
  3  0.000  0.000  0.000  0.000  0.002  0.188  0.027  0.002  0.010  0.231
  4  0.001  0.000  0.000  0.001  0.002  0.189  0.001  0.002  0.003  0.200
tot  0.003  0.002  0.002  0.003  0.008  0.755  0.055  0.008  0.026  0.863
 
band   6 # energy   -0.29714469 # occ.  2.00000000
 
ion      s     py     pz     px    dxy    dyz    dz2    dxz    dx2    tot
  1  0.000  0.004  0.004  0.000  0.110  0.000  0.035  0.109  0.012  0.272
  2  0.001  0.005  0.005  0.004  0.065  0.003  0.000  0.065  0.000  0.149
  3  0.001  0.005  0.005  0.004  0.065  0.003  0.000  0.065  0.000  0.149
  4  0.000  0.004  0.004  0.000  0.109  0.000  0.035  0.109  0.012  0.271
tot  0.003  0.018  0.018  0.008  0.349  0.005  0.069  0.349  0.023  0.842
 
band   7 # energy   -0.29679956 # occ.  2.00000000
 
ion      s     py     pz     px    dxy    dyz    dz2    dxz    dx2    tot
  1  0.001  0.005  0.005  0.004  0.066  0.003  0.000  0.066  0.000  0.150
  2  0.000  0.004  0.004  0.000  0.109  0.000  0.035  0.109  0.012  0.271
  3  0.000  0.004  0.004  0.000  0.109  0.000  0.035  0.109  0.012  0.271
  4  0.001  0.005  0.005  0.004  0.065  0.003  0.000  0.065  0.000  0.149
tot  0.003  0.018  0.018  0.008  0.348  0.006  0.070  0.349  0.023  0.842
 
band   8 # energy   -0.20918993 # occ.  2.00000000
 
ion      s     py     pz     px    dxy    dyz    dz2    dxz    dx2    tot
  1  0.000  0.000  0.000  0.000  0.003  0.214  0.000  0.003  0.000  0.221