<?xml version="1.0" encoding="ISO-8859-1"?>
<modeling>
 <generator>
  <i name="program" type="string">vasp </i>
  <i name="version" type="string">5.2.2  </i>
  <i name="subversion" type="string">15Apr09 complex  parallel </i>
  <i name="platform" type="string">LinuxIFC </i>
  <i name="date" type="string">2009 12 01 </i>
  <i name="time" type="string">11:25:21 </i>
 </generator>
 <incar>
  <i type="string" name="SYSTEM"> Au, FCC</i>
  <i type="int" name="ISTART">     0</i>
  <i type="string" name="PREC">normal ! set fft mesh, cutoffs</i>
  <i type="string" name="ALGO"> Fast   ! use fast algorithm for electro</i>
  <i type="int" name="ISPIN">     1</i>
  <i type="int" name="IBRION">     6</i>
  <i type="int" name="NFREE">     2</i>
  <i name="EDIFF">      0.00010000</i>
  <i name="EDIFFG">     -0.05000000</i>
  <i type="int" name="NSW">    10</i>
  <i type="int" name="ISIF">     2</i>
  <i name="ENCUT">    350.00000000</i>
  <i name="POTIM">      0.35000000</i>
  <i type="int" name="ISMEAR">     0</i>
  <i name="SIGMA">      0.10000000</i>
  <i type="int" name="NWRITE">     1</i>
  <i type="logical" name="LWAVE"> F  </i>
  <i type="logical" name="LCHARG"> T  </i>
  <i type="logical" name="LVTOT"> F  </i>
  <i type="logical" name="LORBIT"> F  </i>
  <i type="logical" name="LPEAD"> F  </i>
  <i type="logical" name="LCALCPOL"> F  </i>
  <i type="logical" name="LCALCEPS"> F  </i>
  <v name="EFIELD_PEAD">      0.00000000      0.00000000      0.00000000</v>
  <i type="logical" name="LEFG"> F  </i>
 </incar>
 <kpoints>
  <generation param="Monkhorst-Pack">
   <v type="int" name="divisions">       6        6        6 </v>
   <v name="usershift">      0.00000000       0.00000000       0.00000000 </v>
   <v name="genvec1">      0.16666667       0.00000000       0.00000000 </v>
   <v name="genvec2">      0.00000000       0.16666667       0.00000000 </v>
   <v name="genvec3">      0.00000000       0.00000000       0.16666667 </v>
   <v name="shift">      0.50000000       0.50000000       0.50000000 </v>
  </generation>
  <varray name="kpointlist" >
   <v>       0.08333333       0.08333333       0.08333333 </v>
   <v>       0.25000000       0.08333333       0.08333333 </v>
   <v>       0.41666667       0.08333333       0.08333333 </v>
   <v>       0.25000000       0.25000000       0.08333333 </v>
   <v>       0.41666667       0.25000000       0.08333333 </v>
   <v>       0.41666667       0.41666667       0.08333333 </v>
   <v>       0.25000000       0.25000000       0.25000000 </v>
   <v>       0.41666667       0.25000000       0.25000000 </v>
   <v>       0.41666667       0.41666667       0.25000000 </v>
   <v>       0.41666667       0.41666667       0.41666667 </v>
  </varray>
  <varray name="weights" >
   <v>       0.03703704 </v>
   <v>       0.11111111 </v>
   <v>       0.11111111 </v>
   <v>       0.11111111 </v>
   <v>       0.22222222 </v>
   <v>       0.11111111 </v>
   <v>       0.03703704 </v>
   <v>       0.11111111 </v>
   <v>       0.11111111 </v>
   <v>       0.03703704 </v>
  </varray>
 </kpoints>
 <parameters>
  <separator name="general" >
   <i type="string" name="SYSTEM">Au, FCC</i>
   <i type="logical" name="LCOMPAT"> F  </i>
  </separator>
  <separator name="electronic" >
   <i type="string" name="PREC">normal</i>
   <i name="ENMAX">    350.00000000</i>
   <i name="ENAUG">    356.67000000</i>
   <i name="EDIFF">      0.00010000</i>
   <i type="int" name="IALGO">    68</i>
   <i type="int" name="IWAVPR">    11</i>
   <i type="int" name="NBANDS">    26</i>
   <i name="NELECT">     44.00000000</i>
   <separator name="electronic smearing" >
    <i type="int" name="ISMEAR">     0</i>
    <i name="SIGMA">      0.10000000</i>
   </separator>
   <separator name="electronic projectors" >
    <i type="logical" name="LREAL"> F  </i>
    <v name="ROPT">      0.00000000</v>
    <i type="int" name="LMAXPAW">  -100</i>
    <i type="int" name="LMAXMIX">     2</i>
   </separator>
   <separator name="electronic startup" >
    <i type="int" name="ISTART">     0</i>
    <i type="int" name="ICHARG">     2</i>
    <i type="int" name="INIWAV">     1</i>
   </separator>
   <separator name="electronic spin" >
    <i type="int" name="ISPIN">     1</i>
    <i type="logical" name="LNONCOLLINEAR"> F  </i>
    <v name="MAGMOM">      1.00000000      1.00000000      1.00000000      1.00000000</v>
    <i name="NUPDOWN">     -1.00000000</i>
    <i type="logical" name="LSORBIT"> F  </i>
    <v name="SAXIS">      0.00000000      0.00000000      1.00000000</v>
    <i type="logical" name="LSPIRAL"> F  </i>
    <v name="QSPIRAL">      0.00000000      0.00000000      0.00000000</v>
    <i type="logical" name="LZEROZ"> F  </i>
   </separator>
   <separator name="electronic exchange-correlation" >
    <i type="logical" name="LASPH"> F  </i>
    <i type="logical" name="LMETAGGA"> F  </i>
   </separator>
   <separator name="electronic convergence" >
    <i type="int" name="NELM">    60</i>
    <i type="int" name="NELMDL">    -5</i>
    <i type="int" name="NELMIN">     2</i>
    <i name="ENINI">    350.00000000</i>
    <separator name="electronic convergence detail" >
     <i type="logical" name="LDIAG"> T  </i>
     <i name="WEIMIN">      0.00100000</i>
     <i name="EBREAK">      0.00000096</i>
     <i name="DEPER">      0.30000000</i>
     <i type="int" name="NRMM">     4</i>
     <i name="TIME">      0.40000000</i>
    </separator>
   </separator>
   <separator name="electronic mixer" >
    <i name="AMIX">      0.40000000</i>
    <i name="BMIX">      1.00000000</i>
    <i name="AMIN">      0.10000000</i>
    <i name="AMIX_MAG">      1.60000000</i>
    <i name="BMIX_MAG">      1.00000000</i>
    <separator name="electronic mixer details" >
     <i type="int" name="IMIX">     4</i>
     <i type="int" name="MAXMIX">   -45</i>
     <i name="WC">    100.00000000</i>
     <i type="int" name="INIMIX">     1</i>
     <i type="int" name="MIXPRE">     1</i>
     <i type="int" name="MREMOVE">     5</i>
    </separator>
   </separator>
   <separator name="electronic dipolcorrection" >
    <i type="logical" name="LDIPOL"> F  </i>
    <i type="logical" name="LMONO"> F  </i>
    <i type="int" name="IDIPOL">     0</i>
    <i name="EPSILON">      1.00000000</i>
    <v name="DIPOL">   -100.00000000   -100.00000000   -100.00000000</v>
    <i name="EFIELD">      0.00000000</i>
   </separator>
  </separator>
  <separator name="grids" >
   <i type="int" name="NGX">    20</i>
   <i type="int" name="NGY">    20</i>
   <i type="int" name="NGZ">    20</i>
   <i type="int" name="NGXF">    40</i>
   <i type="int" name="NGYF">    40</i>
   <i type="int" name="NGZF">    40</i>
   <i type="logical" name="ADDGRID"> F  </i>
  </separator>
  <separator name="ionic" >
   <i type="int" name="NSW">    80</i>
   <i type="int" name="IBRION">     6</i>
   <i type="int" name="ISIF">     2</i>
   <i name="PSTRESS">      0.00000000</i>
   <i name="EDIFFG">     -0.05000000</i>
   <i type="int" name="NFREE">     2</i>
   <i name="POTIM">      0.35000000</i>
   <i name="SMASS">     -3.00000000</i>
  </separator>
  <separator name="ionic md" >
   <i name="TEBEG">      0.00010000</i>
   <i name="TEEND">      0.00010000</i>
   <i type="int" name="NBLOCK">     1</i>
   <i type="int" name="KBLOCK">    10</i>
   <i type="int" name="NPACO">   256</i>
   <i name="APACO">     16.00000000</i>
  </separator>
  <separator name="symmetry" >
   <i type="int" name="ISYM">     2</i>
   <i name="SYMPREC">      0.00001000</i>
  </separator>
  <separator name="dos" >
   <i type="logical" name="LORBIT"> F  </i>
   <v name="RWIGS">     -1.00000000</v>
   <i type="int" name="NEDOS">   301</i>
   <i name="EMIN">     10.00000000</i>
   <i name="EMAX">    -10.00000000</i>
   <i name="EFERMI">      0.00000000</i>
  </separator>
  <separator name="writing" >
   <i type="int" name="NWRITE">     1</i>
   <i type="logical" name="LWAVE"> F  </i>
   <i type="logical" name="LCHARG"> T  </i>
   <i type="logical" name="LPARD"> F  </i>
   <i type="logical" name="LVTOT"> F  </i>
   <i type="logical" name="LELF"> F  </i>
   <i type="logical" name="LOPTICS"> F  </i>
   <v name="STM">      0.00000000      0.00000000      0.00000000      0.00000000      0.00000000</v>
  </separator>
  <separator name="performance" >
   <i type="int" name="NPAR">     1</i>
   <i type="int" name="NSIM">     4</i>
   <i type="int" name="NBLK">    32</i>
   <i type="logical" name="LPLANE"> T  </i>
   <i type="logical" name="LSCALAPACK"> F  </i>
   <i type="logical" name="LSCAAWARE"> F  </i>
   <i type="logical" name="LSCALU"> F  </i>
   <i type="logical" name="LASYNC"> F  </i>
  </separator>
  <separator name="miscellaneous" >
   <i type="int" name="IDIOT">     3</i>
   <i type="logical" name="LMUSIC"> F  </i>
   <v name="POMASS">    196.96600000</v>
   <i type="logical" name="LCORR"> T  </i>
  </separator>
  <i type="logical" name="LREAL_COMPAT"> F  </i>
  <i type="logical" name="GGA_COMPAT"> T  </i>
  <i type="logical" name="LBERRY"> F  </i>
  <i type="int" name="ICORELEVEL">     0</i>
  <i type="logical" name="LDAU"> F  </i>
  <i type="int" name="I_CONSTRAINED_M">     0</i>
  <separator name="electronic exchange-correlation" >
   <i type="string" name="GGA">--</i>
   <i type="int" name="VOSKOWN">     0</i>
   <i type="logical" name="LHFCALC"> F  </i>
   <i type="logical" name="LHFONE"> F  </i>
   <i type="logical" name="LRHFCALC"> F  </i>
   <i type="logical" name="LTHOMAS"> F  </i>
   <i type="logical" name="LMODELHF"> F  </i>
   <i name="ENCUTFOCK">      0.00000000</i>
   <i name="ENCUT4O">     -1.00000000</i>
   <i type="int" name="EXXOEP">     0</i>
   <i type="int" name="FOURORBIT">     0</i>
   <i name="AEXX">      0.00000000</i>
   <i name="HFALPHA">      0.00000000</i>
   <i name="ALDAX">      1.00000000</i>
   <i name="AGGAX">      1.00000000</i>
   <i name="ALDAC">      1.00000000</i>
   <i name="AGGAC">      1.00000000</i>
   <i type="int" name="NKREDX">     1</i>
   <i type="int" name="NKREDY">     1</i>
   <i type="int" name="NKREDZ">     1</i>
   <i type="logical" name="SHIFTRED"> F  </i>
   <i type="logical" name="ODDONLY"> F  </i>
   <i type="logical" name="EVENONLY"> F  </i>
   <i type="int" name="LMAXFOCK">     0</i>
   <i type="int" name="NMAXFOCKAE">     0</i>
   <i name="HFSCREEN">      0.00000000</i>
   <i name="HFSCREENC">      0.00000000</i>
  </separator>
  <separator name="model GW" >
   <i type="int" name="MODEL_GW">     0</i>
   <i name="MODEL_EPS0">     10.92377457</i>
   <i name="MODEL_ALPHA">      1.00000000</i>
  </separator>
  <separator name="linear response parameters" >
   <i type="logical" name="LEPSILON"> F  </i>
   <i type="logical" name="LRPA"> F  </i>
   <i type="logical" name="LNABLA"> F  </i>
   <i type="logical" name="LVEL"> F  </i>
   <i type="int" name="KINTER">     0</i>
   <i name="CSHIFT">      0.10000000</i>
   <i name="OMEGAMAX">     -1.00000000</i>
  </separator>
  <separator name="orbital magnetization" >
   <i type="logical" name="ORBITALMAG"> F  </i>
   <i type="logical" name="LMAGBLOCH"> F  </i>
   <i type="logical" name="LCHIMAG"> F  </i>
   <i type="logical" name="LGAUGE"> T  </i>
   <i type="int" name="MAGATOM">     0</i>
   <v name="MAGDIPOL">      0.00000000      0.00000000      0.00000000</v>
   <v name="AVECCONST">      0.00000000      0.00000000      0.00000000</v>
  </separator>
  <separator name="response functions" >
   <i type="logical" name="LRPA"> T  </i>
   <i type="logical" name="LTCTE"> F  </i>
   <i type="logical" name="LTETE"> F  </i>
   <i type="logical" name="L2ORDER"> F  </i>
   <i type="logical" name="LGWLF"> F  </i>
   <i name="ENCUTGW">    233.33333333</i>
   <i name="ENCUTGWSOFT">     -2.00000000</i>
   <i name="ENCUTLF">     -1.00000000</i>
   <i type="int" name="LMAXMP2">    -1</i>
   <i name="SCISSOR">      0.00000000</i>
   <i type="int" name="NOMEGA">     0</i>
   <i type="int" name="NOMEGAR">     0</i>
   <i type="int" name="NBANDSGW">    -1</i>
   <i type="int" name="NBANDSLF">    -1</i>
   <i type="int" name="NELM">     1</i>
   <i type="int" name="DIM">     3</i>
   <i type="int" name="ANTIRES">     0</i>
   <i type="logical" name="LUSEW"> F  </i>
   <i name="OMEGAMAX">    -30.00000000</i>
   <i name="OMEGATL">   -200.00000000</i>
   <i type="int" name="OMEGAGRID">     0</i>
   <i name="CSHIFT">     -0.10000000</i>
   <i type="logical" name="SELFENERGY"> F  </i>
   <i type="logical" name="LSPECTRAL"> F  </i>
   <i type="logical" name="ODDONLYGW"> F  </i>
   <i type="logical" name="EVENONLYGW"> F  </i>
   <i type="int" name="NKREDLFX">     1</i>
   <i type="int" name="NKREDLFY">     1</i>
   <i type="int" name="NKREDLFZ">     1</i>
   <i type="int" name="MAXMEM">  1024</i>
   <i type="int" name="TELESCOPE">     0</i>
  </separator>
 </parameters>
 <atominfo>
  <atoms>       4 </atoms>
  <types>       1 </types>
  <array name="atoms" >
   <dimension dim="1">ion</dimension>
   <field type="string">element</field>
   <field type="int">atomtype</field>
   <set>
    <rc><c>Au</c><c>   1</c></rc>
    <rc><c>Au</c><c>   1</c></rc>
    <rc><c>Au</c><c>   1</c></rc>
    <rc><c>Au</c><c>   1</c></rc>
   </set>
  </array>
  <array name="atomtypes" >
   <dimension dim="1">type</dimension>
   <field type="int">atomspertype</field>
   <field type="string">element</field>
   <field>mass</field>
   <field>valence</field>
   <field type="string">pseudopotential</field>
   <set>
    <rc><c>   4</c><c>Au</c><c>    196.96600000</c><c>     11.00000000</c><c> PAW_GGA Au 18Jul2000                   </c></rc>
   </set>
  </array>
 </atominfo>
 <structure name="initialpos" >
  <crystal>
   <varray name="basis" >
    <v>       4.17600000       0.00000000       0.00000000 </v>
    <v>       0.00000000       4.17600000       0.00000000 </v>
    <v>       0.00000000       0.00000000       4.17600000 </v>
   </varray>
   <i name="volume">     72.82516378 </i>
   <varray name="rec_basis" >
    <v>       0.23946360       0.00000000       0.00000000 </v>
    <v>       0.00000000       0.23946360       0.00000000 </v>
    <v>       0.00000000       0.00000000       0.23946360 </v>
   </varray>
  </crystal>
  <varray name="positions" >
   <v>       0.00000000       0.00000000       0.00000000 </v>
   <v>       0.50000000       0.50000000       0.00000000 </v>
   <v>       0.50000000       0.00000000       0.50000000 </v>
   <v>       0.00000000       0.50000000       0.50000000 </v>
  </varray>
 </structure>
 <calculation>
  <scstep>
   <time name="dav">    1.35    1.35</time>
   <time name="total">    1.50    1.50</time>
   <energy>
    <i name="alphaZ">    410.59993510 </i>
    <i name="ewald">  -3825.93184368 </i>
    <i name="hartreedc">   -529.55712152 </i>
    <i name="XCdc">     59.97000211 </i>
    <i name="pawpsdc">   2990.61254974 </i>
    <i name="pawaedc">  -2898.25794382 </i>
    <i name="eentropy">     -0.01923079 </i>
    <i name="bandstr">    436.53069051 </i>
    <i name="atom">   3708.31045775 </i>
    <i name="e_fr_energy">    352.25749540 </i>
    <i name="e_wo_entrp">    352.27672618 </i>
    <i name="e_0_energy">    352.26711079 </i>
   </energy>
  </scstep>
  <scstep>
   <time name="dav">    1.39    1.39</time>
   <time name="total">    1.39    1.39</time>
   <energy>
    <i name="e_fr_energy">      2.48470278 </i>
    <i name="e_wo_entrp">      2.49533917 </i>
    <i name="e_0_energy">      2.49002098 </i>
   </energy>
  </scstep>
  <scstep>
   <time name="dav">    1.54    1.54</time>
   <time name="total">    1.54    1.54</time>
   <energy>
    <i name="e_fr_energy">    -13.45617688 </i>
    <i name="e_wo_entrp">    -13.43457017 </i>
    <i name="e_0_energy">    -13.44537352 </i>
   </energy>
  </scstep>
  <scstep>
   <time name="dav">    1.43    1.43</time>
   <time name="total">    1.44    1.44</time>
   <energy>
    <i name="e_fr_energy">    -13.76240919 </i>
    <i name="e_wo_entrp">    -13.74070468 </i>
    <i name="e_0_energy">    -13.75155694 </i>
   </energy>
  </scstep>
  <scstep>
   <time name="dav">    1.44    1.44</time>
   <time name="total">    1.58    1.59</time>
   <energy>
    <i name="e_fr_energy">    -13.76727559 </i>
    <i name="e_wo_entrp">    -13.74556880 </i>
    <i name="e_0_energy">    -13.75642220 </i>
   </energy>
  </scstep>
  <scstep>
   <time name="diag">    0.27    0.27</time>
   <time name="diis">    0.99    0.99</time>
   <time name="orth">    0.03    0.03</time>
   <time name="total">    1.57    1.58</time>
   <energy>
    <i name="e_fr_energy">    -12.82613911 </i>
    <i name="e_wo_entrp">    -12.81628744 </i>
    <i name="e_0_energy">    -12.82121328 </i>
   </energy>
  </scstep>
  <scstep>
   <time name="diag">    0.27    0.27</time>
   <time name="diis">    0.99    0.99</time>
   <time name="orth">    0.03    0.03</time>
   <time name="total">    1.57    1.58</time>
   <energy>
    <i name="e_fr_energy">    -12.77459474 </i>
    <i name="e_wo_entrp">    -12.76855654 </i>
    <i name="e_0_energy">    -12.77157564 </i>
   </energy>
  </scstep>
  <scstep>
   <time name="diag">    0.27    0.27</time>
   <time name="diis">    0.99    0.99</time>
   <time name="orth">    0.03    0.03</time>
   <time name="total">    1.57    1.57</time>
   <energy>
    <i name="e_fr_energy">    -12.76260932 </i>
    <i name="e_wo_entrp">    -12.75612590 </i>
    <i name="e_0_energy">    -12.75936761 </i>
   </energy>
  </scstep>
  <scstep>
   <time name="diag">    0.27    0.27</time>
   <time name="diis">    0.97    0.98</time>
   <time name="orth">    0.03    0.03</time>
   <time name="total">    1.55    1.56</time>
   <energy>
    <i name="e_fr_energy">    -12.76251493 </i>
    <i name="e_wo_entrp">    -12.75631364 </i>
    <i name="e_0_energy">    -12.75941429 </i>
   </energy>
  </scstep>
  <scstep>
   <time name="diag">    0.27    0.27</time>
   <time name="diis">    0.57    0.57</time>
   <time name="orth">    0.03    0.03</time>
   <time name="total">    1.01    1.01</time>
   <energy>
    <i name="alphaZ">    410.59993510 </i>
    <i name="ewald">  -3825.93184368 </i>
    <i name="hartreedc">   -487.25535205 </i>
    <i name="XCdc">     57.99384906 </i>
    <i name="pawpsdc">   2993.68098170 </i>
    <i name="pawaedc">  -2910.82270695 </i>
    <i name="eentropy">     -0.00621739 </i>
    <i name="bandstr">     40.66838103 </i>
    <i name="atom">   3708.31045775 </i>
    <i name="e_fr_energy">    -12.76251543 </i>
    <i name="e_wo_entrp">    -12.75629805 </i>
    <i name="e_0_energy">    -12.75940674 </i>
   </energy>
  </scstep>
  <structure>
   <crystal>
    <varray name="basis" >
     <v>       4.17600000       0.00000000       0.00000000 </v>
     <v>       0.00000000       4.17600000       0.00000000 </v>
     <v>       0.00000000       0.00000000       4.17600000 </v>
    </varray>
    <i name="volume">     72.82516378 </i>
    <varray name="rec_basis" >
     <v>       0.23946360       0.00000000       0.00000000 </v>
     <v>       0.00000000       0.23946360       0.00000000 </v>
     <v>       0.00000000       0.00000000       0.23946360 </v>
    </varray>
   </crystal>
   <varray name="positions" >
    <v>       0.00000000       0.00000000       0.00000000 </v>
    <v>       0.50000000       0.50000000       0.00000000 </v>
    <v>       0.50000000       0.00000000       0.50000000 </v>
    <v>       0.00000000       0.50000000       0.50000000 </v>
   </varray>
  </structure>
  <varray name="forces" >
   <v>       0.00000000       0.00000000       0.00000000 </v>
   <v>       0.00000000       0.00000000       0.00000000 </v>
   <v>       0.00000000       0.00000000       0.00000000 </v>
   <v>       0.00000000       0.00000000       0.00000000 </v>
  </varray>
  <varray name="stress" >
   <v>       0.60068276       0.00000000       0.00000000 </v>
   <v>       0.00000000       0.60068276       0.00000000 </v>
   <v>       0.00000000       0.00000000       0.60068276 </v>
  </varray>
  <energy>
   <i name="e_fr_energy">    -12.76251543 </i>
   <i name="e_wo_entrp">    -12.75940674 </i>
   <i name="e_0_energy">     -0.00621739 </i>
  </energy>
  <kpoints>
   <generation param="Monkhorst-Pack">
    <v type="int" name="divisions">       6        6        6 </v>
    <v name="usershift">      0.00000000       0.00000000       0.00000000 </v>
    <v name="genvec1">      0.16666667       0.00000000       0.00000000 </v>
    <v name="genvec2">      0.00000000       0.16666667       0.00000000 </v>
    <v name="genvec3">      0.00000000       0.00000000       0.16666667 </v>
    <v name="shift">      0.50000000       0.50000000       0.50000000 </v>
   </generation>
   <varray name="kpointlist" >
    <v>       0.08333333       0.08333333       0.08333333 </v>
    <v>       0.25000000       0.08333333       0.08333333 </v>
    <v>       0.41666667       0.08333333       0.08333333 </v>
    <v>       0.08333333       0.25000000       0.08333333 </v>
    <v>       0.25000000       0.25000000       0.08333333 </v>
    <v>       0.41666667       0.25000000       0.08333333 </v>
    <v>       0.08333333       0.41666667       0.08333333 </v>
    <v>       0.25000000       0.41666667       0.08333333 </v>
    <v>       0.41666667       0.41666667       0.08333333 </v>
    <v>       0.08333333       0.25000000       0.25000000 </v>
    <v>       0.25000000       0.25000000       0.25000000 </v>
    <v>       0.41666667       0.25000000       0.25000000 </v>
    <v>       0.08333333       0.41666667       0.25000000 </v>
    <v>       0.25000000       0.41666667       0.25000000 </v>
    <v>       0.41666667       0.41666667       0.25000000 </v>
    <v>       0.08333333       0.41666667       0.41666667 </v>
    <v>       0.25000000       0.41666667       0.41666667 </v>
    <v>       0.41666667       0.41666667       0.41666667 </v>
   </varray>
   <varray name="weights" >
    <v>       0.03703704 </v>
    <v>       0.03703704 </v>
    <v>       0.03703704 </v>
    <v>       0.07407407 </v>
    <v>       0.07407407 </v>
    <v>       0.07407407 </v>
    <v>       0.07407407 </v>
    <v>       0.07407407 </v>
    <v>       0.07407407 </v>
    <v>       0.03703704 </v>
    <v>       0.03703704 </v>
    <v>       0.03703704 </v>
    <v>       0.07407407 </v>
    <v>       0.07407407 </v>
    <v>       0.07407407 </v>
    <v>       0.03703704 </v>
    <v>       0.03703704 </v>
    <v>       0.03703704 </v>
   </varray>
  </kpoints>
  <time name="totalsc">   16.76   16.81</time>
 </calculation>
 <calculation>
  <scstep>
   <time name="dav">    2.43    2.43</time>
   <time name="total">    2.80    2.80</time>
   <energy>
    <i name="alphaZ">    410.59993510 </i>
    <i name="ewald">  -3825.89802064 </i>
    <i name="hartreedc">   -487.37173347 </i>
    <i name="XCdc">     57.99785068 </i>
    <i name="pawpsdc">   2993.86433335 </i>
    <i name="pawaedc">  -2911.01019195 </i>
    <i name="eentropy">     -0.00626824 </i>
    <i name="bandstr">     40.75249474 </i>
    <i name="atom">   3708.31045775 </i>
    <i name="e_fr_energy">    -12.76114267 </i>
    <i name="e_wo_entrp">    -12.75487444 </i>
    <i name="e_0_energy">    -12.75800855 </i>
   </energy>
  </scstep>
  <scstep>
   <time name="diag">    0.48    0.48</time>
   <time name="diis">    1.75    1.75</time>
   <time name="orth">    0.04    0.05</time>
   <time name="total">    2.64    2.65</time>
   <energy>
    <i name="e_fr_energy">    -12.76199852 </i>
    <i name="e_wo_entrp">    -12.75573766 </i>
    <i name="e_0_energy">    -12.75886809 </i>
   </energy>
  </scstep>
  <scstep>
   <time name="diag">    0.48    0.48</time>
   <time name="diis">    1.04    1.04</time>
   <time name="orth">    0.05    0.05</time>
   <time name="total">    1.72    1.73</time>
   <energy>
    <i name="alphaZ">    410.59993510 </i>
    <i name="ewald">  -3825.89802064 </i>
    <i name="hartreedc">   -487.36104377 </i>
    <i name="XCdc">     57.99739479 </i>
    <i name="pawpsdc">   2993.78518881 </i>
    <i name="pawaedc">  -2910.92946491 </i>
    <i name="eentropy">     -0.00626136 </i>
    <i name="bandstr">     40.73981573 </i>
    <i name="atom">   3708.31045775 </i>
    <i name="e_fr_energy">    -12.76199850 </i>
    <i name="e_wo_entrp">    -12.75573713 </i>
    <i name="e_0_energy">    -12.75886781 </i>
   </energy>
  </scstep>
  <structure>
   <crystal>
    <varray name="basis" >
     <v>       4.17600000       0.00000000       0.00000000 </v>
     <v>       0.00000000       4.17600000       0.00000000 </v>
     <v>       0.00000000       0.00000000       4.17600000 </v>
    </varray>
    <i name="volume">     72.82516378 </i>
    <varray name="rec_basis" >
     <v>       0.23946360       0.00000000       0.00000000 </v>
     <v>       0.00000000       0.23946360       0.00000000 </v>
     <v>       0.00000000       0.00000000       0.23946360 </v>
    </varray>
   </crystal>
   <varray name="positions" >
    <v>       0.00359195       0.00000000       0.00000000 </v>
    <v>       0.50000000       0.50000000       0.00000000 </v>
    <v>       0.50000000       0.00000000       0.50000000 </v>
    <v>       0.00000000       0.50000000       0.50000000 </v>
   </varray>
  </structure>
  <varray name="forces" >
   <v>      -0.10081814       0.00000000       0.00000000 </v>
   <v>       0.05499168       0.00000000       0.00000000 </v>
   <v>       0.05499168       0.00000000       0.00000000 </v>
   <v>      -0.00916521       0.00000000       0.00000000 </v>
  </varray>
  <varray name="stress" >
   <v>      -2.54706343       0.00000000       0.00000000 </v>
   <v>       0.00000000      -2.62721936       0.00000000 </v>
   <v>       0.00000000       0.00000000      -2.62721936 </v>
  </varray>
  <energy>
   <i name="e_fr_energy">    -12.76199850 </i>
   <i name="e_wo_entrp">    -12.75886781 </i>
   <i name="e_0_energy">     -0.00626136 </i>
  </energy>
  <kpoints>
   <generation param="Monkhorst-Pack">
    <v type="int" name="divisions">       6        6        6 </v>
    <v name="usershift">      0.00000000       0.00000000       0.00000000 </v>
    <v name="genvec1">      0.16666667       0.00000000       0.00000000 </v>
    <v name="genvec2">      0.00000000       0.16666667       0.00000000 </v>
    <v name="genvec3">      0.00000000       0.00000000       0.16666667 </v>
    <v name="shift">      0.50000000       0.50000000       0.50000000 </v>
   </generation>
   <varray name="kpointlist" >
    <v>       0.08333333       0.08333333       0.08333333 </v>
    <v>       0.25000000       0.08333333       0.08333333 </v>
    <v>       0.41666667       0.08333333       0.08333333 </v>
    <v>       0.08333333       0.25000000       0.08333333 </v>
    <v>       0.25000000       0.25000000       0.08333333 </v>
    <v>       0.41666667       0.25000000       0.08333333 </v>
    <v>       0.08333333       0.41666667       0.08333333 </v>
    <v>       0.25000000       0.41666667       0.08333333 </v>
    <v>       0.41666667       0.41666667       0.08333333 </v>
    <v>       0.08333333       0.25000000       0.25000000 </v>
    <v>       0.25000000       0.25000000       0.25000000 </v>
    <v>       0.41666667       0.25000000       0.25000000 </v>
    <v>       0.08333333       0.41666667       0.25000000 </v>
    <v>       0.25000000       0.41666667       0.25000000 </v>
    <v>       0.41666667       0.41666667       0.25000000 </v>
    <v>       0.08333333       0.41666667       0.41666667 </v>
    <v>       0.25000000       0.41666667       0.41666667 </v>
    <v>       0.41666667       0.41666667       0.41666667 </v>
   </varray>
   <varray name="weights" >
    <v>       0.03703704 </v>
    <v>       0.03703704 </v>
    <v>       0.03703704 </v>
    <v>       0.07407407 </v>
    <v>       0.07407407 </v>
    <v>       0.07407407 </v>
    <v>       0.07407407 </v>
    <v>       0.07407407 </v>
    <v>       0.07407407 </v>
    <v>       0.03703704 </v>
    <v>       0.03703704 </v>
    <v>       0.03703704 </v>
    <v>       0.07407407 </v>
    <v>       0.07407407 </v>
    <v>       0.07407407 </v>
    <v>       0.03703704 </v>
    <v>       0.03703704 </v>
    <v>       0.03703704 </v>
   </varray>
  </kpoints>
  <time name="totalsc">    9.89    9.93</time>
 </calculation>
 <calculation>
  <scstep>
   <time name="dav">    2.42    2.42</time>
   <time name="total">    2.78    2.79</time>
   <energy>
    <i name="alphaZ">    410.59993510 </i>
    <i name="ewald">  -3825.89802064 </i>
    <i name="hartreedc">   -487.37000376 </i>
    <i name="XCdc">     57.99780096 </i>
    <i name="pawpsdc">   2993.78677636 </i>
    <i name="pawaedc">  -2910.93090894 </i>
    <i name="eentropy">     -0.00626709 </i>
    <i name="bandstr">     40.75087418 </i>
    <i name="atom">   3708.31045775 </i>
    <i name="e_fr_energy">    -12.75935607 </i>
    <i name="e_wo_entrp">    -12.75308899 </i>
    <i name="e_0_energy">    -12.75622253 </i>
   </energy>
  </scstep>
  <scstep>
   <time name="diag">    0.48    0.48</time>
   <time name="diis">    1.75    1.75</time>
   <time name="orth">    0.05    0.05</time>
   <time name="total">    2.65    2.65</time>
   <energy>
    <i name="e_fr_energy">    -12.76205494 </i>
    <i name="e_wo_entrp">    -12.75582250 </i>
    <i name="e_0_energy">    -12.75893872 </i>
   </energy>
  </scstep>
  <scstep>
   <time name="diag">    0.48    0.48</time>
   <time name="diis">    1.50    1.50</time>
   <time name="orth">    0.05    0.05</time>
   <time name="total">    2.18    2.18</time>
   <energy>
    <i name="alphaZ">    410.59993510 </i>
    <i name="ewald">  -3825.89802064 </i>
    <i name="hartreedc">   -487.32549712 </i>
    <i name="XCdc">     57.99588585 </i>
    <i name="pawpsdc">   2993.71768993 </i>
    <i name="pawaedc">  -2910.85942454 </i>
    <i name="eentropy">     -0.00624018 </i>
    <i name="bandstr">     40.70315050 </i>
    <i name="atom">   3708.31045775 </i>
    <i name="e_fr_energy">    -12.76206335 </i>
    <i name="e_wo_entrp">    -12.75582317 </i>
    <i name="e_0_energy">    -12.75894326 </i>
   </energy>
  </scstep>
  <structure>
   <crystal>
    <varray name="basis" >
     <v>       4.17600000       0.00000000       0.00000000 </v>
     <v>       0.00000000       4.17600000       0.00000000 </v>
     <v>       0.00000000       0.00000000       4.17600000 </v>
    </varray>
    <i name="volume">     72.82516378 </i>
    <varray name="rec_basis" >
     <v>       0.23946360       0.00000000       0.00000000 </v>
     <v>       0.00000000       0.23946360       0.00000000 </v>
     <v>       0.00000000       0.00000000       0.23946360 </v>
    </varray>
   </crystal>
   <varray name="positions" >
    <v>      -0.00359195       0.00000000       0.00000000 </v>
    <v>       0.50000000       0.50000000       0.00000000 </v>
    <v>       0.50000000       0.00000000       0.50000000 </v>
    <v>       0.00000000       0.50000000       0.50000000 </v>
   </varray>
  </structure>
  <varray name="forces" >
   <v>       0.09982786       0.00000000       0.00000000 </v>
   <v>      -0.05496557       0.00000000       0.00000000 </v>
   <v>      -0.05496557       0.00000000       0.00000000 </v>
   <v>       0.01010327       0.00000000       0.00000000 </v>
  </varray>
  <varray name="stress" >
   <v>      -1.26322007       0.00000000       0.00000000 </v>
   <v>       0.00000000      -1.19636924       0.00000000 </v>
   <v>       0.00000000       0.00000000      -1.19636924 </v>
  </varray>
  <energy>
   <i name="e_fr_energy">    -12.76206335 </i>
   <i name="e_wo_entrp">    -12.75894326 </i>
   <i name="e_0_energy">     -0.00624018 </i>
  </energy>
  <dynmat>
   <varray name="hessian" >
    <v>      -0.03395612       0.00000000       0.00000000       0.01860850       0.00000000       0.00000000       0.01860850       0.00000000       0.00000000      -0.00326088       0.00000000       0.00000000 </v>
    <v>       0.00000000      -0.03395612       0.00000000       0.00000000       0.01860850       0.00000000       0.00000000      -0.00326088       0.00000000       0.00000000       0.01860850       0.00000000 </v>
    <v>       0.00000000       0.00000000      -0.03395612       0.00000000       0.00000000      -0.00326088       0.00000000       0.00000000       0.01860850       0.00000000       0.00000000       0.01860850 </v>
    <v>       0.01860850       0.00000000       0.00000000      -0.03395612       0.00000000       0.00000000      -0.00326088       0.00000000       0.00000000       0.01860850       0.00000000       0.00000000 </v>
    <v>       0.00000000       0.01860850       0.00000000       0.00000000      -0.03395612       0.00000000       0.00000000       0.01860850       0.00000000       0.00000000      -0.00326088       0.00000000 </v>
    <v>       0.00000000       0.00000000      -0.00326088       0.00000000       0.00000000      -0.03395612       0.00000000       0.00000000       0.01860850       0.00000000       0.00000000       0.01860850 </v>
    <v>       0.01860850       0.00000000       0.00000000      -0.00326088       0.00000000       0.00000000      -0.03395612       0.00000000       0.00000000       0.01860850       0.00000000       0.00000000 </v>
    <v>       0.00000000      -0.00326088       0.00000000       0.00000000       0.01860850       0.00000000       0.00000000      -0.03395612       0.00000000       0.00000000       0.01860850       0.00000000 </v>
    <v>       0.00000000       0.00000000       0.01860850       0.00000000       0.00000000       0.01860850       0.00000000       0.00000000      -0.03395612       0.00000000       0.00000000      -0.00326088 </v>
    <v>      -0.00326088       0.00000000       0.00000000       0.01860850       0.00000000       0.00000000       0.01860850       0.00000000       0.00000000      -0.03395612       0.00000000       0.00000000 </v>
    <v>       0.00000000       0.01860850       0.00000000       0.00000000      -0.00326088       0.00000000       0.00000000       0.01860850       0.00000000       0.00000000      -0.03395612       0.00000000 </v>
    <v>       0.00000000       0.00000000       0.01860850       0.00000000       0.00000000       0.01860850       0.00000000       0.00000000      -0.00326088       0.00000000       0.00000000      -0.03395612 </v>
   </varray>
   <v name="eigenvalues"> -7.44339958E-02 -7.44339958E-02 -7.44339958E-02 -3.06952330E-02 -3.06952330E-02 -3.06952330E-02 -3.06952330E-02 -3.06952330E-02 -3.06952330E-02  2.76612497E-17  3.18284221E-17  5.22373621E-17</v>
   <varray name="eigenvectors" >
    <v>  -4.86403565E-01  1.15808343E-01 -1.22852398E-16  4.86403565E-01 -1.15808343E-01  2.10214510E-16  4.86403565E-01  1.15808343E-01  1.59254805E-17 -4.86403565E-01 -1.15808343E-01 -1.18300951E-17</v>
    <v>  -2.51468217E-17 -2.00895203E-16  5.00000000E-01  3.10246801E-17  1.40025787E-16  5.00000000E-01  3.10246801E-17 -2.00895203E-16 -5.00000000E-01 -8.13183234E-17  3.81778645E-16 -5.00000000E-01</v>
    <v>   1.15808343E-01  4.86403565E-01  2.39960554E-16 -1.15808343E-01 -4.86403565E-01  1.56693828E-16 -1.15808343E-01  4.86403565E-01 -1.20861929E-16  1.15808343E-01 -4.86403565E-01 -2.31884231E-16</v>
    <v>   1.71709442E-01 -1.81305952E-01  1.96340274E-01  1.84840054E-01  5.90660519E-01 -1.96340274E-01 -1.84840054E-01  1.81305952E-01 -1.26683945E-01 -1.71709442E-01 -5.90660519E-01  1.26683945E-01</v>
    <v>   1.39044851E-01  2.04045609E-02 -3.30128441E-01 -5.55876086E-01  2.49533910E-01  3.30128441E-01  5.55876086E-01 -2.04045609E-02 -1.70002901E-16 -1.39044851E-01 -2.49533910E-01  0.00000000E+00</v>
    <v>   6.30811633E-01 -1.43662747E-01 -4.64067569E-02  6.58873618E-02 -2.54373106E-01  4.64067569E-02 -6.58873618E-02  1.43662747E-01 -1.01179495E-01 -6.30811633E-01  2.54373106E-01  1.01179495E-01</v>
    <v>  -1.02597116E-01  1.49812360E-01 -1.52806325E-01  5.57591937E-02 -3.30286419E-02  1.52806325E-01 -5.57591937E-02 -1.49812360E-01 -6.62933131E-01  1.02597116E-01  3.30286419E-02  6.62933131E-01</v>
    <v>   1.77085993E-01  5.35721203E-01  3.94746013E-01 -1.57675973E-01  2.85112829E-02 -3.94746013E-01  1.57675973E-01 -5.35721203E-01 -1.20134525E-02 -1.77085993E-01 -2.85112829E-02  1.20134525E-02</v>
    <v>  -1.06646440E-01 -3.69637484E-01  4.13688209E-01 -3.52879564E-01 -1.49142608E-01 -4.13688209E-01  3.52879564E-01  3.69637484E-01 -1.84632685E-01  1.06646440E-01  1.49142608E-01  1.84632685E-01</v>
    <v>  -4.82481565E-02 -1.27059283E-01 -4.81173621E-01 -4.82481565E-02 -1.27059283E-01 -4.81173621E-01 -4.82481565E-02 -1.27059283E-01 -4.81173621E-01 -4.82481565E-02 -1.27059283E-01 -4.81173621E-01</v>
    <v>   4.48012782E-01 -2.21584945E-01  1.35889277E-02  4.48012782E-01 -2.21584945E-01  1.35889277E-02  4.48012782E-01 -2.21584945E-01  1.35889277E-02  4.48012782E-01 -2.21584945E-01  1.35889277E-02</v>
    <v>  -2.16694860E-01 -4.29832584E-01  1.35230496E-01 -2.16694860E-01 -4.29832584E-01  1.35230496E-01 -2.16694860E-01 -4.29832584E-01  1.35230496E-01 -2.16694860E-01 -4.29832584E-01  1.35230496E-01</v>
   </varray>
  </dynmat>
  <kpoints>
   <generation param="Monkhorst-Pack">
    <v type="int" name="divisions">       6        6        6 </v>
    <v name="usershift">      0.00000000       0.00000000       0.00000000 </v>
    <v name="genvec1">      0.16666667       0.00000000       0.00000000 </v>
    <v name="genvec2">      0.00000000       0.16666667       0.00000000 </v>
    <v name="genvec3">      0.00000000       0.00000000       0.16666667 </v>
    <v name="shift">      0.50000000       0.50000000       0.50000000 </v>
   </generation>
   <varray name="kpointlist" >
    <v>       0.08333333       0.08333333       0.08333333 </v>
    <v>       0.25000000       0.08333333       0.08333333 </v>
    <v>       0.41666667       0.08333333       0.08333333 </v>
    <v>       0.25000000       0.25000000       0.08333333 </v>
    <v>       0.41666667       0.25000000       0.08333333 </v>
    <v>       0.41666667       0.41666667       0.08333333 </v>
    <v>       0.25000000       0.25000000       0.25000000 </v>
    <v>       0.41666667       0.25000000       0.25000000 </v>
    <v>       0.41666667       0.41666667       0.25000000 </v>
    <v>       0.41666667       0.41666667       0.41666667 </v>
   </varray>
   <varray name="weights" >
    <v>       0.03703704 </v>
    <v>       0.11111111 </v>
    <v>       0.11111111 </v>
    <v>       0.11111111 </v>
    <v>       0.22222222 </v>
    <v>       0.11111111 </v>
    <v>       0.03703704 </v>
    <v>       0.11111111 </v>
    <v>       0.11111111 </v>
    <v>       0.03703704 </v>
   </varray>
  </kpoints>
  <time name="totalsc">   10.26   10.31</time>
  <eigenvalues>
   <array>
    <dimension dim="1">band</dimension>
    <dimension dim="2">kpoint</dimension>
    <dimension dim="3">spin</dimension>
    <field>eigene</field>
    <field>occ</field>
    <set>
     <set comment="spin 1">
      <set comment="kpoint 1">
       <r>   -4.0482    1.0000 </r>
       <r>   -1.4927    1.0000 </r>
       <r>   -1.4924    1.0000 </r>
       <r>   -1.4915    1.0000 </r>
       <r>   -1.2270    1.0000 </r>
       <r>   -1.2247    1.0000 </r>
       <r>   -1.2224    1.0000 </r>
       <r>    0.4387    1.0000 </r>
       <r>    0.5770    1.0000 </r>
       <r>    0.5774    1.0000 </r>
       <r>    1.8268    1.0000 </r>
       <r>    1.8272    1.0000 </r>
       <r>    2.7044    1.0000 </r>
       <r>    2.7144    1.0000 </r>
       <r>    2.7148    1.0000 </r>
       <r>    2.7305    1.0000 </r>
       <r>    2.7332    1.0000 </r>
       <r>    2.7399    1.0000 </r>
       <r>    3.1352    1.0000 </r>
       <r>    3.1353    1.0000 </r>
       <r>    3.1372    1.0000 </r>
       <r>    6.0661    0.0000 </r>
       <r>    6.0728    0.0000 </r>
       <r>    6.0796    0.0000 </r>
       <r>   10.7658    0.0000 </r>
       <r>   10.7684    0.0000 </r>
      </set>
      <set comment="kpoint 2">
       <r>   -3.4659    1.0000 </r>
       <r>   -1.3427    1.0000 </r>
       <r>   -1.1700    1.0000 </r>
       <r>   -1.1695    1.0000 </r>
       <r>   -1.0212    1.0000 </r>
       <r>   -0.8731    1.0000 </r>
       <r>   -0.8729    1.0000 </r>
       <r>    0.2063    1.0000 </r>
       <r>    0.7915    1.0000 </r>
       <r>    0.7982    1.0000 </r>
       <r>    1.5817    1.0000 </r>
       <r>    1.6383    1.0000 </r>
       <r>    1.6384    1.0000 </r>
       <r>    1.9847    1.0000 </r>
       <r>    2.0082    1.0000 </r>
       <r>    2.3677    1.0000 </r>
       <r>    2.3892    1.0000 </r>
       <r>    2.3905    1.0000 </r>
       <r>    2.9180    1.0000 </r>
       <r>    3.0955    1.0000 </r>
       <r>    3.0974    1.0000 </r>
       <r>    3.8926    1.0000 </r>
       <r>    7.3832    0.0000 </r>
       <r>    7.3834    0.0000 </r>
       <r>   10.3367    0.0000 </r>
       <r>   10.3375    0.0000 </r>
      </set>
      <set comment="kpoint 3">
       <r>   -2.4285    1.0000 </r>
       <r>   -1.4697    1.0000 </r>
       <r>   -0.6596    1.0000 </r>
       <r>   -0.6590    1.0000 </r>
       <r>   -0.6567    1.0000 </r>
       <r>   -0.2971    1.0000 </r>
       <r>   -0.2968    1.0000 </r>
       <r>   -0.2092    1.0000 </r>
       <r>    0.5478    1.0000 </r>
       <r>    0.5483    1.0000 </r>
       <r>    0.9360    1.0000 </r>
       <r>    1.0690    1.0000 </r>
       <r>    1.2222    1.0000 </r>
       <r>    1.6018    1.0000 </r>
       <r>    1.7906    1.0000 </r>
       <r>    1.8734    1.0000 </r>
       <r>    1.8746    1.0000 </r>
       <r>    2.2654    1.0000 </r>
       <r>    2.4139    1.0000 </r>
       <r>    2.6018    1.0000 </r>
       <r>    3.0804    1.0000 </r>
       <r>    3.0823    1.0000 </r>
       <r>    8.4983    0.0000 </r>
       <r>    8.4988    0.0000 </r>
       <r>   10.1947    0.0000 </r>
       <r>   10.1951    0.0000 </r>
      </set>
      <set comment="kpoint 4">
       <r>   -2.9463    1.0000 </r>
       <r>   -1.0572    1.0000 </r>
       <r>   -1.0294    1.0000 </r>
       <r>   -1.0270    1.0000 </r>
       <r>   -0.6741    1.0000 </r>
       <r>   -0.6673    1.0000 </r>
       <r>   -0.4634    1.0000 </r>
       <r>    0.1824    1.0000 </r>
       <r>    0.8101    1.0000 </r>
       <r>    0.8606    1.0000 </r>
       <r>    0.9929    1.0000 </r>
       <r>    0.9979    1.0000 </r>
       <r>    1.2500    1.0000 </r>
       <r>    1.5879    1.0000 </r>
       <r>    2.0331    1.0000 </r>
       <r>    2.1318    1.0000 </r>
       <r>    2.1537    1.0000 </r>
       <r>    2.1631    1.0000 </r>
       <r>    2.8355    1.0000 </r>
       <r>    2.8452    1.0000 </r>
       <r>    2.8750    1.0000 </r>
       <r>    5.0929    0.0000 </r>
       <r>    5.0943    0.0000 </r>
       <r>    8.1760    0.0000 </r>
       <r>    9.2709    0.0000 </r>
       <r>   12.3093    0.0000 </r>
      </set>
      <set comment="kpoint 5">
       <r>   -2.0345    1.0000 </r>
       <r>   -1.1651    1.0000 </r>
       <r>   -0.6850    1.0000 </r>
       <r>   -0.5130    1.0000 </r>
       <r>   -0.3516    1.0000 </r>
       <r>   -0.2162    1.0000 </r>
       <r>   -0.1181    1.0000 </r>
       <r>   -0.0446    1.0000 </r>
       <r>    0.2435    1.0000 </r>
       <r>    0.4931    1.0000 </r>
       <r>    0.5931    1.0000 </r>
       <r>    0.7000    1.0000 </r>
       <r>    1.1431    1.0000 </r>
       <r>    1.6137    1.0000 </r>
       <r>    1.6984    1.0000 </r>
       <r>    1.7255    1.0000 </r>
       <r>    1.8151    1.0000 </r>
       <r>    2.3575    1.0000 </r>
       <r>    2.6517    1.0000 </r>
       <r>    2.7078    1.0000 </r>
       <r>    2.7192    1.0000 </r>
       <r>    3.4911    1.0000 </r>
       <r>    6.3325    0.0000 </r>
       <r>    7.4871    0.0000 </r>
       <r>    9.8350    0.0000 </r>
       <r>   10.9400    0.0000 </r>
      </set>
      <set comment="kpoint 6">
       <r>   -1.4147    1.0000 </r>
       <r>   -0.8305    1.0000 </r>
       <r>   -0.8191    1.0000 </r>
       <r>   -0.7207    1.0000 </r>
       <r>    0.0878    1.0000 </r>
       <r>    0.1117    1.0000 </r>
       <r>    0.1191    1.0000 </r>
       <r>    0.1322    1.0000 </r>
       <r>    0.2405    1.0000 </r>
       <r>    0.2433    1.0000 </r>
       <r>    0.5897    1.0000 </r>
       <r>    0.5977    1.0000 </r>
       <r>    1.1087    1.0000 </r>
       <r>    1.3857    1.0000 </r>
       <r>    1.4160    1.0000 </r>
       <r>    1.4233    1.0000 </r>
       <r>    1.7222    1.0000 </r>
       <r>    2.1770    1.0000 </r>
       <r>    2.1960    1.0000 </r>
       <r>    2.3249    1.0000 </r>
       <r>    3.4681    1.0000 </r>
       <r>    4.5880    0.9986 </r>
       <r>    4.6006    0.9975 </r>
       <r>    5.8504    0.0000 </r>
       <r>   10.8542    0.0000 </r>
       <r>   12.2510    0.0000 </r>
      </set>
      <set comment="kpoint 7">
       <r>   -2.5719    1.0000 </r>
       <r>   -1.0660    1.0000 </r>
       <r>   -1.0656    1.0000 </r>
       <r>   -1.0646    1.0000 </r>
       <r>   -0.2297    1.0000 </r>
       <r>   -0.2269    1.0000 </r>
       <r>   -0.2231    1.0000 </r>
       <r>    0.4201    1.0000 </r>
       <r>    0.7568    1.0000 </r>
       <r>    0.7577    1.0000 </r>
       <r>    0.8507    1.0000 </r>
       <r>    0.8585    1.0000 </r>
       <r>    0.8657    1.0000 </r>
       <r>    1.5716    1.0000 </r>
       <r>    1.5727    1.0000 </r>
       <r>    1.5736    1.0000 </r>
       <r>    2.0134    1.0000 </r>
       <r>    2.0141    1.0000 </r>
       <r>    3.0063    1.0000 </r>
       <r>    3.0072    1.0000 </r>
       <r>    3.0100    1.0000 </r>
       <r>    5.8326    0.0000 </r>
       <r>    5.8381    0.0000 </r>
       <r>    5.8427    0.0000 </r>
       <r>   10.1305    0.0000 </r>
       <r>   10.1352    0.0000 </r>
      </set>
      <set comment="kpoint 8">
       <r>   -1.9541    1.0000 </r>
       <r>   -1.3514    1.0000 </r>
       <r>   -0.9566    1.0000 </r>
       <r>   -0.9560    1.0000 </r>
       <r>   -0.0458    1.0000 </r>
       <r>   -0.0451    1.0000 </r>
       <r>    0.2240    1.0000 </r>
       <r>    0.5075    1.0000 </r>
       <r>    0.5441    1.0000 </r>
       <r>    0.6576    1.0000 </r>
       <r>    0.8281    1.0000 </r>
       <r>    0.8666    1.0000 </r>
       <r>    0.8670    1.0000 </r>
       <r>    1.1170    1.0000 </r>
       <r>    1.3214    1.0000 </r>
       <r>    1.3224    1.0000 </r>
       <r>    2.3535    1.0000 </r>
       <r>    2.5105    1.0000 </r>
       <r>    2.8524    1.0000 </r>
       <r>    2.8537    1.0000 </r>
       <r>    2.8870    1.0000 </r>
       <r>    3.7265    1.0000 </r>
       <r>    6.9500    0.0000 </r>
       <r>    6.9502    0.0000 </r>
       <r>    8.3324    0.0000 </r>
       <r>    8.3327    0.0000 </r>
      </set>
      <set comment="kpoint 9">
       <r>   -1.7452    1.0000 </r>
       <r>   -1.3946    1.0000 </r>
       <r>   -1.3885    1.0000 </r>
       <r>   -1.2613    1.0000 </r>
       <r>    0.1638    1.0000 </r>
       <r>    0.2612    1.0000 </r>
       <r>    0.2714    1.0000 </r>
       <r>    0.5290    1.0000 </r>
       <r>    0.7017    1.0000 </r>
       <r>    0.8727    1.0000 </r>
       <r>    0.8768    1.0000 </r>
       <r>    0.9381    1.0000 </r>
       <r>    1.2352    1.0000 </r>
       <r>    1.2543    1.0000 </r>
       <r>    1.2954    1.0000 </r>
       <r>    1.3968    1.0000 </r>
       <r>    2.3176    1.0000 </r>
       <r>    2.7247    1.0000 </r>
       <r>    2.7344    1.0000 </r>
       <r>    2.7421    1.0000 </r>
       <r>    3.2571    1.0000 </r>
       <r>    4.6791    0.9553 </r>
       <r>    4.6861    0.9451 </r>
       <r>    6.1180    0.0000 </r>
       <r>    8.1801    0.0000 </r>
       <r>    9.6992    0.0000 </r>
      </set>
      <set comment="kpoint 10">
       <r>   -1.8700    1.0000 </r>
       <r>   -1.7011    1.0000 </r>
       <r>   -1.7000    1.0000 </r>
       <r>   -1.6984    1.0000 </r>
       <r>    0.3780    1.0000 </r>
       <r>    0.3796    1.0000 </r>
       <r>    0.3813    1.0000 </r>
       <r>    0.5229    1.0000 </r>
       <r>    0.5235    1.0000 </r>
       <r>    0.6090    1.0000 </r>
       <r>    0.6096    1.0000 </r>
       <r>    0.6106    1.0000 </r>
       <r>    2.1651    1.0000 </r>
       <r>    2.1747    1.0000 </r>
       <r>    2.1829    1.0000 </r>
       <r>    2.7801    1.0000 </r>
       <r>    2.7804    1.0000 </r>
       <r>    2.9309    1.0000 </r>
       <r>    2.9378    1.0000 </r>
       <r>    2.9389    1.0000 </r>
       <r>    2.9403    1.0000 </r>
       <r>    4.8881    0.1043 </r>
       <r>    4.8887    0.1027 </r>
       <r>    4.8887    0.1027 </r>
       <r>    7.9021    0.0000 </r>
       <r>    7.9125    0.0000 </r>
      </set>
     </set>
    </set>
   </array>
  </eigenvalues>
  <separator name="orbital magnetization" >
   <v name="MAGDIPOLOUT">      0.00000000      0.00000000      0.00000000</v>
  </separator>
  <dos>
   <i name="efermi">      4.79923178 </i>
   <total>
    <array>
     <dimension dim="1">gridpoints</dimension>
     <dimension dim="2">spin</dimension>
     <field>energy</field>
     <field>total</field>
     <field>integrated</field>
     <set>
      <set comment="spin 1">
       <r>  -5.0482   0.0000   0.0000 </r>
       <r>  -4.9870   0.0000   0.0000 </r>
       <r>  -4.9258   0.0000   0.0000 </r>
       <r>  -4.8646   0.0000   0.0000 </r>
       <r>  -4.8034   0.0000   0.0000 </r>
       <r>  -4.7422   0.0000   0.0000 </r>
       <r>  -4.6810   0.0000   0.0000 </r>
       <r>  -4.6199   0.0000   0.0000 </r>
       <r>  -4.5587   0.0000   0.0000 </r>
       <r>  -4.4975   0.0000   0.0000 </r>
       <r>  -4.4363   0.0000   0.0000 </r>
       <r>  -4.3751   0.0000   0.0000 </r>
       <r>  -4.3139   0.0001   0.0000 </r>
       <r>  -4.2527   0.0022   0.0001 </r>
       <r>  -4.1915   0.0235   0.0016 </r>
       <r>  -4.1303   0.1227   0.0091 </r>
       <r>  -4.0691   0.3158   0.0284 </r>
       <r>  -4.0079   0.4017   0.0530 </r>
       <r>  -3.9467   0.2529   0.0685 </r>
       <r>  -3.8856   0.0786   0.0733 </r>
       <r>  -3.8244   0.0120   0.0740 </r>
       <r>  -3.7632   0.0010   0.0741 </r>
       <r>  -3.7020   0.0015   0.0742 </r>
       <r>  -3.6408   0.0228   0.0756 </r>
       <r>  -3.5796   0.1716   0.0861 </r>
       <r>  -3.5184   0.6356   0.1250 </r>
       <r>  -3.4572   1.1622   0.1961 </r>
       <r>  -3.3960   1.0515   0.2604 </r>
       <r>  -3.3348   0.4705   0.2892 </r>
       <r>  -3.2736   0.1039   0.2956 </r>
       <r>  -3.2124   0.0116   0.2963 </r>
       <r>  -3.1513   0.0071   0.2967 </r>
       <r>  -3.0901   0.0696   0.3010 </r>
       <r>  -3.0289   0.3649   0.3233 </r>
       <r>  -2.9677   0.9434   0.3810 </r>
       <r>  -2.9065   1.2060   0.4548 </r>
       <r>  -2.8453   0.7629   0.5015 </r>
       <r>  -2.7841   0.2400   0.5162 </r>
       <r>  -2.7229   0.0549   0.5196 </r>
       <r>  -2.6617   0.1081   0.5262 </r>
       <r>  -2.6005   0.3169   0.5456 </r>
       <r>  -2.5393   0.5901   0.5817 </r>
       <r>  -2.4781   0.9421   0.6393 </r>
       <r>  -2.4170   1.2695   0.7170 </r>
       <r>  -2.3558   1.0452   0.7810 </r>
       <r>  -2.2946   0.4482   0.8084 </r>
       <r>  -2.2334   0.1126   0.8153 </r>
       <r>  -2.1722   0.1830   0.8265 </r>
       <r>  -2.1110   0.8734   0.8799 </r>
       <r>  -2.0498   2.2734   1.0190 </r>
       <r>  -1.9886   3.2460   1.2177 </r>
       <r>  -1.9274   2.8316   1.3909 </r>
       <r>  -1.8662   1.8517   1.5042 </r>
       <r>  -1.8050   1.5243   1.5975 </r>
       <r>  -1.7438   2.0773   1.7246 </r>
       <r>  -1.6827   2.3622   1.8692 </r>
       <r>  -1.6215   1.6974   1.9730 </r>
       <r>  -1.5603   1.4537   2.0620 </r>
       <r>  -1.4991   2.8923   2.2390 </r>
       <r>  -1.4379   5.3355   2.5655 </r>
       <r>  -1.3767   7.0105   2.9945 </r>
       <r>  -1.3155   6.8274   3.4122 </r>
       <r>  -1.2543   6.2217   3.7930 </r>
       <r>  -1.1931   6.9885   4.2206 </r>
       <r>  -1.1319   7.9069   4.7044 </r>
       <r>  -1.0707   8.2175   5.2073 </r>
       <r>  -1.0095   8.4895   5.7268 </r>
       <r>  -0.9484   7.8577   6.2076 </r>
       <r>  -0.8872   6.8540   6.6270 </r>
       <r>  -0.8260   6.3775   7.0172 </r>
       <r>  -0.7648   6.5413   7.4175 </r>
       <r>  -0.7036   8.4970   7.9375 </r>
       <r>  -0.6424   9.9595   8.5469 </r>
       <r>  -0.5812   7.7634   9.0220 </r>
       <r>  -0.5200   5.1659   9.3381 </r>
       <r>  -0.4588   4.3682   9.6054 </r>
       <r>  -0.3976   4.3162   9.8695 </r>
       <r>  -0.3364   5.3485  10.1968 </r>
       <r>  -0.2752   6.9887  10.6244 </r>
       <r>  -0.2141   7.8913  11.1073 </r>
       <r>  -0.1529   7.6883  11.5777 </r>
       <r>  -0.0917   7.4895  12.0360 </r>
       <r>  -0.0305   7.3870  12.4881 </r>
       <r>   0.0307   6.4594  12.8833 </r>
       <r>   0.0919   6.8401  13.3019 </r>
       <r>   0.1531   9.6627  13.8932 </r>
       <r>   0.2143  12.4771  14.6567 </r>
       <r>   0.2755  12.1635  15.4010 </r>
       <r>   0.3367   8.2656  15.9068 </r>
       <r>   0.3979   5.3555  16.2345 </r>
       <r>   0.4591   6.8758  16.6552 </r>
       <r>   0.5203  11.6995  17.3711 </r>
       <r>   0.5814  15.2611  18.3050 </r>
       <r>   0.6426  14.2528  19.1771 </r>
       <r>   0.7038  11.3037  19.8688 </r>
       <r>   0.7650  10.4763  20.5099 </r>
       <r>   0.8262  12.3108  21.2632 </r>
       <r>   0.8874  13.4824  22.0882 </r>
       <r>   0.9486  11.3464  22.7825 </r>
       <r>   1.0098   8.2392  23.2867 </r>
       <r>   1.0710   7.0150  23.7159 </r>
       <r>   1.1322   7.5316  24.1768 </r>
       <r>   1.1934   8.2391  24.6810 </r>
       <r>   1.2546   8.8803  25.2244 </r>
       <r>   1.3157   9.1618  25.7850 </r>
       <r>   1.3769   8.5415  26.3077 </r>
       <r>   1.4381   7.0477  26.7389 </r>
       <r>   1.4993   5.6348  27.0837 </r>
       <r>   1.5605   7.1706  27.5225 </r>
       <r>   1.6217  10.8705  28.1877 </r>
       <r>   1.6829  12.4318  28.9484 </r>
       <r>   1.7441  11.5222  29.6535 </r>
       <r>   1.8053   9.9920  30.2649 </r>
       <r>   1.8665   8.2068  30.7671 </r>
       <r>   1.9277   6.2455  31.1493 </r>
       <r>   1.9889   5.4630  31.4836 </r>
       <r>   2.0500   5.7903  31.8379 </r>
       <r>   2.1112   6.6027  32.2419 </r>
       <r>   2.1724   8.0684  32.7356 </r>
       <r>   2.2336   8.4997  33.2557 </r>
       <r>   2.2948   8.8487  33.7972 </r>
       <r>   2.3560  10.6972  34.4518 </r>
       <r>   2.4172  10.4184  35.0893 </r>
       <r>   2.4784   6.8166  35.5064 </r>
       <r>   2.5396   4.1247  35.7588 </r>
       <r>   2.6008   4.9077  36.0591 </r>
       <r>   2.6620   9.0337  36.6119 </r>
       <r>   2.7232  13.6775  37.4489 </r>
       <r>   2.7843  14.5451  38.3389 </r>
       <r>   2.8455  12.7715  39.1204 </r>
       <r>   2.9067  10.9712  39.7918 </r>
       <r>   2.9679   8.4475  40.3087 </r>
       <r>   3.0291   6.7246  40.7202 </r>
       <r>   3.0903   6.9190  41.1436 </r>
       <r>   3.1515   6.2744  41.5275 </r>
       <r>   3.2127   3.9482  41.7691 </r>
       <r>   3.2739   2.1567  41.9011 </r>
       <r>   3.3351   1.3218  41.9820 </r>
       <r>   3.3963   1.4212  42.0689 </r>
       <r>   3.4575   2.7682  42.2383 </r>
       <r>   3.5186   3.6142  42.4595 </r>
       <r>   3.5798   2.4879  42.6117 </r>
       <r>   3.6410   1.1614  42.6828 </r>
       <r>   3.7022   1.0662  42.7480 </r>
       <r>   3.7634   1.3325  42.8296 </r>
       <r>   3.8246   1.2798  42.9079 </r>
       <r>   3.8858   1.3217  42.9887 </r>
       <r>   3.9470   1.1937  43.0618 </r>
       <r>   4.0082   0.6203  43.0997 </r>
       <r>   4.0694   0.1632  43.1097 </r>
       <r>   4.1306   0.0212  43.1110 </r>
       <r>   4.1918   0.0013  43.1111 </r>
       <r>   4.2529   0.0000  43.1111 </r>
       <r>   4.3141   0.0003  43.1111 </r>
       <r>   4.3753   0.0072  43.1116 </r>
       <r>   4.4365   0.0897  43.1171 </r>
       <r>   4.4977   0.5662  43.1517 </r>
       <r>   4.5589   1.8739  43.2664 </r>
       <r>   4.6201   3.4949  43.4802 </r>
       <r>   4.6813   4.0144  43.7259 </r>
       <r>   4.7425   2.9723  43.9078 </r>
       <r>   4.8037   1.5970  44.0055 </r>
       <r>   4.8649   1.2177  44.0800 </r>
       <r>   4.9261   1.3053  44.1599 </r>
       <r>   4.9872   1.2046  44.2336 </r>
       <r>   5.0484   1.6697  44.3358 </r>
       <r>   5.1096   2.4230  44.4840 </r>
       <r>   5.1708   1.9860  44.6055 </r>
       <r>   5.2320   0.8160  44.6555 </r>
       <r>   5.2932   0.1656  44.6656 </r>
       <r>   5.3544   0.0165  44.6666 </r>
       <r>   5.4156   0.0008  44.6667 </r>
       <r>   5.4768   0.0000  44.6667 </r>
       <r>   5.5380   0.0001  44.6667 </r>
       <r>   5.5992   0.0020  44.6668 </r>
       <r>   5.6604   0.0332  44.6688 </r>
       <r>   5.7215   0.2718  44.6855 </r>
       <r>   5.7827   1.1011  44.7528 </r>
       <r>   5.8439   2.2185  44.8886 </r>
       <r>   5.9051   2.2559  45.0266 </r>
       <r>   5.9663   1.3703  45.1105 </r>
       <r>   6.0275   1.2886  45.1893 </r>
       <r>   6.0887   2.0915  45.3173 </r>
       <r>   6.1499   2.2418  45.4545 </r>
       <r>   6.2111   1.5292  45.5481 </r>
       <r>   6.2723   1.4928  45.6394 </r>
       <r>   6.3335   2.2963  45.7799 </r>
       <r>   6.3947   2.2186  45.9157 </r>
       <r>   6.4558   1.0833  45.9820 </r>
       <r>   6.5170   0.2615  45.9980 </r>
       <r>   6.5782   0.0310  45.9999 </r>
       <r>   6.6394   0.0018  46.0000 </r>
       <r>   6.7006   0.0015  46.0001 </r>
       <r>   6.7618   0.0266  46.0017 </r>
       <r>   6.8230   0.2344  46.0161 </r>
       <r>   6.8842   1.0137  46.0781 </r>
       <r>   6.9454   2.1630  46.2105 </r>
       <r>   7.0066   2.2829  46.3502 </r>
       <r>   7.0678   1.1921  46.4231 </r>
       <r>   7.1290   0.3085  46.4420 </r>
       <r>   7.1901   0.0608  46.4457 </r>
       <r>   7.2513   0.2079  46.4584 </r>
       <r>   7.3125   0.9722  46.5179 </r>
       <r>   7.3737   2.4354  46.6669 </r>
       <r>   7.4349   3.6086  46.8877 </r>
       <r>   7.4961   3.6149  47.1089 </r>
       <r>   7.5573   2.4503  47.2589 </r>
       <r>   7.6185   0.9838  47.3191 </r>
       <r>   7.6797   0.2108  47.3320 </r>
       <r>   7.7409   0.0437  47.3347 </r>
       <r>   7.8021   0.1451  47.3435 </r>
       <r>   7.8633   0.4804  47.3729 </r>
       <r>   7.9244   0.7961  47.4217 </r>
       <r>   7.9856   0.6757  47.4630 </r>
       <r>   8.0468   0.4740  47.4920 </r>
       <r>   8.1080   0.9984  47.5531 </r>
       <r>   8.1692   2.1765  47.6863 </r>
       <r>   8.2304   2.7896  47.8570 </r>
       <r>   8.2916   2.7893  48.0277 </r>
       <r>   8.3528   2.8823  48.2040 </r>
       <r>   8.4140   2.6521  48.3663 </r>
       <r>   8.4752   2.5998  48.5254 </r>
       <r>   8.5364   2.5637  48.6823 </r>
       <r>   8.5976   1.5793  48.7789 </r>
       <r>   8.6587   0.5013  48.8096 </r>
       <r>   8.7199   0.0788  48.8144 </r>
       <r>   8.7811   0.0061  48.8148 </r>
       <r>   8.8423   0.0002  48.8148 </r>
       <r>   8.9035   0.0000  48.8148 </r>
       <r>   8.9647   0.0000  48.8148 </r>
       <r>   9.0259   0.0009  48.8149 </r>
       <r>   9.0871   0.0160  48.8159 </r>
       <r>   9.1483   0.1336  48.8240 </r>
       <r>   9.2095   0.5485  48.8576 </r>
       <r>   9.2707   1.1119  48.9256 </r>
       <r>   9.3319   1.1149  48.9939 </r>
       <r>   9.3930   0.5531  49.0277 </r>
       <r>   9.4542   0.1364  49.0360 </r>
       <r>   9.5154   0.0324  49.0380 </r>
       <r>   9.5766   0.1357  49.0463 </r>
       <r>   9.6378   0.5676  49.0811 </r>
       <r>   9.6990   1.2908  49.1600 </r>
       <r>   9.7602   1.9701  49.2806 </r>
       <r>   9.8214   2.5759  49.4382 </r>
       <r>   9.8826   2.5021  49.5913 </r>
       <r>   9.9438   1.3956  49.6767 </r>
       <r>  10.0050   0.4937  49.7069 </r>
       <r>  10.0662   0.6117  49.7444 </r>
       <r>  10.1273   1.7145  49.8493 </r>
       <r>  10.1885   3.0209  50.0341 </r>
       <r>  10.2497   3.3607  50.2398 </r>
       <r>  10.3109   3.1257  50.4310 </r>
       <r>  10.3721   2.7622  50.6001 </r>
       <r>  10.4333   1.6653  50.7020 </r>
       <r>  10.4945   0.5391  50.7350 </r>
       <r>  10.5557   0.0907  50.7405 </r>
       <r>  10.6169   0.0458  50.7433 </r>
       <r>  10.6781   0.2339  50.7576 </r>
       <r>  10.7393   0.7696  50.8047 </r>
       <r>  10.8005   1.5922  50.9021 </r>
       <r>  10.8616   2.5050  51.0554 </r>
       <r>  10.9228   3.2104  51.2519 </r>
       <r>  10.9840   2.9032  51.4295 </r>
       <r>  11.0452   1.5507  51.5244 </r>
       <r>  11.1064   0.4406  51.5514 </r>
       <r>  11.1676   0.0634  51.5553 </r>
       <r>  11.2288   0.0045  51.5555 </r>
       <r>  11.2900   0.0002  51.5556 </r>
       <r>  11.3512   0.0000  51.5556 </r>
       <r>  11.4124   0.0000  51.5556 </r>
       <r>  11.4736   0.0000  51.5556 </r>
       <r>  11.5348   0.0000  51.5556 </r>
       <r>  11.5959   0.0000  51.5556 </r>
       <r>  11.6571   0.0000  51.5556 </r>
       <r>  11.7183   0.0000  51.5556 </r>
       <r>  11.7795   0.0000  51.5556 </r>
       <r>  11.8407   0.0000  51.5556 </r>
       <r>  11.9019   0.0000  51.5556 </r>
       <r>  11.9631   0.0001  51.5556 </r>
       <r>  12.0243   0.0025  51.5557 </r>
       <r>  12.0855   0.0352  51.5579 </r>
       <r>  12.1467   0.2553  51.5735 </r>
       <r>  12.2079   0.9650  51.6325 </r>
       <r>  12.2691   1.9563  51.7522 </r>
       <r>  12.3302   2.1788  51.8856 </r>
       <r>  12.3914   1.3388  51.9675 </r>
       <r>  12.4526   0.4458  51.9948 </r>
       <r>  12.5138   0.0781  51.9996 </r>
       <r>  12.5750   0.0070  52.0000 </r>
       <r>  12.6362   0.0003  52.0000 </r>
       <r>  12.6974   0.0000  52.0000 </r>
       <r>  12.7586   0.0000  52.0000 </r>
       <r>  12.8198   0.0000  52.0000 </r>
       <r>  12.8810   0.0000  52.0000 </r>
       <r>  12.9422   0.0000  52.0000 </r>
       <r>  13.0034   0.0000  52.0000 </r>
       <r>  13.0645   0.0000  52.0000 </r>
       <r>  13.1257   0.0000  52.0000 </r>
       <r>  13.1869   0.0000  52.0000 </r>
       <r>  13.2481   0.0000  52.0000 </r>
       <r>  13.3093   0.0000  52.0000 </r>
      </set>
     </set>
    </array>
   </total>
   <partial>
    <array>
     <dimension dim="1">gridpoints</dimension>
     <dimension dim="2">spin</dimension>
     <dimension dim="3">ion</dimension>
     <field>energy</field>
     <field>  s</field>
     <field> py</field>
     <field> pz</field>
     <field> px</field>
     <field>dxy</field>
     <field>dyz</field>
     <field>dz2</field>
     <field>dxz</field>
     <field>dx2</field>
     <set>
      <set comment="ion 1">
       <set comment="spin 1">
        <r>  -5.0482   0.0000   0.0000   0.0000   0.0000   0.0000   0.0000   0.0000   0.0000   0.0000 </r>
        <r>  -4.9870   0.0000   0.0000   0.0000   0.0000   0.0000   0.0000   0.0000   0.0000   0.0000 </r>
        <r>  -4.9258   0.0000   0.0000   0.0000   0.0000   0.0000   0.0000   0.0000   0.0000   0.0000 </r>
        <r>  -4.8646   0.0000   0.0000   0.0000   0.0000   0.0000   0.0000   0.0000   0.0000   0.0000 </r>
        <r>  -4.8034   0.0000   0.0000   0.0000   0.0000   0.0000   0.0000   0.0000   0.0000   0.0000 </r>
        <r>  -4.7422   0.0000   0.0000   0.0000   0.0000   0.0000   0.0000   0.0000   0.0000   0.0000 </r>
        <r>  -4.6810   0.0000   0.0000   0.0000   0.0000   0.0000   0.0000   0.0000   0.0000   0.0000 </r>
        <r>  -4.6199   0.0000   0.0000   0.0000   0.0000   0.0000   0.0000   0.0000   0.0000   0.0000 </r>
        <r>  -4.5587   0.0000   0.0000   0.0000   0.0000   0.0000   0.0000   0.0000   0.0000   0.0000 </r>
        <r>  -4.4975   0.0000   0.0000   0.0000   0.0000   0.0000   0.0000   0.0000   0.0000   0.0000 </r>
        <r>  -4.4363   0.0000   0.0000   0.0000   0.0000   0.0000   0.0000   0.0000   0.0000   0.0000 </r>
        <r>  -4.3751   0.0000   0.0000   0.0000   0.0000   0.0000   0.0000   0.0000   0.0000   0.0000 </r>
        <r>  -4.3139   0.0000   0.0000   0.0000   0.0000   0.0000   0.0000   0.0000   0.0000   0.0000 </r>
        <r>  -4.2527   0.0003   0.0000   0.0000   0.0000   0.0000   0.0000   0.0000   0.0000   0.0000 </r>
        <r>  -4.1915   0.0033   0.0000   0.0000   0.0000   0.0000   0.0000   0.0000   0.0000   0.0000 </r>
        <r>  -4.1303   0.0175   0.0001   0.0001   0.0001   0.0000   0.0000   0.0000   0.0000   0.0000 </r>
        <r>  -4.0691   0.0449   0.0002   0.0002   0.0002   0.0000   0.0000   0.0000   0.0000   0.0000 </r>
        <r>  -4.0079   0.0571   0.0003   0.0003   0.0003   0.0000   0.0000   0.0000   0.0000   0.0000 </r>
        <r>  -3.9467   0.0360   0.0002   0.0002   0.0002   0.0000   0.0000   0.0000   0.0000   0.0000 </r>
        <r>  -3.8856   0.0112   0.0001   0.0001   0.0001   0.0000   0.0000   0.0000   0.0000   0.0000 </r>
        <r>  -3.8244   0.0017   0.0000   0.0000   0.0000   0.0000   0.0000   0.0000   0.0000   0.0000 </r>
        <r>  -3.7632   0.0001   0.0000   0.0000   0.0000   0.0000   0.0000   0.0000   0.0000   0.0000 </r>
        <r>  -3.7020   0.0002   0.0000   0.0000   0.0000   0.0000   0.0000   0.0000   0.0000   0.0000 </r>
        <r>  -3.6408   0.0031   0.0000   0.0000   0.0001   0.0000   0.0000   0.0000   0.0000   0.0000 </r>
        <r>  -3.5796   0.0232   0.0001   0.0001   0.0011   0.0001   0.0000   0.0000   0.0001   0.0001 </r>
        <r>  -3.5184   0.0860   0.0004   0.0004   0.0041   0.0004   0.0001   0.0001   0.0004   0.0004 </r>
        <r>  -3.4572   0.1573   0.0008   0.0008   0.0075   0.0007   0.0001   0.0002   0.0007   0.0007 </r>
        <r>  -3.3960   0.1423   0.0007   0.0007   0.0068   0.0006   0.0001   0.0002   0.0006   0.0006 </r>
        <r>  -3.3348   0.0637   0.0003   0.0003   0.0030   0.0003   0.0001   0.0001   0.0003   0.0003 </r>
        <r>  -3.2736   0.0141   0.0001   0.0001   0.0007   0.0001   0.0000   0.0000   0.0001   0.0001 </r>
        <r>  -3.2124   0.0016   0.0000   0.0000   0.0001   0.0000   0.0000   0.0000   0.0000   0.0000 </r>
        <r>  -3.1513   0.0009   0.0000   0.0000   0.0000   0.0000   0.0000   0.0000   0.0000   0.0000 </r>
        <r>  -3.0901   0.0088   0.0004   0.0000   0.0004   0.0004   0.0001   0.0000   0.0001   0.0000 </r>
        <r>  -3.0289   0.0464   0.0020   0.0002   0.0020   0.0021   0.0004   0.0002   0.0004   0.0000 </r>
        <r>  -2.9677   0.1199   0.0053   0.0005   0.0053   0.0054   0.0010   0.0005   0.0010   0.0000 </r>
        <r>  -2.9065   0.1532   0.0068   0.0006   0.0068   0.0069   0.0013   0.0006   0.0013   0.0000 </r>
        <r>  -2.8453   0.0969   0.0043   0.0004   0.0043   0.0044   0.0008   0.0004   0.0008   0.0000 </r>
        <r>  -2.7841   0.0305   0.0013   0.0001   0.0013   0.0014   0.0003   0.0001   0.0003   0.0000 </r>
        <r>  -2.7229   0.0067   0.0003   0.0001   0.0003   0.0004   0.0002   0.0000   0.0002   0.0000 </r>
        <r>  -2.6617   0.0123   0.0004   0.0004   0.0004   0.0010   0.0010   0.0000   0.0010   0.0000 </r>
        <r>  -2.6005   0.0360   0.0011   0.0011   0.0015   0.0029   0.0028   0.0001   0.0029   0.0002 </r>
        <r>  -2.5393   0.0676   0.0017   0.0017   0.0044   0.0043   0.0040   0.0005   0.0043   0.0015 </r>
        <r>  -2.4781   0.1092   0.0014   0.0014   0.0113   0.0038   0.0030   0.0018   0.0038   0.0055 </r>
        <r>  -2.4170   0.1482   0.0010   0.0010   0.0185   0.0029   0.0014   0.0033   0.0029   0.0098 </r>
        <r>  -2.3558   0.1223   0.0006   0.0006   0.0160   0.0019   0.0006   0.0029   0.0019   0.0086 </r>
        <r>  -2.2946   0.0524   0.0002   0.0002   0.0069   0.0008   0.0002   0.0012   0.0008   0.0037 </r>
        <r>  -2.2334   0.0130   0.0001   0.0001   0.0017   0.0005   0.0001   0.0003   0.0002   0.0009 </r>
        <r>  -2.1722   0.0195   0.0007   0.0000   0.0024   0.0030   0.0008   0.0004   0.0007   0.0007 </r>
        <r>  -2.1110   0.0919   0.0034   0.0002   0.0112   0.0150   0.0044   0.0019   0.0039   0.0033 </r>
        <r>  -2.0498   0.2355   0.0084   0.0008   0.0284   0.0402   0.0149   0.0047   0.0134   0.0082 </r>
        <r>  -1.9886   0.3248   0.0108   0.0016   0.0377   0.0614   0.0317   0.0059   0.0295   0.0106 </r>
        <r>  -1.9274   0.2633   0.0075   0.0021   0.0282   0.0619   0.0449   0.0039   0.0430   0.0075 </r>
        <r>  -1.8662   0.1481   0.0035   0.0015   0.0130   0.0531   0.0477   0.0015   0.0467   0.0031 </r>
        <r>  -1.8050   0.0951   0.0026   0.0008   0.0053   0.0609   0.0567   0.0005   0.0564   0.0008 </r>
        <r>  -1.7438   0.1121   0.0039   0.0006   0.0043   0.0948   0.0873   0.0005   0.0873   0.0003 </r>
        <r>  -1.6827   0.1197   0.0039   0.0007   0.0040   0.1108   0.1033   0.0016   0.1034   0.0015 </r>
        <r>  -1.6215   0.0796   0.0022   0.0006   0.0030   0.0742   0.0704   0.0111   0.0704   0.0130 </r>
        <r>  -1.5603   0.0602   0.0015   0.0005   0.0062   0.0337   0.0306   0.0494   0.0300   0.0616 </r>
        <r>  -1.4991   0.1274   0.0045   0.0009   0.0183   0.0482   0.0366   0.1134   0.0328   0.1511 </r>
        <r>  -1.4379   0.2545   0.0117   0.0018   0.0339   0.1335   0.1077   0.1384   0.0907   0.2102 </r>
        <r>  -1.3767   0.3296   0.0163   0.0028   0.0399   0.2262   0.2056   0.1094   0.1622   0.2142 </r>
        <r>  -1.3155   0.2823   0.0126   0.0035   0.0332   0.2496   0.2420   0.0892   0.1844   0.2011 </r>
        <r>  -1.2543   0.2010   0.0076   0.0041   0.0265   0.2544   0.2255   0.1245   0.1865   0.1806 </r>
        <r>  -1.1931   0.1935   0.0072   0.0038   0.0332   0.2685   0.2143   0.2404   0.1941   0.2125 </r>
        <r>  -1.1319   0.2116   0.0089   0.0031   0.0401   0.2603   0.2218   0.3480   0.1779   0.2729 </r>
        <r>  -1.0707   0.1831   0.0107   0.0042   0.0304   0.2692   0.3051   0.3564   0.1803   0.2924 </r>
        <r>  -1.0095   0.1471   0.0138   0.0074   0.0164   0.3070   0.4109   0.2952   0.2424   0.2789 </r>
        <r>  -0.9484   0.1275   0.0167   0.0111   0.0101   0.3582   0.3557   0.1929   0.3275   0.2024 </r>
        <r>  -0.8872   0.1200   0.0194   0.0124   0.0123   0.4316   0.1984   0.1137   0.3790   0.1075 </r>
        <r>  -0.8260   0.1319   0.0222   0.0109   0.0187   0.4781   0.1225   0.0931   0.3446   0.0642 </r>
        <r>  -0.7648   0.1334   0.0210   0.0096   0.0208   0.4875   0.1642   0.1606   0.2535   0.0724 </r>
        <r>  -0.7036   0.1105   0.0172   0.0117   0.0209   0.5297   0.3225   0.3659   0.2334   0.1415 </r>
        <r>  -0.6424   0.0800   0.0141   0.0139   0.0217   0.4850   0.4596   0.5228   0.2657   0.2123 </r>
        <r>  -0.5812   0.0508   0.0122   0.0117   0.0181   0.2921   0.3608   0.4196   0.2572   0.1937 </r>
        <r>  -0.5200   0.0387   0.0147   0.0095   0.0146   0.1681   0.1641   0.2577   0.2565   0.1419 </r>
        <r>  -0.4588   0.0336   0.0177   0.0091   0.0146   0.1646   0.1145   0.2046   0.2330   0.1054 </r>
        <r>  -0.3976   0.0243   0.0162   0.0113   0.0136   0.1682   0.2548   0.1632   0.1703   0.0742 </r>
        <r>  -0.3364   0.0190   0.0161   0.0184   0.0135   0.2012   0.4393   0.1388   0.1996   0.0801 </r>
        <r>  -0.2752   0.0148   0.0183   0.0248   0.0175   0.2756   0.4717   0.2241   0.2957   0.1363 </r>
        <r>  -0.2141   0.0095   0.0183   0.0240   0.0238   0.2808   0.4227   0.3849   0.3045   0.2009 </r>
        <r>  -0.1529   0.0088   0.0192   0.0179   0.0298   0.2216   0.3860   0.5057   0.2273   0.2027 </r>
        <r>  -0.0917   0.0119   0.0209   0.0136   0.0327   0.1734   0.4098   0.5656   0.1769   0.1693 </r>
        <r>  -0.0305   0.0135   0.0168   0.0139   0.0281   0.1328   0.4930   0.5416   0.1762   0.1489 </r>
        <r>   0.0307   0.0135   0.0107   0.0156   0.0182   0.1135   0.4643   0.4451   0.1967   0.1063 </r>
        <r>   0.0919   0.0188   0.0110   0.0216   0.0127   0.1721   0.4359   0.4424   0.2962   0.0687 </r>
        <r>   0.1531   0.0318   0.0203   0.0307   0.0143   0.2969   0.5683   0.5527   0.4561   0.1211 </r>
        <r>   0.2143   0.0483   0.0371   0.0353   0.0195   0.4348   0.6607   0.6507   0.5300   0.2736 </r>
        <r>   0.2755   0.0531   0.0446   0.0306   0.0211   0.4864   0.5159   0.6417   0.4455   0.3735 </r>
        <r>   0.3367   0.0361   0.0299   0.0177   0.0144   0.3652   0.2743   0.4668   0.2710   0.3057 </r>
        <r>   0.3979   0.0236   0.0135   0.0090   0.0096   0.2623   0.1869   0.2902   0.1695   0.2077 </r>
        <r>   0.4591   0.0389   0.0143   0.0153   0.0159   0.3871   0.3084   0.3000   0.2347   0.1961 </r>
        <r>   0.5203   0.0652   0.0291   0.0395   0.0288   0.6633   0.5274   0.4624   0.4945   0.2400 </r>
        <r>   0.5814   0.0663   0.0412   0.0661   0.0350   0.8073   0.6117   0.5980   0.7929   0.2939 </r>
        <r>   0.6426   0.0407   0.0356   0.0629   0.0271   0.7077   0.4642   0.5926   0.7848   0.3898 </r>
        <r>   0.7038   0.0172   0.0211   0.0339   0.0141   0.6111   0.2801   0.4922   0.5570   0.4792 </r>
        <r>   0.7650   0.0107   0.0148   0.0160   0.0087   0.7152   0.2278   0.3916   0.5315   0.4516 </r>
        <r>   0.8262   0.0190   0.0215   0.0213   0.0143   0.8902   0.2960   0.3399   0.7368   0.4457 </r>
        <r>   0.8874   0.0321   0.0308   0.0305   0.0226   0.8596   0.3598   0.2996   0.8131   0.5737 </r>
        <r>   0.9486   0.0449   0.0309   0.0238   0.0266   0.6705   0.2886   0.2337   0.5869   0.6115 </r>
        <r>   1.0098   0.0585   0.0255   0.0099   0.0294   0.5392   0.1563   0.1877   0.3247   0.4772 </r>
        <r>   1.0710   0.0592   0.0176   0.0040   0.0287   0.4218   0.1026   0.1898   0.3068   0.4149 </r>
        <r>   1.1322   0.0428   0.0120   0.0087   0.0224   0.3059   0.1423   0.2155   0.4891   0.4497 </r>
        <r>   1.1934   0.0335   0.0183   0.0266   0.0221   0.2593   0.2438   0.2298   0.6292   0.3761 </r>
        <r>   1.2546   0.0434   0.0333   0.0508   0.0328   0.2324   0.3819   0.2547   0.6063   0.2967 </r>
        <r>   1.3157   0.0485   0.0401   0.0560   0.0387   0.1706   0.4501   0.2886   0.4484   0.4314 </r>
        <r>   1.3769   0.0331   0.0338   0.0390   0.0326   0.1218   0.3792   0.2837   0.2751   0.6646 </r>
        <r>   1.4381   0.0149   0.0233   0.0211   0.0226   0.1018   0.2458   0.2366   0.1847   0.7120 </r>
        <r>   1.4993   0.0078   0.0139   0.0109   0.0131   0.1003   0.1362   0.1999   0.1779   0.6146 </r>
        <r>   1.5605   0.0117   0.0130   0.0116   0.0086   0.1857   0.1000   0.2514   0.3326   0.7394 </r>
        <r>   1.6217   0.0206   0.0225   0.0214   0.0098   0.3315   0.1335   0.3204   0.6014   1.0498 </r>
        <r>   1.6829   0.0240   0.0280   0.0252   0.0106   0.3613   0.1931   0.2874   0.7021   1.2364 </r>
        <r>   1.7441   0.0194   0.0226   0.0167   0.0093   0.2681   0.2262   0.2726   0.5803   1.2459 </r>
        <r>   1.8053   0.0140   0.0168   0.0078   0.0070   0.1897   0.1881   0.3894   0.3826   1.1143 </r>
        <r>   1.8665   0.0136   0.0129   0.0041   0.0056   0.1294   0.1125   0.4803   0.1954   0.9436 </r>
        <r>   1.9277   0.0170   0.0074   0.0024   0.0092   0.0896   0.0555   0.4384   0.1021   0.7208 </r>
        <r>   1.9889   0.0223   0.0036   0.0015   0.0190   0.1114   0.0424   0.3951   0.1217   0.5448 </r>
        <r>   2.0500   0.0236   0.0041   0.0022   0.0249   0.1435   0.0767   0.3980   0.1737   0.4940 </r>
        <r>   2.1112   0.0171   0.0090   0.0061   0.0220   0.1442   0.1824   0.4667   0.2410   0.4421 </r>
        <r>   2.1724   0.0108   0.0153   0.0118   0.0193   0.1376   0.3377   0.5668   0.3603   0.4080 </r>
        <r>   2.2336   0.0090   0.0149   0.0126   0.0167   0.1186   0.3948   0.5454   0.4422   0.4183 </r>
        <r>   2.2948   0.0150   0.0095   0.0092   0.0152   0.1211   0.3552   0.4881   0.5289   0.5296 </r>
        <r>   2.3560   0.0307   0.0076   0.0088   0.0213   0.1856   0.3134   0.5127   0.6753   0.7569 </r>
        <r>   2.4172   0.0397   0.0075   0.0090   0.0254   0.2350   0.2131   0.4979   0.6271   0.7846 </r>
        <r>   2.4784   0.0291   0.0051   0.0058   0.0178   0.2040   0.0879   0.3806   0.3707   0.4928 </r>
        <r>   2.5396   0.0138   0.0026   0.0024   0.0076   0.1712   0.0425   0.3360   0.1799   0.2188 </r>
        <r>   2.6008   0.0112   0.0033   0.0020   0.0047   0.2315   0.1727   0.4523   0.1457   0.1531 </r>
        <r>   2.6620   0.0172   0.0069   0.0052   0.0079   0.3575   0.6403   0.5984   0.2740   0.2626 </r>
        <r>   2.7232   0.0171   0.0095   0.0094   0.0102   0.4056   1.2445   0.6025   0.5125   0.4705 </r>
        <r>   2.7843   0.0104   0.0084   0.0098   0.0085   0.3502   1.3731   0.4997   0.6560   0.5750 </r>
        <r>   2.8455   0.0077   0.0071   0.0086   0.0070   0.3208   1.0912   0.4448   0.6711   0.5125 </r>
        <r>   2.9067   0.0115   0.0095   0.0104   0.0092   0.3375   0.7869   0.4402   0.6185   0.4048 </r>
        <r>   2.9679   0.0137   0.0109   0.0113   0.0105   0.3018   0.5761   0.3597   0.4490   0.2815 </r>
        <r>   3.0291   0.0090   0.0072   0.0073   0.0067   0.2178   0.7362   0.2098   0.2607   0.1646 </r>
        <r>   3.0903   0.0040   0.0031   0.0030   0.0024   0.1697   1.1466   0.0962   0.1729   0.0863 </r>
        <r>   3.1515   0.0046   0.0022   0.0015   0.0016   0.1680   1.0976   0.0565   0.1449   0.0433 </r>
        <r>   3.2127   0.0121   0.0044   0.0019   0.0041   0.1742   0.5553   0.0751   0.0947   0.0190 </r>
        <r>   3.2739   0.0200   0.0068   0.0026   0.0068   0.1702   0.1465   0.1045   0.0359   0.0058 </r>
        <r>   3.3351   0.0204   0.0062   0.0022   0.0068   0.1384   0.0207   0.0962   0.0077   0.0012 </r>
        <r>   3.3963   0.0292   0.0058   0.0012   0.0098   0.1618   0.0021   0.1083   0.0020   0.0014 </r>
        <r>   3.4575   0.0625   0.0096   0.0010   0.0216   0.3192   0.0010   0.2040   0.0031   0.0039 </r>
        <r>   3.5186   0.0832   0.0120   0.0013   0.0298   0.4167   0.0013   0.2612   0.0046   0.0060 </r>
        <r>   3.5798   0.0584   0.0082   0.0011   0.0218   0.2829   0.0012   0.1736   0.0063   0.0063 </r>
        <r>   3.6410   0.0300   0.0042   0.0019   0.0130   0.1117   0.0018   0.0615   0.0185   0.0132 </r>
        <r>   3.7022   0.0325   0.0046   0.0042   0.0170   0.0628   0.0039   0.0201   0.0471   0.0318 </r>
        <r>   3.7634   0.0429   0.0057   0.0056   0.0244   0.0670   0.0051   0.0155   0.0657   0.0440 </r>
        <r>   3.8246   0.0453   0.0040   0.0040   0.0316   0.0592   0.0034   0.0131   0.0592   0.0391 </r>
        <r>   3.8858   0.0527   0.0021   0.0021   0.0445   0.0546   0.0012   0.0117   0.0546   0.0351 </r>
        <r>   3.9470   0.0496   0.0012   0.0012   0.0443   0.0471   0.0004   0.0100   0.0471   0.0300 </r>
        <r>   4.0082   0.0259   0.0005   0.0005   0.0234   0.0243   0.0001   0.0051   0.0243   0.0154 </r>
        <r>   4.0694   0.0068   0.0001   0.0001   0.0062   0.0064   0.0000   0.0013   0.0064   0.0040 </r>
        <r>   4.1306   0.0009   0.0000   0.0000   0.0008   0.0008   0.0000   0.0002   0.0008   0.0005 </r>
        <r>   4.1918   0.0001   0.0000   0.0000   0.0001   0.0001   0.0000   0.0000   0.0001   0.0000 </r>
        <r>   4.2529   0.0000   0.0000   0.0000   0.0000   0.0000   0.0000   0.0000   0.0000   0.0000 </r>
        <r>   4.3141   0.0000   0.0000   0.0000   0.0000   0.0000   0.0000   0.0000   0.0000   0.0000 </r>
        <r>   4.3753   0.0003   0.0001   0.0000   0.0001   0.0008   0.0000   0.0003   0.0000   0.0000 </r>
        <r>   4.4365   0.0040   0.0008   0.0001   0.0008   0.0094   0.0000   0.0041   0.0000   0.0002 </r>
        <r>   4.4977   0.0251   0.0054   0.0006   0.0054   0.0583   0.0003   0.0254   0.0003   0.0013 </r>
        <r>   4.5589   0.0812   0.0187   0.0031   0.0187   0.1871   0.0016   0.0816   0.0016   0.0052 </r>
        <r>   4.6201   0.1457   0.0383   0.0100   0.0383   0.3305   0.0052   0.1445   0.0052   0.0127 </r>
        <r>   4.6813   0.1584   0.0496   0.0183   0.0496   0.3510   0.0096   0.1539   0.0096   0.0195 </r>
        <r>   4.7425   0.1098   0.0413   0.0192   0.0413   0.2373   0.0100   0.1047   0.0100   0.0182 </r>
        <r>   4.8037   0.0487   0.0274   0.0180   0.0275   0.1013   0.0091   0.0473   0.0091   0.0130 </r>
        <r>   4.8649   0.0194   0.0295   0.0272   0.0295   0.0344   0.0132   0.0222   0.0132   0.0146 </r>
[...]
        <r>  0.0001  0.0012  0.0004  0.0011  0.0302  0.0195  0.1464  0.0194  0.0000 </r>
       </set>
       <set comment="band 6">
        <r>  0.0001  0.0006  0.0000  0.0007  0.0521  0.0139  0.1109  0.0140  0.0398 </r>
        <r>  0.0001  0.0006  0.0000  0.0006  0.0521  0.0132  0.1091  0.0135  0.0419 </r>
        <r>  0.0001  0.0006  0.0000  0.0006  0.0437  0.0138  0.0932  0.0133  0.0474 </r>
        <r>  0.0000  0.0006  0.0000  0.0007  0.0447  0.0122  0.0935  0.0133  0.0484 </r>
       </set>
       <set comment="band 7">
        <r>  0.0001  0.0006  0.0000  0.0006  0.0446  0.0135  0.0901  0.0132  0.0512 </r>
        <r>  0.0001  0.0006  0.0000  0.0006  0.0435  0.0135  0.0940  0.0132  0.0480 </r>
        <r>  0.0001  0.0006  0.0000  0.0006  0.0527  0.0135  0.1075  0.0139  0.0425 </r>
        <r>  0.0001  0.0006  0.0000  0.0006  0.0510  0.0147  0.1091  0.0138  0.0413 </r>
       </set>
       <set comment="band 8">
        <r>  0.0003  0.0000  0.0005  0.0000  0.0742  0.0206  0.1109  0.0207  0.0000 </r>
        <r>  0.0003  0.0000  0.0006  0.0000  0.0735  0.0206  0.1113  0.0208  0.0001 </r>
        <r>  0.0003  0.0000  0.0006  0.0000  0.0743  0.0206  0.1117  0.0206  0.0000 </r>
        <r>  0.0003  0.0000  0.0006  0.0000  0.0742  0.0203  0.1119  0.0208  0.0001 </r>
       </set>
       <set comment="band 9">
        <r>  0.0000  0.0000  0.0000  0.0000  0.0000  0.0491  0.0000  0.0490  0.1320 </r>
        <r>  0.0000  0.0000  0.0000  0.0000  0.0000  0.0491  0.0000  0.0490  0.1313 </r>
        <r>  0.0000  0.0000  0.0000  0.0000  0.0001  0.0490  0.0001  0.0491  0.1306 </r>
        <r>  0.0000  0.0000  0.0000  0.0000  0.0002  0.0493  0.0001  0.0489  0.1311 </r>
       </set>
       <set comment="band 10">
        <r>  0.0002  0.0001  0.0016  0.0001  0.0180  0.0334  0.0235  0.0412  0.1322 </r>
        <r>  0.0003  0.0002  0.0018  0.0001  0.0182  0.0253  0.0206  0.0392  0.1126 </r>
        <r>  0.0003  0.0002  0.0021  0.0001  0.0220  0.0290  0.0270  0.0432  0.0931 </r>
        <r>  0.0003  0.0001  0.0021  0.0001  0.0223  0.0299  0.0264  0.0373  0.1081 </r>
       </set>
       <set comment="band 11">
        <r>  0.0003  0.0001  0.0021  0.0002  0.0213  0.0375  0.0247  0.0300  0.0981 </r>
        <r>  0.0002  0.0001  0.0020  0.0001  0.0210  0.0435  0.0273  0.0291  0.1067 </r>
        <r>  0.0002  0.0001  0.0017  0.0002  0.0176  0.0397  0.0209  0.0269  0.1332 </r>
        <r>  0.0002  0.0001  0.0017  0.0001  0.0173  0.0398  0.0216  0.0307  0.1160 </r>
       </set>
       <set comment="band 12">
        <r>  0.0000  0.0004  0.0000  0.0004  0.0000  0.0375  0.0000  0.0373  0.1453 </r>
        <r>  0.0000  0.0004  0.0000  0.0004  0.0001  0.0396  0.0000  0.0399  0.1576 </r>
        <r>  0.0000  0.0004  0.0000  0.0004  0.0000  0.0395  0.0001  0.0369  0.1507 </r>
        <r>  0.0000  0.0004  0.0000  0.0004  0.0000  0.0374  0.0000  0.0401  0.1528 </r>
       </set>
       <set comment="band 13">
        <r>  0.0103  0.0098  0.0077  0.0070  0.0187  0.0652  0.0429  0.0567  0.0026 </r>
        <r>  0.0081  0.0071  0.0072  0.0098  0.0149  0.0462  0.0436  0.0544  0.0013 </r>
        <r>  0.0062  0.0091  0.0056  0.0095  0.0147  0.0481  0.0338  0.0490  0.0026 </r>
        <r>  0.0105  0.0096  0.0078  0.0090  0.0152  0.0606  0.0444  0.0587  0.0017 </r>
       </set>
       <set comment="band 14">
        <r>  0.0069  0.0077  0.0063  0.0113  0.0139  0.0445  0.0371  0.0541  0.0017 </r>
        <r>  0.0092  0.0111  0.0070  0.0078  0.0168  0.0648  0.0389  0.0529  0.0026 </r>
        <r>  0.0117  0.0087  0.0090  0.0080  0.0174  0.0638  0.0501  0.0608  0.0013 </r>
        <r>  0.0066  0.0079  0.0061  0.0088  0.0173  0.0489  0.0362  0.0497  0.0024 </r>
       </set>
       <set comment="band 15">
        <r>  0.0224  0.0117  0.0112  0.0109  0.0000  0.0448  0.0409  0.0441  0.0002 </r>
        <r>  0.0224  0.0110  0.0109  0.0116  0.0017  0.0443  0.0391  0.0482  0.0000 </r>
        <r>  0.0218  0.0113  0.0106  0.0116  0.0008  0.0434  0.0380  0.0463  0.0003 </r>
        <r>  0.0226  0.0117  0.0112  0.0113  0.0001  0.0455  0.0412  0.0460  0.0000 </r>
       </set>
       <set comment="band 16">
        <r>  0.0005  0.0085  0.0094  0.0084  0.0674  0.0330  0.0461  0.0325  0.0000 </r>
        <r>  0.0004  0.0084  0.0094  0.0085  0.0672  0.0322  0.0466  0.0323  0.0000 </r>
        <r>  0.0004  0.0085  0.0093  0.0085  0.0670  0.0325  0.0462  0.0320  0.0000 </r>
        <r>  0.0005  0.0084  0.0094  0.0085  0.0674  0.0333  0.0463  0.0332  0.0000 </r>
       </set>
       <set comment="band 17">
        <r>  0.0000  0.0002  0.0000  0.0002  0.0000  0.0688  0.0000  0.0689  0.1006 </r>
        <r>  0.0000  0.0002  0.0000  0.0002  0.0000  0.0693  0.0000  0.0690  0.1007 </r>
        <r>  0.0000  0.0002  0.0000  0.0002  0.0000  0.0688  0.0000  0.0691  0.1013 </r>
        <r>  0.0000  0.0002  0.0000  0.0002  0.0000  0.0692  0.0000  0.0689  0.1009 </r>
       </set>
       <set comment="band 18">
        <r>  0.0001  0.0006  0.0006  0.0005  0.0218  0.0907  0.0327  0.0912  0.0894 </r>
        <r>  0.0001  0.0004  0.0005  0.0002  0.0221  0.0744  0.0326  0.0441  0.0124 </r>
        <r>  0.0001  0.0006  0.0003  0.0006  0.0127  0.0325  0.0194  0.0904  0.0874 </r>
        <r>  0.0001  0.0006  0.0003  0.0004  0.0129  0.0933  0.0189  0.0081  0.0709 </r>
       </set>
       <set comment="band 19">
        <r>  0.0000  0.0003  0.0002  0.0005  0.0074  0.0274  0.0107  0.0123  0.0229 </r>
        <r>  0.0000  0.0006  0.0002  0.0009  0.0076  0.0411  0.0109  0.1140  0.1623 </r>
        <r>  0.0001  0.0002  0.0006  0.0003  0.0254  0.1240  0.0369  0.0248  0.0147 </r>
        <r>  0.0001  0.0001  0.0006  0.0005  0.0255  0.0165  0.0372  0.1750  0.0627 </r>
       </set>
       <set comment="band 20">
        <r>  0.0001  0.0003  0.0002  0.0002  0.0120  0.0891  0.0168  0.1035  0.0913 </r>
        <r>  0.0001  0.0002  0.0003  0.0000  0.0115  0.0917  0.0171  0.0493  0.0298 </r>
        <r>  0.0000  0.0003  0.0001  0.0003  0.0029  0.0511  0.0041  0.0925  0.1020 </r>
        <r>  0.0000  0.0004  0.0001  0.0002  0.0028  0.0978  0.0043  0.0245  0.0709 </r>
       </set>
       <set comment="band 21">
        <r>  0.0164  0.0055  0.0021  0.0055  0.1115  0.0008  0.0822  0.0008  0.0000 </r>
        <r>  0.0164  0.0055  0.0021  0.0055  0.1117  0.0008  0.0824  0.0008  0.0000 </r>
        <r>  0.0164  0.0056  0.0021  0.0056  0.1117  0.0008  0.0823  0.0008  0.0000 </r>
        <r>  0.0164  0.0056  0.0021  0.0056  0.1116  0.0008  0.0824  0.0008  0.0000 </r>
       </set>
       <set comment="band 22">
        <r>  0.0407  0.0130  0.0088  0.0129  0.0870  0.0045  0.0383  0.0046  0.0061 </r>
        <r>  0.0418  0.0124  0.0089  0.0125  0.0871  0.0045  0.0384  0.0045  0.0060 </r>
        <r>  0.0301  0.0170  0.0064  0.0171  0.0640  0.0035  0.0276  0.0037  0.0083 </r>
        <r>  0.0301  0.0171  0.0065  0.0172  0.0634  0.0038  0.0287  0.0037  0.0083 </r>
       </set>
       <set comment="band 23">
        <r>  0.0311  0.0166  0.0064  0.0167  0.0644  0.0035  0.0284  0.0034  0.0080 </r>
        <r>  0.0300  0.0173  0.0064  0.0171  0.0645  0.0035  0.0284  0.0035  0.0081 </r>
        <r>  0.0416  0.0126  0.0088  0.0125  0.0876  0.0045  0.0392  0.0043  0.0059 </r>
        <r>  0.0416  0.0125  0.0087  0.0125  0.0883  0.0043  0.0381  0.0043  0.0059 </r>
       </set>
       <set comment="band 24">
        <r>  0.0334  0.0226  0.0159  0.0226  0.0540  0.0001  0.0266  0.0001  0.0000 </r>
        <r>  0.0334  0.0226  0.0159  0.0226  0.0541  0.0001  0.0266  0.0001  0.0000 </r>
        <r>  0.0334  0.0226  0.0160  0.0226  0.0541  0.0001  0.0266  0.0001  0.0000 </r>
        <r>  0.0335  0.0226  0.0159  0.0226  0.0540  0.0001  0.0266  0.0001  0.0000 </r>
       </set>
       <set comment="band 25">
        <r>  0.0900  0.0059  0.0191  0.0059  0.0079  0.0282  0.0086  0.0281  0.0000 </r>
        <r>  0.0890  0.0059  0.0188  0.0059  0.0080  0.0282  0.0085  0.0282  0.0000 </r>
        <r>  0.0894  0.0058  0.0189  0.0059  0.0079  0.0280  0.0086  0.0283  0.0000 </r>
        <r>  0.0896  0.0059  0.0190  0.0058  0.0079  0.0283  0.0086  0.0280  0.0000 </r>
       </set>
       <set comment="band 26">
        <r>  0.0537  0.0191  0.0169  0.0160  0.0069  0.0290  0.0031  0.0230  0.0003 </r>
        <r>  0.0537  0.0192  0.0165  0.0166  0.0068  0.0292  0.0030  0.0234  0.0003 </r>
        <r>  0.0907  0.0119  0.0282  0.0090  0.0116  0.0186  0.0052  0.0126  0.0002 </r>
        <r>  0.0909  0.0119  0.0283  0.0091  0.0117  0.0185  0.0053  0.0128  0.0002 </r>
       </set>
      </set>
      <set comment="kpoint 10">
       <set comment="band 1">
        <r>  0.0498  0.0005  0.0005  0.0004  0.0468  0.0468  0.0000  0.0468  0.0000 </r>
        <r>  0.0501  0.0004  0.0004  0.0004  0.0465  0.0467  0.0000  0.0467  0.0000 </r>
        <r>  0.0501  0.0004  0.0004  0.0004  0.0467  0.0467  0.0000  0.0465  0.0000 </r>
        <r>  0.0500  0.0004  0.0004  0.0004  0.0467  0.0465  0.0000  0.0467  0.0000 </r>
       </set>
       <set comment="band 2">
        <r>  0.0518  0.0005  0.0005  0.0008  0.0255  0.0879  0.0000  0.0255  0.0001 </r>
        <r>  0.0216  0.0002  0.0003  0.0008  0.0630  0.0299  0.0001  0.0861  0.0002 </r>
        <r>  0.0216  0.0003  0.0002  0.0008  0.0861  0.0299  0.0002  0.0630  0.0001 </r>
        <r>  0.0705  0.0006  0.0006  0.0009  0.0246  0.0635  0.0000  0.0246  0.0001 </r>
       </set>
       <set comment="band 3">
        <r>  0.0000  0.0004  0.0004  0.0000  0.1047  0.0000  0.0003  0.1047  0.0001 </r>
        <r>  0.0826  0.0011  0.0011  0.0002  0.0002  0.0953  0.0000  0.0002  0.0001 </r>
        <r>  0.0826  0.0011  0.0011  0.0002  0.0002  0.0953  0.0000  0.0002  0.0001 </r>
        <r>  0.0000  0.0004  0.0004  0.0000  0.1044  0.0000  0.0003  0.1044  0.0001 </r>
       </set>
       <set comment="band 4">
        <r>  0.0724  0.0007  0.0007  0.0008  0.0225  0.0647  0.0000  0.0225  0.0001 </r>
        <r>  0.0196  0.0003  0.0002  0.0007  0.0894  0.0270  0.0002  0.0660  0.0001 </r>
        <r>  0.0196  0.0002  0.0003  0.0007  0.0660  0.0270  0.0001  0.0894  0.0002 </r>
        <r>  0.0533  0.0006  0.0006  0.0007  0.0232  0.0891  0.0001  0.0232  0.0002 </r>
       </set>
       <set comment="band 5">
        <r>  0.0000  0.0002  0.0002  0.0003  0.0396  0.0400  0.0269  0.0396  0.0806 </r>
        <r>  0.0000  0.0001  0.0001  0.0000  0.0107  0.0230  0.0953  0.0101  0.0830 </r>
        <r>  0.0000  0.0001  0.0001  0.0000  0.0101  0.0230  0.1073  0.0107  0.0710 </r>
        <r>  0.0000  0.0002  0.0002  0.0003  0.0445  0.0424  0.0247  0.0445  0.0743 </r>
       </set>
       <set comment="band 6">
        <r>  0.0000  0.0000  0.0000  0.0000  0.0043  0.0000  0.1611  0.0043  0.0537 </r>
        <r>  0.0000  0.0002  0.0002  0.0004  0.0642  0.0345  0.0177  0.0622  0.0522 </r>
        <r>  0.0000  0.0002  0.0002  0.0004  0.0622  0.0345  0.0173  0.0642  0.0526 </r>
        <r>  0.0000  0.0000  0.0000  0.0000  0.0041  0.0000  0.1563  0.0041  0.0521 </r>
       </set>
       <set comment="band 7">
        <r>  0.0000  0.0002  0.0002  0.0002  0.0411  0.0446  0.0267  0.0411  0.0800 </r>
        <r>  0.0000  0.0001  0.0001  0.0000  0.0111  0.0267  0.0982  0.0115  0.0740 </r>
        <r>  0.0000  0.0001  0.0001  0.0000  0.0115  0.0267  0.0851  0.0111  0.0870 </r>
        <r>  0.0000  0.0002  0.0002  0.0002  0.0355  0.0432  0.0278  0.0355  0.0835 </r>
       </set>
       <set comment="band 8">
        <r>  0.0000  0.0000  0.0000  0.0000  0.0488  0.0000  0.0968  0.0488  0.0323 </r>
        <r>  0.0000  0.0000  0.0000  0.0000  0.0487  0.0000  0.0963  0.0499  0.0333 </r>
        <r>  0.0000  0.0000  0.0000  0.0000  0.0499  0.0000  0.0981  0.0487  0.0316 </r>
        <r>  0.0000  0.0000  0.0000  0.0000  0.0495  0.0000  0.0991  0.0495  0.0331 </r>
       </set>
       <set comment="band 9">
        <r>  0.0000  0.0000  0.0000  0.0000  0.0163  0.0659  0.0322  0.0163  0.0966 </r>
        <r>  0.0000  0.0000  0.0000  0.0000  0.0162  0.0658  0.0323  0.0165  0.0984 </r>
        <r>  0.0000  0.0000  0.0000  0.0000  0.0165  0.0658  0.0333  0.0162  0.0974 </r>
        <r>  0.0000  0.0000  0.0000  0.0000  0.0168  0.0648  0.0326  0.0168  0.0978 </r>
       </set>
       <set comment="band 10">
        <r>  0.0000  0.0002  0.0002  0.0000  0.0680  0.0000  0.1487  0.0681  0.0497 </r>
        <r>  0.0000  0.0000  0.0002  0.0001  0.0674  0.0226  0.1493  0.0138  0.0027 </r>
        <r>  0.0000  0.0002  0.0000  0.0001  0.0138  0.0226  0.0293  0.0674  0.1229 </r>
        <r>  0.0000  0.0000  0.0000  0.0000  0.0134  0.0000  0.0305  0.0133  0.0101 </r>
       </set>
       <set comment="band 11">
        <r>  0.0000  0.0001  0.0001  0.0003  0.0232  0.0927  0.0508  0.0231  0.1521 </r>
        <r>  0.0000  0.0001  0.0001  0.0000  0.0230  0.0003  0.0510  0.0232  0.0175 </r>
        <r>  0.0000  0.0001  0.0001  0.0000  0.0232  0.0002  0.0510  0.0229  0.0172 </r>
        <r>  0.0000  0.0001  0.0001  0.0003  0.0233  0.0918  0.0508  0.0233  0.1528 </r>
       </set>
       <set comment="band 12">
        <r>  0.0000  0.0000  0.0000  0.0000  0.0019  0.0000  0.0025  0.0019  0.0008 </r>
        <r>  0.0000  0.0002  0.0000  0.0002  0.0011  0.0702  0.0043  0.0558  0.1839 </r>
        <r>  0.0000  0.0000  0.0002  0.0002  0.0558  0.0702  0.1232  0.0011  0.0649 </r>
        <r>  0.0000  0.0002  0.0002  0.0000  0.0560  0.0000  0.1228  0.0560  0.0409 </r>
       </set>
       <set comment="band 13">
        <r>  0.0022  0.0042  0.0042  0.0109  0.0571  0.0648  0.0116  0.0571  0.0347 </r>
        <r>  0.0006  0.0109  0.0120  0.0037  0.0150  0.0450  0.0470  0.0164  0.0328 </r>
        <r>  0.0006  0.0120  0.0109  0.0037  0.0164  0.0450  0.0421  0.0150  0.0376 </r>
        <r>  0.0021  0.0041  0.0041  0.0120  0.0525  0.0607  0.0124  0.0525  0.0373 </r>
       </set>
       <set comment="band 14">
        <r>  0.0000  0.0152  0.0152  0.0000  0.0161  0.0000  0.0716  0.0161  0.0239 </r>
        <r>  0.0026  0.0000  0.0000  0.0159  0.0931  0.0317  0.0080  0.0927  0.0238 </r>
        <r>  0.0026  0.0000  0.0000  0.0159  0.0927  0.0317  0.0079  0.0931  0.0240 </r>
        <r>  0.0000  0.0152  0.0152  0.0000  0.0160  0.0000  0.0716  0.0160  0.0238 </r>
       </set>
       <set comment="band 15">
        <r>  0.0016  0.0038  0.0038  0.0123  0.0515  0.0598  0.0123  0.0515  0.0370 </r>
        <r>  0.0007  0.0123  0.0111  0.0036  0.0171  0.0478  0.0409  0.0155  0.0387 </r>
        <r>  0.0007  0.0111  0.0123  0.0036  0.0155  0.0478  0.0454  0.0171  0.0342 </r>
        <r>  0.0018  0.0038  0.0038  0.0111  0.0560  0.0647  0.0115  0.0560  0.0346 </r>
       </set>
       <set comment="band 16">
        <r>  0.0000  0.0000  0.0000  0.0001  0.0231  0.0925  0.0257  0.0233  0.0774 </r>
        <r>  0.0000  0.0000  0.0000  0.0001  0.0231  0.0928  0.0258  0.0233  0.0779 </r>
        <r>  0.0000  0.0000  0.0000  0.0001  0.0231  0.0928  0.0259  0.0233  0.0779 </r>
        <r>  0.0000  0.0000  0.0000  0.0001  0.0232  0.0925  0.0258  0.0235  0.0779 </r>
       </set>
       <set comment="band 17">
        <r>  0.0000  0.0001  0.0001  0.0000  0.0700  0.0000  0.0771  0.0697  0.0256 </r>
        <r>  0.0000  0.0001  0.0001  0.0000  0.0692  0.0000  0.0784  0.0695  0.0258 </r>
        <r>  0.0000  0.0001  0.0001  0.0000  0.0697  0.0000  0.0781  0.0690  0.0261 </r>
        <r>  0.0000  0.0001  0.0001  0.0000  0.0698  0.0000  0.0778  0.0696  0.0258 </r>
       </set>
       <set comment="band 18">
        <r>  0.0281  0.0218  0.0218  0.0219  0.0176  0.0284  0.0039  0.0176  0.0118 </r>
        <r>  0.0281  0.0218  0.0220  0.0218  0.0158  0.0133  0.0045  0.0166  0.0014 </r>
        <r>  0.0281  0.0220  0.0218  0.0218  0.0166  0.0133  0.0044  0.0158  0.0015 </r>
        <r>  0.0281  0.0218  0.0218  0.0219  0.0171  0.0300  0.0041  0.0171  0.0122 </r>
       </set>
       <set comment="band 19">
        <r>  0.0000  0.0000  0.0000  0.0000  0.0866  0.0000  0.0878  0.0866  0.0293 </r>
        <r>  0.0000  0.0000  0.0000  0.0000  0.0878  0.0615  0.0872  0.0296  0.0300 </r>
        <r>  0.0000  0.0000  0.0000  0.0000  0.0296  0.0615  0.0271  0.0877  0.0900 </r>
        <r>  0.0000  0.0000  0.0000  0.0000  0.0273  0.0000  0.0299  0.0273  0.0100 </r>
       </set>
       <set comment="band 20">
        <r>  0.0035  0.0027  0.0027  0.0026  0.0334  0.1324  0.0327  0.0334  0.0980 </r>
        <r>  0.0035  0.0027  0.0026  0.0027  0.0353  0.0014  0.0323  0.0345  0.0108 </r>
        <r>  0.0035  0.0026  0.0027  0.0027  0.0345  0.0014  0.0324  0.0353  0.0107 </r>
        <r>  0.0035  0.0027  0.0027  0.0027  0.0341  0.1311  0.0327  0.0341  0.0980 </r>
       </set>
       <set comment="band 21">
        <r>  0.0000  0.0000  0.0000  0.0000  0.0225  0.0000  0.0227  0.0225  0.0076 </r>
        <r>  0.0000  0.0000  0.0000  0.0000  0.0226  0.0847  0.0226  0.0803  0.1047 </r>
        <r>  0.0000  0.0000  0.0000  0.0000  0.0803  0.0847  0.0830  0.0225  0.0444 </r>
        <r>  0.0000  0.0000  0.0000  0.0000  0.0823  0.0000  0.0804  0.0823  0.0268 </r>
       </set>
       <set comment="band 22">
        <r>  0.0197  0.0096  0.0098  0.0313  0.0249  0.0259  0.0034  0.0249  0.0102 </r>
        <r>  0.0039  0.0333  0.0540  0.0126  0.0086  0.0028  0.0250  0.0064  0.0103 </r>
        <r>  0.0038  0.0540  0.0333  0.0129  0.0063  0.0028  0.0171  0.0084  0.0183 </r>
        <r>  0.0121  0.0110  0.0107  0.0535  0.0146  0.0175  0.0060  0.0146  0.0183 </r>
       </set>
       <set comment="band 23">
        <r>  0.0086  0.0076  0.0272  0.0485  0.0129  0.0127  0.0132  0.0125  0.0144 </r>
        <r>  0.0095  0.0454  0.0267  0.0101  0.0128  0.0088  0.0129  0.0166  0.0143 </r>
        <r>  0.0030  0.0265  0.0476  0.0293  0.0058  0.0016  0.0228  0.0054  0.0137 </r>
        <r>  0.0159  0.0249  0.0076  0.0272  0.0208  0.0208  0.0037  0.0245  0.0137 </r>
       </set>
       <set comment="band 24">
        <r>  0.0003  0.0647  0.0448  0.0020  0.0012  0.0005  0.0241  0.0017  0.0161 </r>
        <r>  0.0153  0.0031  0.0011  0.0591  0.0177  0.0275  0.0029  0.0161  0.0161 </r>
        <r>  0.0219  0.0013  0.0010  0.0396  0.0270  0.0348  0.0009  0.0252  0.0088 </r>
        <r>  0.0007  0.0460  0.0635  0.0011  0.0037  0.0008  0.0311  0.0000  0.0087 </r>
       </set>
       <set comment="band 25">
        <r>  0.1518  0.0019  0.0043  0.0053  0.0203  0.0412  0.0001  0.0089  0.0002 </r>
        <r>  0.0872  0.0060  0.0060  0.0006  0.0375  0.0122  0.0002  0.0407  0.0002 </r>
        <r>  0.0374  0.0051  0.0060  0.0020  0.0405  0.0255  0.0002  0.0394  0.0002 </r>
        <r>  0.1600  0.0039  0.0024  0.0055  0.0080  0.0391  0.0000  0.0214  0.0002 </r>
       </set>
       <set comment="band 26">
        <r>  0.1146  0.0055  0.0024  0.0048  0.0089  0.0310  0.0000  0.0418  0.0003 </r>
        <r>  0.0428  0.0033  0.0048  0.0051  0.0282  0.0416  0.0001  0.0333  0.0003 </r>
        <r>  0.1574  0.0043  0.0059  0.0019  0.0272  0.0112  0.0001  0.0304  0.0002 </r>
        <r>  0.1190  0.0011  0.0070  0.0044  0.0373  0.0298  0.0002  0.0131  0.0002 </r>
       </set>
      </set>
     </set>
    </set>
   </array>
  </projected>
 </calculation>
 <structure name="finalpos" >
  <crystal>
   <varray name="basis" >
    <v>       4.17600000       0.00000000       0.00000000 </v>
    <v>       0.00000000       4.17600000       0.00000000 </v>
    <v>       0.00000000       0.00000000       4.17600000 </v>
   </varray>
   <i name="volume">     72.82516378 </i>
   <varray name="rec_basis" >
    <v>       0.23946360       0.00000000       0.00000000 </v>
    <v>       0.00000000       0.23946360       0.00000000 </v>
    <v>       0.00000000       0.00000000       0.23946360 </v>
   </varray>
  </crystal>
  <varray name="positions" >
   <v>      -0.00359195       0.00000000       0.00000000 </v>
   <v>       0.50000000       0.50000000       0.00000000 </v>
   <v>       0.50000000       0.00000000       0.50000000 </v>
   <v>       0.00000000       0.50000000       0.50000000 </v>
  </varray>
 </structure>
</modeling>
