   2   2   0   0
  0.5000000E+03  0.1000000E-08  0.1000000E-08  0.1000000E-08  0.5000000E-15
  1.000000000000000E-004
  CAR 
 unknown system                          
      1.27639559    -31.31264026  301     -8.77189046      1.00000000
    -31.313  0.0000E+00  0.0000E+00
    -31.204  0.0000E+00  0.0000E+00
    -31.095  0.0000E+00  0.0000E+00
    -30.987  0.0000E+00  0.0000E+00
    -30.878  0.0000E+00  0.0000E+00
    -30.769  0.0000E+00  0.0000E+00
    -30.661  0.0000E+00  0.0000E+00
    -30.552  0.0000E+00  0.0000E+00
    -30.444  0.0000E+00  0.0000E+00
    -30.335  0.0000E+00  0.0000E+00
    -30.226  0.0000E+00  0.0000E+00
    -30.118  0.0000E+00  0.0000E+00
    -30.009 -0.5455-135 -0.5925-136
    -29.900 -0.6330E-19 -0.6877E-20
    -29.792  0.1841E+02  0.2000E+01
    -29.683  0.0000E+00  0.2000E+01
    -29.575  0.0000E+00  0.2000E+01
    -29.466  0.0000E+00  0.2000E+01
    -29.357  0.0000E+00  0.2000E+01
    -29.249  0.0000E+00  0.2000E+01
    -29.140  0.0000E+00  0.2000E+01
    -29.031  0.0000E+00  0.2000E+01
    -28.923  0.0000E+00  0.2000E+01
    -28.814  0.0000E+00  0.2000E+01
    -28.706  0.0000E+00  0.2000E+01
    -28.597  0.0000E+00  0.2000E+01
    -28.488  0.0000E+00  0.2000E+01
    -28.380  0.0000E+00  0.2000E+01
    -28.271  0.0000E+00  0.2000E+01
    -28.162  0.0000E+00  0.2000E+01
    -28.054  0.0000E+00  0.2000E+01
    -27.945  0.0000E+00  0.2000E+01
    -27.836  0.0000E+00  0.2000E+01
    -27.728  0.0000E+00  0.2000E+01
    -27.619  0.0000E+00  0.2000E+01
    -27.511  0.0000E+00  0.2000E+01
    -27.402  0.0000E+00  0.2000E+01
    -27.293  0.0000E+00  0.2000E+01
    -27.185  0.0000E+00  0.2000E+01
    -27.076  0.0000E+00  0.2000E+01
    -26.967  0.0000E+00  0.2000E+01
    -26.859  0.0000E+00  0.2000E+01
    -26.750  0.0000E+00  0.2000E+01
    -26.642  0.0000E+00  0.2000E+01
    -26.533  0.0000E+00  0.2000E+01
    -26.424  0.0000E+00  0.2000E+01
    -26.316  0.0000E+00  0.2000E+01
    -26.207  0.0000E+00  0.2000E+01
    -26.098  0.0000E+00  0.2000E+01
    -25.990  0.0000E+00  0.2000E+01
    -25.881  0.0000E+00  0.2000E+01
    -25.773  0.0000E+00  0.2000E+01
    -25.664  0.0000E+00  0.2000E+01
    -25.555  0.0000E+00  0.2000E+01
    -25.447  0.0000E+00  0.2000E+01
    -25.338  0.0000E+00  0.2000E+01
    -25.229  0.0000E+00  0.2000E+01
    -25.121  0.0000E+00  0.2000E+01
    -25.012  0.0000E+00  0.2000E+01
    -24.903  0.0000E+00  0.2000E+01
    -24.795  0.0000E+00  0.2000E+01
    -24.686  0.0000E+00  0.2000E+01
    -24.578  0.0000E+00  0.2000E+01
    -24.469  0.0000E+00  0.2000E+01
    -24.360  0.0000E+00  0.2000E+01
    -24.252  0.0000E+00  0.2000E+01
    -24.143  0.0000E+00  0.2000E+01
    -24.034  0.0000E+00  0.2000E+01
    -23.926  0.0000E+00  0.2000E+01
    -23.817  0.0000E+00  0.2000E+01
    -23.709  0.0000E+00  0.2000E+01
    -23.600  0.0000E+00  0.2000E+01
    -23.491  0.0000E+00  0.2000E+01
    -23.383  0.0000E+00  0.2000E+01
    -23.274  0.0000E+00  0.2000E+01
    -23.165  0.0000E+00  0.2000E+01
    -23.057  0.0000E+00  0.2000E+01
    -22.948  0.0000E+00  0.2000E+01
    -22.839  0.0000E+00  0.2000E+01
    -22.731  0.0000E+00  0.2000E+01
    -22.622  0.0000E+00  0.2000E+01
    -22.514  0.0000E+00  0.2000E+01
    -22.405  0.0000E+00  0.2000E+01
    -22.296  0.0000E+00  0.2000E+01
    -22.188  0.0000E+00  0.2000E+01
    -22.079  0.0000E+00  0.2000E+01
    -21.970  0.0000E+00  0.2000E+01
    -21.862  0.0000E+00  0.2000E+01
    -21.753  0.0000E+00  0.2000E+01
    -21.645  0.0000E+00  0.2000E+01
    -21.536  0.0000E+00  0.2000E+01
    -21.427  0.0000E+00  0.2000E+01
    -21.319  0.0000E+00  0.2000E+01
    -21.210  0.0000E+00  0.2000E+01
    -21.101  0.0000E+00  0.2000E+01
    -20.993  0.0000E+00  0.2000E+01
    -20.884  0.0000E+00  0.2000E+01
    -20.776  0.0000E+00  0.2000E+01
    -20.667  0.0000E+00  0.2000E+01
    -20.558  0.0000E+00  0.2000E+01
    -20.450  0.0000E+00  0.2000E+01
    -20.341  0.0000E+00  0.2000E+01
    -20.232  0.0000E+00  0.2000E+01
    -20.124  0.0000E+00  0.2000E+01
    -20.015  0.0000E+00  0.2000E+01
    -19.906  0.0000E+00  0.2000E+01
    -19.798  0.0000E+00  0.2000E+01
    -19.689  0.0000E+00  0.2000E+01
    -19.581  0.0000E+00  0.2000E+01
    -19.472  0.0000E+00  0.2000E+01
    -19.363  0.0000E+00  0.2000E+01
    -19.255  0.0000E+00  0.2000E+01
    -19.146  0.0000E+00  0.2000E+01
    -19.037  0.0000E+00  0.2000E+01
    -18.929  0.0000E+00  0.2000E+01
    -18.820  0.0000E+00  0.2000E+01
    -18.712  0.0000E+00  0.2000E+01
    -18.603  0.0000E+00  0.2000E+01
    -18.494  0.0000E+00  0.2000E+01
    -18.386  0.0000E+00  0.2000E+01
    -18.277  0.0000E+00  0.2000E+01
    -18.168  0.0000E+00  0.2000E+01
    -18.060  0.0000E+00  0.2000E+01
    -17.951  0.0000E+00  0.2000E+01
    -17.843  0.0000E+00  0.2000E+01
    -17.734  0.0000E+00  0.2000E+01
    -17.625  0.0000E+00  0.2000E+01
    -17.517  0.0000E+00  0.2000E+01
    -17.408  0.0000E+00  0.2000E+01
    -17.299  0.0000E+00  0.2000E+01
    -17.191  0.0000E+00  0.2000E+01
    -17.082  0.0000E+00  0.2000E+01
    -16.973  0.0000E+00  0.2000E+01
    -16.865  0.0000E+00  0.2000E+01
    -16.756  0.0000E+00  0.2000E+01
    -16.648  0.0000E+00  0.2000E+01
    -16.539  0.0000E+00  0.2000E+01
    -16.430  0.0000E+00  0.2000E+01
    -16.322  0.0000E+00  0.2000E+01
    -16.213  0.0000E+00  0.2000E+01
    -16.104  0.0000E+00  0.2000E+01
    -15.996  0.0000E+00  0.2000E+01
    -15.887  0.0000E+00  0.2000E+01
    -15.779  0.0000E+00  0.2000E+01
    -15.670  0.0000E+00  0.2000E+01
    -15.561  0.0000E+00  0.2000E+01
    -15.453  0.0000E+00  0.2000E+01
    -15.344  0.0000E+00  0.2000E+01
    -15.235  0.0000E+00  0.2000E+01
    -15.127  0.0000E+00  0.2000E+01
    -15.018  0.0000E+00  0.2000E+01
    -14.909  0.0000E+00  0.2000E+01
    -14.801  0.0000E+00  0.2000E+01
    -14.692  0.0000E+00  0.2000E+01
    -14.584  0.0000E+00  0.2000E+01
    -14.475  0.0000E+00  0.2000E+01
    -14.366  0.0000E+00  0.2000E+01
    -14.258  0.0000E+00  0.2000E+01
    -14.149  0.0000E+00  0.2000E+01
    -14.040 -0.3253E-61  0.2000E+01
    -13.932 -0.6520E+00  0.1929E+01
    -13.823  0.0000E+00  0.4000E+01
    -13.715  0.0000E+00  0.4000E+01
    -13.606  0.0000E+00  0.4000E+01
    -13.497  0.0000E+00  0.4000E+01
    -13.389  0.0000E+00  0.4000E+01
    -13.280  0.0000E+00  0.4000E+01
    -13.171  0.0000E+00  0.4000E+01
    -13.063  0.0000E+00  0.4000E+01
    -12.954  0.0000E+00  0.4000E+01
    -12.846  0.0000E+00  0.4000E+01
    -12.737  0.0000E+00  0.4000E+01
    -12.628  0.0000E+00  0.4000E+01
    -12.520  0.0000E+00  0.4000E+01
    -12.411  0.0000E+00  0.4000E+01
    -12.302  0.0000E+00  0.4000E+01
    -12.194 -0.6263-120  0.4000E+01
    -12.085 -0.3369E-13  0.4000E+01
    -11.976  0.3682E+02  0.8000E+01
    -11.868  0.0000E+00  0.8000E+01
    -11.759  0.0000E+00  0.8000E+01
    -11.651  0.0000E+00  0.8000E+01
    -11.542  0.0000E+00  0.8000E+01
    -11.433  0.0000E+00  0.8000E+01
    -11.325  0.0000E+00  0.8000E+01
    -11.216  0.0000E+00  0.8000E+01
    -11.107  0.0000E+00  0.8000E+01
    -10.999  0.0000E+00  0.8000E+01
    -10.890  0.0000E+00  0.8000E+01
    -10.782  0.0000E+00  0.8000E+01
    -10.673  0.0000E+00  0.8000E+01
    -10.564  0.0000E+00  0.8000E+01
    -10.456  0.0000E+00  0.8000E+01
    -10.347  0.0000E+00  0.8000E+01
    -10.238  0.0000E+00  0.8000E+01
    -10.130  0.0000E+00  0.8000E+01
    -10.021  0.0000E+00  0.8000E+01
     -9.913  0.0000E+00  0.8000E+01
     -9.804  0.0000E+00  0.8000E+01
     -9.695  0.0000E+00  0.8000E+01
     -9.587  0.0000E+00  0.8000E+01
     -9.478  0.0000E+00  0.8000E+01
     -9.369  0.0000E+00  0.8000E+01
     -9.261  0.0000E+00  0.8000E+01
     -9.152  0.0000E+00  0.8000E+01
     -9.043  0.0000E+00  0.8000E+01
     -8.935 -0.1369E-51  0.8000E+01
     -8.826  0.5457E+01  0.8593E+01
     -8.718  0.0000E+00  0.1000E+02
     -8.609  0.0000E+00  0.1000E+02
     -8.500  0.0000E+00  0.1000E+02
     -8.392  0.0000E+00  0.1000E+02
     -8.283  0.0000E+00  0.1000E+02
     -8.174  0.0000E+00  0.1000E+02
     -8.066  0.0000E+00  0.1000E+02
     -7.957  0.0000E+00  0.1000E+02
     -7.849  0.0000E+00  0.1000E+02
     -7.740  0.0000E+00  0.1000E+02
     -7.631  0.0000E+00  0.1000E+02
     -7.523  0.0000E+00  0.1000E+02
     -7.414  0.0000E+00  0.1000E+02
     -7.305  0.0000E+00  0.1000E+02
     -7.197  0.0000E+00  0.1000E+02
     -7.088  0.0000E+00  0.1000E+02
     -6.979  0.0000E+00  0.1000E+02
     -6.871  0.0000E+00  0.1000E+02
     -6.762  0.0000E+00  0.1000E+02
     -6.654  0.0000E+00  0.1000E+02
     -6.545  0.0000E+00  0.1000E+02
     -6.436  0.0000E+00  0.1000E+02
     -6.328  0.0000E+00  0.1000E+02
     -6.219  0.0000E+00  0.1000E+02
     -6.110  0.0000E+00  0.1000E+02
     -6.002  0.0000E+00  0.1000E+02
     -5.893  0.0000E+00  0.1000E+02
     -5.785  0.0000E+00  0.1000E+02
     -5.676  0.0000E+00  0.1000E+02
     -5.567  0.0000E+00  0.1000E+02
     -5.459  0.0000E+00  0.1000E+02
     -5.350  0.0000E+00  0.1000E+02
     -5.241  0.0000E+00  0.1000E+02
     -5.133  0.0000E+00  0.1000E+02
     -5.024  0.0000E+00  0.1000E+02
     -4.916  0.0000E+00  0.1000E+02
     -4.807  0.0000E+00  0.1000E+02
     -4.698  0.0000E+00  0.1000E+02
     -4.590  0.0000E+00  0.1000E+02
     -4.481  0.0000E+00  0.1000E+02
     -4.372  0.0000E+00  0.1000E+02
     -4.264  0.0000E+00  0.1000E+02
     -4.155  0.0000E+00  0.1000E+02
     -4.046  0.0000E+00  0.1000E+02
     -3.938  0.0000E+00  0.1000E+02
     -3.829  0.0000E+00  0.1000E+02
     -3.721  0.0000E+00  0.1000E+02
     -3.612  0.0000E+00  0.1000E+02
     -3.503  0.0000E+00  0.1000E+02
     -3.395  0.0000E+00  0.1000E+02
     -3.286  0.0000E+00  0.1000E+02
     -3.177  0.0000E+00  0.1000E+02
     -3.069  0.0000E+00  0.1000E+02
     -2.960  0.0000E+00  0.1000E+02
     -2.852  0.0000E+00  0.1000E+02
     -2.743  0.0000E+00  0.1000E+02
     -2.634  0.0000E+00  0.1000E+02
     -2.526  0.0000E+00  0.1000E+02
     -2.417  0.0000E+00  0.1000E+02
     -2.308  0.0000E+00  0.1000E+02
     -2.200  0.0000E+00  0.1000E+02
     -2.091  0.0000E+00  0.1000E+02
     -1.983  0.0000E+00  0.1000E+02
     -1.874  0.0000E+00  0.1000E+02
     -1.765 -0.2820-146  0.1000E+02
     -1.657 -0.3086E-23  0.1000E+02
     -1.548  0.3682E+02  0.1400E+02
     -1.439  0.0000E+00  0.1400E+02
     -1.331  0.0000E+00  0.1400E+02
     -1.222  0.0000E+00  0.1400E+02
     -1.113  0.0000E+00  0.1400E+02
     -1.005  0.0000E+00  0.1400E+02
     -0.896  0.0000E+00  0.1400E+02
     -0.788  0.0000E+00  0.1400E+02
     -0.679  0.0000E+00  0.1400E+02
     -0.570  0.0000E+00  0.1400E+02
     -0.462  0.0000E+00  0.1400E+02
     -0.353 -0.3877E-93  0.1400E+02
     -0.244 -0.3217E-05  0.1400E+02
     -0.136  0.1841E+02  0.1600E+02
     -0.027  0.0000E+00  0.1600E+02
      0.081  0.0000E+00  0.1600E+02
      0.190  0.0000E+00  0.1600E+02
      0.299  0.0000E+00  0.1600E+02
      0.407  0.0000E+00  0.1600E+02
      0.516  0.0000E+00  0.1600E+02
      0.625  0.0000E+00  0.1600E+02
      0.733  0.0000E+00  0.1600E+02
      0.842  0.0000E+00  0.1600E+02
      0.951  0.0000E+00  0.1600E+02
      1.059  0.0000E+00  0.1600E+02
      1.168  0.0000E+00  0.1600E+02
      1.276  0.0000E+00  0.1600E+02
