    2    2    1    1
  0.5000000E+03  0.1000000E-08  0.1000000E-08  0.1000000E-08  0.5000000E-15
  1.000000000000000E-004
  CAR 
 unknown system                          
     10      1      8
 
  0.0000000E+00  0.0000000E+00  0.0000000E+00  0.1000000E+01
    1      -29.831320   1.000000
    2      -13.919737   1.000000
    3      -12.025829   1.000000
    4      -12.025829   1.000000
    5       -8.823716   1.000000
    6       -1.580126   0.000000
    7       -1.580126   0.000000
    8       -0.204924   0.000000
