       N       E                     dE             d eps       ncg     rms          rms(c)
DAV:   1     0.860066896231E+02    0.86007E+02   -0.18010E+03    16   0.499E+02
DAV:   2     0.459935955108E+00   -0.85547E+02   -0.85547E+02    32   0.151E+02
DAV:   3    -0.154624176277E+02   -0.15922E+02   -0.15922E+02    32   0.893E+01
DAV:   4    -0.155962691698E+02   -0.13385E+00   -0.13385E+00    24   0.804E+00
DAV:   5    -0.155963520171E+02   -0.82847E-04   -0.82849E-04    24   0.208E-01    0.734E+00
DAV:   6    -0.148676500893E+02    0.72870E+00   -0.26877E+00    16   0.137E+01    0.395E+00
DAV:   7    -0.147158194042E+02    0.15183E+00   -0.58290E-01    24   0.573E+00    0.186E+00
DAV:   8    -0.146876236833E+02    0.28196E-01   -0.13005E-01    24   0.332E+00    0.531E-01
DAV:   9    -0.146870163614E+02    0.60732E-03   -0.91983E-03    16   0.916E-01    0.890E-02
DAV:  10    -0.146877354131E+02   -0.71905E-03   -0.58031E-04    16   0.196E-01    0.409E-02
DAV:  11    -0.146893365346E+02   -0.16011E-02   -0.77065E-04    16   0.166E-01    0.239E-02
DAV:  12    -0.146899927052E+02   -0.65617E-03   -0.72431E-05    16   0.541E-02    0.141E-02
DAV:  13    -0.146911529781E+02   -0.11603E-02   -0.17725E-04    16   0.726E-02    0.981E-03
DAV:  14    -0.146914574792E+02   -0.30450E-03   -0.28058E-05    16   0.295E-02    0.460E-03
DAV:  15    -0.146922840056E+02   -0.82653E-03   -0.18682E-05    16   0.251E-02    0.360E-03
DAV:  16    -0.146923279676E+02   -0.43962E-04   -0.23614E-06    16   0.112E-02
   1 F= -.14692328E+02 E0= -.14692328E+02  d E =0.321900E-12
