<?xml version="1.0" encoding="ISO-8859-1"?>
<modeling>
 <generator>
  <i name="program" type="string">vasp </i>
  <i name="version" type="string">5.4.1  </i>
  <i name="subversion" type="string">05Feb16 (build Feb 08 2018 09:21:51) complex                          parallel </i>
  <i name="platform" type="string">LinuxIFC </i>
  <i name="date" type="string">2019 10 28 </i>
  <i name="time" type="string">15:09:05 </i>
 </generator>
 <incar>
  <i type="string" name="PREC">normal</i>
  <i name="ENCUT">    350.00000000</i>
  <i type="int" name="NBANDS">     8</i>
  <i type="int" name="ISMEAR">     1</i>
  <i name="SIGMA">      0.01000000</i>
  <i type="logical" name="LWAVE"> F  </i>
  <i type="logical" name="LCHARG"> F  </i>
  <v type="int" name="KPOINT_BSE">    -1     0     0     0</v>
 </incar>
 <kpoints>
  <generation param="Monkhorst-Pack">
   <v type="int" name="divisions">       1        1        1 </v>
   <v name="usershift">      0.00000000       0.00000000       0.00000000 </v>
   <v name="genvec1">      1.00000000       0.00000000       0.00000000 </v>
   <v name="genvec2">      0.00000000       1.00000000       0.00000000 </v>
   <v name="genvec3">      0.00000000       0.00000000       1.00000000 </v>
   <v name="shift">      0.00000000       0.00000000       0.00000000 </v>
  </generation>
  <varray name="kpointlist" >
   <v>       0.00000000       0.00000000       0.00000000 </v>
  </varray>
  <varray name="weights" >
   <v>       1.00000000 </v>
  </varray>
 </kpoints>
 <parameters>
  <separator name="general" >
   <i type="string" name="SYSTEM">unknown system</i>
   <i type="logical" name="LCOMPAT"> F  </i>
  </separator>
  <separator name="electronic" >
   <i type="string" name="PREC">normal</i>
   <i name="ENMAX">    350.00000000</i>
   <i name="ENAUG">    644.87300000</i>
   <i name="EDIFF">      0.00010000</i>
   <i type="int" name="IALGO">    38</i>
   <i type="int" name="IWAVPR">    10</i>
   <i type="int" name="NBANDS">     8</i>
   <i name="NELECT">     10.00000000</i>
   <i type="int" name="TURBO">     0</i>
   <i type="int" name="IRESTART">     0</i>
   <i type="int" name="NREBOOT">     0</i>
   <i type="int" name="NMIN">     0</i>
   <i name="EREF">      0.00000000</i>
   <separator name="electronic smearing" >
    <i type="int" name="ISMEAR">     1</i>
    <i name="SIGMA">      0.01000000</i>
    <i name="KSPACING">      0.50000000</i>
    <i type="logical" name="KGAMMA"> T  </i>
   </separator>
   <separator name="electronic projectors" >
    <i type="logical" name="LREAL"> F  </i>
    <v name="ROPT">      0.00000000      0.00000000</v>
    <i type="int" name="LMAXPAW">  -100</i>
    <i type="int" name="LMAXMIX">     2</i>
    <i type="logical" name="NLSPLINE"> F  </i>
   </separator>
   <separator name="electronic startup" >
    <i type="int" name="ISTART">     0</i>
    <i type="int" name="ICHARG">     2</i>
    <i type="int" name="INIWAV">     1</i>
   </separator>
   <separator name="electronic spin" >
    <i type="int" name="ISPIN">     1</i>
    <i type="logical" name="LNONCOLLINEAR"> F  </i>
    <v name="MAGMOM">      1.00000000      1.00000000</v>
    <i name="NUPDOWN">     -1.00000000</i>
    <i type="logical" name="LSORBIT"> F  </i>
    <v name="SAXIS">      0.00000000      0.00000000      1.00000000</v>
    <i type="logical" name="LSPIRAL"> F  </i>
    <v name="QSPIRAL">      0.00000000      0.00000000      0.00000000</v>
    <i type="logical" name="LZEROZ"> F  </i>
   </separator>
   <separator name="electronic exchange-correlation" >
    <i type="logical" name="LASPH"> F  </i>
    <i type="logical" name="LMETAGGA"> F  </i>
   </separator>
   <separator name="electronic convergence" >
    <i type="int" name="NELM">    60</i>
    <i type="int" name="NELMDL">    -5</i>
    <i type="int" name="NELMIN">     2</i>
    <i name="ENINI">    350.00000000</i>
    <separator name="electronic convergence detail" >
     <i type="logical" name="LDIAG"> T  </i>
     <i type="logical" name="LSUBROT"> F  </i>
     <i name="WEIMIN">      0.00000000</i>
     <i name="EBREAK">      0.00000313</i>
     <i name="DEPER">      0.30000000</i>
     <i type="int" name="NRMM">     4</i>
     <i name="TIME">      0.40000000</i>
    </separator>
   </separator>
   <separator name="electronic mixer" >
    <i name="AMIX">      0.40000000</i>
    <i name="BMIX">      1.00000000</i>
    <i name="AMIN">      0.10000000</i>
    <i name="AMIX_MAG">      1.60000000</i>
    <i name="BMIX_MAG">      1.00000000</i>
    <separator name="electronic mixer details" >
     <i type="int" name="IMIX">     4</i>
     <i type="logical" name="MIXFIRST"> F  </i>
     <i type="int" name="MAXMIX">   -45</i>
     <i name="WC">    100.00000000</i>
     <i type="int" name="INIMIX">     1</i>
     <i type="int" name="MIXPRE">     1</i>
     <i type="int" name="MREMOVE">     5</i>
    </separator>
   </separator>
   <separator name="electronic dipolcorrection" >
    <i type="logical" name="LDIPOL"> F  </i>
    <i type="logical" name="LMONO"> F  </i>
    <i type="int" name="IDIPOL">     0</i>
    <i name="EPSILON">      1.00000000</i>
    <v name="DIPOL">   -100.00000000   -100.00000000   -100.00000000</v>
    <i name="EFIELD">      0.00000000</i>
   </separator>
  </separator>
  <separator name="grids" >
   <i type="int" name="NGX">    48</i>
   <i type="int" name="NGY">    48</i>
   <i type="int" name="NGZ">    48</i>
   <i type="int" name="NGXF">    96</i>
   <i type="int" name="NGYF">    96</i>
   <i type="int" name="NGZF">    96</i>
   <i type="logical" name="ADDGRID"> F  </i>
  </separator>
  <separator name="ionic" >
   <i type="int" name="NSW">     0</i>
   <i type="int" name="IBRION">    -1</i>
   <i type="int" name="ISIF">     2</i>
   <i name="PSTRESS">      0.00000000</i>
   <i name="EDIFFG">      0.00100000</i>
   <i type="int" name="NFREE">     0</i>
   <i name="POTIM">      0.50000000</i>
   <i name="SMASS">     -3.00000000</i>
   <i name="SCALEE">      1.00000000</i>
  </separator>
  <separator name="ionic md" >
   <i name="TEBEG">      0.00010000</i>
   <i name="TEEND">      0.00010000</i>
   <i type="int" name="NBLOCK">     1</i>
   <i type="int" name="KBLOCK">     1</i>
   <i type="int" name="NPACO">   256</i>
   <i name="APACO">     16.00000000</i>
  </separator>
  <separator name="symmetry" >
   <i type="int" name="ISYM">     2</i>
   <i name="SYMPREC">      0.00001000</i>
  </separator>
  <separator name="dos" >
   <i type="logical" name="LORBIT"> F  </i>
   <v name="RWIGS">     -1.00000000     -1.00000000</v>
   <i type="int" name="NEDOS">   301</i>
   <i name="EMIN">     10.00000000</i>
   <i name="EMAX">    -10.00000000</i>
   <i name="EFERMI">      0.00000000</i>
  </separator>
  <separator name="writing" >
   <i type="int" name="NWRITE">     2</i>
   <i type="logical" name="LWAVE"> F  </i>
   <i type="logical" name="LCHARG"> F  </i>
   <i type="logical" name="LPARD"> F  </i>
   <i type="logical" name="LVTOT"> F  </i>
   <i type="logical" name="LVHAR"> F  </i>
   <i type="logical" name="LELF"> F  </i>
   <i type="logical" name="LOPTICS"> F  </i>
   <v name="STM">      0.00000000      0.00000000      0.00000000      0.00000000      0.00000000      0.00000000      0.00000000</v>
  </separator>
  <separator name="performance" >
   <i type="int" name="NPAR">     8</i>
   <i type="int" name="NSIM">     4</i>
   <i type="int" name="NBLK">    -1</i>
   <i type="logical" name="LPLANE"> T  </i>
   <i type="logical" name="LSCALAPACK"> F  </i>
   <i type="logical" name="LSCAAWARE"> F  </i>
   <i type="logical" name="LSCALU"> F  </i>
   <i type="logical" name="LASYNC"> F  </i>
   <i type="logical" name="LORBITALREAL"> F  </i>
  </separator>
  <separator name="miscellaneous" >
   <i type="int" name="IDIOT">     3</i>
   <i type="logical" name="LMUSIC"> F  </i>
   <v name="POMASS">     12.01100000     16.00000000</v>
   <v name="DARWINR">      0.00000000      0.00000000</v>
   <v name="DARWINV">      1.00000000      1.00000000</v>
   <i type="logical" name="LCORR"> T  </i>
  </separator>
  <i type="logical" name="GGA_COMPAT"> T  </i>
  <i type="logical" name="LBERRY"> F  </i>
  <i type="int" name="ICORELEVEL">     0</i>
  <i type="logical" name="LDAU"> F  </i>
  <i type="int" name="I_CONSTRAINED_M">     0</i>
  <separator name="electronic exchange-correlation" >
   <i type="string" name="GGA">--</i>
   <i type="int" name="VOSKOWN">     0</i>
   <i type="logical" name="LHFCALC"> F  </i>
   <i type="string" name="PRECFOCK"></i>
   <i type="logical" name="LSYMGRAD"> F  </i>
   <i type="logical" name="LHFONE"> F  </i>
   <i type="logical" name="LRHFCALC"> F  </i>
   <i type="logical" name="LTHOMAS"> F  </i>
   <i type="logical" name="LMODELHF"> F  </i>
   <i name="ENCUT4O">     -1.00000000</i>
   <i type="int" name="EXXOEP">     0</i>
   <i type="int" name="FOURORBIT">     0</i>
   <i name="AEXX">      0.00000000</i>
   <i name="HFALPHA">      0.00000000</i>
   <i name="MCALPHA">      0.00000000</i>
   <i name="ALDAX">      1.00000000</i>
   <i name="AGGAX">      1.00000000</i>
   <i name="ALDAC">      1.00000000</i>
   <i name="AGGAC">      1.00000000</i>
   <i type="int" name="NKREDX">     1</i>
   <i type="int" name="NKREDY">     1</i>
   <i type="int" name="NKREDZ">     1</i>
   <i type="logical" name="SHIFTRED"> F  </i>
   <i type="logical" name="ODDONLY"> F  </i>
   <i type="logical" name="EVENONLY"> F  </i>
   <i type="int" name="LMAXFOCK">     0</i>
   <i type="int" name="NMAXFOCKAE">     0</i>
   <i type="logical" name="LFOCKAEDFT"> F  </i>
   <i name="HFSCREEN">      0.00000000</i>
   <i name="HFSCREENC">      0.00000000</i>
   <i type="int" name="NBANDSGWLOW">     0</i>
  </separator>
  <separator name="vdW DFT" >
   <i type="logical" name="LUSE_VDW"> F  </i>
   <i name="Zab_VDW">     -0.84910000</i>
   <i name="PARAM1">      0.12340000</i>
   <i name="PARAM2">      1.00000000</i>
   <i name="PARAM3">      0.00000000</i>
  </separator>
  <separator name="model GW" >
   <i type="int" name="MODEL_GW">     0</i>
   <i name="MODEL_EPS0">    300.00000000</i>
   <i name="MODEL_ALPHA">      1.00000000</i>
  </separator>
  <separator name="linear response parameters" >
   <i type="logical" name="LEPSILON"> F  </i>
   <i type="logical" name="LRPA"> F  </i>
   <i type="logical" name="LNABLA"> F  </i>
   <i type="logical" name="LVEL"> F  </i>
   <i type="int" name="KINTER">     0</i>
   <i name="CSHIFT">      0.10000000</i>
   <i name="OMEGAMAX">     -1.00000000</i>
   <i name="DEG_THRESHOLD">      0.00200000</i>
  </separator>
  <separator name="orbital magnetization" >
   <i type="logical" name="NUCIND"> F  </i>
   <v name="MAGPOS">      0.00000000      0.00000000      0.00000000</v>
   <i type="logical" name="LNICSALL"> T  </i>
   <i type="logical" name="ORBITALMAG"> F  </i>
   <i type="logical" name="LMAGBLOCH"> F  </i>
   <i type="logical" name="LCHIMAG"> F  </i>
   <i type="logical" name="LGAUGE"> T  </i>
   <i type="int" name="MAGATOM">     0</i>
   <v name="MAGDIPOL">      0.00000000      0.00000000      0.00000000</v>
   <v name="AVECCONST">      0.00000000      0.00000000      0.00000000</v>
  </separator>
  <separator name="response functions" >
   <i type="logical" name="LADDER"> F  </i>
   <i type="logical" name="LFXC"> F  </i>
   <i type="logical" name="LHARTREE"> T  </i>
   <i type="int" name="IBSE">     0</i>
   <v type="int" name="KPOINT">    -1     0     0     0</v>
   <i type="logical" name="LTCTE"> F  </i>
   <i type="logical" name="LTETE"> F  </i>
   <i type="logical" name="LTRIPLET"> F  </i>
   <i type="logical" name="LFXCEPS"> F  </i>
   <i type="logical" name="LFXHEG"> F  </i>
   <i type="int" name="NATURALO">     0</i>
   <i type="logical" name="L2ORDER"> F  </i>
   <i type="logical" name="LUSEW"> F  </i>
   <i name="ENCUTGW">     -2.00000000</i>
   <i name="ENCUTGWSOFT">     -2.00000000</i>
   <i name="ENCUTLF">     -1.00000000</i>
   <i type="int" name="LMAXMP2">    -1</i>
   <i name="SCISSOR">      0.00000000</i>
   <i type="int" name="NOMEGA">     0</i>
   <i type="int" name="NOMEGAR">     0</i>
   <i type="int" name="NBANDSGW">    -1</i>
   <i type="int" name="NBANDSO">    -1</i>
   <i type="int" name="NBANDSV">    -1</i>
   <i type="int" name="NELM">     1</i>
   <i type="int" name="NELMHF">     1</i>
   <i type="int" name="DIM">     3</i>
   <i type="int" name="ANTIRES">     0</i>
   <i name="OMEGAMAX">    -30.00000000</i>
   <i name="OMEGAMIN">    -30.00000000</i>
   <i name="OMEGATL">   -200.00000000</i>
   <i type="int" name="OMEGAGRID">     0</i>
   <i name="CSHIFT">     -0.10000000</i>
   <i type="logical" name="SELFENERGY"> F  </i>
   <i type="logical" name="LSPECTRAL"> F  </i>
   <i type="logical" name="LSPECTRALGW"> F  </i>
   <i type="logical" name="LSINGLES"> F  </i>
   <i type="logical" name="LFERMIGW"> F  </i>
   <i type="logical" name="ODDONLYGW"> F  </i>
   <i type="logical" name="EVENONLYGW"> F  </i>
   <i type="int" name="NKREDLFX">     1</i>
   <i type="int" name="NKREDLFY">     1</i>
   <i type="int" name="NKREDLFZ">     1</i>
   <i type="int" name="MAXMEM">  1800</i>
   <i type="int" name="TELESCOPE">     0</i>
   <i type="int" name="TAUPAR">     1</i>
   <i type="int" name="OMEGAPAR">    -1</i>
   <i name="LAMBDA">      1.00000000</i>
  </separator>
  <separator name="External order field" >
   <i name="OFIELD_KAPPA">      0.00000000</i>
   <v name="OFIELD_K">      0.00000000      0.00000000      0.00000000</v>
   <i name="OFIELD_Q6_NEAR">      0.00000000</i>
   <i name="OFIELD_Q6_FAR">      0.00000000</i>
   <i name="OFIELD_A">      0.00000000</i>
  </separator>
 </parameters>
 <atominfo>
  <atoms>       2 </atoms>
  <types>       2 </types>
  <array name="atoms" >
   <dimension dim="1">ion</dimension>
   <field type="string">element</field>
   <field type="int">atomtype</field>
   <set>
    <rc><c>C </c><c>   1</c></rc>
    <rc><c>O </c><c>   2</c></rc>
   </set>
  </array>
  <array name="atomtypes" >
   <dimension dim="1">type</dimension>
   <field type="int">atomspertype</field>
   <field type="string">element</field>
   <field>mass</field>
   <field>valence</field>
   <field type="string">pseudopotential</field>
   <set>
    <rc><c>   1</c><c>C </c><c>     12.01100000</c><c>      4.00000000</c><c>  PAW_PBE C 08Apr2002                   </c></rc>
    <rc><c>   1</c><c>O </c><c>     16.00000000</c><c>      6.00000000</c><c>  PAW_PBE O 08Apr2002                   </c></rc>
   </set>
  </array>
 </atominfo>
 <structure name="initialpos" >
  <crystal>
   <varray name="basis" >
    <v>      10.00000000       0.00000000       0.00000000 </v>
    <v>       0.00000000      10.00000000       0.00000000 </v>
    <v>       0.00000000       0.00000000      10.00000000 </v>
   </varray>
   <i name="volume">   1000.00000000 </i>
   <varray name="rec_basis" >
    <v>       0.10000000       0.00000000       0.00000000 </v>
    <v>       0.00000000       0.10000000       0.00000000 </v>
    <v>       0.00000000       0.00000000       0.10000000 </v>
   </varray>
  </crystal>
  <varray name="positions" >
   <v>       0.00000000       0.00000000       0.00000000 </v>
   <v>       0.11000000       0.00000000       0.00000000 </v>
  </varray>
 </structure>
 <calculation>
  <scstep>
   <time name="dav">    0.55    0.72</time>
   <time name="total">    1.36    1.78</time>
   <energy>
    <i name="alphaZ">      0.43695755 </i>
    <i name="ewald">    110.78635065 </i>
    <i name="hartreedc">   -567.18250745 </i>
    <i name="XCdc">     39.40112230 </i>
    <i name="pawpsdc">    455.07152327 </i>
    <i name="pawaedc">   -457.43959975 </i>
    <i name="eentropy">      0.00057979 </i>
    <i name="bandstr">    -74.13896721 </i>
    <i name="atom">    579.07123046 </i>
    <i name="e_fr_energy">     86.00668962 </i>
    <i name="e_wo_entrp">     86.00610983 </i>
    <i name="e_0_energy">     86.00649636 </i>
   </energy>
  </scstep>
  <scstep>
   <time name="dav">    0.74    0.75</time>
   <time name="total">    0.76    0.80</time>
   <energy>
    <i name="e_fr_energy">      0.45993596 </i>
    <i name="e_wo_entrp">      0.45935616 </i>
    <i name="e_0_energy">      0.45974269 </i>
   </energy>
  </scstep>
  <scstep>
   <time name="dav">    0.71    0.92</time>
   <time name="total">    0.71    0.94</time>
   <energy>
    <i name="e_fr_energy">    -15.46241763 </i>
    <i name="e_wo_entrp">    -15.46299742 </i>
    <i name="e_0_energy">    -15.46261089 </i>
   </energy>
  </scstep>
  <scstep>
   <time name="dav">    0.37    0.38</time>
   <time name="total">    0.43    0.49</time>
   <energy>
    <i name="e_fr_energy">    -15.59626917 </i>
    <i name="e_wo_entrp">    -15.59684896 </i>
    <i name="e_0_energy">    -15.59646243 </i>
   </energy>
  </scstep>
  <scstep>
   <time name="dav">    0.39    0.67</time>
   <time name="total">    1.25    1.54</time>
   <energy>
    <i name="e_fr_energy">    -15.59635202 </i>
    <i name="e_wo_entrp">    -15.59693181 </i>
    <i name="e_0_energy">    -15.59654528 </i>
   </energy>
  </scstep>
  <scstep>
   <time name="dav">    0.25    0.29</time>
   <time name="total">    1.30    1.60</time>
   <energy>
    <i name="e_fr_energy">    -14.86765009 </i>
    <i name="e_wo_entrp">    -14.86765009 </i>
    <i name="e_0_energy">    -14.86765009 </i>
   </energy>
  </scstep>
  <scstep>
   <time name="dav">    1.25    1.72</time>
   <time name="total">    3.56    4.71</time>
   <energy>
    <i name="e_fr_energy">    -14.71581940 </i>
    <i name="e_wo_entrp">    -14.71581940 </i>
    <i name="e_0_energy">    -14.71581940 </i>
   </energy>
  </scstep>
  <scstep>
   <time name="dav">    0.32    0.47</time>
   <time name="total">    1.27    1.85</time>
   <energy>
    <i name="e_fr_energy">    -14.68762368 </i>
    <i name="e_wo_entrp">    -14.68762368 </i>
    <i name="e_0_energy">    -14.68762368 </i>
   </energy>
  </scstep>
  <scstep>
   <time name="dav">    0.29    0.30</time>
   <time name="total">    1.08    1.27</time>
   <energy>
    <i name="e_fr_energy">    -14.68701636 </i>
    <i name="e_wo_entrp">    -14.68701636 </i>
    <i name="e_0_energy">    -14.68701636 </i>
   </energy>
  </scstep>
  <scstep>
   <time name="dav">    0.31    0.39</time>
   <time name="total">    1.60    2.07</time>
   <energy>
    <i name="e_fr_energy">    -14.68773541 </i>
    <i name="e_wo_entrp">    -14.68773541 </i>
    <i name="e_0_energy">    -14.68773541 </i>
   </energy>
  </scstep>
  <scstep>
   <time name="dav">    0.36    0.58</time>
   <time name="total">    1.22    1.72</time>
   <energy>
    <i name="e_fr_energy">    -14.68933653 </i>
    <i name="e_wo_entrp">    -14.68991633 </i>
    <i name="e_0_energy">    -14.68952980 </i>
   </energy>
  </scstep>
  <scstep>
   <time name="dav">    0.54    0.84</time>
   <time name="total">    1.50    2.00</time>
   <energy>
    <i name="e_fr_energy">    -14.68999271 </i>
    <i name="e_wo_entrp">    -14.69057250 </i>
    <i name="e_0_energy">    -14.69018597 </i>
   </energy>
  </scstep>
  <scstep>
   <time name="dav">    0.23    0.31</time>
   <time name="total">    0.98    1.23</time>
   <energy>
    <i name="e_fr_energy">    -14.69115298 </i>
    <i name="e_wo_entrp">    -14.69173277 </i>
    <i name="e_0_energy">    -14.69134624 </i>
   </energy>
  </scstep>
  <scstep>
   <time name="dav">    0.32    0.47</time>
   <time name="total">    1.43    2.01</time>
   <energy>
    <i name="e_fr_energy">    -14.69145748 </i>
    <i name="e_wo_entrp">    -14.69203727 </i>
    <i name="e_0_energy">    -14.69165074 </i>
   </energy>
  </scstep>
  <scstep>
   <time name="dav">    0.42    0.80</time>
   <time name="total">    1.67    2.57</time>
   <energy>
    <i name="e_fr_energy">    -14.69228401 </i>
    <i name="e_wo_entrp">    -14.69228401 </i>
    <i name="e_0_energy">    -14.69228401 </i>
   </energy>
  </scstep>
  <scstep>
   <time name="dav">    0.55    0.81</time>
   <time name="total">    1.16    1.80</time>
   <energy>
    <i name="alphaZ">      0.43695755 </i>
    <i name="ewald">    110.78635065 </i>
    <i name="hartreedc">   -590.05129738 </i>
    <i name="XCdc">     40.73215450 </i>
    <i name="pawpsdc">    961.31324862 </i>
    <i name="pawaedc">   -963.72811061 </i>
    <i name="eentropy">      0.00000000 </i>
    <i name="bandstr">   -153.25286176 </i>
    <i name="atom">    579.07123046 </i>
    <i name="e_fr_energy">    -14.69232797 </i>
    <i name="e_wo_entrp">    -14.69232797 </i>
    <i name="e_0_energy">    -14.69232797 </i>
   </energy>
  </scstep>
  <structure>
   <crystal>
    <varray name="basis" >
     <v>      10.00000000       0.00000000       0.00000000 </v>
     <v>       0.00000000      10.00000000       0.00000000 </v>
     <v>       0.00000000       0.00000000      10.00000000 </v>
    </varray>
    <i name="volume">   1000.00000000 </i>
    <varray name="rec_basis" >
     <v>       0.10000000       0.00000000       0.00000000 </v>
     <v>       0.00000000       0.10000000       0.00000000 </v>
     <v>       0.00000000       0.00000000       0.10000000 </v>
    </varray>
   </crystal>
   <varray name="positions" >
    <v>       0.00000000       0.00000000       0.00000000 </v>
    <v>       0.11000000       0.00000000       0.00000000 </v>
   </varray>
  </structure>
  <varray name="forces" >
   <v>      -5.77671642      -0.00000000       0.00000000 </v>
   <v>       5.77671642       0.00000000      -0.00000000 </v>
  </varray>
  <varray name="stress" >
   <v>       6.17788932       0.00000000       0.00000000 </v>
   <v>       0.00000000      -3.72185233      -0.00000000 </v>
   <v>      -0.00000000      -0.00000000      -3.72185233 </v>
  </varray>
  <energy>
   <i name="e_fr_energy">    -14.69232797 </i>
   <i name="e_wo_entrp">    -14.69232797 </i>
   <i name="e_0_energy">      0.00000000 </i>
  </energy>
  <time name="totalsc">   24.13   31.73</time>
  <eigenvalues>
   <array>
    <dimension dim="1">band</dimension>
    <dimension dim="2">kpoint</dimension>
    <dimension dim="3">spin</dimension>
    <field>eigene</field>
    <field>occ</field>
    <set>
     <set comment="spin 1">
      <set comment="kpoint 1">
       <r>  -29.8313    1.0000 </r>
       <r>  -13.9197    1.0000 </r>
       <r>  -12.0258    1.0000 </r>
       <r>  -12.0258    1.0000 </r>
       <r>   -8.8237    1.0000 </r>
       <r>   -1.5801    0.0000 </r>
       <r>   -1.5801    0.0000 </r>
       <r>   -0.2049    0.0000 </r>
      </set>
     </set>
    </set>
   </array>
  </eigenvalues>
  <separator name="orbital magnetization" >
   <v name="MAGDIPOLOUT">      0.00000000      0.00000000      0.00000000</v>
  </separator>
  <dos>
   <i name="efermi">     -8.77189046 </i>
   <total>
    <array>
     <dimension dim="1">gridpoints</dimension>
     <dimension dim="2">spin</dimension>
     <field>energy</field>
     <field>total</field>
     <field>integrated</field>
     <set>
      <set comment="spin 1">
       <r>   -31.3126     0.0000     0.0000 </r>
       <r>   -31.2040     0.0000     0.0000 </r>
       <r>   -31.0954     0.0000     0.0000 </r>
       <r>   -30.9867     0.0000     0.0000 </r>
       <r>   -30.8781     0.0000     0.0000 </r>
       <r>   -30.7695     0.0000     0.0000 </r>
       <r>   -30.6609     0.0000     0.0000 </r>
       <r>   -30.5522     0.0000     0.0000 </r>
       <r>   -30.4436     0.0000     0.0000 </r>
       <r>   -30.3350     0.0000     0.0000 </r>
       <r>   -30.2263     0.0000     0.0000 </r>
       <r>   -30.1177     0.0000     0.0000 </r>
       <r>   -30.0091    -0.0000    -0.0000 </r>
       <r>   -29.9004    -0.0000    -0.0000 </r>
       <r>   -29.7918    18.4111     2.0000 </r>
       <r>   -29.6832     0.0000     2.0000 </r>
       <r>   -29.5746     0.0000     2.0000 </r>
       <r>   -29.4659     0.0000     2.0000 </r>
       <r>   -29.3573     0.0000     2.0000 </r>
       <r>   -29.2487     0.0000     2.0000 </r>
       <r>   -29.1400     0.0000     2.0000 </r>
       <r>   -29.0314     0.0000     2.0000 </r>
       <r>   -28.9228     0.0000     2.0000 </r>
       <r>   -28.8141     0.0000     2.0000 </r>
       <r>   -28.7055     0.0000     2.0000 </r>
       <r>   -28.5969     0.0000     2.0000 </r>
       <r>   -28.4883     0.0000     2.0000 </r>
       <r>   -28.3796     0.0000     2.0000 </r>
       <r>   -28.2710     0.0000     2.0000 </r>
       <r>   -28.1624     0.0000     2.0000 </r>
       <r>   -28.0537     0.0000     2.0000 </r>
       <r>   -27.9451     0.0000     2.0000 </r>
       <r>   -27.8365     0.0000     2.0000 </r>
       <r>   -27.7278     0.0000     2.0000 </r>
       <r>   -27.6192     0.0000     2.0000 </r>
       <r>   -27.5106     0.0000     2.0000 </r>
       <r>   -27.4020     0.0000     2.0000 </r>
       <r>   -27.2933     0.0000     2.0000 </r>
       <r>   -27.1847     0.0000     2.0000 </r>
       <r>   -27.0761     0.0000     2.0000 </r>
       <r>   -26.9674     0.0000     2.0000 </r>
       <r>   -26.8588     0.0000     2.0000 </r>
       <r>   -26.7502     0.0000     2.0000 </r>
       <r>   -26.6415     0.0000     2.0000 </r>
       <r>   -26.5329     0.0000     2.0000 </r>
       <r>   -26.4243     0.0000     2.0000 </r>
       <r>   -26.3157     0.0000     2.0000 </r>
       <r>   -26.2070     0.0000     2.0000 </r>
       <r>   -26.0984     0.0000     2.0000 </r>
       <r>   -25.9898     0.0000     2.0000 </r>
       <r>   -25.8811     0.0000     2.0000 </r>
       <r>   -25.7725     0.0000     2.0000 </r>
       <r>   -25.6639     0.0000     2.0000 </r>
       <r>   -25.5552     0.0000     2.0000 </r>
       <r>   -25.4466     0.0000     2.0000 </r>
       <r>   -25.3380     0.0000     2.0000 </r>
       <r>   -25.2294     0.0000     2.0000 </r>
       <r>   -25.1207     0.0000     2.0000 </r>
       <r>   -25.0121     0.0000     2.0000 </r>
       <r>   -24.9035     0.0000     2.0000 </r>
       <r>   -24.7948     0.0000     2.0000 </r>
       <r>   -24.6862     0.0000     2.0000 </r>
       <r>   -24.5776     0.0000     2.0000 </r>
       <r>   -24.4689     0.0000     2.0000 </r>
       <r>   -24.3603     0.0000     2.0000 </r>
       <r>   -24.2517     0.0000     2.0000 </r>
       <r>   -24.1431     0.0000     2.0000 </r>
       <r>   -24.0344     0.0000     2.0000 </r>
       <r>   -23.9258     0.0000     2.0000 </r>
       <r>   -23.8172     0.0000     2.0000 </r>
       <r>   -23.7085     0.0000     2.0000 </r>
       <r>   -23.5999     0.0000     2.0000 </r>
       <r>   -23.4913     0.0000     2.0000 </r>
       <r>   -23.3826     0.0000     2.0000 </r>
       <r>   -23.2740     0.0000     2.0000 </r>
       <r>   -23.1654     0.0000     2.0000 </r>
       <r>   -23.0568     0.0000     2.0000 </r>
       <r>   -22.9481     0.0000     2.0000 </r>
       <r>   -22.8395     0.0000     2.0000 </r>
       <r>   -22.7309     0.0000     2.0000 </r>
       <r>   -22.6222     0.0000     2.0000 </r>
       <r>   -22.5136     0.0000     2.0000 </r>
       <r>   -22.4050     0.0000     2.0000 </r>
       <r>   -22.2963     0.0000     2.0000 </r>
       <r>   -22.1877     0.0000     2.0000 </r>
       <r>   -22.0791     0.0000     2.0000 </r>
       <r>   -21.9704     0.0000     2.0000 </r>
       <r>   -21.8618     0.0000     2.0000 </r>
       <r>   -21.7532     0.0000     2.0000 </r>
       <r>   -21.6446     0.0000     2.0000 </r>
       <r>   -21.5359     0.0000     2.0000 </r>
       <r>   -21.4273     0.0000     2.0000 </r>
       <r>   -21.3187     0.0000     2.0000 </r>
       <r>   -21.2100     0.0000     2.0000 </r>
       <r>   -21.1014     0.0000     2.0000 </r>
       <r>   -20.9928     0.0000     2.0000 </r>
       <r>   -20.8841     0.0000     2.0000 </r>
       <r>   -20.7755     0.0000     2.0000 </r>
       <r>   -20.6669     0.0000     2.0000 </r>
       <r>   -20.5583     0.0000     2.0000 </r>
       <r>   -20.4496     0.0000     2.0000 </r>
       <r>   -20.3410     0.0000     2.0000 </r>
       <r>   -20.2324     0.0000     2.0000 </r>
       <r>   -20.1237     0.0000     2.0000 </r>
       <r>   -20.0151     0.0000     2.0000 </r>
       <r>   -19.9065     0.0000     2.0000 </r>
       <r>   -19.7978     0.0000     2.0000 </r>
       <r>   -19.6892     0.0000     2.0000 </r>
       <r>   -19.5806     0.0000     2.0000 </r>
       <r>   -19.4720     0.0000     2.0000 </r>
       <r>   -19.3633     0.0000     2.0000 </r>
       <r>   -19.2547     0.0000     2.0000 </r>
       <r>   -19.1461     0.0000     2.0000 </r>
       <r>   -19.0374     0.0000     2.0000 </r>
       <r>   -18.9288     0.0000     2.0000 </r>
       <r>   -18.8202     0.0000     2.0000 </r>
       <r>   -18.7115     0.0000     2.0000 </r>
       <r>   -18.6029     0.0000     2.0000 </r>
       <r>   -18.4943     0.0000     2.0000 </r>
       <r>   -18.3857     0.0000     2.0000 </r>
       <r>   -18.2770     0.0000     2.0000 </r>
       <r>   -18.1684     0.0000     2.0000 </r>
       <r>   -18.0598     0.0000     2.0000 </r>
       <r>   -17.9511     0.0000     2.0000 </r>
       <r>   -17.8425     0.0000     2.0000 </r>
       <r>   -17.7339     0.0000     2.0000 </r>
       <r>   -17.6252     0.0000     2.0000 </r>
       <r>   -17.5166     0.0000     2.0000 </r>
       <r>   -17.4080     0.0000     2.0000 </r>
       <r>   -17.2994     0.0000     2.0000 </r>
       <r>   -17.1907     0.0000     2.0000 </r>
       <r>   -17.0821     0.0000     2.0000 </r>
       <r>   -16.9735     0.0000     2.0000 </r>
       <r>   -16.8648     0.0000     2.0000 </r>
       <r>   -16.7562     0.0000     2.0000 </r>
       <r>   -16.6476     0.0000     2.0000 </r>
       <r>   -16.5389     0.0000     2.0000 </r>
       <r>   -16.4303     0.0000     2.0000 </r>
       <r>   -16.3217     0.0000     2.0000 </r>
       <r>   -16.2131     0.0000     2.0000 </r>
       <r>   -16.1044     0.0000     2.0000 </r>
       <r>   -15.9958     0.0000     2.0000 </r>
       <r>   -15.8872     0.0000     2.0000 </r>
       <r>   -15.7785     0.0000     2.0000 </r>
       <r>   -15.6699     0.0000     2.0000 </r>
       <r>   -15.5613     0.0000     2.0000 </r>
       <r>   -15.4526     0.0000     2.0000 </r>
       <r>   -15.3440     0.0000     2.0000 </r>
       <r>   -15.2354     0.0000     2.0000 </r>
       <r>   -15.1268     0.0000     2.0000 </r>
       <r>   -15.0181     0.0000     2.0000 </r>
       <r>   -14.9095     0.0000     2.0000 </r>
       <r>   -14.8009     0.0000     2.0000 </r>
       <r>   -14.6922     0.0000     2.0000 </r>
       <r>   -14.5836     0.0000     2.0000 </r>
       <r>   -14.4750     0.0000     2.0000 </r>
       <r>   -14.3663     0.0000     2.0000 </r>
       <r>   -14.2577     0.0000     2.0000 </r>
       <r>   -14.1491     0.0000     2.0000 </r>
       <r>   -14.0405    -0.0000     2.0000 </r>
       <r>   -13.9318    -0.6520     1.9292 </r>
       <r>   -13.8232     0.0000     4.0000 </r>
       <r>   -13.7146     0.0000     4.0000 </r>
       <r>   -13.6059     0.0000     4.0000 </r>
       <r>   -13.4973     0.0000     4.0000 </r>
       <r>   -13.3887     0.0000     4.0000 </r>
       <r>   -13.2800     0.0000     4.0000 </r>
       <r>   -13.1714     0.0000     4.0000 </r>
       <r>   -13.0628     0.0000     4.0000 </r>
       <r>   -12.9542     0.0000     4.0000 </r>
       <r>   -12.8455     0.0000     4.0000 </r>
       <r>   -12.7369     0.0000     4.0000 </r>
       <r>   -12.6283     0.0000     4.0000 </r>
       <r>   -12.5196     0.0000     4.0000 </r>
       <r>   -12.4110     0.0000     4.0000 </r>
       <r>   -12.3024     0.0000     4.0000 </r>
       <r>   -12.1937    -0.0000     4.0000 </r>
       <r>   -12.0851    -0.0000     4.0000 </r>
       <r>   -11.9765    36.8222     8.0000 </r>
       <r>   -11.8678     0.0000     8.0000 </r>
       <r>   -11.7592     0.0000     8.0000 </r>
       <r>   -11.6506     0.0000     8.0000 </r>
       <r>   -11.5420     0.0000     8.0000 </r>
       <r>   -11.4333     0.0000     8.0000 </r>
       <r>   -11.3247     0.0000     8.0000 </r>
       <r>   -11.2161     0.0000     8.0000 </r>
       <r>   -11.1074     0.0000     8.0000 </r>
       <r>   -10.9988     0.0000     8.0000 </r>
       <r>   -10.8902     0.0000     8.0000 </r>
       <r>   -10.7815     0.0000     8.0000 </r>
       <r>   -10.6729     0.0000     8.0000 </r>
       <r>   -10.5643     0.0000     8.0000 </r>
       <r>   -10.4557     0.0000     8.0000 </r>
       <r>   -10.3470     0.0000     8.0000 </r>
       <r>   -10.2384     0.0000     8.0000 </r>
       <r>   -10.1298     0.0000     8.0000 </r>
       <r>   -10.0211     0.0000     8.0000 </r>
       <r>    -9.9125     0.0000     8.0000 </r>
       <r>    -9.8039     0.0000     8.0000 </r>
       <r>    -9.6952     0.0000     8.0000 </r>
       <r>    -9.5866     0.0000     8.0000 </r>
       <r>    -9.4780     0.0000     8.0000 </r>
       <r>    -9.3694     0.0000     8.0000 </r>
       <r>    -9.2607     0.0000     8.0000 </r>
       <r>    -9.1521     0.0000     8.0000 </r>
       <r>    -9.0435     0.0000     8.0000 </r>
       <r>    -8.9348    -0.0000     8.0000 </r>
       <r>    -8.8262     5.4567     8.5928 </r>
       <r>    -8.7176     0.0000    10.0000 </r>
       <r>    -8.6089     0.0000    10.0000 </r>
       <r>    -8.5003     0.0000    10.0000 </r>
       <r>    -8.3917     0.0000    10.0000 </r>
       <r>    -8.2831     0.0000    10.0000 </r>
       <r>    -8.1744     0.0000    10.0000 </r>
       <r>    -8.0658     0.0000    10.0000 </r>
       <r>    -7.9572     0.0000    10.0000 </r>
       <r>    -7.8485     0.0000    10.0000 </r>
       <r>    -7.7399     0.0000    10.0000 </r>
       <r>    -7.6313     0.0000    10.0000 </r>
       <r>    -7.5226     0.0000    10.0000 </r>
       <r>    -7.4140     0.0000    10.0000 </r>
       <r>    -7.3054     0.0000    10.0000 </r>
       <r>    -7.1968     0.0000    10.0000 </r>
       <r>    -7.0881     0.0000    10.0000 </r>
       <r>    -6.9795     0.0000    10.0000 </r>
       <r>    -6.8709     0.0000    10.0000 </r>
       <r>    -6.7622     0.0000    10.0000 </r>
       <r>    -6.6536     0.0000    10.0000 </r>
       <r>    -6.5450     0.0000    10.0000 </r>
       <r>    -6.4363     0.0000    10.0000 </r>
       <r>    -6.3277     0.0000    10.0000 </r>
       <r>    -6.2191     0.0000    10.0000 </r>
       <r>    -6.1105     0.0000    10.0000 </r>
       <r>    -6.0018     0.0000    10.0000 </r>
       <r>    -5.8932     0.0000    10.0000 </r>
       <r>    -5.7846     0.0000    10.0000 </r>
       <r>    -5.6759     0.0000    10.0000 </r>
       <r>    -5.5673     0.0000    10.0000 </r>
       <r>    -5.4587     0.0000    10.0000 </r>
       <r>    -5.3500     0.0000    10.0000 </r>
       <r>    -5.2414     0.0000    10.0000 </r>
       <r>    -5.1328     0.0000    10.0000 </r>
       <r>    -5.0242     0.0000    10.0000 </r>
       <r>    -4.9155     0.0000    10.0000 </r>
       <r>    -4.8069     0.0000    10.0000 </r>
       <r>    -4.6983     0.0000    10.0000 </r>
       <r>    -4.5896     0.0000    10.0000 </r>
       <r>    -4.4810     0.0000    10.0000 </r>
       <r>    -4.3724     0.0000    10.0000 </r>
       <r>    -4.2637     0.0000    10.0000 </r>
       <r>    -4.1551     0.0000    10.0000 </r>
       <r>    -4.0465     0.0000    10.0000 </r>
       <r>    -3.9379     0.0000    10.0000 </r>
       <r>    -3.8292     0.0000    10.0000 </r>
       <r>    -3.7206     0.0000    10.0000 </r>
       <r>    -3.6120     0.0000    10.0000 </r>
       <r>    -3.5033     0.0000    10.0000 </r>
       <r>    -3.3947     0.0000    10.0000 </r>
       <r>    -3.2861     0.0000    10.0000 </r>
       <r>    -3.1774     0.0000    10.0000 </r>
       <r>    -3.0688     0.0000    10.0000 </r>
       <r>    -2.9602     0.0000    10.0000 </r>
       <r>    -2.8515     0.0000    10.0000 </r>
       <r>    -2.7429     0.0000    10.0000 </r>
       <r>    -2.6343     0.0000    10.0000 </r>
       <r>    -2.5257     0.0000    10.0000 </r>
       <r>    -2.4170     0.0000    10.0000 </r>
       <r>    -2.3084     0.0000    10.0000 </r>
       <r>    -2.1998     0.0000    10.0000 </r>
       <r>    -2.0911     0.0000    10.0000 </r>
       <r>    -1.9825     0.0000    10.0000 </r>
       <r>    -1.8739     0.0000    10.0000 </r>
       <r>    -1.7652    -0.0000    10.0000 </r>
       <r>    -1.6566    -0.0000    10.0000 </r>
       <r>    -1.5480    36.8232    14.0001 </r>
       <r>    -1.4394     0.0000    14.0000 </r>
       <r>    -1.3307     0.0000    14.0000 </r>
       <r>    -1.2221     0.0000    14.0000 </r>
       <r>    -1.1135     0.0000    14.0000 </r>
       <r>    -1.0048     0.0000    14.0000 </r>
       <r>    -0.8962     0.0000    14.0000 </r>
       <r>    -0.7876     0.0000    14.0000 </r>
       <r>    -0.6789     0.0000    14.0000 </r>
       <r>    -0.5703     0.0000    14.0000 </r>
       <r>    -0.4617     0.0000    14.0000 </r>
       <r>    -0.3531    -0.0000    14.0000 </r>
       <r>    -0.2444    -0.0000    14.0000 </r>
       <r>    -0.1358    18.4111    16.0000 </r>
       <r>    -0.0272     0.0000    16.0000 </r>
       <r>     0.0815     0.0000    16.0000 </r>
       <r>     0.1901     0.0000    16.0000 </r>
       <r>     0.2987     0.0000    16.0000 </r>
       <r>     0.4074     0.0000    16.0000 </r>
       <r>     0.5160     0.0000    16.0000 </r>
       <r>     0.6246     0.0000    16.0000 </r>
       <r>     0.7332     0.0000    16.0000 </r>
       <r>     0.8419     0.0000    16.0000 </r>
       <r>     0.9505     0.0000    16.0000 </r>
       <r>     1.0591     0.0000    16.0000 </r>
       <r>     1.1678     0.0000    16.0000 </r>
       <r>     1.2764     0.0000    16.0000 </r>
      </set>
     </set>
    </array>
   </total>
  </dos>
 </calculation>
 <structure name="finalpos" >
  <crystal>
   <varray name="basis" >
    <v>      10.00000000       0.00000000       0.00000000 </v>
    <v>       0.00000000      10.00000000       0.00000000 </v>
    <v>       0.00000000       0.00000000      10.00000000 </v>
   </varray>
   <i name="volume">   1000.00000000 </i>
   <varray name="rec_basis" >
    <v>       0.10000000       0.00000000       0.00000000 </v>
    <v>       0.00000000       0.10000000       0.00000000 </v>
    <v>       0.00000000       0.00000000       0.10000000 </v>
   </varray>
  </crystal>
  <varray name="positions" >
   <v>       0.00000000       0.00000000       0.00000000 </v>
   <v>       0.11000000       0.00000000       0.00000000 </v>
  </varray>
 </structure>
</modeling>
