 Entering Gaussian System, Link 0=g03
 Input=butadiene.com
 Output=butadiene.log
 Initial command:
 /opt/und/gaussian/03D01/linux86-64/g03/l1.exe /scratch/Gau-6134.inp -scrdir=/scratch/
 Entering Link 1 = /opt/und/gaussian/03D01/linux86-64/g03/l1.exe PID=      6135.
  
 Copyright (c) 1988,1990,1992,1993,1995,1998,2003,2004, Gaussian, Inc.
                  All Rights Reserved.
  
 This is the Gaussian(R) 03 program.  It is based on the
 the Gaussian(R) 98 system (copyright 1998, Gaussian, Inc.),
 the Gaussian(R) 94 system (copyright 1995, Gaussian, Inc.),
 the Gaussian 92(TM) system (copyright 1992, Gaussian, Inc.),
 the Gaussian 90(TM) system (copyright 1990, Gaussian, Inc.),
 the Gaussian 88(TM) system (copyright 1988, Gaussian, Inc.),
 the Gaussian 86(TM) system (copyright 1986, Carnegie Mellon
 University), and the Gaussian 82(TM) system (copyright 1983,
 Carnegie Mellon University). Gaussian is a federally registered
 trademark of Gaussian, Inc.
  
 This software contains proprietary and confidential information,
 including trade secrets, belonging to Gaussian, Inc.
  
 This software is provided under written license and may be
 used, copied, transmitted, or stored only in accord with that
 written license.
  
 The following legend is applicable only to US Government
 contracts under FAR:
  
                    RESTRICTED RIGHTS LEGEND
  
 Use, reproduction and disclosure by the US Government is
 subject to restrictions as set forth in subparagraphs (a)
 and (c) of the Commercial Computer Software - Restricted
 Rights clause in FAR 52.227-19.
  
 Gaussian, Inc.
 340 Quinnipiac St., Bldg. 40, Wallingford CT 06492
  
  
 ---------------------------------------------------------------
 Warning -- This program may not be used in any manner that
 competes with the business of Gaussian, Inc. or will provide
 assistance to any competitor of Gaussian, Inc.  The licensee
 of this program is prohibited from giving any competitor of
 Gaussian, Inc. access to this program.  By using this program,
 the user acknowledges that Gaussian, Inc. is engaged in the
 business of creating and licensing software in the field of
 computational chemistry and represents and warrants to the
 licensee that it is not a competitor of Gaussian, Inc. and that
 it will not use this program in any manner prohibited above.
 ---------------------------------------------------------------
  

 Cite this work as:
 Gaussian 03, Revision D.01,
 M. J. Frisch, G. W. Trucks, H. B. Schlegel, G. E. Scuseria, 
 M. A. Robb, J. R. Cheeseman, J. A. Montgomery, Jr., T. Vreven, 
 K. N. Kudin, J. C. Burant, J. M. Millam, S. S. Iyengar, J. Tomasi, 
 V. Barone, B. Mennucci, M. Cossi, G. Scalmani, N. Rega, 
 G. A. Petersson, H. Nakatsuji, M. Hada, M. Ehara, K. Toyota, 
 R. Fukuda, J. Hasegawa, M. Ishida, T. Nakajima, Y. Honda, O. Kitao, 
 H. Nakai, M. Klene, X. Li, J. E. Knox, H. P. Hratchian, J. B. Cross, 
 V. Bakken, C. Adamo, J. Jaramillo, R. Gomperts, R. E. Stratmann, 
 O. Yazyev, A. J. Austin, R. Cammi, C. Pomelli, J. W. Ochterski, 
 P. Y. Ayala, K. Morokuma, G. A. Voth, P. Salvador, J. J. Dannenberg, 
 V. G. Zakrzewski, S. Dapprich, A. D. Daniels, M. C. Strain, 
 O. Farkas, D. K. Malick, A. D. Rabuck, K. Raghavachari, 
 J. B. Foresman, J. V. Ortiz, Q. Cui, A. G. Baboul, S. Clifford, 
 J. Cioslowski, B. B. Stefanov, G. Liu, A. Liashenko, P. Piskorz, 
 I. Komaromi, R. L. Martin, D. J. Fox, T. Keith, M. A. Al-Laham, 
 C. Y. Peng, A. Nanayakkara, M. Challacombe, P. M. W. Gill, 
 B. Johnson, W. Chen, M. W. Wong, C. Gonzalez, and J. A. Pople, 
 Gaussian, Inc., Wallingford CT, 2004.
 
 ******************************************
 Gaussian 03:  AM64L-G03RevD.01 13-Oct-2005
                 8-Nov-2007 
 ******************************************
 %chk=butadiene.chk
 %mem=6MW
 %nproc=1
 Will use up to    1 processors via shared memory.
 -------------------------
 # opt freq b3lyp/6-31g(d)
 -------------------------
 1/14=-1,18=20,26=3,38=1/1,3;
 2/9=110,17=6,18=5,40=1/2;
 3/5=1,6=6,7=1,11=2,16=1,25=1,30=1,74=-5/1,2,3;
 4//1;
 5/5=2,38=5/2;
 6/7=2,8=2,9=2,10=2,28=1/1;
 7//1,2,3,16;
 1/14=-1,18=20/3(3);
 2/9=110/2;
 6/7=2,8=2,9=2,10=2,19=2,28=1/1;
 99//99;
 2/9=110/2;
 3/5=1,6=6,7=1,11=2,16=1,25=1,30=1,74=-5/1,2,3;
 4/5=5,16=3/1;
 5/5=2,38=5/2;
 7//1,2,3,16;
 1/14=-1,18=20/3(-5);
 2/9=110/2;
 6/7=2,8=2,9=2,10=2,19=2,28=1/1;
 99/9=1/99;
 ----------------------
 butadiene optimization
 ----------------------
 Symbolic Z-matrix:
 Charge =  0 Multiplicity = 1
 C
 C                    1    B1
 H                    1    B2       2    A1
 H                    1    B3       2    A2       3    D1       0
 H                    2    B4       1    A3       4    D2       0
 C                    2    B5       1    A4       4    D3       0
 C                    6    B6       2    A5       1    D4       0
 H                    6    B7       2    A6       1    D5       0
 H                    7    B8       6    A7       2    D6       0
 H                    7    B9       6    A8       2    D7       0
       Variables:
  B1                    1.32592                  
  B2                    1.09827                  
  B3                    1.09826                  
  B4                    1.09827                  
  B5                    1.54                     
  B6                    1.32592                  
  B7                    1.09826                  
  B8                    1.09827                  
  B9                    1.09826                  
  A1                  122.71594                  
  A2                  122.71798                  
  A3                  122.71594                  
  A4                  122.71798                  
  A5                  122.71594                  
  A6                  114.56608                  
  A7                  122.71594                  
  A8                  122.71798                  
  D1                  180.                       
  D2                    0.                       
  D3                 -180.                       
  D4                    0.                       
  D5                 -180.                       
  D6                 -180.                       
  D7                    0.                       
 

 GradGradGradGradGradGradGradGradGradGradGradGradGradGradGradGradGradGrad
 Berny optimization.
 Initialization pass.
                           ----------------------------
                           !    Initial Parameters    !
                           ! (Angstroms and Degrees)  !
 --------------------------                            --------------------------
 ! Name  Definition              Value          Derivative Info.                !
 --------------------------------------------------------------------------------
 ! R1    R(1,2)                  1.3259         estimate D2E/DX2                !
 ! R2    R(1,3)                  1.0983         estimate D2E/DX2                !
 ! R3    R(1,4)                  1.0983         estimate D2E/DX2                !
 ! R4    R(2,5)                  1.0983         estimate D2E/DX2                !
 ! R5    R(2,6)                  1.54           estimate D2E/DX2                !
 ! R6    R(6,7)                  1.3259         estimate D2E/DX2                !
 ! R7    R(6,8)                  1.0983         estimate D2E/DX2                !
 ! R8    R(7,9)                  1.0983         estimate D2E/DX2                !
 ! R9    R(7,10)                 1.0983         estimate D2E/DX2                !
 ! A1    A(2,1,3)              122.7159         estimate D2E/DX2                !
 ! A2    A(2,1,4)              122.718          estimate D2E/DX2                !
 ! A3    A(3,1,4)              114.5661         estimate D2E/DX2                !
 ! A4    A(1,2,5)              122.7159         estimate D2E/DX2                !
 ! A5    A(1,2,6)              122.718          estimate D2E/DX2                !
 ! A6    A(5,2,6)              114.5661         estimate D2E/DX2                !
 ! A7    A(2,6,7)              122.7159         estimate D2E/DX2                !
 ! A8    A(2,6,8)              114.5661         estimate D2E/DX2                !
 ! A9    A(7,6,8)              122.718          estimate D2E/DX2                !
 ! A10   A(6,7,9)              122.7159         estimate D2E/DX2                !
 ! A11   A(6,7,10)             122.718          estimate D2E/DX2                !
 ! A12   A(9,7,10)             114.5661         estimate D2E/DX2                !
 ! D1    D(3,1,2,5)            180.0            estimate D2E/DX2                !
 ! D2    D(3,1,2,6)              0.0            estimate D2E/DX2                !
 ! D3    D(4,1,2,5)              0.0            estimate D2E/DX2                !
 ! D4    D(4,1,2,6)            180.0            estimate D2E/DX2                !
 ! D5    D(1,2,6,7)              0.0            estimate D2E/DX2                !
 ! D6    D(1,2,6,8)            180.0            estimate D2E/DX2                !
 ! D7    D(5,2,6,7)            180.0            estimate D2E/DX2                !
 ! D8    D(5,2,6,8)              0.0            estimate D2E/DX2                !
 ! D9    D(2,6,7,9)            180.0            estimate D2E/DX2                !
 ! D10   D(2,6,7,10)             0.0            estimate D2E/DX2                !
 ! D11   D(8,6,7,9)              0.0            estimate D2E/DX2                !
 ! D12   D(8,6,7,10)           180.0            estimate D2E/DX2                !
 --------------------------------------------------------------------------------
 Trust Radius=3.00D-01 FncErr=1.00D-07 GrdErr=1.00D-06
 Number of steps in this run=  43 maximum allowed number of steps= 100.
 GradGradGradGradGradGradGradGradGradGradGradGradGradGradGradGradGradGrad

                          Input orientation:                          
 ---------------------------------------------------------------------
 Center     Atomic     Atomic              Coordinates (Angstroms)
 Number     Number      Type              X           Y           Z
 ---------------------------------------------------------------------
    1          6             0        0.000000    0.000000    0.000000
    2          6             0        0.000000    0.000000    1.325916
    3          1             0        0.924038    0.000000   -0.593585
    4          1             0       -0.924014    0.000000   -0.593616
    5          1             0       -0.924038    0.000000    1.919501
    6          6             0        1.295665    0.000000    2.158293
    7          6             0        2.501563    0.000000    1.607053
    8          1             0        1.139934    0.000000    3.245459
    9          1             0        3.425580    0.000000    2.200671
   10          1             0        2.657294    0.000000    0.519887
 ---------------------------------------------------------------------
                    Distance matrix (angstroms):
                    1          2          3          4          5
     1  C    0.000000
     2  C    1.325916   0.000000
     3  H    1.098267   2.130336   0.000000
     4  H    1.098263   2.130353   1.848052   0.000000
     5  H    2.130336   1.098267   3.119453   2.513117   0.000000
     6  C    2.517335   1.540000   2.776858   3.535531   2.232511
     7  C    2.973287   2.517311   2.707655   4.071550   3.439820
     8  H    3.439833   2.232508   3.845109   4.358712   2.453190
     9  H    4.071554   3.535505   3.750410   5.169817   4.358696
    10  H    2.707673   2.776850   2.060097   3.750421   3.845108
                    6          7          8          9         10
     6  C    0.000000
     7  C    1.325916   0.000000
     8  H    1.098263   2.130353   0.000000
     9  H    2.130336   1.098267   2.513117   0.000000
    10  H    2.130353   1.098263   3.119474   1.848052   0.000000
 Stoichiometry    C4H6
 Framework group  CS[SG(C4H6)]
 Deg. of freedom    17
 Full point group                 CS
 Largest Abelian subgroup         CS      NOp   2
 Largest concise Abelian subgroup C1      NOp   1
                         Standard orientation:                         
 ---------------------------------------------------------------------
 Center     Atomic     Atomic              Coordinates (Angstroms)
 Number     Number      Type              X           Y           Z
 ---------------------------------------------------------------------
    1          6             0        1.320921    0.858086    0.000000
    2          6             0        0.000000    0.973071    0.000000
    3          1             0        1.832135   -0.113948    0.000000
    4          1             0        1.992432    1.727139    0.000000
    5          1             0       -0.511215    1.945105    0.000000
    6          6             0       -0.941603   -0.245528    0.000000
    7          6             0       -0.497018   -1.494686    0.000000
    8          1             0       -2.011168    0.003898    0.000000
    9          1             0       -1.168531   -2.363742    0.000000
   10          1             0        0.572547   -1.744112    0.000000
 ---------------------------------------------------------------------
 Rotational constants (GHZ):     19.9709647      5.8825528      4.5440724
 Standard basis: 6-31G(d) (6D, 7F)
 There are    56 symmetry adapted basis functions of A'  symmetry.
 There are    16 symmetry adapted basis functions of A"  symmetry.
 Integral buffers will be    131072 words long.
 Raffenetti 2 integral format.
 Two-electron integral symmetry is turned on.
    72 basis functions,   136 primitive gaussians,    72 cartesian basis functions
    15 alpha electrons       15 beta electrons
       nuclear repulsion energy       104.3232033544 Hartrees.
 NAtoms=   10 NActive=   10 NUniq=   10 SFac= 7.50D-01 NAtFMM=   80 NAOKFM=F Big=F
 One-electron integrals computed using PRISM.
 NBasis=    72 RedAO= T  NBF=    56    16
 NBsUse=    72 1.00D-06 NBFU=    56    16
 Harris functional with IExCor=  402 diagonalized for initial guess.
 ExpMin= 1.61D-01 ExpMax= 3.05D+03 ExpMxC= 4.57D+02 IAcc=1 IRadAn=         1 AccDes= 1.00D-06
 HarFok:  IExCor= 402 AccDes= 1.00D-06 IRadAn=         1 IDoV=1
 ScaDFX=  1.000000  1.000000  1.000000  1.000000
 Initial guess orbital symmetries:
       Occupied  (A') (A') (A') (A') (A') (A') (A') (A') (A') (A')
                 (A') (A') (A') (A") (A")
       Virtual   (A") (A") (A') (A') (A') (A') (A') (A') (A') (A')
                 (A') (A') (A") (A') (A') (A") (A") (A') (A') (A')
                 (A") (A') (A') (A') (A') (A') (A') (A') (A') (A')
                 (A') (A') (A") (A") (A") (A') (A") (A') (A") (A')
                 (A') (A') (A') (A") (A') (A') (A") (A") (A') (A')
                 (A') (A') (A') (A') (A') (A') (A')
 The electronic state of the initial guess is 1-A'.
 Requested convergence on RMS density matrix=1.00D-08 within 128 cycles.
 Requested convergence on MAX density matrix=1.00D-06.
 Requested convergence on             energy=1.00D-06.
 No special actions if energy rises.
 Keep R1 integrals in memory in canonical form, NReq=     5286224.
 Integral accuracy reduced to 1.0D-05 until final iterations.
 Initial convergence to 1.0D-05 achieved.  Increase integral accuracy.
 SCF Done:  E(RB+HF-LYP) =  -155.981116681     A.U. after   12 cycles
             Convg  =    0.6793D-08             -V/T =  2.0110
             S**2   =   0.0000

 **********************************************************************

            Population analysis using the SCF density.

 **********************************************************************

 Orbital symmetries:
       Occupied  (A') (A') (A') (A') (A') (A') (A') (A') (A') (A')
                 (A') (A') (A') (A") (A")
       Virtual   (A") (A") (A') (A') (A') (A') (A') (A') (A') (A')
                 (A') (A') (A") (A') (A') (A") (A') (A") (A') (A")
                 (A') (A') (A') (A') (A') (A') (A') (A') (A') (A')
                 (A') (A') (A") (A") (A') (A") (A") (A') (A") (A')
                 (A') (A') (A') (A") (A') (A') (A") (A") (A') (A')
                 (A') (A') (A') (A') (A') (A') (A')
 The electronic state is 1-A'.
 Alpha  occ. eigenvalues --  -10.19557 -10.19537 -10.18274 -10.18273  -0.79470
 Alpha  occ. eigenvalues --   -0.72360  -0.60929  -0.52610  -0.48328  -0.43825
 Alpha  occ. eigenvalues --   -0.41303  -0.36474  -0.33689  -0.31382  -0.23103
 Alpha virt. eigenvalues --   -0.02296   0.08945   0.10216   0.11008   0.15104
 Alpha virt. eigenvalues --    0.18033   0.19994   0.20610   0.31126   0.33145
 Alpha virt. eigenvalues --    0.43586   0.46402   0.52567   0.55106   0.56507
 Alpha virt. eigenvalues --    0.59657   0.62697   0.63953   0.68681   0.68795
 Alpha virt. eigenvalues --    0.69297   0.82783   0.84728   0.87243   0.88953
 Alpha virt. eigenvalues --    0.94228   0.94393   0.98459   1.07089   1.07594
 Alpha virt. eigenvalues --    1.17530   1.21655   1.35638   1.45962   1.46737
 Alpha virt. eigenvalues --    1.51245   1.65163   1.73360   1.75964   1.87973
 Alpha virt. eigenvalues --    1.97855   1.99349   2.09316   2.15284   2.19964
 Alpha virt. eigenvalues --    2.24285   2.31244   2.50791   2.53423   2.54453
 Alpha virt. eigenvalues --    2.66028   2.85880   3.01277   4.05874   4.15083
 Alpha virt. eigenvalues --    4.18925   4.44852
          Condensed to atoms (all electrons):
              1          2          3          4          5          6
     1  C    5.048974   0.663340   0.361952   0.363483  -0.053633  -0.036676
     2  C    0.663340   4.772870  -0.029305  -0.022917   0.362796   0.421157
     3  H    0.361952  -0.029305   0.568368  -0.043458   0.005479  -0.015270
     4  H    0.363483  -0.022917  -0.043458   0.563487  -0.006739   0.004228
     5  H   -0.053633   0.362796   0.005479  -0.006739   0.603575  -0.042769
     6  C   -0.036676   0.421157  -0.015270   0.004228  -0.042769   4.772899
     7  C   -0.023602  -0.036678   0.005402   0.000191   0.005661   0.663339
     8  H    0.005661  -0.042768   0.000085  -0.000143  -0.004329   0.362795
     9  H    0.000191   0.004228  -0.000150   0.000000  -0.000143  -0.022919
    10  H    0.005401  -0.015270   0.006383  -0.000150   0.000085  -0.029304
              7          8          9         10
     1  C   -0.023602   0.005661   0.000191   0.005401
     2  C   -0.036678  -0.042768   0.004228  -0.015270
     3  H    0.005402   0.000085  -0.000150   0.006383
     4  H    0.000191  -0.000143   0.000000  -0.000150
     5  H    0.005661  -0.004329  -0.000143   0.000085
     6  C    0.663339   0.362795  -0.022919  -0.029304
     7  C    5.048947  -0.053629   0.363477   0.361956
     8  H   -0.053629   0.603565  -0.006738   0.005478
     9  H    0.363477  -0.006738   0.563510  -0.043460
    10  H    0.361956   0.005478  -0.043460   0.568366
 Mulliken atomic charges:
              1
     1  C   -0.335091
     2  C   -0.077453
     3  H    0.140513
     4  H    0.142016
     5  H    0.130017
     6  C   -0.077479
     7  C   -0.335064
     8  H    0.130023
     9  H    0.142005
    10  H    0.140513
 Sum of Mulliken charges=   0.00000
 Atomic charges with hydrogens summed into heavy atoms:
              1
     1  C   -0.052561
     2  C    0.052563
     3  H    0.000000
     4  H    0.000000
     5  H    0.000000
     6  C    0.052544
     7  C   -0.052546
     8  H    0.000000
     9  H    0.000000
    10  H    0.000000
 Sum of Mulliken charges=   0.00000
 Electronic spatial extent (au):  <R**2>=   303.9476
 Charge=     0.0000 electrons
 Dipole moment (field-independent basis, Debye):
    X=    -0.0723    Y=     0.0559    Z=     0.0000  Tot=     0.0914
 Quadrupole moment (field-independent basis, Debye-Ang):
   XX=   -22.5145   YY=   -22.7245   ZZ=   -27.9776
   XY=    -0.4024   XZ=     0.0000   YZ=     0.0000
 Traceless Quadrupole moment (field-independent basis, Debye-Ang):
   XX=     1.8910   YY=     1.6810   ZZ=    -3.5720
   XY=    -0.4024   XZ=     0.0000   YZ=     0.0000
 Octapole moment (field-independent basis, Debye-Ang**2):
  XXX=    -0.1574  YYY=    -0.1865  ZZZ=     0.0000  XYY=    -0.3133
  XXY=     0.5511  XXZ=     0.0000  XZZ=    -0.1436  YZZ=     0.1110
  YYZ=     0.0000  XYZ=     0.0000
 Hexadecapole moment (field-independent basis, Debye-Ang**3):
 XXXX=  -162.5993 YYYY=  -201.7762 ZZZZ=   -28.9741 XXXY=   -38.7407
 XXXZ=     0.0000 YYYX=   -36.3800 YYYZ=     0.0000 ZZZX=     0.0000
 ZZZY=     0.0000 XXYY=   -57.9160 XXZZ=   -36.3818 YYZZ=   -44.7226
 XXYZ=     0.0000 YYXZ=     0.0000 ZZXY=   -15.9940
 N-N= 1.043232033544D+02 E-N=-5.690304598584D+02  KE= 1.542835148799D+02
 Symmetry A'   KE= 1.500352446715D+02
 Symmetry A"   KE= 4.248270208425D+00
 ***** Axes restored to original set *****
 -------------------------------------------------------------------
 Center     Atomic                   Forces (Hartrees/Bohr)
 Number     Number              X              Y              Z
 -------------------------------------------------------------------
    1          6          -0.008896077    0.000000000   -0.021802413
    2          6           0.026911944    0.000000000    0.031020613
    3          1          -0.006489171    0.000000000    0.005078267
    4          1           0.005084530    0.000000000    0.005842346
    5          1           0.003933711    0.000000000   -0.006921112
    6          6          -0.039423339    0.000000000   -0.011566182
    7          6           0.023595727    0.000000000   -0.001012278
    8          1           0.004658638    0.000000000   -0.006447672
    9          1          -0.007427797    0.000000000   -0.002196951
   10          1          -0.001948166    0.000000000    0.008005382
 -------------------------------------------------------------------
 Cartesian Forces:  Max     0.039423339 RMS     0.012739952

 GradGradGradGradGradGradGradGradGradGradGradGradGradGradGradGradGradGrad
 Berny optimization.
 Internal  Forces:  Max     0.024429527 RMS     0.007939672
 Search for a local minimum.
 Step number   1 out of a maximum of  43
 All quantities printed in internal units (Hartrees-Bohrs-Radians)
 Second derivative matrix not updated -- first step.
     Eigenvalues ---    0.00237   0.01763   0.01763   0.03069   0.03069
     Eigenvalues ---    0.03069   0.03069   0.16000   0.16000   0.16000
     Eigenvalues ---    0.16000   0.16000   0.16000   0.22000   0.22000
     Eigenvalues ---    0.28519   0.33875   0.33875   0.33875   0.33875
     Eigenvalues ---    0.33875   0.33875   0.60481   0.604811000.00000
     Eigenvalues --- 1000.000001000.000001000.000001000.000001000.00000
     Eigenvalues --- 1000.000001000.000001000.00000
 RFO step:  Lambda=-7.50796698D-03.
 Linear search not attempted -- first point.
 Iteration  1 RMS(Cart)=  0.09734110 RMS(Int)=  0.00298447
 Iteration  2 RMS(Cart)=  0.00371904 RMS(Int)=  0.00000155
 Iteration  3 RMS(Cart)=  0.00000191 RMS(Int)=  0.00000000
 Iteration  4 RMS(Cart)=  0.00000000 RMS(Int)=  0.00000000
 Variable       Old X    -DE/DX   Delta X   Delta X   Delta X     New X
                                 (Linear)    (Quad)   (Total)
    R1        2.50562   0.01089   0.00000   0.01778   0.01778   2.52340
    R2        2.07542  -0.00820   0.00000  -0.02368  -0.02368   2.05174
    R3        2.07542  -0.00744   0.00000  -0.02148  -0.02148   2.05394
    R4        2.07542  -0.00705   0.00000  -0.02036  -0.02036   2.05506
    R5        2.91018  -0.02443   0.00000  -0.08346  -0.08346   2.82671
    R6        2.50562   0.01093   0.00000   0.01785   0.01785   2.52347
    R7        2.07542  -0.00704   0.00000  -0.02034  -0.02034   2.05508
    R8        2.07542  -0.00744   0.00000  -0.02147  -0.02147   2.05395
    R9        2.07542  -0.00820   0.00000  -0.02370  -0.02370   2.05172
    A1        2.14180   0.00043   0.00000   0.00258   0.00258   2.14438
    A2        2.14183  -0.00246   0.00000  -0.01467  -0.01467   2.12716
    A3        1.99956   0.00203   0.00000   0.01209   0.01209   2.01165
    A4        2.14180  -0.01212   0.00000  -0.05931  -0.05931   2.08249
    A5        2.14183   0.01655   0.00000   0.07275   0.07275   2.21459
    A6        1.99956  -0.00443   0.00000  -0.01344  -0.01344   1.98612
    A7        2.14180   0.01654   0.00000   0.07270   0.07270   2.21450
    A8        1.99956  -0.00444   0.00000  -0.01348  -0.01348   1.98608
    A9        2.14183  -0.01210   0.00000  -0.05922  -0.05922   2.08261
   A10        2.14180  -0.00246   0.00000  -0.01468  -0.01468   2.12711
   A11        2.14183   0.00041   0.00000   0.00244   0.00244   2.14427
   A12        1.99956   0.00205   0.00000   0.01224   0.01224   2.01180
    D1        3.14159   0.00000   0.00000   0.00000   0.00000   3.14159
    D2        0.00000   0.00000   0.00000   0.00000   0.00000   0.00000
    D3        0.00000   0.00000   0.00000   0.00000   0.00000   0.00000
    D4        3.14159   0.00000   0.00000   0.00000   0.00000   3.14159
    D5        0.00000   0.00000   0.00000   0.00000   0.00000   0.00000
    D6        3.14159   0.00000   0.00000   0.00000   0.00000   3.14159
    D7        3.14159   0.00000   0.00000   0.00000   0.00000   3.14159
    D8        0.00000   0.00000   0.00000   0.00000   0.00000   0.00000
    D9        3.14159   0.00000   0.00000   0.00000   0.00000   3.14159
   D10        0.00000   0.00000   0.00000   0.00000   0.00000   0.00000
   D11        0.00000   0.00000   0.00000   0.00000   0.00000   0.00000
   D12        3.14159   0.00000   0.00000   0.00000   0.00000   3.14159
         Item               Value     Threshold  Converged?
 Maximum Force            0.024430     0.000450     NO 
 RMS     Force            0.007940     0.000300     NO 
 Maximum Displacement     0.243297     0.001800     NO 
 RMS     Displacement     0.096459     0.001200     NO 
 Predicted change in Energy=-3.863527D-03
 GradGradGradGradGradGradGradGradGradGradGradGradGradGradGradGradGradGrad

                          Input orientation:                          
 ---------------------------------------------------------------------
 Center     Atomic     Atomic              Coordinates (Angstroms)
 Number     Number      Type              X           Y           Z
 ---------------------------------------------------------------------
    1          6             0       -0.055323    0.000000   -0.029919
    2          6             0        0.041715    0.000000    1.301878
    3          1             0        0.811427    0.000000   -0.683802
    4          1             0       -1.017568    0.000000   -0.535320
    5          1             0       -0.865286    0.000000    1.901865
    6          6             0        1.300205    0.000000    2.110406
    7          6             0        2.551820    0.000000    1.644945
    8          1             0        1.131485    0.000000    3.184739
    9          1             0        3.411505    0.000000    2.310002
   10          1             0        2.786042    0.000000    0.584786
 ---------------------------------------------------------------------
                    Distance matrix (angstroms):
                    1          2          3          4          5
     1  C    0.000000
     2  C    1.335327   0.000000
     3  H    1.085734   2.129643   0.000000
     4  H    1.086898   2.120702   1.835013   0.000000
     5  H    2.094715   1.087490   3.081726   2.441938   0.000000
     6  C    2.533465   1.495833   2.836635   3.517377   2.175509
     7  C    3.098768   2.533441   2.907237   4.182594   3.426751
     8  H    3.426739   2.175492   3.881758   4.296192   2.373364
     9  H    4.182597   3.517357   3.965257   5.264270   4.296220
    10  H    2.907097   2.836468   2.347002   3.965108   3.881609
                    6          7          8          9         10
     6  C    0.000000
     7  C    1.335363   0.000000
     8  H    1.087501   2.094831   0.000000
     9  H    2.120713   1.086903   2.442060   0.000000
    10  H    2.129607   1.085724   3.081771   1.835095   0.000000
 Stoichiometry    C4H6
 Framework group  CS[SG(C4H6)]
 Deg. of freedom    17
 Full point group                 CS
 Largest Abelian subgroup         CS      NOp   2
 Largest concise Abelian subgroup C1      NOp   1
                         Standard orientation:                         
 ---------------------------------------------------------------------
 Center     Atomic     Atomic              Coordinates (Angstroms)
 Number     Number      Type              X           Y           Z
 ---------------------------------------------------------------------
    1          6             0        1.335321    0.933110    0.000000
    2          6             0        0.000000    0.937249    0.000000
    3          1             0        1.921658    0.019312    0.000000
    4          1             0        1.912170    1.854300    0.000000
    5          1             0       -0.529548    1.887098    0.000000
    6          6             0       -0.901549   -0.256370    0.000000
    7          6             0       -0.532249   -1.539651    0.000000
    8          1             0       -1.960012   -0.006742    0.000000
    9          1             0       -1.260525   -2.346480    0.000000
   10          1             0        0.507118   -1.853518    0.000000
 ---------------------------------------------------------------------
 Rotational constants (GHZ):     21.3834934      5.5770141      4.4233605
 Standard basis: 6-31G(d) (6D, 7F)
 There are    56 symmetry adapted basis functions of A'  symmetry.
 There are    16 symmetry adapted basis functions of A"  symmetry.
 Integral buffers will be    131072 words long.
 Raffenetti 2 integral format.
 Two-electron integral symmetry is turned on.
    72 basis functions,   136 primitive gaussians,    72 cartesian basis functions
    15 alpha electrons       15 beta electrons
       nuclear repulsion energy       104.1999085238 Hartrees.
 NAtoms=   10 NActive=   10 NUniq=   10 SFac= 7.50D-01 NAtFMM=   80 NAOKFM=F Big=F
 One-electron integrals computed using PRISM.
 NBasis=    72 RedAO= T  NBF=    56    16
 NBsUse=    72 1.00D-06 NBFU=    56    16
 Initial guess read from the read-write file:
 Initial guess orbital symmetries:
       Occupied  (A') (A') (A') (A') (A') (A') (A') (A') (A') (A')
                 (A') (A') (A') (A") (A")
       Virtual   (A") (A") (A') (A') (A') (A') (A') (A') (A') (A')
                 (A') (A') (A") (A') (A') (A") (A') (A") (A') (A")
                 (A') (A') (A') (A') (A') (A') (A') (A') (A') (A')
                 (A') (A') (A") (A") (A') (A") (A") (A') (A") (A')
                 (A') (A') (A') (A") (A') (A') (A") (A") (A') (A')
                 (A') (A') (A') (A') (A') (A') (A')
 Harris functional with IExCor=  402 diagonalized for initial guess.
 ExpMin= 1.61D-01 ExpMax= 3.05D+03 ExpMxC= 4.57D+02 IAcc=1 IRadAn=         1 AccDes= 1.00D-06
 HarFok:  IExCor= 402 AccDes= 1.00D-06 IRadAn=         1 IDoV=1
 ScaDFX=  1.000000  1.000000  1.000000  1.000000
 Requested convergence on RMS density matrix=1.00D-08 within 128 cycles.
 Requested convergence on MAX density matrix=1.00D-06.
 Requested convergence on             energy=1.00D-06.
 No special actions if energy rises.
 Keep R1 integrals in memory in canonical form, NReq=     5286516.
 Integral accuracy reduced to 1.0D-05 until final iterations.
 Initial convergence to 1.0D-05 achieved.  Increase integral accuracy.
 SCF Done:  E(RB+HF-LYP) =  -155.985486853     A.U. after   11 cycles
             Convg  =    0.7326D-08             -V/T =  2.0104
             S**2   =   0.0000
 ***** Axes restored to original set *****
 -------------------------------------------------------------------
 Center     Atomic                   Forces (Hartrees/Bohr)
 Number     Number              X              Y              Z
 -------------------------------------------------------------------
    1          6          -0.002403261    0.000000000   -0.004567963
    2          6           0.013286969    0.000000000    0.010141718
    3          1           0.001834613    0.000000000    0.000381175
    4          1          -0.000410609    0.000000000    0.001568125
    5          1          -0.002051474    0.000000000   -0.000952655
    6          6          -0.014722814    0.000000000   -0.007917124
    7          6           0.005051065    0.000000000    0.000385373
    8          1           0.001723873    0.000000000    0.001468460
    9          1          -0.001256956    0.000000000    0.001013791
   10          1          -0.001051406    0.000000000   -0.001520900
 -------------------------------------------------------------------
 Cartesian Forces:  Max     0.014722814 RMS     0.004595480

 GradGradGradGradGradGradGradGradGradGradGradGradGradGradGradGradGradGrad
 Berny optimization.
 Internal  Forces:  Max     0.012180325 RMS     0.002443463
 Search for a local minimum.
 Step number   2 out of a maximum of  43
 All quantities printed in internal units (Hartrees-Bohrs-Radians)
 Update second derivatives using D2CorX and points  1  2
 Trust test= 1.13D+00 RLast= 1.71D-01 DXMaxT set to 4.24D-01
     Eigenvalues ---    0.00237   0.01721   0.01721   0.03069   0.03069
     Eigenvalues ---    0.03069   0.03069   0.14033   0.16000   0.16000
     Eigenvalues ---    0.16000   0.16000   0.16039   0.21212   0.22000
     Eigenvalues ---    0.26275   0.33830   0.33875   0.33875   0.33875
     Eigenvalues ---    0.33875   0.37149   0.59730   0.604811000.00000
     Eigenvalues --- 1000.000001000.000001000.000001000.000001000.00000
     Eigenvalues --- 1000.000001000.000001000.00000
 RFO step:  Lambda=-7.44024399D-04.
 Quartic linear search produced a step of  0.23590.
 Iteration  1 RMS(Cart)=  0.01417497 RMS(Int)=  0.00011909
 Iteration  2 RMS(Cart)=  0.00012366 RMS(Int)=  0.00000000
 Iteration  3 RMS(Cart)=  0.00000000 RMS(Int)=  0.00000000
 Variable       Old X    -DE/DX   Delta X   Delta X   Delta X     New X
                                 (Linear)    (Quad)   (Total)
    R1        2.52340   0.00267   0.00420   0.00305   0.00724   2.53065
    R2        2.05174   0.00123  -0.00559   0.00762   0.00203   2.05377
    R3        2.05394  -0.00036  -0.00507   0.00153  -0.00354   2.05040
    R4        2.05506   0.00119  -0.00480   0.00702   0.00222   2.05728
    R5        2.82671  -0.01218  -0.01969  -0.04164  -0.06133   2.76539
    R6        2.52347   0.00262   0.00421   0.00294   0.00715   2.53062
    R7        2.05508   0.00118  -0.00480   0.00700   0.00220   2.05728
    R8        2.05395  -0.00038  -0.00507   0.00148  -0.00358   2.05036
    R9        2.05172   0.00126  -0.00559   0.00775   0.00216   2.05388
    A1        2.14438  -0.00083   0.00061  -0.00674  -0.00613   2.13825
    A2        2.12716  -0.00122  -0.00346  -0.00748  -0.01094   2.11622
    A3        2.01165   0.00205   0.00285   0.01422   0.01707   2.02872
    A4        2.08249  -0.00212  -0.01399  -0.00835  -0.02234   2.06014
    A5        2.21459   0.00030   0.01716  -0.00779   0.00937   2.22396
    A6        1.98612   0.00182  -0.00317   0.01614   0.01297   1.99909
    A7        2.21450   0.00033   0.01715  -0.00757   0.00958   2.22408
    A8        1.98608   0.00182  -0.00318   0.01620   0.01302   1.99910
    A9        2.08261  -0.00216  -0.01397  -0.00863  -0.02260   2.06001
   A10        2.12711  -0.00121  -0.00346  -0.00742  -0.01089   2.11623
   A11        2.14427  -0.00079   0.00058  -0.00638  -0.00580   2.13847
   A12        2.01180   0.00200   0.00289   0.01380   0.01669   2.02849
    D1        3.14159   0.00000   0.00000   0.00000   0.00000   3.14159
    D2        0.00000   0.00000   0.00000   0.00000   0.00000   0.00000
    D3        0.00000   0.00000   0.00000   0.00000   0.00000   0.00000
    D4        3.14159   0.00000   0.00000   0.00000   0.00000   3.14159
    D5        0.00000   0.00000   0.00000   0.00000   0.00000   0.00000
    D6        3.14159   0.00000   0.00000   0.00000   0.00000   3.14159
    D7        3.14159   0.00000   0.00000   0.00000   0.00000   3.14159
    D8        0.00000   0.00000   0.00000   0.00000   0.00000   0.00000
    D9        3.14159   0.00000   0.00000   0.00000   0.00000   3.14159
   D10        0.00000   0.00000   0.00000   0.00000   0.00000   0.00000
   D11        0.00000   0.00000   0.00000   0.00000   0.00000   0.00000
   D12        3.14159   0.00000   0.00000   0.00000   0.00000   3.14159
         Item               Value     Threshold  Converged?
 Maximum Force            0.012180     0.000450     NO 
 RMS     Force            0.002443     0.000300     NO 
 Maximum Displacement     0.040926     0.001800     NO 
 RMS     Displacement     0.014216     0.001200     NO 
 Predicted change in Energy=-5.105896D-04
 GradGradGradGradGradGradGradGradGradGradGradGradGradGradGradGradGradGrad

                          Input orientation:                          
 ---------------------------------------------------------------------
 Center     Atomic     Atomic              Coordinates (Angstroms)
 Number     Number      Type              X           Y           Z
 ---------------------------------------------------------------------
    1          6             0       -0.051536    0.000000   -0.028810
    2          6             0        0.058377    0.000000    1.305832
    3          1             0        0.813903    0.000000   -0.686203
    4          1             0       -1.022205    0.000000   -0.513663
    5          1             0       -0.857280    0.000000    1.894697
    6          6             0        1.289614    0.000000    2.096741
    7          6             0        2.549162    0.000000    1.641925
    8          1             0        1.134795    0.000000    3.174342
    9          1             0        3.393623    0.000000    2.323191
   10          1             0        2.787568    0.000000    0.581528
 ---------------------------------------------------------------------
                    Distance matrix (angstroms):
                    1          2          3          4          5
     1  C    0.000000
     2  C    1.339160   0.000000
     3  H    1.086808   2.130498   0.000000
     4  H    1.085025   2.116180   1.844197   0.000000
     5  H    2.085451   1.088665   3.074720   2.414001   0.000000
     6  C    2.513295   1.463381   2.823309   3.486935   2.156381
     7  C    3.091114   2.513359   2.903671   4.171477   3.415808
     8  H    3.415782   2.156388   3.873859   4.272474   2.367669
     9  H    4.171454   3.486960   3.963762   5.248550   4.272445
    10  H    2.903967   2.823668   2.345740   3.964065   3.874188
                    6          7          8          9         10
     6  C    0.000000
     7  C    1.339149   0.000000
     8  H    1.088666   2.085363   0.000000
     9  H    2.116160   1.085006   2.413869   0.000000
    10  H    2.130665   1.086866   3.074791   1.844097   0.000000
 Stoichiometry    C4H6
 Framework group  CS[SG(C4H6)]
 Deg. of freedom    17
 Full point group                 CS
 Largest Abelian subgroup         CS      NOp   2
 Largest concise Abelian subgroup C1      NOp   1
                         Standard orientation:                         
 ---------------------------------------------------------------------
 Center     Atomic     Atomic              Coordinates (Angstroms)
 Number     Number      Type              X           Y           Z
 ---------------------------------------------------------------------
    1          6             0       -0.542573   -1.531792    0.000000
    2          6             0       -0.890875   -0.238721    0.000000
    3          1             0        0.494291   -1.857466    0.000000
    4          1             0       -1.291847   -2.316565    0.000000
    5          1             0       -1.951799    0.005474    0.000000
    6          6             0        0.000000    0.922238    0.000000
    7          6             0        1.339148    0.920577    0.000000
    8          1             0       -0.510410    1.883838    0.000000
    9          1             0        1.903184    1.847454    0.000000
   10          1             0        1.922388    0.003457    0.000000
 ---------------------------------------------------------------------
 Rotational constants (GHZ):     21.5673439      5.6367499      4.4688026
 Standard basis: 6-31G(d) (6D, 7F)
 There are    56 symmetry adapted basis functions of A'  symmetry.
 There are    16 symmetry adapted basis functions of A"  symmetry.
 Integral buffers will be    131072 words long.
 Raffenetti 2 integral format.
 Two-electron integral symmetry is turned on.
    72 basis functions,   136 primitive gaussians,    72 cartesian basis functions
    15 alpha electrons       15 beta electrons
       nuclear repulsion energy       104.6238531264 Hartrees.
 NAtoms=   10 NActive=   10 NUniq=   10 SFac= 7.50D-01 NAtFMM=   80 NAOKFM=F Big=F
 One-electron integrals computed using PRISM.
 NBasis=    72 RedAO= T  NBF=    56    16
 NBsUse=    72 1.00D-06 NBFU=    56    16
 Initial guess read from the read-write file:
 Initial guess orbital symmetries:
       Occupied  (A') (A') (A') (A') (A') (A') (A') (A') (A') (A')
                 (A') (A') (A') (A") (A")
       Virtual   (A") (A") (A') (A') (A') (A') (A') (A') (A') (A')
                 (A') (A') (A") (A') (A') (A") (A') (A") (A') (A')
                 (A") (A') (A') (A') (A') (A') (A') (A') (A') (A')
                 (A') (A') (A") (A") (A') (A") (A") (A") (A') (A')
                 (A') (A') (A') (A") (A') (A') (A") (A') (A") (A')
                 (A') (A') (A') (A') (A') (A') (A')
 Harris functional with IExCor=  402 diagonalized for initial guess.
 ExpMin= 1.61D-01 ExpMax= 3.05D+03 ExpMxC= 4.57D+02 IAcc=1 IRadAn=         1 AccDes= 1.00D-06
 HarFok:  IExCor= 402 AccDes= 1.00D-06 IRadAn=         1 IDoV=1
 ScaDFX=  1.000000  1.000000  1.000000  1.000000
 Requested convergence on RMS density matrix=1.00D-08 within 128 cycles.
 Requested convergence on MAX density matrix=1.00D-06.
 Requested convergence on             energy=1.00D-06.
 No special actions if energy rises.
 Keep R1 integrals in memory in canonical form, NReq=     5286224.
 Integral accuracy reduced to 1.0D-05 until final iterations.
 Initial convergence to 1.0D-05 achieved.  Increase integral accuracy.
 SCF Done:  E(RB+HF-LYP) =  -155.985904448     A.U. after   13 cycles
             Convg  =    0.3779D-08             -V/T =  2.0101
             S**2   =   0.0000
 ***** Axes restored to original set *****
 -------------------------------------------------------------------
 Center     Atomic                   Forces (Hartrees/Bohr)
 Number     Number              X              Y              Z
 -------------------------------------------------------------------
    1          6          -0.000065412    0.000000000   -0.000806007
    2          6          -0.003178838    0.000000000   -0.001589630
    3          1           0.000327465    0.000000000   -0.000170040
    4          1          -0.000570542    0.000000000   -0.000137327
    5          1          -0.001068493    0.000000000   -0.000209977
    6          6           0.002763994    0.000000000    0.002271030
    7          6           0.000841700    0.000000000   -0.000388908
    8          1           0.000635281    0.000000000    0.000877938
    9          1           0.000370678    0.000000000    0.000481851
   10          1          -0.000055832    0.000000000   -0.000328929
 -------------------------------------------------------------------
 Cartesian Forces:  Max     0.003178838 RMS     0.001004396

 GradGradGradGradGradGradGradGradGradGradGradGradGradGradGradGradGradGrad
 Berny optimization.
 Internal  Forces:  Max     0.005407479 RMS     0.001052667
 Search for a local minimum.
 Step number   3 out of a maximum of  43
 All quantities printed in internal units (Hartrees-Bohrs-Radians)
 Update second derivatives using D2CorX and points  1  2  3
 Trust test= 8.18D-01 RLast= 7.95D-02 DXMaxT set to 4.24D-01
     Eigenvalues ---    0.00237   0.01695   0.01695   0.03069   0.03069
     Eigenvalues ---    0.03069   0.03069   0.12298   0.16000   0.16000
     Eigenvalues ---    0.16000   0.16010   0.16077   0.22000   0.23244
     Eigenvalues ---    0.32717   0.33813   0.33875   0.33875   0.33875
     Eigenvalues ---    0.34256   0.36904   0.58909   0.604811000.00000
     Eigenvalues --- 1000.000001000.000001000.000001000.000001000.00000
     Eigenvalues --- 1000.000001000.000001000.00000
 RFO step:  Lambda=-5.98685268D-05.
 Quartic linear search produced a step of -0.18188.
 Iteration  1 RMS(Cart)=  0.00542518 RMS(Int)=  0.00000532
 Iteration  2 RMS(Cart)=  0.00000508 RMS(Int)=  0.00000000
 Iteration  3 RMS(Cart)=  0.00000000 RMS(Int)=  0.00000000
 Variable       Old X    -DE/DX   Delta X   Delta X   Delta X     New X
                                 (Linear)    (Quad)   (Total)
    R1        2.53065   0.00115  -0.00132   0.00280   0.00148   2.53213
    R2        2.05377   0.00037  -0.00037   0.00139   0.00103   2.05479
    R3        2.05040   0.00057   0.00064   0.00080   0.00145   2.05185
    R4        2.05728   0.00078  -0.00040   0.00240   0.00200   2.05928
    R5        2.76539   0.00541   0.01115   0.00404   0.01520   2.78059
    R6        2.53062   0.00116  -0.00130   0.00280   0.00150   2.53212
    R7        2.05728   0.00078  -0.00040   0.00239   0.00199   2.05927
    R8        2.05036   0.00059   0.00065   0.00085   0.00150   2.05187
    R9        2.05388   0.00030  -0.00039   0.00126   0.00087   2.05475
    A1        2.13825  -0.00001   0.00111  -0.00127  -0.00016   2.13809
    A2        2.11622  -0.00012   0.00199  -0.00271  -0.00072   2.11549
    A3        2.02872   0.00013  -0.00311   0.00399   0.00088   2.02960
    A4        2.06014  -0.00073   0.00406  -0.00786  -0.00379   2.05635
    A5        2.22396  -0.00011  -0.00170   0.00101  -0.00070   2.22326
    A6        1.99909   0.00084  -0.00236   0.00685   0.00449   2.00358
    A7        2.22408  -0.00015  -0.00174   0.00090  -0.00084   2.22323
    A8        1.99910   0.00084  -0.00237   0.00685   0.00449   2.00358
    A9        2.06001  -0.00069   0.00411  -0.00775  -0.00364   2.05637
   A10        2.11623  -0.00012   0.00198  -0.00271  -0.00073   2.11550
   A11        2.13847  -0.00006   0.00106  -0.00150  -0.00044   2.13803
   A12        2.02849   0.00019  -0.00304   0.00421   0.00117   2.02966
    D1        3.14159   0.00000   0.00000   0.00000   0.00000   3.14159
    D2        0.00000   0.00000   0.00000   0.00000   0.00000   0.00000
    D3        0.00000   0.00000   0.00000   0.00000   0.00000   0.00000
    D4        3.14159   0.00000   0.00000   0.00000   0.00000   3.14159
    D5        0.00000   0.00000   0.00000   0.00000   0.00000   0.00000
    D6        3.14159   0.00000   0.00000   0.00000   0.00000   3.14159
    D7        3.14159   0.00000   0.00000   0.00000   0.00000   3.14159
    D8        0.00000   0.00000   0.00000   0.00000   0.00000   0.00000
    D9        3.14159   0.00000   0.00000   0.00000   0.00000   3.14159
   D10        0.00000   0.00000   0.00000   0.00000   0.00000   0.00000
   D11        0.00000   0.00000   0.00000   0.00000   0.00000   0.00000
   D12        3.14159   0.00000   0.00000   0.00000   0.00000   3.14159
         Item               Value     Threshold  Converged?
 Maximum Force            0.005407     0.000450     NO 
 RMS     Force            0.001053     0.000300     NO 
 Maximum Displacement     0.014219     0.001800     NO 
 RMS     Displacement     0.005425     0.001200     NO 
 Predicted change in Energy=-5.313020D-05
 GradGradGradGradGradGradGradGradGradGradGradGradGradGradGradGradGradGrad

                          Input orientation:                          
 ---------------------------------------------------------------------
 Center     Atomic     Atomic              Coordinates (Angstroms)
 Number     Number      Type              X           Y           Z
 ---------------------------------------------------------------------
    1          6             0       -0.054452    0.000000   -0.031026
    2          6             0        0.054529    0.000000    1.304478
    3          1             0        0.812013    0.000000   -0.687964
    4          1             0       -1.025795    0.000000   -0.516241
    5          1             0       -0.864684    0.000000    1.889750
    6          6             0        1.292497    0.000000    2.099791
    7          6             0        2.552426    0.000000    1.643702
    8          1             0        1.142320    0.000000    3.179113
    9          1             0        3.397551    0.000000    2.325411
   10          1             0        2.789617    0.000000    0.582563
 ---------------------------------------------------------------------
                    Distance matrix (angstroms):
                    1          2          3          4          5
     1  C    0.000000
     2  C    1.339943   0.000000
     3  H    1.087350   2.131574   0.000000
     4  H    1.085790   2.117102   1.845813   0.000000
     5  H    2.084672   1.089723   3.075049   2.411380   0.000000
     6  C    2.520843   1.471423   2.828859   3.495440   2.167382
     7  C    3.098472   2.520826   2.909588   4.179596   3.425957
     8  H    3.425968   2.167382   3.881158   4.284433   2.385481
     9  H    4.179608   3.495440   3.970571   5.257469   4.284442
    10  H    2.909505   2.828757   2.350565   3.970483   3.881063
                    6          7          8          9         10
     6  C    0.000000
     7  C    1.339940   0.000000
     8  H    1.089720   2.084679   0.000000
     9  H    2.117111   1.085801   2.411405   0.000000
    10  H    2.131513   1.087325   3.075005   1.845834   0.000000
 Stoichiometry    C4H6
 Framework group  CS[SG(C4H6)]
 Deg. of freedom    17
 Full point group                 CS
 Largest Abelian subgroup         CS      NOp   2
 Largest concise Abelian subgroup C1      NOp   1
                         Standard orientation:                         
 ---------------------------------------------------------------------
 Center     Atomic     Atomic              Coordinates (Angstroms)
 Number     Number      Type              X           Y           Z
 ---------------------------------------------------------------------
    1          6             0        1.339943    0.925867    0.000000
    2          6             0        0.000000    0.925908    0.000000
    3          1             0        1.924205    0.008824    0.000000
    4          1             0        1.902582    1.854511    0.000000
    5          1             0       -0.508541    1.889693    0.000000
    6          6             0       -0.893401   -0.243246    0.000000
    7          6             0       -0.541336   -1.536107    0.000000
    8          1             0       -1.956926   -0.005750    0.000000
    9          1             0       -1.289547   -2.322964    0.000000
   10          1             0        0.496986   -1.858849    0.000000
 ---------------------------------------------------------------------
 Rotational constants (GHZ):     21.5356962      5.6044839      4.4471504
 Standard basis: 6-31G(d) (6D, 7F)
 There are    56 symmetry adapted basis functions of A'  symmetry.
 There are    16 symmetry adapted basis functions of A"  symmetry.
 Integral buffers will be    131072 words long.
 Raffenetti 2 integral format.
 Two-electron integral symmetry is turned on.
    72 basis functions,   136 primitive gaussians,    72 cartesian basis functions
    15 alpha electrons       15 beta electrons
       nuclear repulsion energy       104.4216365395 Hartrees.
 NAtoms=   10 NActive=   10 NUniq=   10 SFac= 7.50D-01 NAtFMM=   80 NAOKFM=F Big=F
 One-electron integrals computed using PRISM.
 NBasis=    72 RedAO= T  NBF=    56    16
 NBsUse=    72 1.00D-06 NBFU=    56    16
 Initial guess read from the read-write file:
 Initial guess orbital symmetries:
       Occupied  (A') (A') (A') (A') (A') (A') (A') (A') (A') (A')
                 (A') (A') (A') (A") (A")
       Virtual   (A") (A") (A') (A') (A') (A') (A') (A') (A') (A')
                 (A') (A') (A") (A') (A') (A") (A') (A") (A') (A')
                 (A") (A') (A') (A') (A') (A') (A') (A') (A') (A')
                 (A') (A') (A") (A") (A') (A") (A") (A") (A') (A')
                 (A') (A') (A') (A") (A') (A') (A") (A') (A") (A')
                 (A') (A') (A') (A') (A') (A') (A')
 Requested convergence on RMS density matrix=1.00D-08 within 128 cycles.
 Requested convergence on MAX density matrix=1.00D-06.
 Requested convergence on             energy=1.00D-06.
 No special actions if energy rises.
 Keep R1 integrals in memory in canonical form, NReq=     5286516.
 SCF Done:  E(RB+HF-LYP) =  -155.985954615     A.U. after   12 cycles
             Convg  =    0.6494D-08             -V/T =  2.0103
             S**2   =   0.0000
 ***** Axes restored to original set *****
 -------------------------------------------------------------------
 Center     Atomic                   Forces (Hartrees/Bohr)
 Number     Number              X              Y              Z
 -------------------------------------------------------------------
    1          6           0.000409514    0.000000000   -0.000055993
    2          6          -0.000195835    0.000000000    0.000033156
    3          1           0.000006682    0.000000000    0.000037961
    4          1          -0.000068347    0.000000000    0.000071804
    5          1           0.000030937    0.000000000    0.000011293
    6          6           0.000043541    0.000000000    0.000166762
    7          6          -0.000170729    0.000000000   -0.000319159
    8          1          -0.000028492    0.000000000   -0.000016188
    9          1          -0.000045195    0.000000000    0.000084762
   10          1           0.000017923    0.000000000   -0.000014400
 -------------------------------------------------------------------
 Cartesian Forces:  Max     0.000409514 RMS     0.000114634

 GradGradGradGradGradGradGradGradGradGradGradGradGradGradGradGradGradGrad
 Berny optimization.
 Internal  Forces:  Max     0.000422047 RMS     0.000136369
 Search for a local minimum.
 Step number   4 out of a maximum of  43
 All quantities printed in internal units (Hartrees-Bohrs-Radians)
 Update second derivatives using D2CorX and points  1  2  3  4
 Trust test= 9.44D-01 RLast= 1.79D-02 DXMaxT set to 4.24D-01
     Eigenvalues ---    0.00237   0.01690   0.01690   0.03069   0.03069
     Eigenvalues ---    0.03069   0.03069   0.12112   0.16000   0.16000
     Eigenvalues ---    0.16000   0.16025   0.16161   0.22000   0.22574
     Eigenvalues ---    0.33648   0.33834   0.33870   0.33875   0.33875
     Eigenvalues ---    0.36385   0.37567   0.59981   0.604811000.00000
     Eigenvalues --- 1000.000001000.000001000.000001000.000001000.00000
     Eigenvalues --- 1000.000001000.000001000.00000
 RFO step:  Lambda=-2.20978304D-06.
 Quartic linear search produced a step of -0.02608.
 Iteration  1 RMS(Cart)=  0.00196514 RMS(Int)=  0.00000091
 Iteration  2 RMS(Cart)=  0.00000125 RMS(Int)=  0.00000000
 Iteration  3 RMS(Cart)=  0.00000000 RMS(Int)=  0.00000000
 Variable       Old X    -DE/DX   Delta X   Delta X   Delta X     New X
                                 (Linear)    (Quad)   (Total)
    R1        2.53213  -0.00009  -0.00004  -0.00008  -0.00012   2.53201
    R2        2.05479  -0.00002  -0.00003  -0.00013  -0.00016   2.05463
    R3        2.05185   0.00003  -0.00004   0.00011   0.00007   2.05192
    R4        2.05928  -0.00002  -0.00005  -0.00006  -0.00011   2.05917
    R5        2.78059  -0.00021  -0.00040   0.00032  -0.00008   2.78051
    R6        2.53212  -0.00009  -0.00004  -0.00007  -0.00011   2.53201
    R7        2.05927  -0.00001  -0.00005  -0.00005  -0.00010   2.05917
    R8        2.05187   0.00002  -0.00004   0.00007   0.00003   2.05189
    R9        2.05475   0.00002  -0.00002  -0.00001  -0.00003   2.05472
    A1        2.13809   0.00003   0.00000   0.00025   0.00025   2.13834
    A2        2.11549  -0.00012   0.00002  -0.00072  -0.00070   2.11479
    A3        2.02960   0.00009  -0.00002   0.00047   0.00045   2.03005
    A4        2.05635   0.00025   0.00010   0.00093   0.00103   2.05738
    A5        2.22326  -0.00042   0.00002  -0.00167  -0.00165   2.22161
    A6        2.00358   0.00018  -0.00012   0.00074   0.00062   2.00420
    A7        2.22323  -0.00039   0.00002  -0.00155  -0.00153   2.22170
    A8        2.00358   0.00017  -0.00012   0.00074   0.00062   2.00421
    A9        2.05637   0.00022   0.00010   0.00081   0.00091   2.05728
   A10        2.11550  -0.00012   0.00002  -0.00073  -0.00071   2.11479
   A11        2.13803   0.00007   0.00001   0.00049   0.00050   2.13853
   A12        2.02966   0.00005  -0.00003   0.00024   0.00021   2.02987
    D1        3.14159   0.00000   0.00000   0.00000   0.00000   3.14159
    D2        0.00000   0.00000   0.00000   0.00000   0.00000   0.00000
    D3        0.00000   0.00000   0.00000   0.00000   0.00000   0.00000
    D4        3.14159   0.00000   0.00000   0.00000   0.00000   3.14159
    D5        0.00000   0.00000   0.00000   0.00000   0.00000   0.00000
    D6        3.14159   0.00000   0.00000   0.00000   0.00000   3.14159
    D7        3.14159   0.00000   0.00000   0.00000   0.00000   3.14159
    D8        0.00000   0.00000   0.00000   0.00000   0.00000   0.00000
    D9        3.14159   0.00000   0.00000   0.00000   0.00000   3.14159
   D10        0.00000   0.00000   0.00000   0.00000   0.00000   0.00000
   D11        0.00000   0.00000   0.00000   0.00000   0.00000   0.00000
   D12        3.14159   0.00000   0.00000   0.00000   0.00000   3.14159
         Item               Value     Threshold  Converged?
 Maximum Force            0.000422     0.000450     YES
 RMS     Force            0.000136     0.000300     YES
 Maximum Displacement     0.004638     0.001800     NO 
 RMS     Displacement     0.001966     0.001200     NO 
 Predicted change in Energy=-1.141506D-06
 GradGradGradGradGradGradGradGradGradGradGradGradGradGradGradGradGradGrad

                          Input orientation:                          
 ---------------------------------------------------------------------
 Center     Atomic     Atomic              Coordinates (Angstroms)
 Number     Number      Type              X           Y           Z
 ---------------------------------------------------------------------
    1          6             0       -0.052823    0.000000   -0.030368
    2          6             0        0.054004    0.000000    1.305249
    3          1             0        0.814468    0.000000   -0.686076
    4          1             0       -1.023756    0.000000   -0.516485
    5          1             0       -0.865500    0.000000    1.889953
    6          6             0        1.291968    0.000000    2.100493
    7          6             0        2.551125    0.000000    1.642447
    8          1             0        1.142513    0.000000    3.179863
    9          1             0        3.396850    0.000000    2.323435
   10          1             0        2.787175    0.000000    0.581070
 ---------------------------------------------------------------------
                    Distance matrix (angstroms):
                    1          2          3          4          5
     1  C    0.000000
     2  C    1.339882   0.000000
     3  H    1.087265   2.131591   0.000000
     4  H    1.085828   2.116668   1.846030   0.000000
     5  H    2.085204   1.089663   3.075421   2.411636   0.000000
     6  C    2.519728   1.471383   2.827184   3.494446   2.167717
     7  C    3.094972   2.519785   2.904823   4.176214   3.425578
     8  H    3.425552   2.167725   3.879832   4.284357   2.386626
     9  H    4.176198   3.494470   3.965584   5.254227   4.284336
    10  H    2.905072   2.827483   2.344618   3.965832   3.880104
                    6          7          8          9         10
     6  C    0.000000
     7  C    1.339881   0.000000
     8  H    1.089668   2.085146   0.000000
     9  H    2.116655   1.085816   2.411535   0.000000
    10  H    2.131734   1.087309   3.075490   1.845952   0.000000
 Stoichiometry    C4H6
 Framework group  CS[SG(C4H6)]
 Deg. of freedom    17
 Full point group                 CS
 Largest Abelian subgroup         CS      NOp   2
 Largest concise Abelian subgroup C1      NOp   1
                         Standard orientation:                         
 ---------------------------------------------------------------------
 Center     Atomic     Atomic              Coordinates (Angstroms)
 Number     Number      Type              X           Y           Z
 ---------------------------------------------------------------------
    1          6             0       -0.540812   -1.534699    0.000000
    2          6             0       -0.894129   -0.242240    0.000000
    3          1             0        0.497668   -1.856730    0.000000
    4          1             0       -1.288824   -2.321782    0.000000
    5          1             0       -1.957593   -0.004729    0.000000
    6          6             0        0.000000    0.926307    0.000000
    7          6             0        1.339878    0.923320    0.000000
    8          1             0       -0.507291    1.890689    0.000000
    9          1             0        1.903920    1.851141    0.000000
   10          1             0        1.922499    0.005282    0.000000
 ---------------------------------------------------------------------
 Rotational constants (GHZ):     21.5019149      5.6144002      4.4519455
 Standard basis: 6-31G(d) (6D, 7F)
 There are    56 symmetry adapted basis functions of A'  symmetry.
 There are    16 symmetry adapted basis functions of A"  symmetry.
 Integral buffers will be    131072 words long.
 Raffenetti 2 integral format.
 Two-electron integral symmetry is turned on.
    72 basis functions,   136 primitive gaussians,    72 cartesian basis functions
    15 alpha electrons       15 beta electrons
       nuclear repulsion energy       104.4437799608 Hartrees.
 NAtoms=   10 NActive=   10 NUniq=   10 SFac= 7.50D-01 NAtFMM=   80 NAOKFM=F Big=F
 One-electron integrals computed using PRISM.
 NBasis=    72 RedAO= T  NBF=    56    16
 NBsUse=    72 1.00D-06 NBFU=    56    16
 Initial guess read from the read-write file:
 Initial guess orbital symmetries:
       Occupied  (A') (A') (A') (A') (A') (A') (A') (A') (A') (A')
                 (A') (A') (A') (A") (A")
       Virtual   (A") (A") (A') (A') (A') (A') (A') (A') (A') (A')
                 (A') (A') (A") (A') (A') (A") (A') (A") (A') (A')
                 (A") (A') (A') (A') (A') (A') (A') (A') (A') (A')
                 (A') (A') (A") (A") (A') (A") (A") (A") (A') (A')
                 (A') (A') (A') (A") (A') (A') (A") (A') (A") (A')
                 (A') (A') (A') (A') (A') (A') (A')
 Requested convergence on RMS density matrix=1.00D-08 within 128 cycles.
 Requested convergence on MAX density matrix=1.00D-06.
 Requested convergence on             energy=1.00D-06.
 No special actions if energy rises.
 Keep R1 integrals in memory in canonical form, NReq=     5286516.
 SCF Done:  E(RB+HF-LYP) =  -155.985956084     A.U. after   12 cycles
             Convg  =    0.4603D-08             -V/T =  2.0103
             S**2   =   0.0000
 ***** Axes restored to original set *****
 -------------------------------------------------------------------
 Center     Atomic                   Forces (Hartrees/Bohr)
 Number     Number              X              Y              Z
 -------------------------------------------------------------------
    1          6           0.000035710    0.000000000    0.000028907
    2          6           0.000006207    0.000000000    0.000028737
    3          1           0.000006324    0.000000000   -0.000030768
    4          1          -0.000018532    0.000000000    0.000011262
    5          1          -0.000012001    0.000000000   -0.000010994
    6          6          -0.000021891    0.000000000    0.000040652
    7          6           0.000027813    0.000000000   -0.000114649
    8          1           0.000016140    0.000000000   -0.000001776
    9          1           0.000003430    0.000000000    0.000035520
   10          1          -0.000043200    0.000000000    0.000013109
 -------------------------------------------------------------------
 Cartesian Forces:  Max     0.000114649 RMS     0.000028473

 GradGradGradGradGradGradGradGradGradGradGradGradGradGradGradGradGradGrad
 Berny optimization.
 Internal  Forces:  Max     0.000086464 RMS     0.000027349
 Search for a local minimum.
 Step number   5 out of a maximum of  43
 All quantities printed in internal units (Hartrees-Bohrs-Radians)
 Update second derivatives using D2CorX and points  1  2  3  4  5

 Trust test= 1.29D+00 RLast= 3.06D-03 DXMaxT set to 4.24D-01
     Eigenvalues ---    0.00237   0.01690   0.01690   0.03069   0.03069
     Eigenvalues ---    0.03069   0.03069   0.11815   0.15034   0.16000
     Eigenvalues ---    0.16000   0.16086   0.16672   0.19918   0.22425
     Eigenvalues ---    0.33473   0.33792   0.33875   0.33875   0.34095
     Eigenvalues ---    0.36288   0.36635   0.59940   0.604811000.00000
     Eigenvalues --- 1000.000001000.000001000.000001000.000001000.00000
     Eigenvalues --- 1000.000001000.000001000.00000
 RFO step:  Lambda=-7.20658219D-08.
 Quartic linear search produced a step of  0.11313.
 Iteration  1 RMS(Cart)=  0.00036912 RMS(Int)=  0.00000005
 Iteration  2 RMS(Cart)=  0.00000006 RMS(Int)=  0.00000000
 Variable       Old X    -DE/DX   Delta X   Delta X   Delta X     New X
                                 (Linear)    (Quad)   (Total)
    R1        2.53201   0.00000  -0.00001   0.00003   0.00002   2.53203
    R2        2.05463   0.00003  -0.00002   0.00010   0.00009   2.05472
    R3        2.05192   0.00001   0.00001   0.00001   0.00002   2.05194
    R4        2.05917   0.00000  -0.00001   0.00002   0.00001   2.05917
    R5        2.78051  -0.00003  -0.00001  -0.00006  -0.00007   2.78044
    R6        2.53201   0.00000  -0.00001   0.00003   0.00002   2.53203
    R7        2.05917   0.00000  -0.00001   0.00000  -0.00001   2.05916
    R8        2.05189   0.00003   0.00000   0.00008   0.00008   2.05198
    R9        2.05472  -0.00003   0.00000  -0.00010  -0.00011   2.05461
    A1        2.13834   0.00003   0.00003   0.00017   0.00020   2.13854
    A2        2.11479  -0.00002  -0.00008  -0.00007  -0.00015   2.11465
    A3        2.03005  -0.00001   0.00005  -0.00010  -0.00005   2.03000
    A4        2.05738   0.00000   0.00012  -0.00026  -0.00014   2.05723
    A5        2.22161  -0.00005  -0.00019   0.00003  -0.00016   2.22145
    A6        2.00420   0.00005   0.00007   0.00023   0.00030   2.00450
    A7        2.22170  -0.00009  -0.00017  -0.00017  -0.00035   2.22136
    A8        2.00421   0.00005   0.00007   0.00021   0.00028   2.00449
    A9        2.05728   0.00003   0.00010  -0.00004   0.00006   2.05734
   A10        2.11479  -0.00002  -0.00008  -0.00007  -0.00015   2.11464
   A11        2.13853  -0.00002   0.00006  -0.00025  -0.00020   2.13833
   A12        2.02987   0.00005   0.00002   0.00032   0.00035   2.03021
    D1        3.14159   0.00000   0.00000   0.00000   0.00000   3.14159
    D2        0.00000   0.00000   0.00000   0.00000   0.00000   0.00000
    D3        0.00000   0.00000   0.00000   0.00000   0.00000   0.00000
    D4        3.14159   0.00000   0.00000   0.00000   0.00000   3.14159
    D5        0.00000   0.00000   0.00000   0.00000   0.00000   0.00000
    D6        3.14159   0.00000   0.00000   0.00000   0.00000   3.14159
    D7        3.14159   0.00000   0.00000   0.00000   0.00000   3.14159
    D8        0.00000   0.00000   0.00000   0.00000   0.00000   0.00000
    D9        3.14159   0.00000   0.00000   0.00000   0.00000   3.14159
   D10        0.00000   0.00000   0.00000   0.00000   0.00000   0.00000
   D11        0.00000   0.00000   0.00000   0.00000   0.00000   0.00000
   D12        3.14159   0.00000   0.00000   0.00000   0.00000   3.14159
         Item               Value     Threshold  Converged?
 Maximum Force            0.000086     0.000450     YES
 RMS     Force            0.000027     0.000300     YES
 Maximum Displacement     0.001337     0.001800     YES
 RMS     Displacement     0.000369     0.001200     YES
 Predicted change in Energy=-6.570986D-08
 Optimization completed.
    -- Stationary point found.
                           ----------------------------
                           !   Optimized Parameters   !
                           ! (Angstroms and Degrees)  !
 --------------------------                            --------------------------
 ! Name  Definition              Value          Derivative Info.                !
 --------------------------------------------------------------------------------
 ! R1    R(1,2)                  1.3399         -DE/DX =    0.0                 !
 ! R2    R(1,3)                  1.0873         -DE/DX =    0.0                 !
 ! R3    R(1,4)                  1.0858         -DE/DX =    0.0                 !
 ! R4    R(2,5)                  1.0897         -DE/DX =    0.0                 !
 ! R5    R(2,6)                  1.4714         -DE/DX =    0.0                 !
 ! R6    R(6,7)                  1.3399         -DE/DX =    0.0                 !
 ! R7    R(6,8)                  1.0897         -DE/DX =    0.0                 !
 ! R8    R(7,9)                  1.0858         -DE/DX =    0.0                 !
 ! R9    R(7,10)                 1.0873         -DE/DX =    0.0                 !
 ! A1    A(2,1,3)              122.5179         -DE/DX =    0.0                 !
 ! A2    A(2,1,4)              121.1687         -DE/DX =    0.0                 !
 ! A3    A(3,1,4)              116.3134         -DE/DX =    0.0                 !
 ! A4    A(1,2,5)              117.879          -DE/DX =    0.0                 !
 ! A5    A(1,2,6)              127.2888         -DE/DX =   -0.0001              !
 ! A6    A(5,2,6)              114.8322         -DE/DX =    0.0                 !
 ! A7    A(2,6,7)              127.2941         -DE/DX =   -0.0001              !
 ! A8    A(2,6,8)              114.8325         -DE/DX =    0.0001              !
 ! A9    A(7,6,8)              117.8733         -DE/DX =    0.0                 !
 ! A10   A(6,7,9)              121.1686         -DE/DX =    0.0                 !
 ! A11   A(6,7,10)             122.5285         -DE/DX =    0.0                 !
 ! A12   A(9,7,10)             116.3029         -DE/DX =    0.0                 !
 ! D1    D(3,1,2,5)            180.0            -DE/DX =    0.0                 !
 ! D2    D(3,1,2,6)              0.0            -DE/DX =    0.0                 !
 ! D3    D(4,1,2,5)              0.0            -DE/DX =    0.0                 !
 ! D4    D(4,1,2,6)            180.0            -DE/DX =    0.0                 !
 ! D5    D(1,2,6,7)              0.0            -DE/DX =    0.0                 !
 ! D6    D(1,2,6,8)            180.0            -DE/DX =    0.0                 !
 ! D7    D(5,2,6,7)            180.0            -DE/DX =    0.0                 !
 ! D8    D(5,2,6,8)              0.0            -DE/DX =    0.0                 !
 ! D9    D(2,6,7,9)            180.0            -DE/DX =    0.0                 !
 ! D10   D(2,6,7,10)             0.0            -DE/DX =    0.0                 !
 ! D11   D(8,6,7,9)              0.0            -DE/DX =    0.0                 !
 ! D12   D(8,6,7,10)           180.0            -DE/DX =    0.0                 !
 --------------------------------------------------------------------------------
 GradGradGradGradGradGradGradGradGradGradGradGradGradGradGradGradGradGrad

                          Input orientation:                          
 ---------------------------------------------------------------------
 Center     Atomic     Atomic              Coordinates (Angstroms)
 Number     Number      Type              X           Y           Z
 ---------------------------------------------------------------------
    1          6             0       -0.052823    0.000000   -0.030368
    2          6             0        0.054004    0.000000    1.305249
    3          1             0        0.814468    0.000000   -0.686076
    4          1             0       -1.023756    0.000000   -0.516485
    5          1             0       -0.865500    0.000000    1.889953
    6          6             0        1.291968    0.000000    2.100493
    7          6             0        2.551125    0.000000    1.642447
    8          1             0        1.142513    0.000000    3.179863
    9          1             0        3.396850    0.000000    2.323435
   10          1             0        2.787175    0.000000    0.581070
 ---------------------------------------------------------------------
                    Distance matrix (angstroms):
                    1          2          3          4          5
     1  C    0.000000
     2  C    1.339882   0.000000
     3  H    1.087265   2.131591   0.000000
     4  H    1.085828   2.116668   1.846030   0.000000
     5  H    2.085204   1.089663   3.075421   2.411636   0.000000
     6  C    2.519728   1.471383   2.827184   3.494446   2.167717
     7  C    3.094972   2.519785   2.904823   4.176214   3.425578
     8  H    3.425552   2.167725   3.879832   4.284357   2.386626
     9  H    4.176198   3.494470   3.965584   5.254227   4.284336
    10  H    2.905072   2.827483   2.344618   3.965832   3.880104
                    6          7          8          9         10
     6  C    0.000000
     7  C    1.339881   0.000000
     8  H    1.089668   2.085146   0.000000
     9  H    2.116655   1.085816   2.411535   0.000000
    10  H    2.131734   1.087309   3.075490   1.845952   0.000000
 Stoichiometry    C4H6
 Framework group  CS[SG(C4H6)]
 Deg. of freedom    17
 Full point group                 CS
 Largest Abelian subgroup         CS      NOp   2
 Largest concise Abelian subgroup C1      NOp   1
                         Standard orientation:                         
 ---------------------------------------------------------------------
 Center     Atomic     Atomic              Coordinates (Angstroms)
 Number     Number      Type              X           Y           Z
 ---------------------------------------------------------------------
    1          6             0       -0.540812   -1.534699    0.000000
    2          6             0       -0.894129   -0.242240    0.000000
    3          1             0        0.497668   -1.856730    0.000000
    4          1             0       -1.288824   -2.321782    0.000000
    5          1             0       -1.957593   -0.004729    0.000000
    6          6             0        0.000000    0.926307    0.000000
    7          6             0        1.339878    0.923320    0.000000
    8          1             0       -0.507291    1.890689    0.000000
    9          1             0        1.903920    1.851141    0.000000
   10          1             0        1.922499    0.005282    0.000000
 ---------------------------------------------------------------------
 Rotational constants (GHZ):     21.5019149      5.6144002      4.4519455

 **********************************************************************

            Population analysis using the SCF density.

 **********************************************************************

 Orbital symmetries:
       Occupied  (A') (A') (A') (A') (A') (A') (A') (A') (A') (A')
                 (A') (A') (A') (A") (A")
       Virtual   (A") (A") (A') (A') (A') (A') (A') (A') (A') (A')
                 (A') (A') (A") (A') (A') (A") (A') (A") (A') (A')
                 (A") (A') (A') (A') (A') (A') (A') (A') (A') (A')
                 (A') (A') (A") (A") (A') (A") (A") (A") (A') (A')
                 (A') (A') (A') (A") (A') (A') (A") (A') (A") (A')
                 (A') (A') (A') (A') (A') (A') (A')
 The electronic state is 1-A'.
 Alpha  occ. eigenvalues --  -10.19202 -10.19171 -10.18283 -10.18283  -0.79823
 Alpha  occ. eigenvalues --   -0.72475  -0.61825  -0.52662  -0.48753  -0.43657
 Alpha  occ. eigenvalues --   -0.41620  -0.35977  -0.34783  -0.31708  -0.22735
 Alpha virt. eigenvalues --   -0.03014   0.09644   0.10080   0.11474   0.15314
 Alpha virt. eigenvalues --    0.19205   0.20156   0.21005   0.30627   0.34057
 Alpha virt. eigenvalues --    0.43246   0.46725   0.52743   0.53209   0.58675
 Alpha virt. eigenvalues --    0.59538   0.62698   0.64104   0.67723   0.68960
 Alpha virt. eigenvalues --    0.69329   0.83374   0.86042   0.88104   0.89350
 Alpha virt. eigenvalues --    0.93008   0.95611   0.98674   1.05499   1.07756
 Alpha virt. eigenvalues --    1.18335   1.23852   1.34033   1.45811   1.48273
 Alpha virt. eigenvalues --    1.52123   1.65585   1.75245   1.77703   1.87981
 Alpha virt. eigenvalues --    1.96077   2.00786   2.10506   2.16301   2.21982
 Alpha virt. eigenvalues --    2.25184   2.27870   2.54160   2.55017   2.55378
 Alpha virt. eigenvalues --    2.62110   2.86562   3.07937   4.06612   4.14859
 Alpha virt. eigenvalues --    4.20074   4.48280
          Condensed to atoms (all electrons):
              1          2          3          4          5          6
     1  C    5.057267   0.653706   0.364830   0.364738  -0.057748  -0.038776
     2  C    0.653706   4.752906  -0.030976  -0.020395   0.364284   0.448167
     3  H    0.364830  -0.030976   0.566511  -0.043083   0.006020  -0.012437
     4  H    0.364738  -0.020395  -0.043083   0.558521  -0.008385   0.004446
     5  H   -0.057748   0.364284   0.006020  -0.008385   0.612943  -0.043432
     6  C   -0.038776   0.448167  -0.012437   0.004446  -0.043432   4.752948
     7  C   -0.021250  -0.038778   0.005187   0.000081   0.006466   0.653690
     8  H    0.006466  -0.043430   0.000017  -0.000167  -0.006902   0.364284
     9  H    0.000081   0.004446  -0.000102   0.000001  -0.000167  -0.020393
    10  H    0.005181  -0.012429   0.003270  -0.000102   0.000017  -0.030976
              7          8          9         10
     1  C   -0.021250   0.006466   0.000081   0.005181
     2  C   -0.038778  -0.043430   0.004446  -0.012429
     3  H    0.005187   0.000017  -0.000102   0.003270
     4  H    0.000081  -0.000167   0.000001  -0.000102
     5  H    0.006466  -0.006902  -0.000167   0.000017
     6  C    0.653690   0.364284  -0.020393  -0.030976
     7  C    5.057258  -0.057742   0.364733   0.364833
     8  H   -0.057742   0.612940  -0.008387   0.006019
     9  H    0.364733  -0.008387   0.558543  -0.043096
    10  H    0.364833   0.006019  -0.043096   0.566534
 Mulliken atomic charges:
              1
     1  C   -0.334496
     2  C   -0.077502
     3  H    0.140763
     4  H    0.144344
     5  H    0.126903
     6  C   -0.077521
     7  C   -0.334479
     8  H    0.126901
     9  H    0.144340
    10  H    0.140747
 Sum of Mulliken charges=   0.00000
 Atomic charges with hydrogens summed into heavy atoms:
              1
     1  C   -0.049388
     2  C    0.049401
     3  H    0.000000
     4  H    0.000000
     5  H    0.000000
     6  C    0.049380
     7  C   -0.049392
     8  H    0.000000
     9  H    0.000000
    10  H    0.000000
 Sum of Mulliken charges=   0.00000
 Electronic spatial extent (au):  <R**2>=   308.7106
 Charge=     0.0000 electrons
 Dipole moment (field-independent basis, Debye):
    X=    -0.0676    Y=     0.0517    Z=     0.0000  Tot=     0.0851
 Quadrupole moment (field-independent basis, Debye-Ang):
   XX=   -22.5617   YY=   -22.6334   ZZ=   -27.9021
   XY=    -0.1315   XZ=     0.0000   YZ=     0.0000
 Traceless Quadrupole moment (field-independent basis, Debye-Ang):
   XX=     1.8040   YY=     1.7324   ZZ=    -3.5364
   XY=    -0.1315   XZ=     0.0000   YZ=     0.0000
 Octapole moment (field-independent basis, Debye-Ang**2):
  XXX=    -0.2443  YYY=     0.1939  ZZZ=     0.0000  XYY=    -0.0767
  XXY=     0.0511  XXZ=     0.0000  XZZ=    -0.1672  YZZ=     0.1280
  YYZ=     0.0000  XYZ=     0.0000
 Hexadecapole moment (field-independent basis, Debye-Ang**3):
 XXXX=  -163.5338 YYYY=  -207.7492 ZZZZ=   -28.9114 XXXY=   -42.3996
[...]
   1   6    -0.02   0.04   0.00     0.06   0.02   0.00    -0.07  -0.02   0.00
   2   6     0.04  -0.01   0.00     0.01   0.00   0.00    -0.01   0.00   0.00
   3   1     0.45  -0.13   0.00    -0.39   0.12   0.00     0.44  -0.14   0.00
   4   1    -0.23  -0.23   0.00    -0.36  -0.39   0.00     0.38   0.41   0.00
   5   1    -0.42   0.09   0.00    -0.07   0.02   0.00     0.09  -0.02   0.00
   6   6     0.02  -0.03   0.00     0.00   0.01   0.00     0.00   0.01   0.00
   7   6    -0.04   0.01   0.00     0.01   0.07   0.00     0.00   0.07   0.00
   8   1    -0.20   0.38   0.00     0.04  -0.07   0.00     0.04  -0.07   0.00
   9   1     0.16   0.27   0.00    -0.30  -0.49   0.00    -0.27  -0.44   0.00
  10   1     0.24  -0.39   0.00     0.24  -0.37   0.00     0.23  -0.36   0.00

 -------------------
 - Thermochemistry -
 -------------------
 Temperature   298.150 Kelvin.  Pressure   1.00000 Atm.
 Atom  1 has atomic number  6 and mass  12.00000
 Atom  2 has atomic number  6 and mass  12.00000
 Atom  3 has atomic number  1 and mass   1.00783
 Atom  4 has atomic number  1 and mass   1.00783
 Atom  5 has atomic number  1 and mass   1.00783
 Atom  6 has atomic number  6 and mass  12.00000
 Atom  7 has atomic number  6 and mass  12.00000
 Atom  8 has atomic number  1 and mass   1.00783
 Atom  9 has atomic number  1 and mass   1.00783
 Atom 10 has atomic number  1 and mass   1.00783
 Molecular mass:    54.04695 amu.
 Principal axes and moments of inertia in atomic units:
                           1         2         3
     EIGENVALUES --    83.93398 321.44862 405.38260
           X            0.60767   0.79419   0.00000
           Y            0.79419  -0.60767   0.00000
           Z            0.00000   0.00000   1.00000
 This molecule is an asymmetric top.
 Rotational symmetry number  1.
 Rotational temperatures (Kelvin)      1.03193     0.26945     0.21366
 Rotational constants (GHZ):          21.50191     5.61440     4.45195
    1 imaginary frequencies ignored.
 Zero-point vibrational energy     223534.1 (Joules/Mol)
                                   53.42594 (Kcal/Mol)
 Warning -- explicit consideration of   3 degrees of freedom as
           vibrations may cause significant error
 Vibrational temperatures:    427.08   745.15   819.19  1076.88  1279.00
          (Kelvin)           1334.81  1338.10  1493.88  1497.00  1545.52
                             1614.51  1915.62  1977.92  2103.72  2143.05
                             2433.29  2481.52  4530.02  4550.37  4555.28
                             4565.52  4668.83  4673.66
 
 Zero-point correction=                           0.085140 (Hartree/Particle)
 Thermal correction to Energy=                    0.089180
 Thermal correction to Enthalpy=                  0.090124
 Thermal correction to Gibbs Free Energy=         0.059069
 Sum of electronic and zero-point Energies=           -155.900816
 Sum of electronic and thermal Energies=              -155.896776
 Sum of electronic and thermal Enthalpies=            -155.895832
 Sum of electronic and thermal Free Energies=         -155.926887
 
                     E (Thermal)             CV                S
                      KCal/Mol        Cal/Mol-Kelvin    Cal/Mol-Kelvin
 Total                   55.961             13.848             65.360
 Electronic               0.000              0.000              0.000
 Translational            0.889              2.981             37.884
 Rotational               0.889              2.981             23.907
 Vibrational             54.184              7.886              3.569
 Vibration  1             0.690              1.680              1.435
 Vibration  2             0.873              1.210              0.615
 Vibration  3             0.925              1.098              0.505
                       Q            Log10(Q)             Ln(Q)
 Total Bot       0.676166D-27        -27.169947        -62.561114
 Total V=0       0.980601D+12         11.991493         27.611432
 Vib (Bot)       0.115648D-38        -38.936862        -89.655439
 Vib (Bot)  1    0.641822D+00         -0.192586         -0.443445
 Vib (Bot)  2    0.312267D+00         -0.505474         -1.163896
 Vib (Bot)  3    0.270480D+00         -0.567865         -1.307557
 Vib (V=0)       0.167717D+01          0.224577          0.517108
 Vib (V=0)  1    0.131359D+01          0.118461          0.272767
 Vib (V=0)  2    0.108950D+01          0.037227          0.085719
 Vib (V=0)  3    0.106847D+01          0.028763          0.066229
 Electronic      0.100000D+01          0.000000          0.000000
 Translational   0.156175D+08          7.193612         16.563904
 Rotational      0.374372D+05          4.573304         10.530421
 ***** Axes restored to original set *****
 -------------------------------------------------------------------
 Center     Atomic                   Forces (Hartrees/Bohr)
 Number     Number              X              Y              Z
 -------------------------------------------------------------------
    1          6           0.000035718    0.000000000    0.000028887
    2          6           0.000006247    0.000000000    0.000028773
    3          1           0.000006318    0.000000000   -0.000030763
    4          1          -0.000018538    0.000000000    0.000011261
    5          1          -0.000012009    0.000000000   -0.000010998
    6          6          -0.000021875    0.000000000    0.000040638
    7          6           0.000027749    0.000000000   -0.000114639
    8          1           0.000016140    0.000000000   -0.000001790
    9          1           0.000003444    0.000000000    0.000035525
   10          1          -0.000043192    0.000000000    0.000013105
 -------------------------------------------------------------------
 Cartesian Forces:  Max     0.000114639 RMS     0.000028470

 GradGradGradGradGradGradGradGradGradGradGradGradGradGradGradGradGradGrad
 Berny optimization.
 Internal  Forces:  Max     0.000086468 RMS     0.000027351
 Search for a local minimum.
 Step number   1 out of a maximum of   2
 All quantities printed in internal units (Hartrees-Bohrs-Radians)
 Second derivative matrix not updated -- analytic derivatives used.
     Eigenvalues ---   -0.00222   0.02351   0.02425   0.02889   0.02976
     Eigenvalues ---    0.03871   0.03894   0.10610   0.11045   0.11153
     Eigenvalues ---    0.11558   0.13882   0.13941   0.17334   0.19416
     Eigenvalues ---    0.34933   0.35350   0.35437   0.36095   0.36451
     Eigenvalues ---    0.36613   0.36918   0.61149   0.626201000.00000
     Eigenvalues --- 1000.000001000.000001000.000001000.000001000.00000
     Eigenvalues --- 1000.000001000.000001000.00000
 Eigenvalue   1 out of range, new value =    0.002221 Eigenvector:
                           1
           R1           0.00000
           R2           0.00000
           R3           0.00000
           R4           0.00000
           R5           0.00000
           R6           0.00000
           R7           0.00000
           R8           0.00000
           R9           0.00000
           A1           0.00000
           A2           0.00000
           A3           0.00000
           A4           0.00000
           A5           0.00000
           A6           0.00000
           A7           0.00000
           A8           0.00000
           A9           0.00000
           A10          0.00000
           A11          0.00000
           A12          0.00000
           D1           0.08034
           D2           0.04619
           D3           0.06063
           D4           0.02648
           D5           0.52594
           D6           0.49290
           D7           0.49268
           D8           0.45964
           D9           0.02715
           D10          0.04793
           D11          0.06108
           D12          0.08186
 Angle between quadratic step and forces=  22.40 degrees.
 Linear search not attempted -- first point.
 Iteration  1 RMS(Cart)=  0.00045309 RMS(Int)=  0.00000008
 Iteration  2 RMS(Cart)=  0.00000009 RMS(Int)=  0.00000000
 Variable       Old X    -DE/DX   Delta X   Delta X   Delta X     New X
                                 (Linear)    (Quad)   (Total)
    R1        2.53201   0.00000   0.00000   0.00001   0.00001   2.53202
    R2        2.05463   0.00003   0.00000   0.00007   0.00007   2.05470
    R3        2.05192   0.00001   0.00000   0.00004   0.00004   2.05195
    R4        2.05917   0.00000   0.00000   0.00000   0.00000   2.05917
    R5        2.78051  -0.00003   0.00000  -0.00004  -0.00004   2.78047
    R6        2.53201   0.00000   0.00000   0.00004   0.00004   2.53204
    R7        2.05917   0.00000   0.00000  -0.00002  -0.00002   2.05915
    R8        2.05189   0.00003   0.00000   0.00007   0.00007   2.05196
    R9        2.05472  -0.00003   0.00000  -0.00011  -0.00011   2.05461
    A1        2.13834   0.00003   0.00000   0.00029   0.00029   2.13863
    A2        2.11479  -0.00002   0.00000  -0.00020  -0.00020   2.11460
    A3        2.03005  -0.00001   0.00000  -0.00009  -0.00009   2.02996
    A4        2.05738   0.00000   0.00000  -0.00015  -0.00015   2.05722
    A5        2.22161  -0.00005   0.00000  -0.00019  -0.00019   2.22142
    A6        2.00420   0.00005   0.00000   0.00034   0.00034   2.00454
    A7        2.22170  -0.00009   0.00000  -0.00046  -0.00046   2.22124
    A8        2.00421   0.00005   0.00000   0.00031   0.00031   2.00452
    A9        2.05728   0.00003   0.00000   0.00015   0.00015   2.05743
   A10        2.11479  -0.00002   0.00000  -0.00020  -0.00020   2.11459
   A11        2.13853  -0.00002   0.00000  -0.00022  -0.00022   2.13830
   A12        2.02987   0.00005   0.00000   0.00042   0.00042   2.03029
    D1        3.14159   0.00000   0.00000   0.00000   0.00000   3.14159
    D2        0.00000   0.00000   0.00000   0.00000   0.00000   0.00000
    D3        0.00000   0.00000   0.00000   0.00000   0.00000   0.00000
    D4        3.14159   0.00000   0.00000   0.00000   0.00000   3.14159
    D5        0.00000   0.00000   0.00000   0.00000   0.00000   0.00000
    D6        3.14159   0.00000   0.00000   0.00000   0.00000   3.14159
    D7        3.14159   0.00000   0.00000   0.00000   0.00000   3.14159
    D8        0.00000   0.00000   0.00000   0.00000   0.00000   0.00000
    D9        3.14159   0.00000   0.00000   0.00000   0.00000   3.14159
   D10        0.00000   0.00000   0.00000   0.00000   0.00000   0.00000
   D11        0.00000   0.00000   0.00000   0.00000   0.00000   0.00000
   D12        3.14159   0.00000   0.00000   0.00000   0.00000   3.14159
         Item               Value     Threshold  Converged?
 Maximum Force            0.000086     0.000450     YES
 RMS     Force            0.000027     0.000300     YES
 Maximum Displacement     0.001629     0.001800     YES
 RMS     Displacement     0.000453     0.001200     YES
 Predicted change in Energy=-7.027610D-08
 Optimization completed.
    -- Stationary point found.
                           ----------------------------
                           !   Optimized Parameters   !
                           ! (Angstroms and Degrees)  !
 --------------------------                            --------------------------
 ! Name  Definition              Value          Derivative Info.                !
 --------------------------------------------------------------------------------
 ! R1    R(1,2)                  1.3399         -DE/DX =    0.0                 !
 ! R2    R(1,3)                  1.0873         -DE/DX =    0.0                 !
 ! R3    R(1,4)                  1.0858         -DE/DX =    0.0                 !
 ! R4    R(2,5)                  1.0897         -DE/DX =    0.0                 !
 ! R5    R(2,6)                  1.4714         -DE/DX =    0.0                 !
 ! R6    R(6,7)                  1.3399         -DE/DX =    0.0                 !
 ! R7    R(6,8)                  1.0897         -DE/DX =    0.0                 !
 ! R8    R(7,9)                  1.0858         -DE/DX =    0.0                 !
 ! R9    R(7,10)                 1.0873         -DE/DX =    0.0                 !
 ! A1    A(2,1,3)              122.5179         -DE/DX =    0.0                 !
 ! A2    A(2,1,4)              121.1687         -DE/DX =    0.0                 !
 ! A3    A(3,1,4)              116.3134         -DE/DX =    0.0                 !
 ! A4    A(1,2,5)              117.879          -DE/DX =    0.0                 !
 ! A5    A(1,2,6)              127.2888         -DE/DX =   -0.0001              !
 ! A6    A(5,2,6)              114.8322         -DE/DX =    0.0                 !
 ! A7    A(2,6,7)              127.2941         -DE/DX =   -0.0001              !
 ! A8    A(2,6,8)              114.8325         -DE/DX =    0.0001              !
 ! A9    A(7,6,8)              117.8733         -DE/DX =    0.0                 !
 ! A10   A(6,7,9)              121.1686         -DE/DX =    0.0                 !
 ! A11   A(6,7,10)             122.5285         -DE/DX =    0.0                 !
 ! A12   A(9,7,10)             116.3029         -DE/DX =    0.0                 !
 ! D1    D(3,1,2,5)            180.0            -DE/DX =    0.0                 !
 ! D2    D(3,1,2,6)              0.0            -DE/DX =    0.0                 !
 ! D3    D(4,1,2,5)              0.0            -DE/DX =    0.0                 !
 ! D4    D(4,1,2,6)            180.0            -DE/DX =    0.0                 !
 ! D5    D(1,2,6,7)              0.0            -DE/DX =    0.0                 !
 ! D6    D(1,2,6,8)            180.0            -DE/DX =    0.0                 !
 ! D7    D(5,2,6,7)            180.0            -DE/DX =    0.0                 !
 ! D8    D(5,2,6,8)              0.0            -DE/DX =    0.0                 !
 ! D9    D(2,6,7,9)            180.0            -DE/DX =    0.0                 !
 ! D10   D(2,6,7,10)             0.0            -DE/DX =    0.0                 !
 ! D11   D(8,6,7,9)              0.0            -DE/DX =    0.0                 !
 ! D12   D(8,6,7,10)           180.0            -DE/DX =    0.0                 !
 --------------------------------------------------------------------------------
 GradGradGradGradGradGradGradGradGradGradGradGradGradGradGradGradGradGrad

 1\1\GINC-DDCOPT089\Freq\RB3LYP\6-31G(d)\C4H6\WSCHNEI1\08-Nov-2007\0\\#
 N Geom=AllCheck Guess=Read SCRF=Check GenChk RB3LYP/6-31G(d) Freq\\but
 adiene optimization\\0,1\C,-0.0528229457,0.,-0.0303677887\C,0.05400372
 42,0.,1.3052487324\H,0.8144675316,0.,-0.6860760341\H,-1.0237560519,0.,
 -0.5164854286\H,-0.8655002101,0.,1.8899529175\C,1.2919680402,0.,2.1004
 925046\C,2.5511245534,0.,1.6424466958\H,1.142512969,0.,3.1798626859\H,
 3.396849615,0.,2.3234348646\H,2.78717481,0.,0.5810698393\\Version=AM64
 L-G03RevD.01\State=1-A'\HF=-155.9859561\RMSD=2.714e-09\RMSF=2.847e-05\
 ZeroPoint=0.0851397\Thermal=0.0891797\Dipole=-0.0181137,0.,0.0281787\D
 ipoleDeriv=0.0044821,0.,-0.0743869,0.,-0.2858084,0.,-0.0912159,0.,-0.0
 626375,0.3154642,0.,0.0609492,0.,-0.0914942,0.,-0.1333283,0.,-0.024362
 6,-0.059497,0.,0.0882119,0.,0.1343699,0.,0.0489274,0.,0.00543,-0.06645
 81,0.,-0.0726205,0.,0.1319204,0.,-0.0550405,0.,0.0146049,-0.1018419,0.
 ,0.0610169,0.,0.1110385,0.,0.0831393,0.,-0.0252096,0.0071141,0.,0.0076
 875,0.,-0.0914487,0.,0.2020843,0.,0.2841553,-0.1135279,0.,-0.0371287,0
 .,-0.2858202,0.,-0.0205223,0.,0.0555294,0.015991,0.,0.0292422,0.,0.110
 9867,0.,0.0071288,0.,-0.1430896,-0.0477056,0.,-0.0636302,0.,0.1319295,
 0.,-0.0811896,0.,-0.0042245,0.045979,0.,0.0006586,0.,0.1343264,0.,0.04
 00169,0.,-0.1001958\Polar=57.5688132,0.,15.4349807,7.55116,0.,50.66520
 98\PG=CS [SG(C4H6)]\NImag=1\\0.65149576,0.,0.10265152,0.01735710,0.,0.
 84394897,-0.11661941,0.,-0.01614351,0.59791288,0.,-0.04982609,0.,0.,0.
 13043567,-0.03044817,0.,-0.53527792,-0.01886212,0.,0.84051081,-0.24135
 212,0.,0.13363411,0.00673401,0.,-0.00029588,0.25131337,0.,-0.03595753,
 0.,0.,0.00518844,0.,0.,0.02195367,0.13124169,0.,-0.15742532,0.02924432
 ,0.,-0.01445714,-0.14711803,0.,0.16491117,-0.29190473,0.,-0.11382569,0
 .00159020,0.,0.00201920,-0.01656467,0.,-0.01121960,0.30361458,0.,-0.03
 046372,0.,0.,0.00426383,0.,0.,0.00266531,0.,0.,0.02151075,-0.10941872,
 0.,-0.11081682,-0.03116238,0.,-0.01136913,0.01647486,0.,0.01017117,0.1
 2303339,0.,0.11563596,0.00452114,0.,-0.00228139,-0.25283420,0.,0.12236
 856,0.00122604,0.,-0.00114533,0.00141217,0.,-0.00008026,0.26931991,0.,
 0.00538177,0.,0.,-0.04056847,0.,0.,0.01251873,0.,0.,-0.00802653,0.,0.,
 0.02670653,0.03013777,0.,-0.01767464,0.12239816,0.,-0.13416195,-0.0011
 1403,0.,-0.00516206,-0.00019882,0.,0.00107262,-0.13048803,0.,0.1468686
 2,-0.00145657,0.,-0.02939554,-0.19936955,0.,-0.03762024,-0.00111515,0.
 ,0.00055554,0.00154902,0.,0.00245624,-0.02126595,0.,-0.01770392,0.7845
 2121,0.,0.00608278,0.,0.,-0.06227676,0.,0.,-0.00761974,0.,0.,0.0111524
 2,0.,0.,0.00316129,0.,0.,0.13028234,-0.03098655,0.,-0.02105221,-0.0771
 6844,0.,-0.14688253,-0.00039680,0.,0.00184440,0.00005749,0.,-0.0040025
 6,0.01614541,0.,0.00967471,-0.10420745,0.,0.65423348,0.00092330,0.,0.0
 1080526,-0.04052925,0.,-0.01155190,0.00022969,0.,0.00001340,0.00002508
 ,0.,0.00051111,-0.00240058,0.,-0.00225708,-0.48058904,0.,0.15024381,0.
 82398459,0.,0.00077278,0.,0.,0.00608718,0.,0.,0.00042460,0.,0.,-0.0005
 7910,0.,0.,0.00150396,0.,0.,-0.04983181,0.,0.,0.10259457,-0.00444119,0
 .,-0.00194437,-0.01316490,0.,0.01798596,-0.00051879,0.,-0.00076989,0.0
 0039057,0.,-0.00040717,-0.00488295,0.,-0.00202794,0.13598818,0.,-0.171
 38362,-0.06152084,0.,0.67154420,-0.00479369,0.,-0.00116357,0.00373846,
 0.,-0.02913519,0.00013944,0.,-0.00008223,-0.00011931,0.,-0.00130146,0.
 00098986,0.,0.00015728,-0.06223365,0.,0.03532459,-0.00330581,0.,0.0336
 7433,0.06945656,0.,0.00150375,0.,0.,0.00315480,0.,0.,-0.00007939,0.,0.
 ,0.00007638,0.,0.,-0.00067478,0.,0.,-0.04049602,0.,0.,0.00538697,0.,0.
 ,0.02663863,-0.00379110,0.,0.00036910,0.00471447,0.,-0.01533682,0.0002
 4615,0.,0.00019890,0.00000809,0.,-0.00086224,-0.00034343,0.,0.00108124
 ,0.03525261,0.,-0.32492971,0.00131093,0.,-0.00984597,-0.03913945,0.,0.
 34688546,0.00000731,0.,0.00052097,-0.00209051,0.,0.00412155,0.00019896
 ,0.,-0.00018645,0.00005386,0.,-0.00026183,-0.00122290,0.,-0.00079694,-
 0.02015359,0.,-0.02120677,-0.22649348,0.,-0.13929774,0.00103813,0.,0.0
 0008979,0.24112706,0.,-0.00057898,0.,0.,0.01115525,0.,0.,-0.00013270,0
 .,0.,-0.00046638,0.,0.,0.00007735,0.,0.,0.00429005,0.,0.,-0.03044736,0
 .,0.,-0.00802565,0.,0.,0.02145741,0.00039762,0.,-0.00038855,0.00172292
 ,0.,-0.00036126,-0.00002496,0.,0.00046753,-0.00017483,0.,0.00025344,0.
 00051238,0.,0.00024129,0.01195507,0.,0.01036476,-0.14368374,0.,-0.1762
 0929,-0.00002378,0.,0.00146145,0.15155832,0.,0.17810982,-0.00082099,0.
 ,0.00049225,0.00146736,0.,-0.00059581,-0.00080958,0.,-0.00130332,0.000
 34378,0.,-0.00025093,0.00025451,0.,-0.00013441,0.00011328,0.,0.0321947
 3,-0.07184449,0.,0.05377331,-0.00491000,0.,0.00165195,0.00753516,0.,-0
 .02223899,0.06867097,0.,0.00043373,0.,0.,-0.00761385,0.,0.,0.00103862,
 0.,0.,-0.00013296,0.,0.,-0.00007986,0.,0.,0.00525544,0.,0.,-0.03591179
 ,0.,0.,0.01251531,0.,0.,0.00267102,0.,0.,0.02182434,-0.00004844,0.,0.0
 0026176,-0.00157854,0.,-0.00065001,-0.00088663,0.,0.00022126,-0.000089
 80,0.,0.00032473,0.00019503,0.,0.00008812,0.00271952,0.,-0.00786671,0.
 05612906,0.,-0.32694190,0.00168949,0.,0.00097860,0.00545910,0.,-0.0139
 3918,-0.06358879,0.,0.34752333\\-0.00003572,0.,-0.00002889,-0.00000625
 ,0.,-0.00002877,-0.00000632,0.,0.00003076,0.00001854,0.,-0.00001126,0.
 00001201,0.,0.00001100,0.00002188,0.,-0.00004064,-0.00002775,0.,0.0001
 1464,-0.00001614,0.,0.00000179,-0.00000344,0.,-0.00003552,0.00004319,0
 .,-0.00001310\\\@


 ERROR IS A HARDY PLANT... IT FLOURISHETH IN EVERY SOIL.
            MARTIN FARQUHAR TUPPER
 Job cpu time:  0 days  0 hours  0 minutes  1.6 seconds.
 File lengths (MBytes):  RWF=     18 Int=      0 D2E=      0 Chk=     10 Scr=      1
 Normal termination of Gaussian 03 at Thu Nov  8 09:44:19 2007.
