 Entering Gaussian System, Link 0=g03
 Input=ts-freq.com
 Output=ts-freq.log
 Initial command:
 /opt/und/gaussian/03D01/linux86-64/g03/l1.exe /scratch/Gau-16173.inp -scrdir=/scratch/
 Entering Link 1 = /opt/und/gaussian/03D01/linux86-64/g03/l1.exe PID=     16174.
  
 Copyright (c) 1988,1990,1992,1993,1995,1998,2003,2004, Gaussian, Inc.
                  All Rights Reserved.
  
 This is the Gaussian(R) 03 program.  It is based on the
 the Gaussian(R) 98 system (copyright 1998, Gaussian, Inc.),
 the Gaussian(R) 94 system (copyright 1995, Gaussian, Inc.),
 the Gaussian 92(TM) system (copyright 1992, Gaussian, Inc.),
 the Gaussian 90(TM) system (copyright 1990, Gaussian, Inc.),
 the Gaussian 88(TM) system (copyright 1988, Gaussian, Inc.),
 the Gaussian 86(TM) system (copyright 1986, Carnegie Mellon
 University), and the Gaussian 82(TM) system (copyright 1983,
 Carnegie Mellon University). Gaussian is a federally registered
 trademark of Gaussian, Inc.
  
 This software contains proprietary and confidential information,
 including trade secrets, belonging to Gaussian, Inc.
  
 This software is provided under written license and may be
 used, copied, transmitted, or stored only in accord with that
 written license.
  
 The following legend is applicable only to US Government
 contracts under FAR:
  
                    RESTRICTED RIGHTS LEGEND
  
 Use, reproduction and disclosure by the US Government is
 subject to restrictions as set forth in subparagraphs (a)
 and (c) of the Commercial Computer Software - Restricted
 Rights clause in FAR 52.227-19.
  
 Gaussian, Inc.
 340 Quinnipiac St., Bldg. 40, Wallingford CT 06492
  
  
 ---------------------------------------------------------------
 Warning -- This program may not be used in any manner that
 competes with the business of Gaussian, Inc. or will provide
 assistance to any competitor of Gaussian, Inc.  The licensee
 of this program is prohibited from giving any competitor of
 Gaussian, Inc. access to this program.  By using this program,
 the user acknowledges that Gaussian, Inc. is engaged in the
 business of creating and licensing software in the field of
 computational chemistry and represents and warrants to the
 licensee that it is not a competitor of Gaussian, Inc. and that
 it will not use this program in any manner prohibited above.
 ---------------------------------------------------------------
  

 Cite this work as:
 Gaussian 03, Revision D.01,
 M. J. Frisch, G. W. Trucks, H. B. Schlegel, G. E. Scuseria, 
 M. A. Robb, J. R. Cheeseman, J. A. Montgomery, Jr., T. Vreven, 
 K. N. Kudin, J. C. Burant, J. M. Millam, S. S. Iyengar, J. Tomasi, 
 V. Barone, B. Mennucci, M. Cossi, G. Scalmani, N. Rega, 
 G. A. Petersson, H. Nakatsuji, M. Hada, M. Ehara, K. Toyota, 
 R. Fukuda, J. Hasegawa, M. Ishida, T. Nakajima, Y. Honda, O. Kitao, 
 H. Nakai, M. Klene, X. Li, J. E. Knox, H. P. Hratchian, J. B. Cross, 
 V. Bakken, C. Adamo, J. Jaramillo, R. Gomperts, R. E. Stratmann, 
 O. Yazyev, A. J. Austin, R. Cammi, C. Pomelli, J. W. Ochterski, 
 P. Y. Ayala, K. Morokuma, G. A. Voth, P. Salvador, J. J. Dannenberg, 
 V. G. Zakrzewski, S. Dapprich, A. D. Daniels, M. C. Strain, 
 O. Farkas, D. K. Malick, A. D. Rabuck, K. Raghavachari, 
 J. B. Foresman, J. V. Ortiz, Q. Cui, A. G. Baboul, S. Clifford, 
 J. Cioslowski, B. B. Stefanov, G. Liu, A. Liashenko, P. Piskorz, 
 I. Komaromi, R. L. Martin, D. J. Fox, T. Keith, M. A. Al-Laham, 
 C. Y. Peng, A. Nanayakkara, M. Challacombe, P. M. W. Gill, 
 B. Johnson, W. Chen, M. W. Wong, C. Gonzalez, and J. A. Pople, 
 Gaussian, Inc., Wallingford CT, 2004.
 
 ******************************************
 Gaussian 03:  AM64L-G03RevD.01 13-Oct-2005
                 8-Nov-2007 
 ******************************************
 %chk=b3lyp-ts.chk
 %mem=6MW
 %nproc=1
 Will use up to    1 processors via shared memory.
 -------------------------------------------------
 #N B3LYP/6-31G(d) freq guess=read geom=checkpoint
 -------------------------------------------------
 1/10=4,29=2,30=1,38=1/1,3;
 2/40=1/2;
 3/5=1,6=6,7=1,11=2,16=1,25=1,30=1,74=-5/1,2,3;
 4/5=1/1;
 5/5=2,38=6/2;
 8/6=4,10=90,11=11/1;
 11/6=1,8=1,9=11,15=111,16=1/1,2,10;
 10/6=1/2;
 6/7=2,8=2,9=2,10=2,18=1,28=1/1;
 7/8=1,10=1,25=1/1,2,3,16;
 1/10=4,30=1/3;
 99//99;
 -----
 C6H9F
 -----
 Redundant internal coordinates taken from checkpoint file:
 b3lyp-ts.chk
 Charge =  0 Multiplicity = 1
 C,0,-0.111282783,-0.026991781,0.0415887994
 C,0,-0.0066658943,0.1017902834,1.4123285705
 C,0,1.2355608362,0.1135878024,2.0727540693
 C,0,2.4286431729,-0.0299508852,1.3791342932
 C,0,2.1899812902,-1.9708527639,0.3985993635
 C,0,1.1303455257,-1.9215812687,-0.483178599
 H,0,0.2144803229,-2.4892812864,-0.3869445959
 F,0,1.387716212,-1.5607800817,-1.773157063
 H,0,2.0662551911,-2.5447735287,1.3083259448
 H,0,3.1955501019,-1.9176395381,-0.0055489502
 H,0,2.5438363531,0.3988208589,0.3887849236
 H,0,3.3609838831,-0.1310721589,1.9301576019
 H,0,1.2421172368,-0.0024186144,3.1553145997
 H,0,-0.9046967353,-0.00802741,2.018901169
 H,0,-1.0858530692,-0.1628661367,-0.4216285854
 H,0,0.6521115878,0.3564980737,-0.624995064
 Recover connectivity data from disk.

 GradGradGradGradGradGradGradGradGradGradGradGradGradGradGradGradGradGrad
 Berny optimization.
 Initialization pass.
                           ----------------------------
                           !    Initial Parameters    !
                           ! (Angstroms and Degrees)  !
 --------------------------                            --------------------------
 ! Name  Definition              Value          Derivative Info.                !
 --------------------------------------------------------------------------------
 ! R1    R(1,2)                  1.3807         calculate D2E/DX2 analytically  !
 ! R2    R(1,6)                  2.3252         calculate D2E/DX2 analytically  !
 ! R3    R(1,7)                  2.5204         calculate D2E/DX2 analytically  !
 ! R4    R(1,8)                  2.8094         calculate D2E/DX2 analytically  !
 ! R5    R(1,15)                 1.0876         calculate D2E/DX2 analytically  !
 ! R6    R(1,16)                 1.0836         calculate D2E/DX2 analytically  !
 ! R7    R(2,3)                  1.4069         calculate D2E/DX2 analytically  !
 ! R8    R(2,14)                 1.0892         calculate D2E/DX2 analytically  !
 ! R9    R(3,4)                  1.3875         calculate D2E/DX2 analytically  !
 ! R10   R(3,5)                  2.8388         calculate D2E/DX2 analytically  !
 ! R11   R(3,9)                  2.8881         calculate D2E/DX2 analytically  !
 ! R12   R(3,13)                 1.0888         calculate D2E/DX2 analytically  !
 ! R13   R(4,5)                  2.1876         calculate D2E/DX2 analytically  !
 ! R14   R(4,9)                  2.5418         calculate D2E/DX2 analytically  !
 ! R15   R(4,10)                 2.4635         calculate D2E/DX2 analytically  !
 ! R16   R(4,11)                 1.0853         calculate D2E/DX2 analytically  !
 ! R17   R(4,12)                 1.0877         calculate D2E/DX2 analytically  !
 ! R18   R(5,6)                  1.3794         calculate D2E/DX2 analytically  !
 ! R19   R(5,9)                  1.0827         calculate D2E/DX2 analytically  !
 ! R20   R(5,10)                 1.0851         calculate D2E/DX2 analytically  !
 ! R21   R(5,11)                 2.396          calculate D2E/DX2 analytically  !
 ! R22   R(5,12)                 2.6649         calculate D2E/DX2 analytically  !
 ! R23   R(6,7)                  1.0818         calculate D2E/DX2 analytically  !
 ! R24   R(6,8)                  1.364          calculate D2E/DX2 analytically  !
 ! R25   R(6,15)                 2.8299         calculate D2E/DX2 analytically  !
 ! R26   R(6,16)                 2.3321         calculate D2E/DX2 analytically  !
 ! R27   R(8,16)                 2.3527         calculate D2E/DX2 analytically  !
 ! A1    A(2,1,15)             120.1576         calculate D2E/DX2 analytically  !
 ! A2    A(2,1,16)             121.6222         calculate D2E/DX2 analytically  !
 ! A3    A(15,1,16)            114.4255         calculate D2E/DX2 analytically  !
 ! A4    A(1,2,3)              122.2552         calculate D2E/DX2 analytically  !
 ! A5    A(1,2,14)             118.7487         calculate D2E/DX2 analytically  !
 ! A6    A(3,2,14)             117.8647         calculate D2E/DX2 analytically  !
 ! A7    A(2,3,4)              121.5802         calculate D2E/DX2 analytically  !
 ! A8    A(2,3,13)             118.1093         calculate D2E/DX2 analytically  !
 ! A9    A(4,3,13)             118.741          calculate D2E/DX2 analytically  !
 ! A10   A(3,4,11)             120.435          calculate D2E/DX2 analytically  !
 ! A11   A(3,4,12)             119.5659         calculate D2E/DX2 analytically  !
 ! A12   A(11,4,12)            114.0802         calculate D2E/DX2 analytically  !
 ! A13   A(6,5,9)              117.921          calculate D2E/DX2 analytically  !
 ! A14   A(6,5,10)             118.1679         calculate D2E/DX2 analytically  !
 ! A15   A(9,5,10)             116.414          calculate D2E/DX2 analytically  !
 ! A16   A(5,6,7)              125.0803         calculate D2E/DX2 analytically  !
 ! A17   A(5,6,8)              117.9731         calculate D2E/DX2 analytically  !
 ! A18   A(7,6,8)              112.4998         calculate D2E/DX2 analytically  !
 ! D1    D(15,1,2,3)           171.9787         calculate D2E/DX2 analytically  !
 ! D2    D(15,1,2,14)            4.4035         calculate D2E/DX2 analytically  !
 ! D3    D(16,1,2,3)           -31.1847         calculate D2E/DX2 analytically  !
 ! D4    D(16,1,2,14)          161.2401         calculate D2E/DX2 analytically  !
 ! D5    D(1,2,3,4)             -1.2455         calculate D2E/DX2 analytically  !
 ! D6    D(1,2,3,13)          -166.7759         calculate D2E/DX2 analytically  !
 ! D7    D(14,2,3,4)           166.4341         calculate D2E/DX2 analytically  !
 ! D8    D(14,2,3,13)            0.9038         calculate D2E/DX2 analytically  !
 ! D9    D(2,3,4,11)            35.6862         calculate D2E/DX2 analytically  !
 ! D10   D(2,3,4,12)          -172.9883         calculate D2E/DX2 analytically  !
 ! D11   D(13,3,4,11)         -158.8719         calculate D2E/DX2 analytically  !
 ! D12   D(13,3,4,12)           -7.5465         calculate D2E/DX2 analytically  !
 ! D13   D(9,5,6,7)             -6.2719         calculate D2E/DX2 analytically  !
 ! D14   D(9,5,6,8)           -160.7581         calculate D2E/DX2 analytically  !
 ! D15   D(10,5,6,7)           142.473          calculate D2E/DX2 analytically  !
 ! D16   D(10,5,6,8)           -12.0132         calculate D2E/DX2 analytically  !
 --------------------------------------------------------------------------------
 Trust Radius=3.00D-01 FncErr=1.00D-07 GrdErr=1.00D-07
 Number of steps in this run=   2 maximum allowed number of steps=   2.
 GradGradGradGradGradGradGradGradGradGradGradGradGradGradGradGradGradGrad

                          Input orientation:                          
 ---------------------------------------------------------------------
 Center     Atomic     Atomic              Coordinates (Angstroms)
 Number     Number      Type              X           Y           Z
 ---------------------------------------------------------------------
    1          6             0       -0.111283   -0.026992    0.041589
    2          6             0       -0.006666    0.101790    1.412329
    3          6             0        1.235561    0.113588    2.072754
    4          6             0        2.428643   -0.029951    1.379134
    5          6             0        2.189981   -1.970853    0.398599
    6          6             0        1.130346   -1.921581   -0.483179
    7          1             0        0.214480   -2.489281   -0.386945
    8          9             0        1.387716   -1.560780   -1.773157
    9          1             0        2.066255   -2.544774    1.308326
   10          1             0        3.195550   -1.917640   -0.005549
   11          1             0        2.543836    0.398821    0.388785
   12          1             0        3.360984   -0.131072    1.930158
   13          1             0        1.242117   -0.002419    3.155315
   14          1             0       -0.904697   -0.008027    2.018901
   15          1             0       -1.085853   -0.162866   -0.421629
   16          1             0        0.652112    0.356498   -0.624995
 ---------------------------------------------------------------------
                    Distance matrix (angstroms):
                    1          2          3          4          5
     1  C    0.000000
     2  C    1.380745   0.000000
     3  C    2.441185   1.406922   0.000000
     4  C    2.870585   2.439096   1.387500   0.000000
     5  C    3.033458   3.185711   2.838768   2.187580   0.000000
     6  C    2.325186   2.996627   3.268910   2.955005   1.379416
     7  H    2.520443   3.162268   3.723929   3.750981   2.188253
     8  F    2.809414   3.854317   4.197343   3.655668   2.351237
     9  H    3.561674   3.363349   2.888129   2.541785   1.082726
    10  H    3.809451   4.042606   3.505251   2.463506   1.085051
    11  H    2.711369   2.764223   2.151440   1.085314   2.395968
    12  H    3.954006   3.415177   2.144205   1.087709   2.664903
    13  H    3.395230   2.146700   1.088778   2.136216   3.517479
    14  H    2.130641   1.089243   2.144386   3.394251   4.006881
    15  H    1.087575   2.144315   3.418674   3.951215   3.830493
    16  H    1.083591   2.156282   2.770788   2.705909   2.971422
                    6          7          8          9         10
     6  C    0.000000
     7  H    1.081829   0.000000
     8  F    1.363987   2.039652   0.000000
     9  H    2.115132   2.511193   3.305177   0.000000
    10  H    2.119721   3.059251   2.553439   1.842518   0.000000
    11  H    2.853514   3.790619   3.138573   3.120639   2.438487
    12  H    3.742441   4.564055   4.433102   2.808728   2.639347
    13  H    4.115132   4.448384   5.171027   3.248713   4.180315
    14  H    3.750132   3.632805   4.695307   3.970712   4.955506
    15  H    2.829912   2.665385   3.146321   4.313005   4.645725
    16  H    2.332052   2.889057   2.352732   3.762301   3.467635
                   11         12         13         14         15
    11  H    0.000000
    12  H    1.823279   0.000000
    13  H    3.083691   2.450950   0.000000
    14  H    3.836038   4.268378   2.429049   0.000000
    15  H    3.761238   5.030534   4.270798   2.452137   0.000000
    16  H    2.146663   3.755598   3.842872   3.089776   1.825272
                   16
    16  H    0.000000
 Stoichiometry    C6H9F
 Framework group  C1[X(C6H9F)]
 Deg. of freedom    42
 Full point group                 C1
 Largest Abelian subgroup         C1      NOp   1
 Largest concise Abelian subgroup C1      NOp   1
                         Standard orientation:                         
 ---------------------------------------------------------------------
 Center     Atomic     Atomic              Coordinates (Angstroms)
 Number     Number      Type              X           Y           Z
 ---------------------------------------------------------------------
    1          6             0        0.272549    1.514271   -0.251468
    2          6             0        1.479210    1.048731    0.231956
    3          6             0        1.904108   -0.278390    0.037949
    4          6             0        1.116127   -1.202996   -0.632385
    5          6             0       -0.716558   -1.235708    0.561642
    6          6             0       -1.314291    0.007168    0.534071
    7          1             0       -1.437165    0.657122    1.390118
    8          9             0       -2.231152    0.254578   -0.445019
    9          1             0       -0.246864   -1.552035    1.484475
   10          1             0       -1.136367   -2.019868   -0.059801
   11          1             0        0.502248   -0.895467   -1.472912
   12          1             0        1.422703   -2.246100   -0.664890
   13          1             0        2.749089   -0.637258    0.623320
   14          1             0        2.026809    1.658930    0.949062
   15          1             0       -0.082382    2.503887    0.026925
   16          1             0       -0.164566    1.121134   -1.161712
 ---------------------------------------------------------------------
 Rotational constants (GHZ):      3.9237561      2.0146000      1.5480062
 Standard basis: 6-31G(d) (6D, 7F)
 There are   123 symmetry adapted basis functions of A   symmetry.
 Integral buffers will be    131072 words long.
 Raffenetti 2 integral format.
 Two-electron integral symmetry is turned on.
   123 basis functions,   232 primitive gaussians,   123 cartesian basis functions
    27 alpha electrons       27 beta electrons
       nuclear repulsion energy       293.5108487643 Hartrees.
 NAtoms=   16 NActive=   16 NUniq=   16 SFac= 7.50D-01 NAtFMM=   80 NAOKFM=F Big=F
 One-electron integrals computed using PRISM.
 NBasis=   123 RedAO= T  NBF=   123
 NBsUse=   123 1.00D-06 NBFU=   123
 Initial guess read from the checkpoint file:
 b3lyp-ts.chk
 Initial guess orbital symmetries:
       Occupied  (A) (A) (A) (A) (A) (A) (A) (A) (A) (A) (A) (A)
                 (A) (A) (A) (A) (A) (A) (A) (A) (A) (A) (A) (A)
                 (A) (A) (A)
       Virtual   (A) (A) (A) (A) (A) (A) (A) (A) (A) (A) (A) (A)
                 (A) (A) (A) (A) (A) (A) (A) (A) (A) (A) (A) (A)
                 (A) (A) (A) (A) (A) (A) (A) (A) (A) (A) (A) (A)
                 (A) (A) (A) (A) (A) (A) (A) (A) (A) (A) (A) (A)
                 (A) (A) (A) (A) (A) (A) (A) (A) (A) (A) (A) (A)
                 (A) (A) (A) (A) (A) (A) (A) (A) (A) (A) (A) (A)
                 (A) (A) (A) (A) (A) (A) (A) (A) (A) (A) (A) (A)
                 (A) (A) (A) (A) (A) (A) (A) (A) (A) (A) (A) (A)
 Requested convergence on RMS density matrix=1.00D-08 within 128 cycles.
 Requested convergence on MAX density matrix=1.00D-06.
 Requested convergence on             energy=1.00D-06.
 No special actions if energy rises.
 SCF Done:  E(RB+HF-LYP) =  -333.773463107     A.U. after    1 cycles
             Convg  =    0.4339D-08             -V/T =  2.0090
             S**2   =   0.0000
 Range of M.O.s used for correlation:     1   123
 NBasis=   123 NAE=    27 NBE=    27 NFC=     0 NFV=     0
 NROrb=    123 NOA=    27 NOB=    27 NVA=    96 NVB=    96
 Symmetrizing basis deriv contribution to polar:
 IMax=3 JMax=2 DiffMx= 0.00D+00
 G2DrvN: will do   17 centers at a time, making    1 passes doing MaxLOS=2.
 FoFDir/FoFCou used for L=0 through L=2.
 DoAtom=TTTTTTTTTTTTTTTT
          Differentiating once with respect to electric field.
                with respect to dipole field.
          Differentiating once with respect to nuclear coordinates.
 Integrals replicated using symmetry in FoFDir.
 MinBra= 0 MaxBra= 2 Meth= 1.
 IRaf=       0 NMat=  51 IRICut=      51 DoRegI=T DoRafI=T ISym2E= 2 JSym2E=2.
          There are  51 degrees of freedom in the 1st order CPHF.
    48 vectors were produced by pass  0.
 AX will form  48 AO Fock derivatives at one time.
    48 vectors were produced by pass  1.
    48 vectors were produced by pass  2.
    48 vectors were produced by pass  3.
    48 vectors were produced by pass  4.
    24 vectors were produced by pass  5.
     3 vectors were produced by pass  6.
 Inv2:  IOpt= 1 Iter= 1 AM= 2.11D-15 Conv= 1.00D-12.
 Inverted reduced A of dimension  267 with in-core refinement.
 Isotropic polarizability for W=    0.000000       69.98 Bohr**3.
 End of Minotr Frequency-dependent properties file   721 does not exist.

 **********************************************************************

            Population analysis using the SCF density.

 **********************************************************************

 Orbital symmetries:
       Occupied  (A) (A) (A) (A) (A) (A) (A) (A) (A) (A) (A) (A)
                 (A) (A) (A) (A) (A) (A) (A) (A) (A) (A) (A) (A)
                 (A) (A) (A)
       Virtual   (A) (A) (A) (A) (A) (A) (A) (A) (A) (A) (A) (A)
                 (A) (A) (A) (A) (A) (A) (A) (A) (A) (A) (A) (A)
                 (A) (A) (A) (A) (A) (A) (A) (A) (A) (A) (A) (A)
                 (A) (A) (A) (A) (A) (A) (A) (A) (A) (A) (A) (A)
                 (A) (A) (A) (A) (A) (A) (A) (A) (A) (A) (A) (A)
                 (A) (A) (A) (A) (A) (A) (A) (A) (A) (A) (A) (A)
                 (A) (A) (A) (A) (A) (A) (A) (A) (A) (A) (A) (A)
                 (A) (A) (A) (A) (A) (A) (A) (A) (A) (A) (A) (A)
 The electronic state is 1-A.
 Alpha  occ. eigenvalues --  -24.68793 -10.26338 -10.19273 -10.19004 -10.18359
 Alpha  occ. eigenvalues --  -10.18072 -10.17925  -1.19617  -0.80539  -0.75147
 Alpha  occ. eigenvalues --   -0.71434  -0.62235  -0.59717  -0.52317  -0.50896
 Alpha  occ. eigenvalues --   -0.48982  -0.46248  -0.44621  -0.42650  -0.40193
 Alpha  occ. eigenvalues --   -0.39466  -0.36021  -0.35451  -0.35180  -0.33177
 Alpha  occ. eigenvalues --   -0.23531  -0.21072
 Alpha virt. eigenvalues --   -0.01448   0.01254   0.09758   0.10734   0.11657
 Alpha virt. eigenvalues --    0.13575   0.14566   0.15015   0.17328   0.19793
 Alpha virt. eigenvalues --    0.20273   0.23449   0.24159   0.28877   0.32452
 Alpha virt. eigenvalues --    0.35992   0.42433   0.46961   0.50886   0.52402
 Alpha virt. eigenvalues --    0.54784   0.56198   0.59277   0.60562   0.62422
 Alpha virt. eigenvalues --    0.63526   0.64150   0.66192   0.67785   0.71907
 Alpha virt. eigenvalues --    0.74315   0.81304   0.84273   0.84917   0.85983
 Alpha virt. eigenvalues --    0.87054   0.87982   0.88981   0.92635   0.95156
 Alpha virt. eigenvalues --    0.95982   0.97698   1.03277   1.05648   1.07122
 Alpha virt. eigenvalues --    1.11085   1.18399   1.21053   1.26062   1.31964
 Alpha virt. eigenvalues --    1.34427   1.36157   1.44238   1.46411   1.48586
 Alpha virt. eigenvalues --    1.54496   1.59011   1.68259   1.71533   1.77505
 Alpha virt. eigenvalues --    1.79489   1.81970   1.85886   1.89942   1.92042
 Alpha virt. eigenvalues --    1.94218   1.97499   1.98160   2.02586   2.04490
 Alpha virt. eigenvalues --    2.10904   2.15203   2.17479   2.19300   2.23694
 Alpha virt. eigenvalues --    2.26278   2.28195   2.30285   2.41663   2.50087
 Alpha virt. eigenvalues --    2.53183   2.57202   2.60307   2.60704   2.68324
 Alpha virt. eigenvalues --    2.81851   2.86453   3.04456   3.08637   4.11286
 Alpha virt. eigenvalues --    4.22571   4.25252   4.28150   4.40588   4.49139
 Alpha virt. eigenvalues --    4.54466
          Condensed to atoms (all electrons):
              1          2          3          4          5          6
     1  C    5.177946   0.536065  -0.050378  -0.031519  -0.007226   0.108856
     2  C    0.536065   4.807689   0.548304  -0.042914  -0.022052  -0.015193
     3  C   -0.050378   0.548304   4.811770   0.556080  -0.019653  -0.018330
     4  C   -0.031519  -0.042914   0.556080   5.107289   0.097549  -0.017792
     5  C   -0.007226  -0.022052  -0.019653   0.097549   5.230688   0.515975
     6  C    0.108856  -0.015193  -0.018330  -0.017792   0.515975   4.683886
     7  H   -0.011086  -0.002666   0.000846   0.001104  -0.070030   0.375486
     8  F   -0.015132   0.000678   0.000252  -0.000312  -0.039737   0.259927
     9  H    0.000928   0.000465  -0.002644  -0.010549   0.355415  -0.017773
    10  H    0.001121   0.000625  -0.000125  -0.012270   0.362364  -0.028782
    11  H    0.003216  -0.012222  -0.029476   0.372062  -0.019592  -0.008141
    12  H    0.000535   0.005360  -0.027126   0.361209  -0.005194   0.001095
    13  H    0.006469  -0.044225   0.370025  -0.059307   0.000567  -0.000050
    14  H   -0.055459   0.367558  -0.046585   0.006684  -0.000099   0.000418
    15  H    0.362210  -0.026644   0.005291   0.000351   0.001089  -0.003759
    16  H    0.354452  -0.025353  -0.011806   0.006787  -0.010307  -0.019135
              7          8          9         10         11         12
     1  C   -0.011086  -0.015132   0.000928   0.001121   0.003216   0.000535
     2  C   -0.002666   0.000678   0.000465   0.000625  -0.012222   0.005360
     3  C    0.000846   0.000252  -0.002644  -0.000125  -0.029476  -0.027126
     4  C    0.001104  -0.000312  -0.010549  -0.012270   0.372062   0.361209
     5  C   -0.070030  -0.039737   0.355415   0.362364  -0.019592  -0.005194
     6  C    0.375486   0.259927  -0.017773  -0.028782  -0.008141   0.001095
     7  H    0.582742  -0.035422  -0.000549   0.004187   0.000145  -0.000037
     8  F   -0.035422   9.109141   0.002022  -0.001280   0.001552  -0.000011
     9  H   -0.000549   0.002022   0.541201  -0.031853   0.001535  -0.000803
    10  H    0.004187  -0.001280  -0.031853   0.537300  -0.002962   0.000272
    11  H    0.000145   0.001552   0.001535  -0.002962   0.557469  -0.042227
    12  H   -0.000037  -0.000011  -0.000803   0.000272  -0.042227   0.570671
    13  H    0.000006   0.000000   0.000606  -0.000061   0.005245  -0.007135
    14  H    0.000036  -0.000009   0.000002   0.000006  -0.000027  -0.000158
    15  H   -0.000790   0.000406  -0.000035  -0.000025  -0.000099  -0.000007
    16  H    0.001322   0.009719   0.000091   0.000171   0.007412  -0.000156
             13         14         15         16
     1  C    0.006469  -0.055459   0.362210   0.354452
     2  C   -0.044225   0.367558  -0.026644  -0.025353
     3  C    0.370025  -0.046585   0.005291  -0.011806
     4  C   -0.059307   0.006684   0.000351   0.006787
     5  C    0.000567  -0.000099   0.001089  -0.010307
     6  C   -0.000050   0.000418  -0.003759  -0.019135
     7  H    0.000006   0.000036  -0.000790   0.001322
     8  F    0.000000  -0.000009   0.000406   0.009719
     9  H    0.000606   0.000002  -0.000035   0.000091
    10  H   -0.000061   0.000006  -0.000025   0.000171
    11  H    0.005245  -0.000027  -0.000099   0.007412
    12  H   -0.007135  -0.000158  -0.000007  -0.000156
    13  H    0.613698  -0.007789  -0.000160   0.000022
    14  H   -0.007789   0.614738  -0.006960   0.004870
    15  H   -0.000160  -0.006960   0.566966  -0.040070
    16  H    0.000022   0.004870  -0.040070   0.551242
 Mulliken atomic charges:
              1
     1  C   -0.380999
     2  C   -0.075476
     3  C   -0.086446
     4  C   -0.334451
     5  C   -0.369758
     6  C    0.183313
     7  H    0.154706
     8  F   -0.291798
     9  H    0.161940
    10  H    0.171312
    11  H    0.166111
    12  H    0.143710
    13  H    0.122088
    14  H    0.122775
    15  H    0.142236
    16  H    0.170737
 Sum of Mulliken charges=   0.00000
 Atomic charges with hydrogens summed into heavy atoms:
              1
     1  C   -0.068025
     2  C    0.047298
     3  C    0.035642
     4  C   -0.024630
     5  C   -0.036506
     6  C    0.338018
     7  H    0.000000
     8  F   -0.291798
     9  H    0.000000
    10  H    0.000000
    11  H    0.000000
    12  H    0.000000
    13  H    0.000000
    14  H    0.000000
    15  H    0.000000
    16  H    0.000000
 Sum of Mulliken charges=   0.00000
 APT atomic charges:
              1
     1  C    0.003681
     2  C   -0.003403
     3  C   -0.109623
     4  C    0.101953
     5  C   -0.103854
     6  C    0.515628
     7  H    0.000142
     8  F   -0.487411
     9  H    0.007478
    10  H    0.048440
    11  H   -0.004064
    12  H    0.003408
    13  H    0.007563
    14  H    0.003681
    15  H    0.004212
    16  H    0.012168
 Sum of APT charges=   0.00000
 APT Atomic charges with hydrogens summed into heavy atoms:
              1
     1  C    0.020061
     2  C    0.000278
     3  C   -0.102060
     4  C    0.101297
     5  C   -0.047935
     6  C    0.515770
     7  H    0.000000
     8  F   -0.487411
     9  H    0.000000
    10  H    0.000000
    11  H    0.000000
    12  H    0.000000
    13  H    0.000000
    14  H    0.000000
    15  H    0.000000
    16  H    0.000000
 Sum of APT charges=   0.00000
 Electronic spatial extent (au):  <R**2>=   804.5763
 Charge=     0.0000 electrons
 Dipole moment (field-independent basis, Debye):
    X=     0.5102    Y=    -0.5933    Z=     1.0670  Tot=     1.3232
 Quadrupole moment (field-independent basis, Debye-Ang):
   XX=   -45.6908   YY=   -39.3503   ZZ=   -41.1450
   XY=    -0.7609   XZ=     0.6144   YZ=     1.5454
 Traceless Quadrupole moment (field-independent basis, Debye-Ang):
   XX=    -3.6288   YY=     2.7117   ZZ=     0.9170
   XY=    -0.7609   XZ=     0.6144   YZ=     1.5454
 Octapole moment (field-independent basis, Debye-Ang**2):
  XXX=   -10.3164  YYY=    -0.3931  ZZZ=    -2.1121  XYY=    -6.4858
  XXY=    -1.3411  XXZ=     6.5143  XZZ=    -7.8986  YZZ=     0.4230
  YYZ=     0.3600  XYZ=    -0.3364
 Hexadecapole moment (field-independent basis, Debye-Ang**3):
 XXXX=  -565.5243 YYYY=  -326.2913 ZZZZ=  -117.5421 XXXY=    -7.7365
 XXXZ=    18.6669 YYYX=    -9.7718 YYYZ=     6.8874 ZZZX=    10.6645
 ZZZY=    -0.4422 XXYY=  -145.5732 XXZZ=  -113.0826 YYZZ=   -77.0291
 XXYZ=     5.4616 YYXZ=     6.8273 ZZXY=    -3.4146
 N-N= 2.935108487643D+02 E-N=-1.366327682510D+03  KE= 3.307953114660D+02
  Exact polarizability:  81.661  -0.555  79.728   1.479   3.414  48.543
 Approx polarizability: 144.969  -2.274 135.407   1.825   5.615  71.926
 Full mass-weighted force constant matrix:
 Low frequencies --- -574.5611  -18.2020   -9.3769   -0.0007   -0.0004    0.0008
 Low frequencies ---    5.3167   87.2196  181.0885
 ******    1 imaginary frequencies (negative Signs) ****** 
 Diagonal vibrational polarizability:
        8.8283320       3.2695622       3.3447339
 Harmonic frequencies (cm**-1), IR intensities (KM/Mole), Raman scattering
 activities (A**4/AMU), depolarization ratios for plane and unpolarized
 incident light, reduced masses (AMU), force constants (mDyne/A),
 and normal coordinates:
                     1                      2                      3
                     A                      A                      A
 Frequencies --  -574.5603                87.1698               181.0860
 Red. masses --     6.7544                 3.6982                 4.9876
 Frc consts  --     1.3137                 0.0166                 0.0964
 IR Inten    --     1.3202                 1.0754                 1.3256
 Atom AN      X      Y      Z        X      Y      Z        X      Y      Z
   1   6     0.22   0.20  -0.10    -0.08  -0.13  -0.14     0.25   0.22  -0.14
   2   6    -0.02   0.06  -0.01    -0.06   0.01  -0.02     0.12   0.05  -0.02
   3   6     0.02  -0.06  -0.03     0.05   0.03   0.10    -0.05  -0.02   0.12
   4   6     0.32   0.02  -0.18     0.21  -0.05   0.05    -0.17   0.05   0.14
   5   6    -0.31  -0.03   0.20    -0.06  -0.06  -0.17     0.10  -0.06  -0.21
   6   6    -0.26  -0.23   0.13     0.05  -0.01  -0.01    -0.06  -0.12  -0.02
   7   1     0.23   0.23  -0.16     0.17  -0.12   0.10     0.10  -0.11  -0.01
   8   9     0.00   0.02  -0.01    -0.08   0.17   0.15    -0.15  -0.09   0.10
   9   1     0.06   0.04   0.02    -0.10  -0.25  -0.21     0.02  -0.15  -0.20
  10   1     0.21  -0.04  -0.12    -0.08   0.07  -0.33     0.02  -0.02  -0.21
  11   1    -0.13  -0.01   0.15     0.28  -0.14  -0.04     0.08   0.11  -0.03
  12   1     0.19  -0.02  -0.11     0.26  -0.04   0.16    -0.25   0.02   0.16
  13   1    -0.07  -0.03   0.11     0.01   0.13   0.22    -0.16  -0.11   0.23
  14   1    -0.04  -0.03   0.08    -0.18   0.11  -0.02     0.19   0.05  -0.06
  15   1     0.18   0.17  -0.08    -0.18  -0.14  -0.26     0.37   0.29  -0.22
  16   1    -0.16  -0.12   0.23     0.04  -0.24  -0.15     0.11   0.12  -0.03
                     4                      5                      6
                     A                      A                      A
 Frequencies --   231.8124               283.8763               373.1881
 Red. masses --     4.6655                 3.2636                 2.5344
 Frc consts  --     0.1477                 0.1550                 0.2080
 IR Inten    --     2.0606                 0.3132                 0.0251
 Atom AN      X      Y      Z        X      Y      Z        X      Y      Z
   1   6    -0.07   0.09  -0.01    -0.01  -0.03   0.20    -0.04   0.21   0.06
   2   6    -0.03   0.10  -0.13     0.16   0.04  -0.12    -0.11  -0.03  -0.03
   3   6    -0.09   0.06  -0.03     0.17   0.05  -0.11    -0.09  -0.03  -0.03
   4   6    -0.14  -0.02   0.14     0.06  -0.07   0.15     0.09  -0.21   0.00
   5   6    -0.07  -0.21  -0.02    -0.07   0.01  -0.05     0.06   0.03  -0.03
   6   6     0.03  -0.16   0.11    -0.13  -0.01  -0.03     0.07   0.03  -0.05
   7   1     0.02  -0.24   0.17    -0.21  -0.07   0.01     0.11   0.04  -0.05
   8   9     0.28   0.12  -0.04    -0.12   0.01  -0.04     0.00   0.00   0.02
   9   1    -0.27  -0.44   0.00    -0.18  -0.01   0.00     0.10   0.07  -0.04
  10   1    -0.05  -0.05  -0.24    -0.01   0.02  -0.11     0.02   0.00   0.04
  11   1    -0.14  -0.10   0.11     0.04  -0.19   0.12     0.13  -0.44  -0.11
  12   1    -0.10  -0.01   0.21     0.08  -0.07   0.28     0.19  -0.19   0.29
  13   1    -0.04   0.12  -0.06     0.32   0.15  -0.27    -0.14   0.07   0.10
  14   1     0.09   0.16  -0.27     0.32   0.11  -0.30    -0.09  -0.16   0.07
  15   1    -0.05   0.10   0.00     0.04  -0.04   0.30     0.08   0.18   0.33
  16   1    -0.24  -0.01   0.12    -0.14   0.04   0.23    -0.16   0.45   0.00
                     7                      8                      9
                     A                      A                      A
 Frequencies --   438.1335               463.0590               523.7141
 Red. masses --     2.9483                 2.3265                 2.6202
 Frc consts  --     0.3334                 0.2939                 0.4234
 IR Inten    --     5.2095                 0.2777                 3.0141
 Atom AN      X      Y      Z        X      Y      Z        X      Y      Z
   1   6    -0.04  -0.05   0.01     0.06   0.02  -0.07     0.04   0.01  -0.08
   2   6    -0.03  -0.04  -0.04    -0.05  -0.01   0.13    -0.08  -0.05   0.12
   3   6    -0.02  -0.05   0.04     0.06   0.06  -0.13     0.07   0.03  -0.13
   4   6     0.00  -0.02  -0.02    -0.06  -0.02   0.09    -0.02  -0.05   0.05
   5   6     0.25   0.09  -0.02     0.04  -0.10   0.06     0.03   0.13  -0.09
   6   6    -0.20  -0.13   0.07     0.00  -0.10  -0.10    -0.11   0.05   0.17
   7   1    -0.26  -0.19   0.11     0.16  -0.07  -0.11    -0.28   0.02   0.18
   8   9     0.00   0.13  -0.04    -0.05   0.10   0.00     0.06  -0.07   0.00
   9   1     0.28   0.36   0.07     0.04   0.19   0.16    -0.12  -0.24  -0.15
  10   1     0.52  -0.16   0.11     0.12  -0.32   0.29    -0.03   0.38  -0.37
  11   1     0.14   0.01  -0.12    -0.23  -0.14   0.17    -0.07  -0.19   0.04
  12   1    -0.08  -0.04   0.05     0.10   0.03   0.01     0.03  -0.04   0.15
  13   1    -0.11  -0.06   0.15     0.21   0.09  -0.33     0.17   0.06  -0.26
  14   1     0.01   0.02  -0.12    -0.18  -0.12   0.32    -0.19  -0.14   0.28
  15   1     0.02   0.00  -0.09    -0.13  -0.07   0.02    -0.01   0.02  -0.17
  16   1    -0.21  -0.20   0.16     0.29   0.07  -0.20     0.15  -0.08  -0.09
                    10                     11                     12
                     A                      A                      A
 Frequencies --   596.4390               702.6693               738.3291
 Red. masses --     2.0217                 1.2042                 1.2255
 Frc consts  --     0.4237                 0.3503                 0.3936
 IR Inten    --     0.0437                23.5486                18.8438
 Atom AN      X      Y      Z        X      Y      Z        X      Y      Z
   1   6    -0.06   0.06  -0.06    -0.01   0.03   0.02    -0.01  -0.02   0.02
   2   6    -0.10  -0.14  -0.09    -0.06  -0.03   0.07    -0.04  -0.01   0.02
   3   6     0.16  -0.07   0.06    -0.04  -0.02   0.04     0.05   0.00  -0.04
   4   6     0.02   0.07   0.07     0.02  -0.04   0.01    -0.03   0.03   0.04
   5   6     0.00   0.00   0.01     0.02   0.00  -0.02    -0.01   0.03  -0.07
   6   6     0.00   0.00   0.00     0.02   0.01  -0.02    -0.02  -0.03   0.00
   7   1    -0.02  -0.02   0.01     0.08   0.05  -0.04     0.53   0.42  -0.28
   8   9     0.00   0.01   0.00    -0.01   0.00   0.00     0.03  -0.01   0.01
   9   1    -0.08  -0.05   0.04     0.02   0.01  -0.02     0.31   0.14  -0.20
  10   1     0.05   0.03  -0.06    -0.05   0.00   0.03    -0.19  -0.02   0.12
  11   1    -0.04   0.45   0.26    -0.14   0.03   0.15     0.03   0.01  -0.01
  12   1    -0.19   0.02  -0.30     0.21   0.03  -0.29    -0.23  -0.03   0.22
  13   1     0.24   0.05   0.02     0.31   0.10  -0.38    -0.03  -0.02   0.08
  14   1    -0.23  -0.08  -0.03     0.25   0.18  -0.35    -0.04   0.03  -0.02
  15   1     0.20   0.06   0.27     0.22   0.23  -0.37    -0.07  -0.05   0.04
  16   1    -0.26   0.42  -0.12    -0.13  -0.21   0.19    -0.20  -0.19   0.20
                    13                     14                     15
                     A                      A                      A
 Frequencies --   798.7691               830.6209               896.0880
 Red. masses --     1.3479                 1.2999                 1.3313
 Frc consts  --     0.5067                 0.5284                 0.6298
 IR Inten    --     1.4644                10.2126                 3.6491
 Atom AN      X      Y      Z        X      Y      Z        X      Y      Z
   1   6     0.02  -0.03  -0.01     0.00   0.00   0.03     0.01   0.00   0.00
   2   6     0.04   0.05  -0.05    -0.04  -0.01   0.02     0.00  -0.01   0.01
   3   6    -0.10  -0.03   0.06     0.01  -0.01  -0.05     0.02   0.02  -0.02
   4   6     0.00  -0.04   0.03     0.00   0.03   0.00    -0.01  -0.01  -0.01
   5   6     0.04   0.06  -0.02     0.02   0.01   0.07     0.12  -0.03   0.05
   6   6    -0.01  -0.02   0.01     0.08   0.00  -0.07    -0.02  -0.03   0.04
   7   1     0.23   0.20  -0.13     0.11   0.02  -0.08     0.19   0.30  -0.19
   8   9     0.00   0.00   0.00    -0.04   0.01   0.00    -0.05   0.03  -0.04
   9   1     0.04  -0.08  -0.07    -0.18  -0.20   0.10    -0.46  -0.40   0.23
  10   1     0.21   0.15  -0.24     0.56   0.18  -0.49    -0.37   0.20   0.07
  11   1    -0.33   0.04   0.31    -0.13  -0.02   0.09     0.19   0.01  -0.16
  12   1     0.17   0.02  -0.28    -0.26  -0.05   0.22     0.22   0.06  -0.19
  13   1     0.11   0.03  -0.20    -0.14  -0.07   0.12    -0.11  -0.01   0.15
  14   1    -0.06  -0.04   0.10     0.02   0.00  -0.03    -0.01   0.00   0.01
  15   1    -0.35  -0.27   0.36     0.05   0.06  -0.14     0.00  -0.02   0.04
  16   1     0.03   0.03  -0.04    -0.12  -0.19   0.17    -0.10  -0.05   0.08
                    16                     17                     18
                     A                      A                      A
 Frequencies --   947.6702               961.9673               967.5471
 Red. masses --     1.4241                 1.5840                 1.3031
 Frc consts  --     0.7536                 0.8636                 0.7187
 IR Inten    --    24.1901                33.4101                 2.0005
 Atom AN      X      Y      Z        X      Y      Z        X      Y      Z
   1   6     0.03  -0.09  -0.03    -0.04   0.04   0.02     0.05   0.06  -0.09
   2   6    -0.01  -0.07   0.00     0.02   0.04  -0.01    -0.03  -0.01   0.08
   3   6    -0.07   0.04   0.04     0.03  -0.02   0.01     0.02  -0.03   0.02
   4   6    -0.01   0.10  -0.02     0.01  -0.04   0.00    -0.01   0.00  -0.04
   5   6     0.00  -0.03   0.04     0.04  -0.07   0.07     0.00  -0.01   0.02
   6   6    -0.01  -0.01   0.03     0.05   0.02   0.08     0.03   0.01   0.00
   7   1     0.07   0.13  -0.06    -0.12   0.04   0.04    -0.15  -0.12   0.09
   8   9    -0.02   0.01  -0.03    -0.07   0.04  -0.08    -0.01   0.00  -0.01
   9   1     0.22  -0.17  -0.12     0.65  -0.36  -0.35    -0.01  -0.03   0.02
  10   1     0.08   0.06  -0.12    -0.18   0.12  -0.04    -0.03   0.01   0.02
  11   1     0.05  -0.26  -0.19    -0.06   0.10   0.11     0.20   0.02  -0.19
  12   1     0.18   0.14   0.41    -0.26  -0.12  -0.02    -0.21  -0.07   0.15
  13   1     0.15   0.00  -0.31     0.04   0.03   0.02     0.16  -0.01  -0.16
  14   1     0.00   0.08  -0.13    -0.01  -0.05   0.09     0.22   0.22  -0.31
  15   1     0.41  -0.02   0.23    -0.10   0.08  -0.19    -0.50  -0.27   0.39
  16   1    -0.08   0.32  -0.15     0.17  -0.02  -0.06    -0.19  -0.12   0.12
                    19                     20                     21
                     A                      A                      A
 Frequencies --   987.0859              1014.3844              1030.7574
 Red. masses --     1.3035                 1.1698                 1.1695
 Frc consts  --     0.7483                 0.7092                 0.7321
 IR Inten    --     9.2121                16.1460                 6.1657
 Atom AN      X      Y      Z        X      Y      Z        X      Y      Z
   1   6    -0.07   0.02   0.03    -0.03  -0.01   0.01     0.01  -0.03  -0.01
   2   6     0.02   0.04  -0.01    -0.03  -0.02   0.05    -0.02   0.00   0.04
   3   6     0.00  -0.04   0.07     0.03   0.01  -0.05     0.00   0.02  -0.01
   4   6     0.03  -0.01  -0.07    -0.02  -0.03   0.03     0.07   0.02  -0.05
   5   6     0.03   0.01   0.00    -0.02   0.00   0.02     0.05   0.01  -0.04
   6   6    -0.05  -0.04  -0.02    -0.05  -0.01   0.00     0.01  -0.02   0.01
   7   1     0.17   0.14  -0.13     0.11   0.14  -0.09    -0.07  -0.09   0.05
   8   9     0.02   0.00   0.02     0.02   0.00   0.01    -0.01   0.00  -0.01
   9   1    -0.30  -0.04   0.16     0.13  -0.02  -0.07    -0.13  -0.01   0.05
  10   1    -0.02   0.04   0.00     0.19   0.01  -0.14    -0.31   0.03   0.16
  11   1     0.09   0.05  -0.09     0.11   0.09  -0.03    -0.59  -0.13   0.40
  12   1    -0.47  -0.16   0.26     0.11   0.01  -0.22    -0.21  -0.06   0.18
  13   1     0.30   0.05  -0.31    -0.20  -0.01   0.27    -0.19  -0.10   0.19
  14   1     0.04  -0.01   0.02     0.35   0.20  -0.42     0.10   0.19  -0.21
  15   1    -0.08   0.08  -0.18    -0.06  -0.03   0.05     0.10  -0.04   0.11
  16   1     0.38   0.15  -0.25     0.39   0.26  -0.32    -0.01   0.13  -0.08
                    22                     23                     24
                     A                      A                      A
 Frequencies --  1105.7683              1115.7597              1173.3962
 Red. masses --     1.7051                 1.5174                 2.1409
 Frc consts  --     1.2284                 1.1130                 1.7368
 IR Inten    --     1.1497                 1.8678                67.5272
 Atom AN      X      Y      Z        X      Y      Z        X      Y      Z
   1   6    -0.04  -0.05  -0.05     0.09  -0.08   0.00    -0.02   0.01  -0.01
   2   6     0.05   0.15   0.09    -0.03   0.00   0.01     0.01  -0.01   0.01
   3   6     0.07  -0.02   0.01    -0.10   0.10  -0.04     0.00   0.00   0.00
   4   6    -0.06  -0.12  -0.04     0.04  -0.08   0.01     0.01   0.00  -0.01
   5   6    -0.02  -0.01   0.00     0.00   0.00   0.00    -0.03  -0.06  -0.10
   6   6    -0.01   0.01   0.00     0.01   0.00   0.00     0.08   0.08   0.23
   7   1     0.05   0.05  -0.02    -0.01  -0.02   0.01     0.48   0.11   0.27
   8   9     0.00   0.00   0.00     0.00   0.00   0.00    -0.07  -0.01  -0.10
   9   1     0.01   0.02   0.00    -0.02   0.02   0.02    -0.29   0.27   0.17
  10   1     0.14  -0.03  -0.06    -0.01   0.00   0.01     0.41  -0.44   0.10
  11   1     0.04  -0.06  -0.10     0.22   0.39   0.04    -0.04   0.00   0.02
  12   1    -0.11  -0.14  -0.21    -0.44  -0.20  -0.15    -0.03  -0.01   0.04
  13   1     0.03  -0.25  -0.05     0.03   0.60   0.06    -0.01   0.01   0.02
  14   1    -0.37   0.53   0.10     0.02  -0.05   0.01     0.08  -0.06  -0.01
  15   1     0.34   0.06   0.08     0.30  -0.07   0.18    -0.04   0.01  -0.03
  16   1    -0.36   0.24  -0.02    -0.06   0.02   0.04     0.05   0.05  -0.06
                    25                     26                     27
                     A                      A                      A
 Frequencies --  1263.1850              1275.7990              1315.1082
 Red. masses --     1.4785                 1.4829                 1.3959
 Frc consts  --     1.3899                 1.4221                 1.4224
 IR Inten    --    14.0932                 0.4609                 3.1463
 Atom AN      X      Y      Z        X      Y      Z        X      Y      Z
   1   6    -0.01   0.02  -0.02    -0.08  -0.01  -0.08    -0.07  -0.01  -0.05
   2   6     0.03  -0.03   0.01     0.07   0.03   0.07     0.07  -0.01   0.05
   3   6     0.03   0.04   0.04    -0.07   0.00  -0.06     0.06   0.03   0.05
   4   6    -0.02  -0.01  -0.06     0.08   0.01   0.07    -0.06  -0.02  -0.05
   5   6     0.02  -0.10  -0.03     0.01  -0.02  -0.01    -0.02   0.05   0.03
   6   6    -0.06   0.11  -0.01    -0.01   0.01   0.00    -0.01  -0.05  -0.02
   7   1    -0.41   0.47  -0.32    -0.08   0.08  -0.07     0.32  -0.24   0.17
   8   9     0.03   0.00   0.04     0.01   0.00   0.01     0.00   0.00  -0.01
   9   1    -0.01  -0.19  -0.03     0.00  -0.01   0.00     0.06   0.07  -0.01
  10   1     0.27  -0.32   0.06    -0.01  -0.03   0.02    -0.07   0.19  -0.10
  11   1    -0.22  -0.19   0.03     0.16   0.32   0.13    -0.15  -0.26  -0.08
  12   1    -0.05  -0.03  -0.02    -0.05  -0.02   0.06     0.02   0.00  -0.07
  13   1     0.05   0.26   0.16    -0.14  -0.44  -0.22     0.12   0.42   0.22
  14   1     0.11  -0.14   0.05     0.43  -0.38   0.14     0.37  -0.35   0.12
  15   1    -0.06   0.00  -0.01     0.00   0.03  -0.07    -0.03   0.03  -0.08
  16   1    -0.15  -0.04   0.07    -0.36   0.20  -0.05    -0.27   0.14  -0.02
                    28                     29                     30
                     A                      A                      A
 Frequencies --  1422.2553              1454.8520              1510.1162
 Red. masses --     1.3195                 1.2162                 1.7597
 Frc consts  --     1.5726                 1.5167                 2.3643
 IR Inten    --    19.6588                 0.9125                19.9200
 Atom AN      X      Y      Z        X      Y      Z        X      Y      Z
   1   6     0.01   0.01   0.00    -0.01   0.00  -0.02    -0.03  -0.02  -0.03
   2   6     0.00  -0.02  -0.01    -0.07   0.04  -0.03    -0.07   0.15   0.02
   3   6    -0.01   0.02   0.00     0.04   0.07   0.05     0.03  -0.16  -0.03
   4   6     0.02   0.00   0.00     0.01   0.00   0.02    -0.04   0.01  -0.02
   5   6     0.02   0.03   0.02     0.00   0.00   0.00    -0.01   0.08  -0.02
   6   6    -0.11   0.09  -0.07     0.01   0.00   0.00     0.05  -0.04   0.01
   7   1     0.44  -0.30   0.32    -0.02   0.01  -0.01    -0.15   0.02  -0.08
   8   9     0.02  -0.01   0.00     0.00   0.00   0.00    -0.01   0.00   0.00
   9   1     0.00  -0.59  -0.17     0.01   0.06   0.01    -0.09  -0.29  -0.11
  10   1     0.14  -0.28   0.30    -0.01   0.03  -0.04     0.10  -0.20   0.25
  11   1     0.00   0.02   0.03     0.00  -0.36  -0.13     0.00   0.22   0.04
  12   1    -0.05  -0.02  -0.02    -0.26  -0.08  -0.35     0.29   0.10   0.28
  13   1    -0.04  -0.11  -0.04    -0.03  -0.35  -0.11     0.11   0.26   0.13
  14   1    -0.04   0.02  -0.01     0.23  -0.29   0.01     0.25  -0.18   0.06
  15   1     0.00  -0.01   0.03     0.31   0.00   0.34     0.34   0.01   0.29
  16   1     0.00  -0.07   0.04     0.23  -0.33   0.03     0.15  -0.20  -0.03
                    31                     32                     33
                     A                      A                      A
 Frequencies --  1545.6720              1608.2588              1617.4097
 Red. masses --     1.5332                 2.6372                 2.5766
 Frc consts  --     2.1582                 4.0189                 3.9714
 IR Inten    --    17.1531                16.8552                 5.1215
 Atom AN      X      Y      Z        X      Y      Z        X      Y      Z
   1   6     0.04  -0.03   0.03    -0.01   0.02   0.00     0.18  -0.10   0.08
   2   6    -0.01  -0.01  -0.01     0.01  -0.09  -0.03    -0.21   0.15  -0.06
   3   6    -0.01   0.00   0.00     0.07   0.23   0.10     0.07   0.00   0.05
   4   6     0.02   0.04   0.05    -0.09  -0.15  -0.10    -0.05  -0.04  -0.04
   5   6    -0.05   0.13  -0.02    -0.06   0.11   0.00     0.03  -0.06   0.00
   6   6     0.09  -0.10   0.03     0.07  -0.10   0.02    -0.04   0.07  -0.02
   7   1    -0.21   0.06  -0.16    -0.11   0.05  -0.15     0.05  -0.04   0.10
   8   9    -0.01   0.01  -0.01    -0.01   0.01   0.00     0.00  -0.01   0.00
   9   1    -0.10  -0.33  -0.16    -0.03  -0.16  -0.12     0.03   0.09   0.06
  10   1     0.14  -0.22   0.31     0.13  -0.09   0.14    -0.06   0.05  -0.09
  11   1     0.06  -0.37  -0.14    -0.07   0.57   0.15    -0.02   0.11  -0.01
  12   1    -0.22  -0.03  -0.32     0.28  -0.07   0.36     0.13   0.00   0.13
  13   1     0.00  -0.01  -0.03    -0.05  -0.37  -0.09     0.05  -0.23  -0.04
  14   1     0.00   0.00  -0.03    -0.02  -0.09  -0.03     0.27  -0.35  -0.02
  15   1    -0.21  -0.03  -0.28    -0.02   0.01   0.01    -0.24  -0.14  -0.37
  16   1    -0.15   0.33  -0.04     0.07  -0.10   0.02    -0.25   0.49   0.03
                    34                     35                     36
                     A                      A                      A
 Frequencies --  3153.7549              3158.8115              3168.6960
 Red. masses --     1.0791                 1.0612                 1.0685
 Frc consts  --     6.3235                 6.2385                 6.3212
 IR Inten    --     2.0139                18.8097                20.0360
 Atom AN      X      Y      Z        X      Y      Z        X      Y      Z
   1   6     0.01  -0.01   0.00    -0.01   0.01   0.00     0.04  -0.04   0.02
   2   6     0.03   0.03   0.04    -0.02  -0.02  -0.02     0.00   0.00   0.00
   3   6    -0.04   0.02  -0.03     0.00   0.01   0.00     0.03  -0.01   0.02
   4   6     0.00  -0.02  -0.01    -0.01  -0.04  -0.04    -0.01  -0.01  -0.02
   5   6     0.00   0.00   0.00     0.00   0.00   0.00     0.00   0.00   0.00
   6   6     0.00   0.00   0.00     0.00   0.00   0.00     0.00   0.00   0.00
   7   1     0.00   0.00   0.00     0.00   0.00   0.00     0.00  -0.01  -0.01
   8   9     0.00   0.00   0.00     0.00   0.00   0.00     0.00   0.00   0.00
   9   1     0.00   0.00   0.01     0.01  -0.01   0.02     0.01  -0.01   0.02
  10   1    -0.01  -0.01  -0.01    -0.02  -0.04  -0.03    -0.01  -0.02  -0.02
  11   1     0.09  -0.05   0.12     0.33  -0.18   0.43     0.14  -0.07   0.18
  12   1    -0.08   0.27   0.00    -0.19   0.64   0.01    -0.06   0.19   0.00
  13   1     0.45  -0.19   0.31     0.08  -0.03   0.05    -0.38   0.16  -0.26
  14   1    -0.35  -0.39  -0.46     0.19   0.21   0.25     0.00  -0.01   0.00
  15   1    -0.07   0.21   0.06     0.08  -0.22  -0.06    -0.22   0.61   0.19
  16   1    -0.03  -0.03  -0.06     0.05   0.05   0.11    -0.18  -0.18  -0.37
                    37                     38                     39
                     A                      A                      A
 Frequencies --  3177.9712              3185.1577              3234.6118
 Red. masses --     1.0881                 1.0569                 1.1150
 Frc consts  --     6.4745                 6.3174                 6.8734
 IR Inten    --    17.0265                 1.3267                12.8523
 Atom AN      X      Y      Z        X      Y      Z        X      Y      Z
   1   6     0.02  -0.02   0.01     0.00   0.00   0.00     0.00   0.00   0.00
   2   6    -0.03  -0.03  -0.03     0.00   0.00   0.00     0.00   0.00   0.00
   3   6    -0.04   0.02  -0.03     0.00   0.00   0.00     0.01   0.00   0.01
   4   6     0.01   0.00   0.01     0.00   0.00   0.00     0.05  -0.07   0.05
   5   6     0.00   0.00   0.00     0.00   0.07  -0.01     0.00   0.00   0.00
   6   6     0.00   0.00   0.00     0.00   0.00   0.01     0.00   0.00   0.00
   7   1     0.00   0.00   0.00     0.01  -0.05  -0.07     0.00  -0.03  -0.03
   8   9     0.00   0.00   0.00     0.00   0.00   0.00     0.00   0.00   0.00
   9   1     0.00   0.00   0.00     0.27  -0.17   0.51     0.02  -0.01   0.03
  10   1     0.00   0.01   0.01    -0.30  -0.56  -0.46     0.00   0.01   0.00
  11   1    -0.12   0.06  -0.15    -0.02   0.01  -0.02    -0.43   0.21  -0.57
  12   1     0.02  -0.07   0.00     0.02  -0.06   0.00    -0.18   0.62   0.02
  13   1     0.48  -0.21   0.33     0.01   0.00   0.00    -0.10   0.04  -0.07
  14   1     0.29   0.33   0.38     0.00   0.00   0.00    -0.01  -0.01  -0.01
  15   1    -0.11   0.32   0.10     0.01  -0.01   0.00     0.01  -0.04  -0.01
  16   1    -0.12  -0.12  -0.25     0.00   0.00   0.01    -0.01  -0.01  -0.02
                    40                     41                     42
                     A                      A                      A
 Frequencies --  3248.7025              3252.2633              3278.6882
 Red. masses --     1.0956                 1.1118                 1.1152
 Frc consts  --     6.8130                 6.9288                 7.0634
 IR Inten    --     2.1711                12.8420                 4.2103
 Atom AN      X      Y      Z        X      Y      Z        X      Y      Z
   1   6     0.00   0.01   0.02     0.01   0.07   0.07     0.00   0.00   0.00
   2   6     0.00   0.00   0.00     0.00   0.00   0.00     0.00   0.00   0.00
   3   6     0.00   0.00   0.00     0.00   0.00   0.00     0.00   0.00   0.00
   4   6     0.00   0.00   0.00     0.00   0.00   0.00     0.00   0.00   0.00
   5   6     0.01   0.01   0.02     0.00   0.00  -0.01    -0.05  -0.01  -0.08
   6   6     0.01  -0.05  -0.06     0.00   0.01   0.01     0.00  -0.02  -0.02
   7   1    -0.10   0.58   0.73     0.02  -0.12  -0.16    -0.03   0.16   0.20
   8   9     0.00   0.00   0.00     0.00   0.00   0.00     0.00   0.00   0.00
   9   1    -0.06   0.04  -0.12     0.02  -0.01   0.03     0.35  -0.23   0.66
  10   1    -0.08  -0.15  -0.12     0.02   0.04   0.03     0.21   0.41   0.32
  11   1    -0.02   0.01  -0.02     0.03  -0.01   0.03     0.01  -0.01   0.02
  12   1    -0.01   0.02   0.00     0.01  -0.02   0.00     0.00  -0.01   0.00
  13   1     0.00   0.00   0.00     0.00   0.00   0.00     0.00   0.00   0.00
  14   1    -0.01  -0.01  -0.01    -0.05  -0.05  -0.06     0.00   0.00   0.00
  15   1     0.04  -0.10  -0.03     0.18  -0.48  -0.13     0.00   0.01   0.00
  16   1    -0.08  -0.07  -0.15    -0.33  -0.30  -0.67     0.00   0.00   0.00

 -------------------
 - Thermochemistry -
 -------------------
 Temperature   298.150 Kelvin.  Pressure   1.00000 Atm.
 Atom  1 has atomic number  6 and mass  12.00000
 Atom  2 has atomic number  6 and mass  12.00000
 Atom  3 has atomic number  6 and mass  12.00000
 Atom  4 has atomic number  6 and mass  12.00000
 Atom  5 has atomic number  6 and mass  12.00000
 Atom  6 has atomic number  6 and mass  12.00000
 Atom  7 has atomic number  1 and mass   1.00783
 Atom  8 has atomic number  9 and mass  18.99840
 Atom  9 has atomic number  1 and mass   1.00783
 Atom 10 has atomic number  1 and mass   1.00783
 Atom 11 has atomic number  1 and mass   1.00783
 Atom 12 has atomic number  1 and mass   1.00783
 Atom 13 has atomic number  1 and mass   1.00783
 Atom 14 has atomic number  1 and mass   1.00783
 Atom 15 has atomic number  1 and mass   1.00783
 Atom 16 has atomic number  1 and mass   1.00783
 Molecular mass:   100.06883 amu.
 Principal axes and moments of inertia in atomic units:
                           1         2         3
     EIGENVALUES --   459.95245 895.831051165.84879
           X            0.99998  -0.00159  -0.00536
           Y            0.00170   0.99979   0.02066
           Z            0.00533  -0.02067   0.99977
 This molecule is an asymmetric top.
 Rotational symmetry number  1.
 Warning -- assumption of classical behavior for rotation
           may cause significant error
 Rotational temperatures (Kelvin)      0.18831     0.09669     0.07429
 Rotational constants (GHZ):           3.92376     2.01460     1.54801
    1 imaginary frequencies ignored.
 Zero-point vibrational energy     348834.7 (Joules/Mol)
                                   83.37349 (Kcal/Mol)
 Warning -- explicit consideration of   9 degrees of freedom as
           vibrations may cause significant error
 Vibrational temperatures:    125.42   260.54   333.53   408.43   536.93
          (Kelvin)            630.38   666.24   753.51   858.14  1010.98
                             1062.29  1149.25  1195.08  1289.27  1363.48
                             1384.05  1392.08  1420.19  1459.47  1483.03
                             1590.95  1605.33  1688.25  1817.44  1835.59
                             1892.15  2046.31  2093.21  2172.72  2223.87
                             2313.92  2327.09  4537.54  4544.82  4559.04
                             4572.39  4582.73  4653.88  4674.15  4679.28
                             4717.30
 
 Zero-point correction=                           0.132864 (Hartree/Particle)
 Thermal correction to Energy=                    0.140012
 Thermal correction to Enthalpy=                  0.140956
 Thermal correction to Gibbs Free Energy=         0.101741
 Sum of electronic and zero-point Energies=           -333.640599
 Sum of electronic and thermal Energies=              -333.633451
 Sum of electronic and thermal Enthalpies=            -333.632507
 Sum of electronic and thermal Free Energies=         -333.671722
 
                     E (Thermal)             CV                S
                      KCal/Mol        Cal/Mol-Kelvin    Cal/Mol-Kelvin
 Total                   87.859             27.133             82.534
 Electronic               0.000              0.000              0.000
 Translational            0.889              2.981             39.720
 Rotational               0.889              2.981             27.665
 Vibrational             86.081             21.171             15.149
 Vibration  1             0.601              1.958              3.723
 Vibration  2             0.630              1.865              2.317
 Vibration  3             0.653              1.792              1.865
 Vibration  4             0.682              1.704              1.510
 Vibration  5             0.745              1.527              1.067
 Vibration  6             0.798              1.387              0.832
 Vibration  7             0.821              1.332              0.757
 Vibration  8             0.879              1.197              0.601
 Vibration  9             0.954              1.039              0.456
                       Q            Log10(Q)             Ln(Q)
 Total Bot       0.159344D-46        -46.797665       -107.755605
 Total V=0       0.206756D+15         14.315457         32.962558
 Vib (Bot)       0.163228D-59        -59.787205       -137.665127
 Vib (Bot)  1    0.235982D+01          0.372879          0.858585
 Vib (Bot)  2    0.110873D+01          0.044825          0.103214
 Vib (Bot)  3    0.848970D+00         -0.071108         -0.163732
 Vib (Bot)  4    0.675881D+00         -0.170130         -0.391739
 Vib (Bot)  5    0.486783D+00         -0.312664         -0.719936
 Vib (Bot)  6    0.395148D+00         -0.403240         -0.928494
 Vib (Bot)  7    0.366383D+00         -0.436064         -1.004075
 Vib (Bot)  8    0.307159D+00         -0.512637         -1.180390
 Vib (Bot)  9    0.251269D+00         -0.599862         -1.381233
 Vib (V=0)       0.211795D+02          1.325917          3.053036
 Vib (V=0)  1    0.291221D+01          0.464222          1.068911
 Vib (V=0)  2    0.171626D+01          0.234582          0.540146
 Vib (V=0)  3    0.148527D+01          0.171804          0.395594
 Vib (V=0)  4    0.134072D+01          0.127339          0.293209
 Vib (V=0)  5    0.119782D+01          0.078393          0.180506
 Vib (V=0)  6    0.113729D+01          0.055872          0.128651
 Vib (V=0)  7    0.111987D+01          0.049167          0.113211
 Vib (V=0)  8    0.108681D+01          0.036154          0.083247
 Vib (V=0)  9    0.105959D+01          0.025136          0.057878
 Electronic      0.100000D+01          0.000000          0.000000
 Translational   0.393463D+08          7.594903         17.487911
 Rotational      0.248106D+06          5.394637         12.421611
 ***** Axes restored to original set *****
 -------------------------------------------------------------------
 Center     Atomic                   Forces (Hartrees/Bohr)
 Number     Number              X              Y              Z
 -------------------------------------------------------------------
    1          6          -0.000003991   -0.000038345   -0.000001233
    2          6           0.000005452    0.000015943   -0.000000899
    3          6           0.000000053   -0.000008078   -0.000006129
    4          6           0.000003748   -0.000011532    0.000006982
    5          6           0.000002126    0.000005140    0.000013866
    6          6          -0.000007389    0.000028972   -0.000013015
    7          1          -0.000004233    0.000005735    0.000008007
    8          9           0.000009156   -0.000020105   -0.000016847
    9          1           0.000000400    0.000009533    0.000006877
   10          1           0.000003796    0.000005118   -0.000006202
   11          1           0.000005149    0.000003907    0.000004405
   12          1           0.000002011    0.000008134    0.000004228
   13          1          -0.000000859    0.000001967   -0.000001701
   14          1          -0.000001795   -0.000002496   -0.000001358
   15          1          -0.000003255   -0.000011120   -0.000000126
   16          1          -0.000010368    0.000007226    0.000003145
 -------------------------------------------------------------------
 Cartesian Forces:  Max     0.000038345 RMS     0.000010138

 GradGradGradGradGradGradGradGradGradGradGradGradGradGradGradGradGradGrad
 Berny optimization.
 Internal  Forces:  Max     0.000021736 RMS     0.000009187
 Search for a local minimum.
 Step number   1 out of a maximum of   2
 All quantities printed in internal units (Hartrees-Bohrs-Radians)
 Second derivative matrix not updated -- analytic derivatives used.
     Eigenvalues ---   -0.02517   0.00244   0.00707   0.00882   0.01414
     Eigenvalues ---    0.01739   0.01882   0.01933   0.02198   0.02305
     Eigenvalues ---    0.02350   0.02671   0.02806   0.02988   0.03863
     Eigenvalues ---    0.08260   0.09193   0.09794   0.10294   0.10311
     Eigenvalues ---    0.11238   0.12363   0.13116   0.13394   0.15808
     Eigenvalues ---    0.17008   0.18987   0.21584   0.33361   0.34458
     Eigenvalues ---    0.34924   0.35239   0.35467   0.35791   0.36026
     Eigenvalues ---    0.36415   0.37304   0.38076   0.39641   0.48895
     Eigenvalues ---    0.51171   0.519121000.000001000.000001000.00000
     Eigenvalues --- 1000.000001000.000001000.000001000.000001000.00000
     Eigenvalues --- 1000.000001000.000001000.000001000.000001000.00000
     Eigenvalues --- 1000.000001000.000001000.000001000.000001000.00000
     Eigenvalues --- 1000.00000
 Eigenvalue   1 out of range, new value =    0.025167 Eigenvector:
                           1
           R1          -0.07234
           R2           0.39986
           R3           0.06263
           R4           0.16284
           R5          -0.01155
           R6          -0.00745
           R7           0.07867
           R8           0.00011
           R9          -0.08694
           R10          0.22758
           R11         -0.00848
           R12          0.00125
           R13          0.41785
           R14          0.14162
           R15          0.10820
           R16         -0.00854
           R17         -0.01215
           R18         -0.10112
           R19         -0.00914
           R20         -0.00796
           R21          0.10687
           R22          0.26049
           R23         -0.00516
           R24         -0.01333
           R25          0.26700
           R26          0.09007
           R27         -0.07550
           A1           0.03973
           A2           0.02658
           A3           0.01416
           A4           0.02024
           A5           0.00005
           A6          -0.02008
           A7           0.03729
           A8          -0.02664
           A9          -0.00571
           A10          0.04818
           A11          0.04630
           A12          0.02423
           A13          0.04018
           A14          0.07064
           A15          0.02723
           A16          0.05115
           A17          0.05873
           A18         -0.00182
           D1          -0.05923
           D2          -0.05782
           D3           0.17894
           D4           0.18036
           D5           0.02591
           D6           0.00470
           D7           0.02683
           D8           0.00562
           D9          -0.19900
           D10          0.07591
           D11         -0.18055
           D12          0.09437
           D13          0.06919
           D14         -0.22487
           D15          0.34055
           D16          0.04650
 Angle between quadratic step and forces=  65.06 degrees.
 Linear search not attempted -- first point.
 Iteration  1 RMS(Cart)=  0.00041014 RMS(Int)=  0.00000010
 Iteration  2 RMS(Cart)=  0.00000010 RMS(Int)=  0.00000002
 Variable       Old X    -DE/DX   Delta X   Delta X   Delta X     New X
                                 (Linear)    (Quad)   (Total)
    R1        2.60923   0.00001   0.00000   0.00008   0.00008   2.60931
    R2        4.39397  -0.00001   0.00000  -0.00119  -0.00119   4.39278
    R3        4.76295  -0.00001   0.00000  -0.00139  -0.00139   4.76156
    R4        5.30902   0.00001   0.00000  -0.00003  -0.00003   5.30899
    R5        2.05522   0.00000   0.00000   0.00002   0.00002   2.05524
    R6        2.04769   0.00000   0.00000   0.00002   0.00002   2.04771
    R7        2.65870   0.00001   0.00000  -0.00005  -0.00005   2.65865
    R8        2.05837   0.00000   0.00000   0.00000   0.00000   2.05837
    R9        2.62200   0.00001   0.00000   0.00001   0.00001   2.62200
   R10        5.36449  -0.00001   0.00000   0.00018   0.00018   5.36468
   R11        5.45777  -0.00001   0.00000  -0.00052  -0.00052   5.45725
   R12        2.05749   0.00000   0.00000   0.00000   0.00000   2.05750
   R13        4.13393   0.00000   0.00000   0.00073   0.00073   4.13466
   R14        4.80328  -0.00001   0.00000  -0.00020  -0.00020   4.80307
   R15        4.65535   0.00000   0.00000   0.00095   0.00095   4.65630
   R16        2.05095   0.00000   0.00000  -0.00001  -0.00001   2.05094
   R17        2.05547  -0.00001   0.00000   0.00002   0.00002   2.05549
   R18        2.60672   0.00002   0.00000   0.00006   0.00006   2.60678
   R19        2.04606   0.00001   0.00000  -0.00001  -0.00001   2.04604
   R20        2.05045   0.00000   0.00000   0.00001   0.00001   2.05046
   R21        4.52772  -0.00001   0.00000   0.00045   0.00045   4.52818
   R22        5.03594   0.00002   0.00000   0.00108   0.00108   5.03702
   R23        2.04436   0.00001   0.00000   0.00001   0.00001   2.04437
   R24        2.57756   0.00000   0.00000   0.00003   0.00003   2.57759
   R25        5.34776   0.00000   0.00000  -0.00143  -0.00143   5.34633
   R26        4.40694  -0.00001   0.00000   0.00000   0.00000   4.40694
   R27        4.44602   0.00001   0.00000   0.00120   0.00120   4.44721
    A1        2.09714   0.00000   0.00000  -0.00008  -0.00008   2.09707
    A2        2.12271   0.00000   0.00000  -0.00008  -0.00008   2.12263
    A3        1.99710   0.00000   0.00000  -0.00003  -0.00003   1.99707
    A4        2.13376   0.00002   0.00000   0.00006   0.00006   2.13381
    A5        2.07256  -0.00001   0.00000  -0.00005  -0.00005   2.07250
    A6        2.05713  -0.00001   0.00000  -0.00006  -0.00006   2.05707
    A7        2.12198   0.00002   0.00000   0.00014   0.00014   2.12212
    A8        2.06140  -0.00001   0.00000  -0.00007  -0.00007   2.06133
    A9        2.07242  -0.00001   0.00000  -0.00006  -0.00006   2.07236
   A10        2.10199   0.00000   0.00000   0.00008   0.00008   2.10206
   A11        2.08682   0.00000   0.00000  -0.00004  -0.00004   2.08678
   A12        1.99108  -0.00001   0.00000   0.00002   0.00002   1.99109
   A13        2.05811   0.00000   0.00000   0.00006   0.00006   2.05817
   A14        2.06242  -0.00001   0.00000  -0.00003  -0.00003   2.06239
   A15        2.03181   0.00001   0.00000   0.00012   0.00012   2.03193
   A16        2.18306  -0.00001   0.00000  -0.00015  -0.00015   2.18291
   A17        2.05902   0.00001   0.00000   0.00000   0.00000   2.05902
   A18        1.96349   0.00000   0.00000  -0.00003  -0.00003   1.96346
    D1        3.00159  -0.00001   0.00000  -0.00019  -0.00019   3.00141
    D2        0.07686   0.00000   0.00000   0.00012   0.00012   0.07697
    D3       -0.54428  -0.00002   0.00000  -0.00073  -0.00073  -0.54501
    D4        2.81417  -0.00001   0.00000  -0.00043  -0.00043   2.81374
    D5       -0.02174   0.00000   0.00000   0.00023   0.00023  -0.02151
    D6       -2.91079   0.00001   0.00000   0.00019   0.00019  -2.91059
    D7        2.90482  -0.00001   0.00000  -0.00007  -0.00007   2.90476
    D8        0.01577   0.00000   0.00000  -0.00011  -0.00011   0.01567
    D9        0.62284   0.00002   0.00000   0.00001   0.00001   0.62285
   D10       -3.01922   0.00002   0.00000   0.00014   0.00014  -3.01908
   D11       -2.77284   0.00001   0.00000   0.00005   0.00005  -2.77279
   D12       -0.13171   0.00001   0.00000   0.00018   0.00018  -0.13154
   D13       -0.10946   0.00000   0.00000  -0.00018  -0.00018  -0.10964
   D14       -2.80576   0.00001   0.00000   0.00031   0.00031  -2.80545
   D15        2.48662   0.00000   0.00000   0.00016   0.00016   2.48678
   D16       -0.20967   0.00001   0.00000   0.00064   0.00064  -0.20903
         Item               Value     Threshold  Converged?
 Maximum Force            0.000022     0.000450     YES
 RMS     Force            0.000009     0.000300     YES
 Maximum Displacement     0.001086     0.001800     YES
 RMS     Displacement     0.000410     0.001200     YES
 Predicted change in Energy=-5.727787D-08
 Optimization completed.
    -- Stationary point found.
                           ----------------------------
                           !   Optimized Parameters   !
                           ! (Angstroms and Degrees)  !
 --------------------------                            --------------------------
 ! Name  Definition              Value          Derivative Info.                !
 --------------------------------------------------------------------------------
 ! R1    R(1,2)                  1.3807         -DE/DX =    0.0                 !
 ! R2    R(1,6)                  2.3252         -DE/DX =    0.0                 !
 ! R3    R(1,7)                  2.5204         -DE/DX =    0.0                 !
 ! R4    R(1,8)                  2.8094         -DE/DX =    0.0                 !
 ! R5    R(1,15)                 1.0876         -DE/DX =    0.0                 !
 ! R6    R(1,16)                 1.0836         -DE/DX =    0.0                 !
 ! R7    R(2,3)                  1.4069         -DE/DX =    0.0                 !
 ! R8    R(2,14)                 1.0892         -DE/DX =    0.0                 !
 ! R9    R(3,4)                  1.3875         -DE/DX =    0.0                 !
 ! R10   R(3,5)                  2.8388         -DE/DX =    0.0                 !
 ! R11   R(3,9)                  2.8881         -DE/DX =    0.0                 !
 ! R12   R(3,13)                 1.0888         -DE/DX =    0.0                 !
 ! R13   R(4,5)                  2.1876         -DE/DX =    0.0                 !
 ! R14   R(4,9)                  2.5418         -DE/DX =    0.0                 !
 ! R15   R(4,10)                 2.4635         -DE/DX =    0.0                 !
 ! R16   R(4,11)                 1.0853         -DE/DX =    0.0                 !
 ! R17   R(4,12)                 1.0877         -DE/DX =    0.0                 !
 ! R18   R(5,6)                  1.3794         -DE/DX =    0.0                 !
 ! R19   R(5,9)                  1.0827         -DE/DX =    0.0                 !
 ! R20   R(5,10)                 1.0851         -DE/DX =    0.0                 !
 ! R21   R(5,11)                 2.396          -DE/DX =    0.0                 !
 ! R22   R(5,12)                 2.6649         -DE/DX =    0.0                 !
 ! R23   R(6,7)                  1.0818         -DE/DX =    0.0                 !
 ! R24   R(6,8)                  1.364          -DE/DX =    0.0                 !
 ! R25   R(6,15)                 2.8299         -DE/DX =    0.0                 !
 ! R26   R(6,16)                 2.3321         -DE/DX =    0.0                 !
 ! R27   R(8,16)                 2.3527         -DE/DX =    0.0                 !
 ! A1    A(2,1,15)             120.1576         -DE/DX =    0.0                 !
 ! A2    A(2,1,16)             121.6222         -DE/DX =    0.0                 !
 ! A3    A(15,1,16)            114.4255         -DE/DX =    0.0                 !
 ! A4    A(1,2,3)              122.2552         -DE/DX =    0.0                 !
 ! A5    A(1,2,14)             118.7487         -DE/DX =    0.0                 !
 ! A6    A(3,2,14)             117.8647         -DE/DX =    0.0                 !
 ! A7    A(2,3,4)              121.5802         -DE/DX =    0.0                 !
 ! A8    A(2,3,13)             118.1093         -DE/DX =    0.0                 !
 ! A9    A(4,3,13)             118.741          -DE/DX =    0.0                 !
 ! A10   A(3,4,11)             120.435          -DE/DX =    0.0                 !
 ! A11   A(3,4,12)             119.5659         -DE/DX =    0.0                 !
 ! A12   A(11,4,12)            114.0802         -DE/DX =    0.0                 !
 ! A13   A(6,5,9)              117.921          -DE/DX =    0.0                 !
 ! A14   A(6,5,10)             118.1679         -DE/DX =    0.0                 !
 ! A15   A(9,5,10)             116.414          -DE/DX =    0.0                 !
 ! A16   A(5,6,7)              125.0803         -DE/DX =    0.0                 !
 ! A17   A(5,6,8)              117.9731         -DE/DX =    0.0                 !
 ! A18   A(7,6,8)              112.4998         -DE/DX =    0.0                 !
 ! D1    D(15,1,2,3)           171.9787         -DE/DX =    0.0                 !
 ! D2    D(15,1,2,14)            4.4035         -DE/DX =    0.0                 !
 ! D3    D(16,1,2,3)           -31.1847         -DE/DX =    0.0                 !
 ! D4    D(16,1,2,14)          161.2401         -DE/DX =    0.0                 !
 ! D5    D(1,2,3,4)             -1.2455         -DE/DX =    0.0                 !
 ! D6    D(1,2,3,13)          -166.7759         -DE/DX =    0.0                 !
 ! D7    D(14,2,3,4)           166.4341         -DE/DX =    0.0                 !
 ! D8    D(14,2,3,13)            0.9038         -DE/DX =    0.0                 !
 ! D9    D(2,3,4,11)            35.6862         -DE/DX =    0.0                 !
 ! D10   D(2,3,4,12)          -172.9883         -DE/DX =    0.0                 !
 ! D11   D(13,3,4,11)         -158.8719         -DE/DX =    0.0                 !
 ! D12   D(13,3,4,12)           -7.5465         -DE/DX =    0.0                 !
 ! D13   D(9,5,6,7)             -6.2719         -DE/DX =    0.0                 !
 ! D14   D(9,5,6,8)           -160.7581         -DE/DX =    0.0                 !
 ! D15   D(10,5,6,7)           142.473          -DE/DX =    0.0                 !
 ! D16   D(10,5,6,8)           -12.0132         -DE/DX =    0.0                 !
 --------------------------------------------------------------------------------
 GradGradGradGradGradGradGradGradGradGradGradGradGradGradGradGradGradGrad

 1\1\GINC-DDCOPT103\Freq\RB3LYP\6-31G(d)\C6H9F1\WSCHNEI1\08-Nov-2007\0\
 \#N B3LYP/6-31G(d) freq guess=read geom=checkpoint\\C6H9F\\0,1\C,-0.11
 1282783,-0.026991781,0.0415887994\C,-0.0066658943,0.1017902834,1.41232
 85705\C,1.2355608362,0.1135878024,2.0727540693\C,2.4286431729,-0.02995
 08852,1.3791342932\C,2.1899812902,-1.9708527639,0.3985993635\C,1.13034
 55257,-1.9215812687,-0.483178599\H,0.2144803229,-2.4892812864,-0.38694
 45959\F,1.387716212,-1.5607800817,-1.773157063\H,2.0662551911,-2.54477
 35287,1.3083259448\H,3.1955501019,-1.9176395381,-0.0055489502\H,2.5438
 363531,0.3988208589,0.3887849236\H,3.3609838831,-0.1310721589,1.930157
 6019\H,1.2421172368,-0.0024186144,3.1553145997\H,-0.9046967353,-0.0080
 2741,2.018901169\H,-1.0858530692,-0.1628661367,-0.4216285854\H,0.65211
 15878,0.3564980737,-0.624995064\\Version=AM64L-G03RevD.01\State=1-A\HF
 =-333.7734631\RMSD=4.339e-09\RMSF=1.014e-05\ZeroPoint=0.1328641\Therma
 l=0.1400118\Dipole=0.0269063,-0.2929363,0.4294955\DipoleDeriv=0.076490
 6,0.0607549,0.0707932,-0.0819335,-0.0494107,-0.0298919,-0.0248759,0.02
 68423,-0.0160377,0.1399402,-0.001488,-0.0816603,0.1696898,-0.1714477,0
 .0538925,-0.0447052,-0.0806787,0.0212995,-0.1377899,0.0858193,0.010235
 7,-0.1530572,-0.2527564,-0.201102,0.0521575,-0.1059439,0.0616785,0.114
 7286,-0.0254449,0.0543632,0.0069252,0.1058171,0.0837873,-0.0520506,0.0
 470838,0.0853124,-0.0838195,-0.0034728,-0.1616599,0.0631942,-0.1374589
 ,-0.0955676,0.0975058,-0.1017049,-0.0902828,0.3152133,-0.0179429,-0.15
 23912,0.1351719,0.0681669,-0.2072523,-0.0861809,0.2228201,1.1635032,0.
 0028578,-0.053953,0.0311425,-0.0659978,0.0109895,-0.0140551,-0.0165183
 ,-0.0221623,-0.0134222,-0.2272987,0.000608,0.1855682,-0.0508041,-0.127
 5011,0.1950896,0.0572687,-0.1890501,-1.1074332,0.0386156,0.0044844,0.0
 469337,0.00001,-0.0053475,0.0269708,0.0036909,0.0431839,-0.0108336,-0.
 0129826,0.015846,0.0415767,0.0388089,0.0861553,0.0459236,0.0424816,0.0
 479582,0.0721479,0.0264661,-0.0070356,-0.0335217,-0.0149654,0.0247322,
 0.0222244,0.0149863,0.0657216,-0.06339,-0.0790398,-0.0015751,-0.066142
 2,-0.0432866,0.0745154,-0.018443,-0.0879025,0.0132201,0.0147497,0.0424
 279,0.0018932,0.0046169,0.0163824,0.1139205,0.0655994,0.0003772,-0.001
 5877,-0.1336596,-0.0822549,0.0030734,0.0885539,-0.0447761,0.1101031,0.
 0230935,0.0941053,-0.00748,-0.0168064,-0.0873234,-0.0138242,-0.0788099
 ,0.0336459,0.0754929,0.0091466,-0.0590429,0.006304,0.0244677,-0.046231
 2,-0.0477428,0.0404011,-0.0090074,0.0740295,0.0405841,0.008703,0.03547
 35,0.0087064\Polar=77.4225728,-7.6428034,57.466245,4.2317074,12.826888
 3,75.0427209\PG=C01 [X(C6H9F1)]\NImag=1\\0.60419427,0.15651237,0.13068
 277,0.03521738,-0.05299075,0.72310490,-0.11769996,0.00313538,0.0106121
 4,0.67617082,-0.01897111,-0.05100148,-0.02097498,0.03658305,0.14402058
 ,-0.04137019,0.00822408,-0.39160417,-0.01933182,0.01152800,0.71597573,
 0.01478991,-0.03399415,-0.06846837,-0.27132693,-0.01386370,-0.04059874
 ,0.67279401,0.00098218,0.00331959,-0.00600055,0.00276293,-0.05726315,0
 .01227284,-0.03000350,0.14354215,-0.03077948,-0.00720864,-0.02240717,-
 0.11417838,0.00283575,-0.16503204,-0.01955572,-0.02205237,0.70436613,-
 0.01055943,0.01072901,0.01939415,-0.05579943,0.00407405,-0.01922157,-0
 .30557341,0.02850594,0.14105864,0.70862657,0.01191642,-0.02297097,-0.0
 2379000,0.02727317,0.00309695,0.02997891,-0.01717673,-0.04920310,0.004
 64274,-0.02850243,0.12699729,0.00484302,-0.01946840,-0.02693519,0.0161
 3005,-0.00282317,0.04814604,0.08880766,0.00176079,-0.18446271,-0.02779
 249,-0.17328759,0.59541953,-0.01803944,0.02651881,0.02392811,-0.020036
 80,0.00199405,-0.02784488,0.03297281,0.00060997,-0.00351565,-0.0263742
 0,0.03556208,0.02663150,0.67370096,-0.00677733,0.01673089,0.02037639,-
 0.02021982,-0.00020595,-0.02930621,0.04780918,-0.01381634,-0.01079927,
 -0.01039205,0.04084841,0.04859633,-0.00325190,0.18136138,-0.01419232,0
 .02705423,0.02666407,-0.02264391,-0.00365704,-0.03444240,0.05325907,-0
 .01256886,-0.01141477,-0.01608568,0.05888412,0.02686165,0.01280491,-0.
 23803308,0.57961276,0.02182088,-0.05253987,-0.04672272,0.02659637,0.00
 725827,0.05528234,-0.05757859,0.00193057,0.00092097,0.01639078,-0.0520
 4773,-0.04280795,-0.27077778,0.03273360,-0.10981491,0.61850149,-0.0302
 2367,0.02878073,0.03508725,-0.02186733,-0.00834085,-0.03988225,0.03741
 844,-0.00017819,-0.00063690,-0.01695342,0.02360500,0.01586440,-0.03877
 812,-0.07624428,-0.01192901,0.24045301,0.22293142,-0.00392857,-0.00628
 182,-0.01470966,0.00781001,-0.00453258,0.00500513,-0.01539054,0.000971
 52,0.00298282,0.00272595,-0.02077575,-0.01688244,-0.15842949,0.0392805
 6,-0.20360762,0.12119257,-0.09314645,0.55832697,-0.00113470,0.00879550
 ,0.00526532,-0.00214458,0.00061109,-0.00478293,0.00459221,-0.00005039,
 0.00015640,-0.00192777,0.00440901,0.00350703,-0.01577748,-0.01214448,-
 0.00041056,-0.26258673,-0.14784026,0.01160032,0.28031788,0.00384372,-0
 .01496875,-0.00854540,0.00425361,0.00071383,0.00806672,-0.00824644,-0.
 00016273,-0.00058965,0.00285546,-0.00615293,-0.00559964,0.01201217,0.0
 0871632,0.00759812,-0.16236311,-0.10536330,0.01551330,0.14996480,0.114
 97229,0.00111741,-0.00431358,-0.00205644,0.00129663,-0.00077263,0.0025
 0914,-0.00238278,0.00048994,0.00026843,-0.00032777,-0.00197068,-0.0021
 1066,-0.01383378,-0.00644643,0.01027859,0.00339822,0.01160526,-0.05237
 616,-0.01940490,-0.02175554,0.06352557,-0.00280441,0.00458717,0.009859
 96,-0.00246911,0.00103818,-0.00453662,0.00450720,0.00097741,0.00076173
 ,-0.00186976,0.00447484,0.00341706,0.01022005,0.00810682,-0.03286292,-
 0.07593612,-0.03430881,0.04385702,-0.00045872,-0.00372743,0.03212997,0
 .06803601,0.00291866,-0.00552846,-0.01012255,0.00508461,-0.00025606,0.
 00375836,-0.00546041,0.00120994,0.00068365,0.00107689,-0.00408538,-0.0
 0264036,0.00561060,0.00473016,0.01563711,-0.03045365,-0.05917092,0.059
 53087,-0.00163572,-0.00257757,0.02321864,0.02102515,0.05819077,0.00530
 126,0.00078317,-0.00827215,-0.00078530,-0.00166584,0.00095723,-0.00031
 867,-0.00356032,-0.00299545,0.00282702,0.00057919,-0.00079153,0.005908
 24,0.01607959,-0.04835430,0.03538193,0.07451226,-0.27316184,0.00666514
 ,0.00488724,-0.01833903,-0.05152850,-0.08800218,0.35066486,-0.00089160
 ,0.00049948,0.00055122,-0.00026143,-0.00023432,-0.00027742,0.00126442,
 0.00152281,-0.00012351,-0.00059350,0.00149701,0.00148591,-0.06156805,-
 0.02072408,0.03021719,0.00885150,0.01197761,-0.01993965,0.00032457,-0.
 00002434,0.00059680,-0.00301635,0.00059375,-0.00470097,0.05467785,0.00
 125447,-0.00244326,-0.00208558,0.00281583,0.00104374,0.00283996,-0.005
 91301,0.00084302,0.00112492,0.00066368,-0.01412937,-0.00020081,-0.0147
 4714,-0.11124016,0.15365651,-0.00480048,0.00002067,-0.00265861,0.00193
 066,-0.00223012,-0.00091934,-0.00209168,0.00673696,-0.00056921,0.02128
 102,0.12035280,0.00052446,-0.00120555,-0.00095151,0.00090265,0.0006561
 0,0.00106485,-0.00333407,-0.00123815,0.00156491,0.00107231,-0.00832989
 ,0.00030464,0.02940681,0.14443910,-0.25770288,0.00629940,0.00920607,-0
 .01467627,0.00050141,-0.00182177,0.00015272,-0.00485120,0.00301578,-0.
 00112795,-0.02940328,-0.14847908,0.27735982,-0.00035529,-0.00063490,-0
 .00027792,0.00019965,-0.00003138,-0.00013806,0.00003071,0.00016707,-0.
 00027896,0.00053203,-0.00038522,0.00059644,-0.30520569,-0.01384530,0.0
 9972064,-0.02067920,-0.00336846,0.01116155,-0.00171359,0.00137160,-0.0
 0245350,0.00330127,-0.00074608,0.00109919,0.00145090,-0.00019217,-0.00
 123363,0.32216362,0.00320516,-0.00460037,-0.00504685,0.00449028,-0.001
 10540,0.00592157,-0.00719396,-0.00078281,0.00079806,0.00961477,-0.0129
 2380,-0.01165873,-0.00187058,-0.02219066,0.02504378,-0.01067804,0.0078
 1082,-0.00438965,-0.00193482,0.00306869,0.00023564,0.00244063,-0.00524
 899,-0.00032110,-0.01570023,0.00041249,0.00333963,0.01722371,0.0321686
 6,-0.00008266,-0.00137365,-0.00218758,0.00165328,-0.00076791,0.0017148
 3,-0.00240230,0.00012179,0.00053520,0.00361371,-0.00396938,-0.00387841
 ,0.10829307,0.02125540,-0.08639277,-0.02411931,0.00012077,0.00684585,-
 0.00282407,0.00167860,-0.00189224,0.00208150,-0.00285828,0.00232985,0.
 02203155,-0.00159522,-0.00574270,-0.10784098,-0.01394504,0.08815126,-0
 .00148085,-0.00072841,0.00184210,-0.00028850,0.00046404,-0.00156424,0.
 00507698,-0.01113086,0.02549351,-0.06092966,-0.00681754,0.02623200,-0.
 00108615,-0.00318917,-0.00149272,0.00044427,-0.00182490,0.00095188,0.0
 0001373,0.00006051,0.00003605,0.00025901,0.00046174,-0.00059882,-0.000
 06910,-0.00005254,0.00004471,0.00002829,0.00100006,0.00000658,0.057850
 92,-0.00126740,0.00453561,0.00478737,-0.00426556,-0.00299925,-0.006065
 50,0.01186927,0.00327538,-0.00811445,-0.01603974,-0.06696732,0.1240967
 6,-0.00815002,-0.02081228,-0.00494154,0.00770686,-0.00596575,0.0046123
 6,-0.00051044,0.00120632,0.00046853,0.00007980,0.00135966,-0.00088851,
 -0.00003720,-0.00065269,-0.00063094,0.00010375,0.00095826,0.00068443,0
 .00927405,0.08011540,-0.00177239,0.00070216,0.00299551,-0.00380275,-0.
 00197779,-0.00351043,0.00658507,0.00410161,-0.01417435,0.02220921,0.11
 271174,-0.28885802,-0.00194639,-0.00713332,-0.00089281,0.00097339,-0.0
 0246691,0.00166125,-0.00012113,0.00040607,0.00010482,0.00059153,0.0008
 3042,0.00024342,-0.00037834,-0.00065151,-0.00029827,-0.00045375,-0.000
 05379,0.00076270,-0.02751092,-0.11374227,0.31294411,0.00013876,-0.0001
 3952,0.00091370,-0.00267727,0.00134134,0.00394176,-0.01864267,0.001243
 83,-0.01730047,-0.26168569,0.02658690,-0.12190495,0.00024543,-0.000116
 85,0.00018539,-0.00020916,0.00001694,0.00022737,0.00011018,-0.00002493
 ,0.00001402,0.00015867,-0.00001753,-0.00017005,-0.00016931,-0.00030461
 ,-0.00001953,0.00018992,-0.00019727,-0.00014893,0.00480215,-0.00029385
 ,0.00280174,0.27750283,-0.00161642,-0.00064515,0.00033464,0.00018119,0
 .00664870,-0.00300900,0.00472735,0.00124077,0.00372523,0.01987353,-0.0
 3618778,0.01994794,-0.00617618,0.00043515,-0.00539967,0.00026766,-0.00
 230818,0.00002320,-0.00017970,0.00003965,-0.00033582,-0.00006827,0.000
 03481,0.00021854,-0.00037697,0.00048676,0.00053570,-0.00011476,0.00070
 173,-0.00010428,0.01095385,0.00068933,0.00515074,-0.02755537,0.0331204
 2,-0.00028060,-0.00046902,-0.00115758,0.00278266,0.00066483,-0.0018766
 0,0.01707466,-0.00071585,0.01242071,-0.12701652,0.02048753,-0.13189244
 ,-0.00099249,0.00136325,-0.00046295,-0.00060922,0.00021720,-0.00066383
 ,0.00007074,-0.00020781,-0.00011725,-0.00008222,-0.00024511,0.00042012
 ,-0.00005290,-0.00004670,0.00015179,0.00005313,-0.00011064,-0.00043992
 ,-0.02337145,0.00101882,-0.01124036,0.13219885,-0.02062319,0.13250567,
 -0.00503902,-0.00050958,-0.00101115,0.00257385,0.00282495,-0.03047135,
 -0.05797914,0.00499414,-0.00075105,0.00152252,-0.00606918,0.02934588,0
 .00011114,0.00021489,0.00021112,-0.00065704,0.00032902,0.00000855,0.00
 006627,-0.00004858,-0.00002641,0.00012661,-0.00002504,-0.00014827,0.00
 011479,0.00004149,0.00003298,0.00007576,-0.00013095,-0.00006155,-0.003
 91919,0.00192243,0.00297832,0.00109361,-0.00055241,-0.00046544,0.06079
 206,-0.00005142,0.00703723,0.00166029,-0.00421933,0.00164714,-0.001547
 62,0.00775916,-0.03783002,0.03423875,-0.00166892,0.00638952,-0.0006301
 8,-0.00195066,-0.00212440,-0.00237438,0.00337391,-0.00144935,0.0008644
 9,-0.00027688,0.00042993,0.00010758,-0.00053455,0.00015006,0.00020098,
 -0.00009083,0.00008196,0.00027529,0.00004679,0.00058810,0.00002939,0.0
 0077598,0.00585253,0.00232484,-0.00056950,-0.00467402,-0.00116948,-0.0
 0275228,0.02772789,-0.00322038,0.00081468,0.00105201,0.00216476,0.0015
 7715,-0.01255212,-0.00189033,0.02967681,-0.32832284,-0.00128630,0.0032
 7590,-0.01286019,0.00021647,0.00026149,-0.00009051,0.00023275,0.000055
 35,0.00019464,-0.00003570,0.00006208,-0.00004306,-0.00006943,-0.000077
 92,0.00010245,-0.00000935,-0.00024982,-0.00008484,-0.00003308,-0.00007
 770,0.00003556,0.00205655,-0.00077632,0.00009939,0.00019124,-0.0004533
 5,0.00112768,0.00158157,-0.03323862,0.35083881,0.00483012,0.00078844,-
 0.00326594,-0.24296252,-0.02595686,0.12425143,-0.02094593,-0.00240121,
 0.01819520,-0.00301191,-0.00071186,-0.00467551,0.00015950,-0.00024566,
 -0.00020037,0.00034332,-0.00025449,-0.00018887,-0.00002173,0.00011742,
 0.00009602,-0.00006248,-0.00001045,0.00031053,-0.00008078,0.00004235,0
 .00003237,0.00000461,-0.00004706,-0.00009339,0.00020217,-0.00014523,0.
 00007954,-0.00115914,0.00054892,0.00090084,0.00110898,0.00048194,-0.00
 020613,0.25949237,0.00148314,0.00647518,0.00143265,-0.03045299,-0.0402
 4020,0.01156816,0.00291575,0.00211591,0.00307704,-0.00142461,0.0073274
 0,0.00084904,-0.00197809,-0.00115746,-0.00171858,0.00303494,-0.0024055
 7,0.00054323,-0.00023691,0.00036481,0.00003914,-0.00039399,0.00036975,
 -0.00010233,0.00000806,0.00018817,0.00009986,0.00003895,0.00038472,0.0
 0015182,0.00049041,-0.00075019,-0.00008731,0.00000020,0.00032401,0.000
 04988,0.00009235,-0.00352165,-0.00060988,0.02753092,0.02889025,0.02735
 243,0.00651815,-0.01609437,0.12530934,0.01195674,-0.14279721,-0.014251
 41,-0.00107009,0.01102858,-0.00264623,0.00083574,-0.00103540,-0.000488
 46,-0.00041007,-0.00044781,0.00054441,0.00035578,-0.00033722,-0.000036
 38,0.00000381,0.00002150,0.00012825,-0.00057490,-0.00014822,0.00001105
 ,0.00005059,0.00007033,-0.00000191,0.00005403,0.00000318,-0.00014164,-
 0.00019788,-0.00004015,-0.00071219,0.00028314,0.00041173,0.00026347,-0
 .00043325,0.00105147,-0.13415913,-0.01562223,0.15166831,-0.28698502,-0
 .04015725,-0.10792318,0.00219423,0.00001401,0.00232100,0.00133110,-0.0
 0139000,0.00031835,-0.00052966,0.00053131,0.00028306,-0.00025495,-0.00
 002335,-0.00057340,-0.00080172,-0.00241159,-0.00108452,0.00012741,0.00
 059436,-0.00001488,0.00032903,0.00055827,0.00128721,-0.00008081,0.0001
 0244,-0.00000795,0.00002290,0.00014149,0.00001619,0.00037713,0.0003165
 9,-0.00007205,0.00003810,-0.00009844,-0.00031086,0.00000636,-0.0001004
 9,0.00009849,0.00098846,0.00137918,-0.00045614,0.29878940,-0.03502000,
 -0.03749131,-0.01133871,-0.00488616,0.00144614,-0.00041568,0.00135294,
 0.00707225,-0.00185287,0.00094101,-0.00119466,0.00121329,0.00070643,-0
 .00072274,-0.00055451,0.00460483,0.00247207,0.00388227,-0.00027665,0.0
 0018324,0.00027711,-0.00074760,0.00012014,-0.00148482,0.00012982,-0.00
 001046,0.00010854,0.00022579,-0.00028637,0.00022346,0.00029395,-0.0003
 8096,-0.00025640,-0.00003502,0.00049456,0.00019671,-0.00055826,0.00048
 385,-0.00029258,0.00072952,-0.00497580,0.00032159,0.04201735,0.0323814
 8,-0.10304875,-0.01474832,-0.10558277,-0.03131382,-0.00261079,-0.00882
 082,0.00141191,-0.00062282,-0.00528783,0.00125801,-0.00030519,-0.00069
 462,0.00050443,0.00025765,0.00040357,0.00002760,0.00137249,0.00001597,
 -0.00001854,0.00012986,0.00009598,-0.00029445,-0.00022119,-0.00002272,
 -0.00000610,-0.00007281,-0.00000901,0.00003936,-0.00006132,0.00001036,
 -0.00021569,-0.00025767,0.00033433,-0.00013241,0.00009213,0.00032856,-
 0.00148007,0.00008476,-0.00072200,0.00022942,-0.00011338,0.00124365,0.
 11631505,0.01523378,0.10882099,-0.20078422,-0.08286250,0.12008519,0.00
 793160,0.00285433,0.00434130,-0.00531267,0.00127913,-0.00042159,0.0017
 8250,-0.00054006,-0.00409871,0.00171064,0.00206550,0.00187847,-0.00372
 229,0.00763601,-0.00057357,0.00021305,-0.00063881,-0.00024110,-0.00032
 091,0.00101922,-0.00052993,0.00004688,-0.00003032,0.00003258,-0.000045
 89,-0.00036318,-0.00012268,-0.00128122,-0.00056332,-0.00016109,0.00026
 358,0.00018602,0.00010083,0.00000245,-0.00022294,0.00020886,0.00111495
 ,-0.00248731,-0.00071548,-0.01555197,-0.00947796,0.01672405,0.21395353
 ,-0.08818877,-0.05791225,0.07721678,-0.00066887,0.00279526,-0.01393232
 ,0.00799980,-0.00338266,0.00012801,-0.00335316,0.00555075,0.00398035,-
 0.00611142,-0.00430801,-0.00669719,0.01151922,-0.02419433,0.00656305,-
 0.00062482,0.00176032,0.00007218,-0.00085769,0.00396513,-0.00066667,-0
 .00032160,0.00053948,0.00002930,0.00014063,0.00104493,0.00034812,-0.00
 003117,0.00053596,0.00014170,0.00006525,-0.00040076,-0.00041041,0.0002
 2700,-0.00078878,0.00005272,-0.00046669,0.00661067,-0.00207115,-0.0014
 7388,0.00040857,0.00184281,0.08214618,0.06777572,0.12431938,0.06396328
 ,-0.16185789,0.02339445,0.01056415,-0.01473715,0.00145456,-0.00156628,
 0.00093038,0.00021754,0.00103261,-0.00033023,-0.00064241,0.00021863,-0
 .00001183,-0.00017949,-0.00033531,0.00138242,-0.00013213,0.00017402,-0
 .00002191,0.00139832,-0.00193234,-0.00150476,-0.00000219,-0.00014331,-
 0.00007563,0.00004149,0.00027209,0.00014485,-0.00176789,-0.00005319,-0
 .00013115,-0.00008553,-0.00038595,0.00048467,-0.00000661,-0.00039285,0
 .00017356,-0.00130602,0.00044291,-0.00459838,-0.01019634,-0.00526117,0
 .00988635,-0.13650713,-0.06659728,0.17026671\\0.00000399,0.00003835,0.
 00000123,-0.00000545,-0.00001594,0.00000090,-0.00000005,0.00000808,0.0
 0000613,-0.00000375,0.00001153,-0.00000698,-0.00000213,-0.00000514,-0.
 00001387,0.00000739,-0.00002897,0.00001301,0.00000423,-0.00000574,-0.0
 0000801,-0.00000916,0.00002010,0.00001685,-0.00000040,-0.00000953,-0.0
 0000688,-0.00000380,-0.00000512,0.00000620,-0.00000515,-0.00000391,-0.
 00000440,-0.00000201,-0.00000813,-0.00000423,0.00000086,-0.00000197,0.
 00000170,0.00000180,0.00000250,0.00000136,0.00000326,0.00001112,0.0000
 0013,0.00001037,-0.00000723,-0.00000314\\\@


 ... I FELL INTO A REVERIE ... THE ATOMS WERE GAMBOLING BEFORE MY EYES
 ... I SAW HOW TWO SMALL ONES UNITED TO FORM A PAIR;
 HOW THE LARGER ONES SEIZED TWO OF THE SMALLER ONES;
 HOW STILL LARGER ONES KEPT HOLD OF THREE OR FOUR
 SMALLER ONES ... I SAW HOW THE LARGER ONES FORMED A CHAIN ...
 THIS WAS THE ORIGIN OF THE STRUCTURE THEORY.

                                   -- C.F.KEKULE VON STRADONITZ
 Job cpu time:  0 days  0 hours  0 minutes  2.8 seconds.
 File lengths (MBytes):  RWF=     35 Int=      0 D2E=      0 Chk=     11 Scr=      1
 Normal termination of Gaussian 03 at Thu Nov  8 11:18:26 2007.
