   2   2   0   0
  0.2560000E+03  0.8000000E-09  0.8000000E-09  0.8000000E-09  0.5000000E-15
  1.000000000000000E-004
  CAR 
 unknown system                          
      5.58410970    -29.82666368  301     -8.80287479      1.00000000
    -29.827  0.0000E+00  0.0000E+00
    -29.709  0.0000E+00  0.0000E+00
    -29.591  0.0000E+00  0.0000E+00
    -29.473  0.0000E+00  0.0000E+00
    -29.355  0.0000E+00  0.0000E+00
    -29.236  0.0000E+00  0.0000E+00
    -29.118 -0.2237E-33 -0.2640E-34
    -29.000 -0.8411E-25 -0.9928E-26
    -28.882 -0.1905E-17 -0.2249E-18
    -28.764 -0.2491E-11 -0.2940E-12
    -28.646 -0.1938E-06 -0.2288E-07
    -28.528 -0.8350E-03 -0.9858E-04
    -28.410 -0.1671E+00 -0.1982E-01
    -28.292  0.5666E+00  0.4706E-01
    -28.174  0.1364E+02  0.1658E+01
    -28.056  0.3284E+01  0.2045E+01
    -27.938 -0.3785E+00  0.2001E+01
    -27.820 -0.4876E-02  0.2000E+01
    -27.702 -0.2539E-05  0.2000E+01
    -27.584 -0.7134E-10  0.2000E+01
    -27.466  0.0000E+00  0.2000E+01
    -27.348  0.0000E+00  0.2000E+01
    -27.230  0.0000E+00  0.2000E+01
    -27.112  0.0000E+00  0.2000E+01
    -26.994  0.0000E+00  0.2000E+01
    -26.876  0.0000E+00  0.2000E+01
    -26.758  0.0000E+00  0.2000E+01
    -26.640  0.0000E+00  0.2000E+01
    -26.522  0.0000E+00  0.2000E+01
    -26.404  0.0000E+00  0.2000E+01
    -26.286  0.0000E+00  0.2000E+01
    -26.168  0.0000E+00  0.2000E+01
    -26.050  0.0000E+00  0.2000E+01
    -25.931  0.0000E+00  0.2000E+01
    -25.813  0.0000E+00  0.2000E+01
    -25.695  0.0000E+00  0.2000E+01
    -25.577  0.0000E+00  0.2000E+01
    -25.459  0.0000E+00  0.2000E+01
    -25.341  0.0000E+00  0.2000E+01
    -25.223  0.0000E+00  0.2000E+01
    -25.105  0.0000E+00  0.2000E+01
    -24.987  0.0000E+00  0.2000E+01
    -24.869  0.0000E+00  0.2000E+01
    -24.751  0.0000E+00  0.2000E+01
    -24.633  0.0000E+00  0.2000E+01
    -24.515  0.0000E+00  0.2000E+01
    -24.397  0.0000E+00  0.2000E+01
    -24.279  0.0000E+00  0.2000E+01
    -24.161  0.0000E+00  0.2000E+01
    -24.043  0.0000E+00  0.2000E+01
    -23.925  0.0000E+00  0.2000E+01
    -23.807  0.0000E+00  0.2000E+01
    -23.689  0.0000E+00  0.2000E+01
    -23.571  0.0000E+00  0.2000E+01
    -23.453  0.0000E+00  0.2000E+01
    -23.335  0.0000E+00  0.2000E+01
    -23.217  0.0000E+00  0.2000E+01
    -23.099  0.0000E+00  0.2000E+01
    -22.981  0.0000E+00  0.2000E+01
    -22.863  0.0000E+00  0.2000E+01
    -22.745  0.0000E+00  0.2000E+01
    -22.626  0.0000E+00  0.2000E+01
    -22.508  0.0000E+00  0.2000E+01
    -22.390  0.0000E+00  0.2000E+01
    -22.272  0.0000E+00  0.2000E+01
    -22.154  0.0000E+00  0.2000E+01
    -22.036  0.0000E+00  0.2000E+01
    -21.918  0.0000E+00  0.2000E+01
    -21.800  0.0000E+00  0.2000E+01
    -21.682  0.0000E+00  0.2000E+01
    -21.564  0.0000E+00  0.2000E+01
    -21.446  0.0000E+00  0.2000E+01
    -21.328  0.0000E+00  0.2000E+01
    -21.210  0.0000E+00  0.2000E+01
    -21.092  0.0000E+00  0.2000E+01
    -20.974  0.0000E+00  0.2000E+01
    -20.856  0.0000E+00  0.2000E+01
    -20.738  0.0000E+00  0.2000E+01
    -20.620  0.0000E+00  0.2000E+01
    -20.502  0.0000E+00  0.2000E+01
    -20.384  0.0000E+00  0.2000E+01
    -20.266  0.0000E+00  0.2000E+01
    -20.148  0.0000E+00  0.2000E+01
    -20.030  0.0000E+00  0.2000E+01
    -19.912  0.0000E+00  0.2000E+01
    -19.794  0.0000E+00  0.2000E+01
    -19.676  0.0000E+00  0.2000E+01
    -19.558  0.0000E+00  0.2000E+01
    -19.440  0.0000E+00  0.2000E+01
    -19.321  0.0000E+00  0.2000E+01
    -19.203  0.0000E+00  0.2000E+01
    -19.085  0.0000E+00  0.2000E+01
    -18.967  0.0000E+00  0.2000E+01
    -18.849  0.0000E+00  0.2000E+01
    -18.731  0.0000E+00  0.2000E+01
    -18.613  0.0000E+00  0.2000E+01
    -18.495  0.0000E+00  0.2000E+01
    -18.377  0.0000E+00  0.2000E+01
    -18.259  0.0000E+00  0.2000E+01
    -18.141  0.0000E+00  0.2000E+01
    -18.023  0.0000E+00  0.2000E+01
    -17.905  0.0000E+00  0.2000E+01
    -17.787  0.0000E+00  0.2000E+01
    -17.669  0.0000E+00  0.2000E+01
    -17.551  0.0000E+00  0.2000E+01
    -17.433  0.0000E+00  0.2000E+01
    -17.315  0.0000E+00  0.2000E+01
    -17.197  0.0000E+00  0.2000E+01
    -17.079  0.0000E+00  0.2000E+01
    -16.961  0.0000E+00  0.2000E+01
    -16.843  0.0000E+00  0.2000E+01
    -16.725  0.0000E+00  0.2000E+01
    -16.607  0.0000E+00  0.2000E+01
    -16.489  0.0000E+00  0.2000E+01
    -16.371  0.0000E+00  0.2000E+01
    -16.253  0.0000E+00  0.2000E+01
    -16.134  0.0000E+00  0.2000E+01
    -16.016  0.0000E+00  0.2000E+01
    -15.898  0.0000E+00  0.2000E+01
    -15.780  0.0000E+00  0.2000E+01
    -15.662  0.0000E+00  0.2000E+01
    -15.544  0.0000E+00  0.2000E+01
    -15.426  0.0000E+00  0.2000E+01
    -15.308  0.0000E+00  0.2000E+01
    -15.190  0.0000E+00  0.2000E+01
    -15.072  0.0000E+00  0.2000E+01
    -14.954  0.0000E+00  0.2000E+01
    -14.836  0.0000E+00  0.2000E+01
    -14.718 -0.2424E-31  0.2000E+01
    -14.600 -0.4848E-23  0.2000E+01
    -14.482 -0.5831E-16  0.2000E+01
    -14.364 -0.4023E-10  0.2000E+01
    -14.246 -0.1643E-05  0.2000E+01
    -14.128 -0.3639E-02  0.2000E+01
    -14.010 -0.3361E+00  0.1960E+01
    -13.892  0.2676E+01  0.2276E+01
    -13.774  0.1390E+02  0.3916E+01
    -13.656  0.9100E+00  0.4023E+01
    -13.538 -0.1974E+00  0.4000E+01
    -13.420 -0.1157E-02  0.4000E+01
    -13.302 -0.3091E-06  0.4000E+01
    -13.184 -0.4556E-11  0.4000E+01
    -13.066  0.0000E+00  0.4000E+01
    -12.948  0.0000E+00  0.4000E+01
    -12.829  0.0000E+00  0.4000E+01
    -12.711  0.0000E+00  0.4000E+01
    -12.593  0.0000E+00  0.4000E+01
    -12.475  0.0000E+00  0.4000E+01
    -12.357  0.0000E+00  0.4000E+01
    -12.239  0.0000E+00  0.4000E+01
    -12.121  0.0000E+00  0.4000E+01
    -12.003  0.0000E+00  0.4000E+01
    -11.885 -0.2919E-31  0.4000E+01
    -11.767 -0.6256E-23  0.4000E+01
    -11.649 -0.8066E-16  0.4000E+01
    -11.531 -0.5971E-10  0.4000E+01
    -11.413 -0.2617E-05  0.4000E+01
    -11.295 -0.6238E-02  0.3999E+01
    -11.177 -0.6295E+00  0.3925E+01
    -11.059  0.4766E+01  0.4488E+01
    -10.941  0.2797E+02  0.7789E+01
    -10.823  0.2218E+01  0.8051E+01
    -10.705 -0.4287E+00  0.8000E+01
    -10.587 -0.2730E-02  0.8000E+01
    -10.469 -0.7845E-06  0.8000E+01
    -10.351 -0.1241E-10  0.8000E+01
    -10.233  0.0000E+00  0.8000E+01
    -10.115  0.0000E+00  0.8000E+01
     -9.997  0.0000E+00  0.8000E+01
     -9.879  0.0000E+00  0.8000E+01
     -9.761 -0.3049E-31  0.8000E+01
     -9.643 -0.5910E-23  0.8000E+01
     -9.524 -0.6887E-16  0.8000E+01
     -9.406 -0.4604E-10  0.8000E+01
     -9.288 -0.1820E-05  0.8000E+01
     -9.170 -0.3899E-02  0.8000E+01
     -9.052 -0.3459E+00  0.7959E+01
     -8.934  0.2814E+01  0.8291E+01
     -8.816  0.1385E+02  0.9925E+01
     -8.698  0.8247E+00  0.1002E+02
     -8.580 -0.1900E+00  0.1000E+02
     -8.462 -0.1072E-02  0.1000E+02
     -8.344 -0.2772E-06  0.1000E+02
     -8.226 -0.3958E-11  0.1000E+02
     -8.108  0.0000E+00  0.1000E+02
     -7.990  0.0000E+00  0.1000E+02
     -7.872  0.0000E+00  0.1000E+02
     -7.754  0.0000E+00  0.1000E+02
     -7.636  0.0000E+00  0.1000E+02
     -7.518  0.0000E+00  0.1000E+02
     -7.400  0.0000E+00  0.1000E+02
     -7.282  0.0000E+00  0.1000E+02
     -7.164  0.0000E+00  0.1000E+02
     -7.046  0.0000E+00  0.1000E+02
     -6.928  0.0000E+00  0.1000E+02
     -6.810  0.0000E+00  0.1000E+02
     -6.692  0.0000E+00  0.1000E+02
     -6.574  0.0000E+00  0.1000E+02
     -6.456  0.0000E+00  0.1000E+02
     -6.338  0.0000E+00  0.1000E+02
     -6.219  0.0000E+00  0.1000E+02
     -6.101  0.0000E+00  0.1000E+02
     -5.983  0.0000E+00  0.1000E+02
     -5.865  0.0000E+00  0.1000E+02
     -5.747  0.0000E+00  0.1000E+02
     -5.629  0.0000E+00  0.1000E+02
     -5.511  0.0000E+00  0.1000E+02
     -5.393  0.0000E+00  0.1000E+02
     -5.275  0.0000E+00  0.1000E+02
     -5.157  0.0000E+00  0.1000E+02
     -5.039  0.0000E+00  0.1000E+02
     -4.921  0.0000E+00  0.1000E+02
     -4.803  0.0000E+00  0.1000E+02
     -4.685  0.0000E+00  0.1000E+02
     -4.567  0.0000E+00  0.1000E+02
     -4.449  0.0000E+00  0.1000E+02
     -4.331  0.0000E+00  0.1000E+02
     -4.213  0.0000E+00  0.1000E+02
     -4.095  0.0000E+00  0.1000E+02
     -3.977  0.0000E+00  0.1000E+02
     -3.859  0.0000E+00  0.1000E+02
     -3.741  0.0000E+00  0.1000E+02
     -3.623  0.0000E+00  0.1000E+02
     -3.505  0.0000E+00  0.1000E+02
     -3.387  0.0000E+00  0.1000E+02
     -3.269 -0.5448E-34  0.1000E+02
     -3.151 -0.2704E-25  0.1000E+02
     -3.033 -0.8088E-18  0.1000E+02
     -2.914 -0.1401E-11  0.1000E+02
     -2.796 -0.1446E-06  0.1000E+02
     -2.678 -0.8327E-03  0.1000E+02
     -2.560 -0.2303E+00  0.9973E+01
     -2.442  0.4686E-01  0.9978E+01
     -2.324  0.2562E+02  0.1300E+02
     -2.206  0.9397E+01  0.1411E+02
     -2.088 -0.9304E+00  0.1400E+02
     -1.970 -0.1747E-01  0.1400E+02
     -1.852 -0.1224E-04  0.1400E+02
     -1.734 -0.4572E-09  0.1400E+02
     -1.616  0.0000E+00  0.1400E+02
     -1.498  0.0000E+00  0.1400E+02
     -1.380  0.0000E+00  0.1400E+02
     -1.262  0.0000E+00  0.1400E+02
     -1.144 -0.4108E-32  0.1400E+02
     -1.026 -0.1046E-23  0.1400E+02
     -0.908 -0.1603E-16  0.1400E+02
     -0.790 -0.1412E-10  0.1400E+02
     -0.672 -0.7382E-06  0.1400E+02
     -0.554 -0.2111E-02  0.1400E+02
     -0.436 -0.2641E+00  0.1397E+02
     -0.318  0.1720E+01  0.1417E+02
     -0.200  0.1408E+02  0.1583E+02
     -0.082  0.1670E+01  0.1603E+02
      0.036 -0.2601E+00  0.1600E+02
      0.154 -0.2042E-02  0.1600E+02
      0.272 -0.7037E-06  0.1600E+02
      0.391 -0.1327E-10  0.1600E+02
      0.509  0.0000E+00  0.1600E+02
      0.627  0.0000E+00  0.1600E+02
      0.745  0.0000E+00  0.1600E+02
      0.863 -0.2707E-28  0.1600E+02
      0.981 -0.2023E-20  0.1600E+02
      1.099 -0.9066E-14  0.1600E+02
      1.217 -0.2304E-08  0.1600E+02
      1.335 -0.3424E-04  0.1600E+02
      1.453 -0.2633E-01  0.1600E+02
      1.571 -0.5734E+00  0.1593E+02
      1.689  0.7786E+01  0.1685E+02
      1.807  0.9365E+01  0.1795E+02
      1.925  0.3352E+02  0.2191E+02
      2.043  0.3513E+02  0.2606E+02
      2.161 -0.2478E+00  0.2603E+02
      2.279 -0.5913E+00  0.2596E+02
      2.397  0.1180E+02  0.2735E+02
      2.515  0.6048E+01  0.2806E+02
      2.633 -0.5289E+00  0.2800E+02
      2.751 -0.1407E-01  0.2800E+02
      2.869 -0.1274E-04  0.2800E+02
      2.987 -0.6083E-09  0.2800E+02
      3.105 -0.1840E-13  0.2800E+02
      3.223 -0.4203E-08  0.2800E+02
      3.341 -0.5329E-04  0.2800E+02
      3.459 -0.3462E-01  0.2800E+02
      3.577 -0.5624E+00  0.2793E+02
      3.696  0.8960E+01  0.2899E+02
      3.814  0.8791E+01  0.3002E+02
      3.932  0.2728E+01  0.3035E+02
      4.050  0.1361E+02  0.3195E+02
      4.168  0.5666E+00  0.3202E+02
      4.286 -0.1671E+00  0.3200E+02
      4.404 -0.8350E-03  0.3200E+02
      4.522 -0.1938E-06  0.3200E+02
      4.640 -0.2491E-11  0.3200E+02
      4.758  0.0000E+00  0.3200E+02
      4.876  0.0000E+00  0.3200E+02
      4.994  0.0000E+00  0.3200E+02
      5.112  0.0000E+00  0.3200E+02
      5.230  0.0000E+00  0.3200E+02
      5.348  0.0000E+00  0.3200E+02
      5.466  0.0000E+00  0.3200E+02
      5.584  0.0000E+00  0.3200E+02
