    2    2    1    1
  0.2560000E+03  0.8000000E-09  0.8000000E-09  0.8000000E-09  0.5000000E-15
  1.000000000000000E-004
  CAR 
 unknown system                          
     10      1     16
 
  0.0000000E+00  0.0000000E+00  0.0000000E+00  0.1000000E+01
    1      -28.217083   1.000000
    2      -13.843250   1.000000
    3      -11.007473   1.000000
    4      -11.007473   1.000000
    5       -8.887063   1.000000
    6       -2.355543   0.000000
    7       -2.355543   0.000000
    8       -0.258967   0.000000
    9        1.696123   0.000000
   10        1.892474   0.000000
   11        1.892474   0.000000
   12        1.949856   0.000000
   13        1.973907   0.000000
   14        2.375930   0.000000
   15        3.696264   0.000000
   16        3.974529   0.000000
