       N       E                     dE             d eps       ncg     rms          rms(c)
DAV:   1     0.405422358297E+02    0.40542E+02   -0.26975E+03    40   0.278E+02
DAV:   2    -0.109613892612E+02   -0.51504E+02   -0.50992E+02    32   0.920E+01
DAV:   3    -0.152288182079E+02   -0.42674E+01   -0.42515E+01    64   0.315E+01
DAV:   4    -0.152368941169E+02   -0.80759E-02   -0.80752E-02    40   0.123E+00
DAV:   5    -0.152368982852E+02   -0.41682E-05   -0.41693E-05    48   0.301E-02    0.618E+00
DAV:   6    -0.147663931924E+02    0.47051E+00   -0.35609E+00    48   0.696E+00    0.354E+00
DAV:   7    -0.146614016061E+02    0.10499E+00   -0.72545E-01    40   0.286E+00    0.190E+00
DAV:   8    -0.146258605838E+02    0.35541E-01   -0.11267E-01    40   0.151E+00    0.369E-01
DAV:   9    -0.146256808418E+02    0.17974E-03   -0.60800E-03    48   0.319E-01    0.128E-01
DAV:  10    -0.146265335286E+02   -0.85269E-03   -0.12411E-03    32   0.161E-01    0.310E-02
DAV:  11    -0.146282376678E+02   -0.17041E-02   -0.27308E-04    32   0.638E-02    0.185E-02
DAV:  12    -0.146291034537E+02   -0.86579E-03   -0.61412E-05    32   0.329E-02    0.101E-02
DAV:  13    -0.146299022200E+02   -0.79877E-03   -0.79552E-05    32   0.309E-02    0.345E-03
DAV:  14    -0.146299987143E+02   -0.96494E-04   -0.36707E-06    32   0.713E-03
   1 F= -.14629999E+02 E0= -.14631931E+02  d E =0.579791E-02
