unknown system                          
           1
     8.000000    0.000000    0.000000
     0.000000    8.000000    0.000000
     0.000000    0.000000    8.000000
   C    O 
   1   1
Direct configuration=     1
   0.42500000  0.50000000  0.50000000
   0.57500000  0.50000000  0.50000000
