----- GAMESS execution script 'rungms' -----
This job is running on host d12chas543.crc.nd.edu
under operating system Linux at Sun Oct 6 23:08:53 EDT 2019
SGE has assigned the following compute nodes to this run:
Available scratch disk space (Kbyte units) at beginning of the job is
Filesystem      1K-blocks     Used  Available Use% Mounted on
/dev/sda2      1949705068 63872808 1885832260   4% /
GAMESS temporary binary files will be written to /tmp/474108.1.debug
GAMESS supplementary output files will be written to /afs/crc.nd.edu/user/w/wschnei1/scr
Copying input file ts-sym-1.inp to your run's scratch directory...
reading your own /afs/crc.nd.edu/user/w/wschnei1/.gmsrc

 Distributed Data Interface kickoff program.
 Initiating 1 compute processes on 1 nodes to run the following command:
 /afs/crc.nd.edu/x86_64_linux/g/gamess/nov-2017/gamess/gamess.00.x ts-sym-1 

          ******************************************************
          *         GAMESS VERSION = 11 NOV 2017 (R3)         *
          *             FROM IOWA STATE UNIVERSITY             *
          * M.W.SCHMIDT, K.K.BALDRIDGE, J.A.BOATZ, S.T.ELBERT, *
          *   M.S.GORDON, J.H.JENSEN, S.KOSEKI, N.MATSUNAGA,   *
          *          K.A.NGUYEN, S.J.SU, T.L.WINDUS,           *
          *       TOGETHER WITH M.DUPUIS, J.A.MONTGOMERY       *
          *         J.COMPUT.CHEM.  14, 1347-1363(1993)        *
          **************** 64 BIT INTEL VERSION ****************

  SINCE 1993, STUDENTS AND POSTDOCS WORKING AT IOWA STATE UNIVERSITY
  AND ALSO IN THEIR VARIOUS JOBS AFTER LEAVING ISU HAVE MADE IMPORTANT
  CONTRIBUTIONS TO THE CODE:
     IVANA ADAMOVIC, CHRISTINE AIKENS, YURI ALEXEEV, POOJA ARORA,
     ANDREY ASADCHEV, ROB BELL, PRADIPTA BANDYOPADHYAY, JONATHAN BENTZ,
     BRETT BODE, KURT BRORSEN, CALEB CARLIN, GALINA CHABAN, WEI CHEN,
     CHEOL HO CHOI, PAUL DAY, ALBERT DEFUSCO, NUWAN DESILVA, TIM DUDLEY,
     DMITRI FEDOROV, ALEX FINDLATER, GRAHAM FLETCHER, MARK FREITAG,
     KURT GLAESEMANN, ANASTASIA GUININA,
     DAN KEMP, GRANT MERRILL, NORIYUKI MINEZAWA, JONATHAN MULLIN,
     TAKESHI NAGATA, SEAN NEDD, HEATHER NETZLOFF, BOSILJKA NJEGIC, RYAN OLSON,
     MIKE PAK, BUU PHAM,
     SPENCER PRUITT, LUKE ROSKOP, JIM SHOEMAKER, LYUDMILA SLIPCHENKO,
     TONY SMITH, SAROM SOK LEANG, JIE SONG, TETSUYA TAKETSUGU, SIMON WEBB,
     PENG XU, SOOHAENG YOO, FEDERICO ZAHARIEV

  ADDITIONAL CODE HAS BEEN PROVIDED BY COLLABORATORS IN OTHER GROUPS:
     IOWA STATE UNIVERSITY:
          JOE IVANIC, AARON WEST, LAIMUTIS BYTAUTAS, KLAUS RUEDENBERG
     UNIVERSITY OF TOKYO: KIMIHIKO HIRAO, TAKAHITO NAKAJIMA,
          TAKAO TSUNEDA, MUNEAKI KAMIYA, SUSUMU YANAGISAWA,
          KIYOSHI YAGI, MAHITO CHIBA, SEIKEN TOKURA, NAOAKI KAWAKAMI
     UNIVERSITY OF AARHUS: FRANK JENSEN
     UNIVERSITY OF IOWA: VISVALDAS KAIRYS, HUI LI
     NATIONAL INST. OF STANDARDS AND TECHNOLOGY: WALT STEVENS, DAVID GARMER
     UNIVERSITY OF PISA: BENEDETTA MENNUCCI, JACOPO TOMASI
     UNIVERSITY OF MEMPHIS: HENRY KURTZ, PRAKASHAN KORAMBATH
     UNIVERSITY OF ALBERTA: TOBY ZENG, MARIUSZ KLOBUKOWSKI
     UNIVERSITY OF NEW ENGLAND: MARK SPACKMAN
     MIE UNIVERSITY: HIROAKI UMEDA
     NAT. INST. OF ADVANCED INDUSTRIAL SCIENCE AND TECHNOLOGY: KAZUO KITAURA
     MICHIGAN STATE UNIVERSITY:
          KAROL KOWALSKI, MARTA WLOCH, JEFFREY GOUR, JESSE LUTZ,
          WEI LI, PIOTR PIECUCH
     UNIVERSITY OF SILESIA: MONIKA MUSIAL, STANISLAW KUCHARSKI
     FACULTES UNIVERSITAIRES NOTRE-DAME DE LA PAIX:
          OLIVIER QUINET, BENOIT CHAMPAGNE
     UNIVERSITY OF CALIFORNIA - SANTA BARBARA: BERNARD KIRTMAN
     INSTITUTE FOR MOLECULAR SCIENCE:
          KAZUYA ISHIMURA, MICHIO KATOUDA, AND SHIGERU NAGASE
     UNIVERSITY OF NOTRE DAME: ANNA POMOGAEVA, DAN CHIPMAN
     KYUSHU UNIVERSITY:
          HARUYUKI NAKANO,
          FENG LONG GU, JACEK KORCHOWIEC, MARCIN MAKOWSKI, AND YURIKO AOKI,
          HIROTOSHI MORI AND EISAKU MIYOSHI
     PENNSYLVANIA STATE UNIVERSITY:
          TZVETELIN IORDANOV, CHET SWALINA, JONATHAN SKONE,
          SHARON HAMMES-SCHIFFER
     WASEDA UNIVERSITY:
          MASATO KOBAYASHI, TOMOKO AKAMA, TSUGUKI TOUMA,
          TAKESHI YOSHIKAWA, YASUHIRO IKABATA, JUNJI SEINO,
          YUYA NAKAJIMA, HIROMI NAKAI
     NANJING UNIVERSITY: SHUHUA LI
     UNIVERSITY OF NEBRASKA:
          PEIFENG SU, DEJUN SI, NANDUN THELLAMUREGE, YALI WANG, HUI LI
     UNIVERSITY OF ZURICH: ROBERTO PEVERATI, KIM BALDRIDGE
     N. COPERNICUS UNIVERSITY AND JACKSON STATE UNIVERSITY:
          MARIA BARYSZ
     UNIVERSITY OF COPENHAGEN: Jimmy Kromann, CASPER STEINMANN
     TOKYO INSTITUTE OF TECHNOLOGY: HIROYA NAKATA
     NAGOYA UNIVERSITY: YOSHIO NISHIMOTO, STEPHAN IRLE
     MOSCOW STATE UNIVERSITY: VLADIMIR MIRONOV

 EXECUTION OF GAMESS BEGUN Sun Oct  6 23:08:53 2019

            ECHO OF THE FIRST FEW INPUT CARDS -
 INPUT CARD> $CONTRL SCFTYP=RHF DFTTYP=PBE RUNTYP=OPTIMIZE COORD=ZMT NZVAR=18 ISPHER=1 $END 
 INPUT CARD> $BASIS GBASIS=PCseg-1 $END                                                     
 INPUT CARD> $DATA                                                                          
 INPUT CARD>FCH2CH2F eclipsed TS                                                            
 INPUT CARD>CS                                                                              
 INPUT CARD>                                                                                
 INPUT CARD>C                                                                               
 INPUT CARD>C   1   r1                                                                      
 INPUT CARD>F   2   r2   1   A1                                                             
 INPUT CARD>H   2   r3   1   A2   3   D1                                                    
 INPUT CARD>H   2   r4   1   A3   3   D2                                                    
 INPUT CARD>F   1   r5   2   A4   3   D3                                                    
 INPUT CARD>H   1   r6   2   A5   6   D4                                                    
 INPUT CARD>H   1   r7   2   A6   6   D5                                                    
 INPUT CARD>                                                                                
 INPUT CARD>r1=1.5                                                                          
 INPUT CARD>r2=1.4                                                                          
 INPUT CARD>r3=1.1                                                                          
 INPUT CARD>r4=1.1                                                                          
 INPUT CARD>r5=1.5                                                                          
 INPUT CARD>r6=1.1                                                                          
 INPUT CARD>r7=1.1                                                                          
 INPUT CARD>A1=109.54214                                                                    
 INPUT CARD>A2=109.54214                                                                    
 INPUT CARD>A3=109.54214                                                                    
 INPUT CARD>A4=109.54214                                                                    
 INPUT CARD>A5=109.54214                                                                    
 INPUT CARD>A6=109.54214                                                                    
 INPUT CARD>D1=120.                                                                         
 INPUT CARD>D2=-120.                                                                        
 INPUT CARD>D3=0.                                                                           
 INPUT CARD>D4=120.                                                                         
 INPUT CARD>D5=-120.                                                                        
 INPUT CARD> $END                                                                           
 INPUT CARD>                                                                                
    1000000 WORDS OF MEMORY AVAILABLE

     BASIS OPTIONS
     -------------
     GBASIS=PCSEG-1      IGAUSS=       0      POLAR=NONE    
     NDFUNC=       0     NFFUNC=       0     DIFFSP=       F
     NPFUNC=       0      DIFFS=       F     BASNAM=        


     RUN TITLE
     ---------
 FCH2CH2F eclipsed TS                                                            

 THE POINT GROUP OF THE MOLECULE IS CS      
 THE ORDER OF THE PRINCIPAL AXIS IS     0

 YOUR FULLY SUBSTITUTED Z-MATRIX IS
 C   
 C      1   1.5000000
 F      2   1.4000000  1  109.5421
 H      2   1.1000000  1  109.5421  3  120.0000  0
 H      2   1.1000000  1  109.5421  3 -120.0000  0
 F      1   1.5000000  2  109.5421  3    0.0000  0
 H      1   1.1000000  2  109.5421  6  120.0000  0
 H      1   1.1000000  2  109.5421  6 -120.0000  0

 THE MOMENTS OF INERTIA ARE (AMU-ANGSTROM**2)
 IXX=    37.597   IYY=    79.908   IZZ=   111.007

 ATOM      ATOMIC                      COORDINATES (BOHR)
           CHARGE         X                   Y                   Z
 C           6.0    -1.3086490074       -1.5096274934        0.0000000000
 C           6.0     1.5205630062       -1.3351165299        0.0000000000
 F           9.0     2.2503486732        1.2078539626        0.0000000000
 H           1.0     2.2748702553       -2.2699293304       -1.6965062379
 H           1.0     2.2748702553       -2.2699293304        1.6965062379
 F           9.0    -2.4194789949        1.0982358913        0.0000000000
 H           1.0    -1.9423534398       -2.5300553893        1.6965062379
 H           1.0    -1.9423534398       -2.5300553893       -1.6965062379

          INTERNUCLEAR DISTANCES (ANGS.)
          ------------------------------

                1 C          2 C          3 F          4 H          5 H     

   1 C       0.0000000    1.5000000 *  2.3695781 *  2.1363170 *  2.1363170 *
   2 C       1.5000000 *  0.0000000    1.4000000 *  1.1000000 *  1.1000000 *
   3 F       2.3695781 *  1.4000000 *  0.0000000    2.0476979 *  2.0476979 *
   4 H       2.1363170 *  1.1000000 *  2.0476979 *  0.0000000    1.7955050 *
   5 H       2.1363170 *  1.1000000 *  2.0476979 *  1.7955050 *  0.0000000  
   6 F       1.5000000 *  2.4505612 *  2.4718473 *  3.1864902    3.1864902  
   7 H       1.1000000 *  2.1363170 *  3.1050059    2.8675927 *  2.2359001 *
   8 H       1.1000000 *  2.1363170 *  3.1050059    2.2359001 *  2.8675927 *

                6 F          7 H          8 H     

   1 C       1.5000000 *  1.1000000 *  1.1000000 *
   2 C       2.4505612 *  2.1363170 *  2.1363170 *
   3 F       2.4718473 *  3.1050059    3.1050059  
   4 H       3.1864902    2.8675927 *  2.2359001 *
   5 H       3.1864902    2.2359001 *  2.8675927 *
   6 F       0.0000000    2.1345124 *  2.1345124 *
   7 H       2.1345124 *  0.0000000    1.7955050 *
   8 H       2.1345124 *  1.7955050 *  0.0000000  

  * ... LESS THAN  3.000


     ATOMIC BASIS SET
     ----------------
 THE CONTRACTED PRIMITIVE FUNCTIONS HAVE BEEN UNNORMALIZED
 THE CONTRACTED BASIS FUNCTIONS ARE NOW NORMALIZED TO UNITY

  SHELL TYPE  PRIMITIVE        EXPONENT          CONTRACTION COEFFICIENT(S)

 C         

      1   S       1          1243.2000000    0.005630097702
      1   S       2           187.1450000    0.041950603854
      1   S       3            42.5126000    0.184664360492
      1   S       4            11.7393000    0.466557421368
      1   S       5             3.5054800    0.448234778316

      2   S       6             5.3908900   -0.148114817444
      2   S       7             0.4933410    1.051981714281

      3   S       8             0.1497410    1.000000000000

      4   P       9             9.1805600    0.063992052045
      4   P      10             1.9365800    0.333521296407
      4   P      11             0.5262960    0.741161730513

      5   P      12             0.1363190    1.000000000000

      6   D      13             0.8000000    1.000000000000

 C         

      7   S      14          1243.2000000    0.005630097702
      7   S      15           187.1450000    0.041950603854
      7   S      16            42.5126000    0.184664360492
      7   S      17            11.7393000    0.466557421368
      7   S      18             3.5054800    0.448234778316

      8   S      19             5.3908900   -0.148114817444
      8   S      20             0.4933410    1.051981714281

      9   S      21             0.1497410    1.000000000000

     10   P      22             9.1805600    0.063992052045
     10   P      23             1.9365800    0.333521296407
     10   P      24             0.5262960    0.741161730513

     11   P      25             0.1363190    1.000000000000

     12   D      26             0.8000000    1.000000000000

 F         

     13   S      27          2931.5500000    0.005390132259
     13   S      28           441.1250000    0.040296704072
     13   S      29           100.2320000    0.180202178717
     13   S      30            27.8655000    0.465064284210
     13   S      31             8.4447000    0.452433138251

     14   S      32            13.6123000   -0.151660908297
     14   S      33             1.2612200    1.053515343452

     15   S      34             0.3708000    1.000000000000

     16   P      35            21.9305000    0.070356827475
     16   P      36             4.7855200    0.356742371235
     16   P      37             1.2837800    0.719732016372

     17   P      38             0.3115580    1.000000000000

     18   D      39             1.1000000    1.000000000000

 H         

     22   S      40            12.2518000    0.037217389296
     22   S      41             1.8687100    0.253808206955
     22   S      42             0.4182080    0.797386763917

     23   S      43             0.1061000    1.000000000000

     24   P      44             1.0000000    1.000000000000

 F         

     25   S      45          2931.5500000    0.005390132259
     25   S      46           441.1250000    0.040296704072
     25   S      47           100.2320000    0.180202178717
     25   S      48            27.8655000    0.465064284210
     25   S      49             8.4447000    0.452433138251

     26   S      50            13.6123000   -0.151660908297
     26   S      51             1.2612200    1.053515343452

     27   S      52             0.3708000    1.000000000000

     28   P      53            21.9305000    0.070356827475
     28   P      54             4.7855200    0.356742371235
     28   P      55             1.2837800    0.719732016372

     29   P      56             0.3115580    1.000000000000

     30   D      57             1.1000000    1.000000000000

 H         

     34   S      58            12.2518000    0.037217389296
     34   S      59             1.8687100    0.253808206955
     34   S      60             0.4182080    0.797386763917

     35   S      61             0.1061000    1.000000000000

     36   P      62             1.0000000    1.000000000000

 TOTAL NUMBER OF BASIS SET SHELLS             =   36
 NUMBER OF CARTESIAN GAUSSIAN BASIS FUNCTIONS =   80
 NOTE: THIS RUN WILL RESTRICT THE MO VARIATION SPACE TO SPHERICAL HARMONICS.
 THE NUMBER OF ORBITALS KEPT IN THE VARIATIONAL SPACE WILL BE PRINTED LATER.
 NUMBER OF ELECTRONS                          =   34
 CHARGE OF MOLECULE                           =    0
 SPIN MULTIPLICITY                            =    1
 NUMBER OF OCCUPIED ORBITALS (ALPHA)          =   17
 NUMBER OF OCCUPIED ORBITALS (BETA )          =   17
 TOTAL NUMBER OF ATOMS                        =    8
 THE NUCLEAR REPULSION ENERGY IS      127.3160891021

     LEBEDEV GRID-BASED DFT OPTIONS
     ------------------------------
     DFTTYP=PBE     
     NRAD  =      96     NLEB  =     302
     NRAD0 =      24     NLEB0 =     110
     SWOFF =    5.00E-03 (PURE SCF -> DFT)
     SWITCH=    3.00E-04 (COARSE -> TIGHT GRID)
     THRESH=    0.00E+00 GTHRE=    1.00E+00

 GRIMME'S EMPIRICAL DISPERSION CORRECTION= F

     $CONTRL OPTIONS
     ---------------
 SCFTYP=RHF          RUNTYP=OPTIMIZE     EXETYP=RUN     
 MPLEVL=       0     CITYP =NONE         CCTYP =NONE         VBTYP =NONE    
 DFTTYP=PBE          TDDFT =NONE    
 MULT  =       1     ICHARG=       0     NZVAR =      18     COORD =ZMT     
 PP    =NONE         RELWFN=NONE         LOCAL =NONE         NUMGRD=       F
 ISPHER=       1     NOSYM =       0     MAXIT =      30     UNITS =ANGS    
 PLTORB=       F     MOLPLT=       F     AIMPAC=       F     FRIEND=        
 NPRINT=       7     IREST =       0     GEOM  =INPUT   
 NORMF =       0     NORMP =       0     ITOL  =      20     ICUT  =       9
 INTTYP=BEST         GRDTYP=BEST         QMTTOL= 1.0E-06

     $SYSTEM OPTIONS
     ---------------
  REPLICATED MEMORY=     1000000 WORDS (ON EVERY NODE).
 DISTRIBUTED MEMDDI=           0 MILLION WORDS IN AGGREGATE,
 MEMDDI DISTRIBUTED OVER   1 PROCESSORS IS           0 WORDS/PROCESSOR.
 TOTAL MEMORY REQUESTED ON EACH PROCESSOR=     1000000 WORDS.
 TIMLIM=      525600.00 MINUTES, OR     365.0 DAYS.
 PARALL= F  BALTYP=  DLB     KDIAG=    0  COREFL= F
 MXSEQ2=     300 MXSEQ3=     150  mem10=         0

          ----------------
          PROPERTIES INPUT
          ----------------

     MOMENTS            FIELD           POTENTIAL          DENSITY
 IEMOM =       1   IEFLD =       0   IEPOT =       0   IEDEN =       0
 WHERE =COMASS     WHERE =NUCLEI     WHERE =NUCLEI     WHERE =NUCLEI  
 OUTPUT=BOTH       OUTPUT=BOTH       OUTPUT=BOTH       OUTPUT=BOTH    
 IEMINT=       0   IEFINT=       0                     IEDINT=       0
                                                       MORB  =       0
          EXTRAPOLATION IN EFFECT
          DIIS IN EFFECT
 ORBITAL PRINTING OPTION: NPREO=     1    80     2     1

     -------------------------------
     INTEGRAL TRANSFORMATION OPTIONS
     -------------------------------
     NWORD  =            0
     CUTOFF = 1.0E-09     MPTRAN =       0
     DIRTRF =       F     AOINTS =DUP     

          ----------------------
          INTEGRAL INPUT OPTIONS
          ----------------------
 NOPK  =       1 NORDER=       0 SCHWRZ=       T

   --- ENCODED Z MATRIX ---
 COORD  TYPE   I   J   K   L   M   N
    1      1    2   1
    2      1    3   2
    3      2    3   2   1
    4      1    5   2
    5      2    5   2   1
    6      3    5   2   1   3
    7      1    4   2
    8      2    4   2   1
    9      3    4   2   1   3
   10      1    6   1
   11      2    6   1   2
   12      3    6   1   2   3
   13      1    8   1
   14      2    8   1   2
   15      3    8   1   2   6
   16      1    7   1
   17      2    7   1   2
   18      3    7   1   2   6

 THE DETERMINANT OF THE G MATRIX IS 10**(   -12)


                     --------------------
                     INTERNAL COORDINATES
                     --------------------

                 - - ATOMS - -         COORDINATE      COORDINATE
 NO.   TYPE    I  J  K  L  M  N        (BOHR,RAD)       (ANG,DEG)
 ----------------------------------------------------------------
   1 STRETCH   2  1                     2.8345890       1.5000000
   2 STRETCH   3  2                     2.6456164       1.4000000
   3 BEND      3  2  1                  1.9118710     109.5421400
   4 STRETCH   5  2                     2.0786986       1.1000000
   5 BEND      5  2  1                  1.9118710     109.5421400
   6 TORSION   5  2  1  3               2.0943951     120.0000000
   7 STRETCH   4  2                     2.0786986       1.1000000
   8 BEND      4  2  1                  1.9118710     109.5421400
   9 TORSION   4  2  1  3              -2.0943951    -120.0000000
  10 STRETCH   6  1                     2.8345890       1.5000000
  11 BEND      6  1  2                  1.9118710     109.5421400
  12 TORSION   6  1  2  3               0.0000000       0.0000000
  13 STRETCH   8  1                     2.0786986       1.1000000
  14 BEND      8  1  2                  1.9118710     109.5421400
  15 TORSION   8  1  2  6               2.0943951     120.0000000
  16 STRETCH   7  1                     2.0786986       1.1000000
  17 BEND      7  1  2                  1.9118710     109.5421400
  18 TORSION   7  1  2  6              -2.0943951    -120.0000000

     ------------------------------------------
     THE POINT GROUP IS CS , NAXIS= 0, ORDER= 2
     ------------------------------------------

 -- VARIATIONAL SPACE WILL BE RESTRICTED TO PURE SPHERICAL HARMONICS ONLY --
 AFTER EXCLUDING CONTAMINANT COMBINATIONS FROM THE CARTESIAN GAUSSIAN BASIS
 SET, THE NUMBER OF SPHERICAL HARMONICS KEPT IN THE VARIATION SPACE IS   76

     DIMENSIONS OF THE SYMMETRY SUBSPACES ARE
 A'  =   50     A'' =   26

 ..... DONE SETTING UP THE RUN .....
 STEP CPU TIME =     0.02 TOTAL CPU TIME =          0.0 (      0.0 MIN)
 TOTAL WALL CLOCK TIME=          0.0 SECONDS, CPU UTILIZATION IS    66.67%


          -----------------------------
          STATIONARY POINT LOCATION RUN
          -----------------------------

 OBTAINING INITIAL HESSIAN, HESS=GUESS   
 DIAGONAL GUESS HESSIAN IN INTERNAL COORDS IS
     1  0.3892     2  0.3267     3  0.2379     4  0.3397     5  0.2253
     6  0.2500     7  0.3397     8  0.2253     9  0.2500    10  0.2690
    11  0.2315    12  0.2500    13  0.3397    14  0.2253    15  0.2500
    16  0.3397    17  0.2253    18  0.2500

          PARAMETERS CONTROLLING GEOMETRY SEARCH ARE
          METHOD =QA                  UPHESS =BFGS    
          NNEG   =         0          NFRZ   =         0
          NSTEP  =        50          IFOLOW =         1
          HESS   =GUESS               RESTAR =         F
          IHREP  =         0          HSSEND =         F
          NPRT   =         0          NPUN   =         0
          OPTTOL = 1.000E-04          RMIN   = 1.500E-03
          RMAX   = 1.000E-01          RLIM   = 7.000E-02
          DXMAX  = 3.000E-01          PURIFY =         F
          MOVIE  =         F          TRUPD  =         T
          TRMAX  = 5.000E-01          TRMIN  = 5.000E-02
          ITBMAT =         5          STPT   =         F
          STSTEP = 1.000E-02          PROJCT=          T

 BEGINNING GEOMETRY SEARCH POINT NSERCH=   0 ...

 COORDINATES OF SYMMETRY UNIQUE ATOMS (ANGS)
   ATOM   CHARGE       X              Y              Z
 ------------------------------------------------------------
 C           6.0  -0.6925072820  -0.7988605244   0.0000000000
 C           6.0   0.8046473489  -0.7065132927   0.0000000000
 F           9.0   1.1908333207   0.6391688374   0.0000000000
 H           1.0   1.2038095841  -1.2011949591   0.8977525043
 F           9.0  -1.2803332391   0.5811614480   0.0000000000
 H           1.0  -1.0278492503  -1.3388477513  -0.8977525043
 COORDINATES OF ALL ATOMS ARE (ANGS)
   ATOM   CHARGE       X              Y              Z
 ------------------------------------------------------------
 C           6.0  -0.6925072820  -0.7988605244   0.0000000000
 C           6.0   0.8046473489  -0.7065132927   0.0000000000
 F           9.0   1.1908333207   0.6391688374   0.0000000000
 H           1.0   1.2038095841  -1.2011949591  -0.8977525043
 H           1.0   1.2038095841  -1.2011949591   0.8977525043
 F           9.0  -1.2803332391   0.5811614480   0.0000000000
 H           1.0  -1.0278492503  -1.3388477513   0.8977525043
 H           1.0  -1.0278492503  -1.3388477513  -0.8977525043


                     --------------------
                     INTERNAL COORDINATES
                     --------------------

                 - - ATOMS - -         COORDINATE      COORDINATE
 NO.   TYPE    I  J  K  L  M  N        (BOHR,RAD)       (ANG,DEG)
 ----------------------------------------------------------------
   1 STRETCH   2  1                     2.8345890       1.5000000
   2 STRETCH   3  2                     2.6456164       1.4000000
   3 BEND      3  2  1                  1.9118710     109.5421400
   4 STRETCH   5  2                     2.0786986       1.1000000
   5 BEND      5  2  1                  1.9118710     109.5421400
   6 TORSION   5  2  1  3               2.0943951     120.0000000
   7 STRETCH   4  2                     2.0786986       1.1000000
   8 BEND      4  2  1                  1.9118710     109.5421400
   9 TORSION   4  2  1  3              -2.0943951    -120.0000000
  10 STRETCH   6  1                     2.8345890       1.5000000
  11 BEND      6  1  2                  1.9118710     109.5421400
  12 TORSION   6  1  2  3               0.0000000       0.0000000
  13 STRETCH   8  1                     2.0786986       1.1000000
  14 BEND      8  1  2                  1.9118710     109.5421400
  15 TORSION   8  1  2  6               2.0943951     120.0000000
  16 STRETCH   7  1                     2.0786986       1.1000000
  17 BEND      7  1  2                  1.9118710     109.5421400
  18 TORSION   7  1  2  6              -2.0943951    -120.0000000

 THE CURRENT FULLY SUBSTITUTED Z-MATRIX IS
 C   
 C      1   1.5000000
 F      2   1.4000000  1   109.5421400
 H      2   1.1000000  1   109.5421400  3   120.0000000  0
 H      2   1.1000000  1   109.5421400  3  -120.0000000  0
 F      1   1.5000000  2   109.5421400  3     0.0000000  0
 H      1   1.1000000  2   109.5421400  6   120.0000000  0
 H      1   1.1000000  2   109.5421400  6  -120.0000000  0

          ********************
          1 ELECTRON INTEGRALS
          ********************
 ...... END OF ONE-ELECTRON INTEGRALS ......
 STEP CPU TIME =     0.00 TOTAL CPU TIME =          0.0 (      0.0 MIN)
 TOTAL WALL CLOCK TIME=          0.0 SECONDS, CPU UTILIZATION IS    50.00%

          -------------
          GUESS OPTIONS
          -------------
          GUESS =HUCKEL            NORB  =       0          NORDER=       0
          MIX   =       F          PRTMO =       F          PUNMO =       F
          TOLZ  = 1.0E-08          TOLE  = 1.0E-05
          SYMDEN=       F          PURIFY=       F

 INITIAL GUESS ORBITALS GENERATED BY HUCKEL   ROUTINE.
 HUCKEL GUESS REQUIRES     54920 WORDS.

 STATISTICS FOR GENERATION OF SYMMETRY ORBITAL -Q- MATRIX
 NUMBER OF CARTESIAN ATOMIC ORBITALS=         80
 NUMBER OF SPHERICAL CONTAMINANTS DROPPED=     4
 NUMBER OF LINEARLY DEPENDENT MOS DROPPED=     0
 TOTAL NUMBER OF MOS IN VARIATION SPACE=      76

 SYMMETRIES FOR INITIAL GUESS ORBITALS FOLLOW.   BOTH SET(S).
    17 ORBITALS ARE OCCUPIED (    4 CORE ORBITALS).
     5=A'       6=A'       7=A'       8=A'       9=A''     10=A'      11=A'  
    12=A''     13=A'      14=A'      15=A''     16=A''     17=A'      18=A'  
    19=A''     20=A'      21=A'      22=A''     23=A'      24=A'      25=A'  
    26=A'      27=A'  
 ...... END OF INITIAL ORBITAL SELECTION ......
 STEP CPU TIME =     0.02 TOTAL CPU TIME =          0.0 (      0.0 MIN)
 TOTAL WALL CLOCK TIME=          0.1 SECONDS, CPU UTILIZATION IS    66.67%

                    ----------------------
                    AO INTEGRAL TECHNOLOGY
                    ----------------------
     S,P,L SHELL ROTATED AXIS INTEGRALS, REPROGRAMMED BY
        KAZUYA ISHIMURA (IMS) AND JOSE SIERRA (SYNSTAR).
     S,P,D,L SHELL ROTATED AXIS INTEGRALS PROGRAMMED BY
        KAZUYA ISHIMURA (INSTITUTE FOR MOLECULAR SCIENCE).
     S,P,D,F,G SHELL TO TOTAL QUARTET ANGULAR MOMENTUM SUM 5,
        ERIC PROGRAM BY GRAHAM FLETCHER (ELORET AND NASA ADVANCED
        SUPERCOMPUTING DIVISION, AMES RESEARCH CENTER).
     S,P,D,F,G,L SHELL GENERAL RYS QUADRATURE PROGRAMMED BY
        MICHEL DUPUIS (PACIFIC NORTHWEST NATIONAL LABORATORY).

          --------------------
          2 ELECTRON INTEGRALS
          --------------------

 THE -PK- OPTION IS OFF, THE INTEGRALS ARE NOT IN SUPERMATRIX FORM.
 STORING   15000 INTEGRALS/RECORD ON DISK, USING 12 BYTES/INTEGRAL.
 TWO ELECTRON INTEGRAL EVALUATION REQUIRES   91062 WORDS OF MEMORY.
 SCHWARZ INEQUALITY OVERHEAD:      3237 INTEGRALS, T=        0.01
 II,JST,KST,LST =  1  1  1  1 NREC =         1 INTLOC =    1
 II,JST,KST,LST =  2  1  1  1 NREC =         1 INTLOC =    2
 II,JST,KST,LST =  3  1  1  1 NREC =         1 INTLOC =    7
 II,JST,KST,LST =  4  1  1  1 NREC =         1 INTLOC =   22
 II,JST,KST,LST =  5  1  1  1 NREC =         1 INTLOC =   67
 II,JST,KST,LST =  6  1  1  1 NREC =         1 INTLOC =  214
 II,JST,KST,LST =  7  1  1  1 NREC =         1 INTLOC = 1189
 II,JST,KST,LST =  8  1  1  1 NREC =         1 INTLOC = 2348
 II,JST,KST,LST =  9  1  1  1 NREC =         1 INTLOC = 3785
 II,JST,KST,LST = 10  1  1  1 NREC =         1 INTLOC = 5522
 II,JST,KST,LST = 11  1  1  1 NREC =         1 INTLOC =11883
 II,JST,KST,LST = 12  1  1  1 NREC =         2 INTLOC = 6271
 II,JST,KST,LST = 13  1  1  1 NREC =         4 INTLOC = 6986
 II,JST,KST,LST = 14  1  1  1 NREC =         4 INTLOC =14077
 II,JST,KST,LST = 15  1  1  1 NREC =         5 INTLOC = 7989
 II,JST,KST,LST = 16  1  1  1 NREC =         6 INTLOC = 3188
 II,JST,KST,LST = 17  1  1  1 NREC =         8 INTLOC = 5799
 II,JST,KST,LST = 18  1  1  1 NREC =        11 INTLOC = 3198
 II,JST,KST,LST = 19  1  1  1 NREC =        18 INTLOC =13839
 II,JST,KST,LST = 20  1  1  1 NREC =        18 INTLOC =13839
 II,JST,KST,LST = 21  1  1  1 NREC =        18 INTLOC =13839
 II,JST,KST,LST = 22  1  1  1 NREC =        18 INTLOC =13839
 II,JST,KST,LST = 23  1  1  1 NREC =        22 INTLOC = 3783
 II,JST,KST,LST = 24  1  1  1 NREC =        26 INTLOC =  614
 II,JST,KST,LST = 25  1  1  1 NREC =        40 INTLOC = 7057
 II,JST,KST,LST = 26  1  1  1 NREC =        42 INTLOC = 2831
 II,JST,KST,LST = 27  1  1  1 NREC =        44 INTLOC =13340
 II,JST,KST,LST = 28  1  1  1 NREC =        48 INTLOC = 4175
 II,JST,KST,LST = 29  1  1  1 NREC =        57 INTLOC = 3542
 II,JST,KST,LST = 30  1  1  1 NREC =        69 INTLOC = 8010
 II,JST,KST,LST = 31  1  1  1 NREC =        97 INTLOC =  115
 II,JST,KST,LST = 32  1  1  1 NREC =        97 INTLOC =  115
 II,JST,KST,LST = 33  1  1  1 NREC =        97 INTLOC =  115
 II,JST,KST,LST = 34  1  1  1 NREC =        97 INTLOC =  115
 II,JST,KST,LST = 35  1  1  1 NREC =       108 INTLOC = 6152
 II,JST,KST,LST = 36  1  1  1 NREC =       121 INTLOC = 2759
 SCHWARZ INEQUALITY TEST SKIPPED        8827 INTEGRAL BLOCKS.
 TOTAL NUMBER OF NONZERO TWO-ELECTRON INTEGRALS =             2405456
        161 INTEGRAL RECORDS WERE STORED ON DISK FILE  8.
  ...... END OF TWO-ELECTRON INTEGRALS .....
 STEP CPU TIME =     0.31 TOTAL CPU TIME =          0.3 (      0.0 MIN)
 TOTAL WALL CLOCK TIME=          0.4 SECONDS, CPU UTILIZATION IS    87.50%

          --------------------------
               R-PBE SCF CALCULATION
          --------------------------

     NUCLEAR ENERGY =       127.3160891021
     MAXIT =   30     NPUNCH=    2
     EXTRAP=T  DAMP=F  SHIFT=F  RSTRCT=F  DIIS=T  DEM=F  SOSCF=F
         DENSITY MATRIX CONVERGENCE THRESHOLD=  1.00E-05
     COARSE -> FINE DFT GRID SWITCH THRESHOLD=  3.00E-04 (SWITCH IN $DFT)
                   HF -> DFT SWITCH THRESHOLD=  5.00E-03 (SWOFF IN $DFT)
     MEMORY REQUIRED FOR RHF ITERS=    365468 WORDS.

 DFT CODE IS SWITCHING FROM THE FINE GRID NRAD= 96,  NLEB=  302
                      TO THE COARSE GRID NRAD0= 24, NLEB0=  110

     EXCHANGE FUNCTIONAL   =PBE       
     CORRELATION FUNCTIONAL=PBE       
     DFT THRESHOLD         =.172E-07
     GRID CHANGE THRESHOLD =.300E-03
 FOR AN EULER-MACLAURIN QUADRATURE USING  96 RADIAL POINTS:
 SMALLEST GAUSSIAN PRIMITIVE EXPONENT=        0.1061000000 OF TYPE -S-
 ON ATOM NUMBER   4 HAS RADIAL NORMALIZATION=  1.000000
  LARGEST GAUSSIAN PRIMITIVE EXPONENT=     2931.5500000000 OF TYPE -S-
 ON ATOM NUMBER   3 HAS RADIAL NORMALIZATION=  1.000000
 DFT IS SWITCHED OFF, PERFORMING PURE SCF UNTIL SWOFF THRESHOLD IS REACHED.

 ITER EX DEM     TOTAL ENERGY        E CHANGE  DENSITY CHANGE    DIIS ERROR
   1  0  0     -276.1121352798  -276.1121352798   0.193412330   0.781104919
          * * *   INITIATING DIIS PROCEDURE   * * *
   2  1  0     -276.7616762025    -0.6495409227   0.091085288   0.099524493
   3  2  0     -276.8031716080    -0.0414954054   0.048543173   0.065514688
   4  3  0     -276.8183877043    -0.0152160964   0.009058627   0.010212079
   5  4  0     -276.8191188865    -0.0007311822   0.002300630   0.002400855
 CONVERGED TO SWOFF, SO DFT CALCULATION IS NOW SWITCHED ON.
          * * *   INITIATING DIIS PROCEDURE   * * *
   6  5  0     -277.8886523976    -1.0695335111   0.112979965   0.079304010
   7  6  0     -277.9019229341    -0.0132705365   0.094039033   0.051263389
   8  7  0     -277.9000274591     0.0018954750   0.056336320   0.056992960
   9  8  0     -277.9173305080    -0.0173030489   0.007120892   0.006851445
  10  9  0     -277.9175839294    -0.0002534213   0.002191744   0.001938813
  11 10  0     -277.9175988709    -0.0000149415   0.000653914   0.000654262
  12 11  0     -277.9176011335    -0.0000022626   0.000095426   0.000100088
 DFT CODE IS SWITCHING BACK TO THE FINE GRID
          * * *   INITIATING DIIS PROCEDURE   * * *
  13 12  0     -277.9163055226     0.0012956109   0.004761031   0.003556553
  14 13  0     -277.9163499293    -0.0000444067   0.005126222   0.002237984
  15 14  0     -277.9163437482     0.0000061811   0.002941699   0.002744445
  16 15  0     -277.9163742169    -0.0000304686   0.000314544   0.000305804
  17 16  0     -277.9163744546    -0.0000002377   0.000143296   0.000138618
  18 17  0     -277.9163745283    -0.0000000737   0.000032524   0.000023855
  19 18  0     -277.9163745323    -0.0000000039   0.000006481   0.000004942
  20 19  0     -277.9163745324    -0.0000000002   0.000000712   0.000000337

          -----------------
          DENSITY CONVERGED
          -----------------
     TIME TO FORM FOCK OPERATORS=       7.4 SECONDS (       0.4 SEC/ITER)
     TIME TO SOLVE SCF EQUATIONS=       0.0 SECONDS (       0.0 SEC/ITER)

 FINAL R-PBE ENERGY IS     -277.9163745324 AFTER  20 ITERATIONS
 DFT EXCHANGE + CORRELATION ENERGY =       -32.9012169102
 TOTAL ELECTRON NUMBER             =        33.9999031255

          ------------
          EIGENVECTORS
          ------------

                      1          2          3          4          5
                  -24.2326   -24.2235    -9.9732    -9.9717    -1.0951
                     A'         A'         A'         A'         A'  
    1  C  1  S    0.000060  -0.000185   0.992687  -0.036377  -0.020858
    2  C  1  S    0.000149  -0.000979   0.036700  -0.002479   0.037364
    3  C  1  S   -0.004137   0.008946  -0.021865   0.006986   0.026844
    4  C  1  X   -0.000316  -0.000494  -0.000440  -0.000966   0.011114
    5  C  1  Y   -0.000134   0.000846   0.000097  -0.000178   0.021739
    6  C  1  Z    0.000000   0.000000   0.000000   0.000000   0.000000
    7  C  1  X   -0.001644   0.000266  -0.002696   0.002823   0.007792
    8  C  1  Y   -0.001636   0.004246   0.000890   0.000184   0.003822
    9  C  1  Z    0.000000   0.000000   0.000000   0.000000   0.000000
   10  C  1 XX   -0.000019  -0.000196  -0.000368  -0.000972   0.002524
   11  C  1 YY    0.000049   0.000512   0.000014   0.000480   0.001429
   12  C  1 ZZ   -0.000030  -0.000316   0.000353   0.000492  -0.003953
   13  C  1 XY   -0.000128  -0.000378   0.000093  -0.000130  -0.000301
   14  C  1 XZ    0.000000   0.000000   0.000000   0.000000   0.000000
   15  C  1 YZ    0.000000   0.000000   0.000000   0.000000   0.000000
   16  C  2  S   -0.000138   0.000056   0.036563   0.992637  -0.065218
   17  C  2  S   -0.000616   0.000163   0.000192   0.037081   0.122984
   18  C  2  S    0.010067  -0.003847   0.005723  -0.021623   0.017838
   19  C  2  X    0.000475   0.000266   0.001018   0.000458   0.019461
   20  C  2  Y    0.001098  -0.000121  -0.000021   0.000639   0.096511
   21  C  2  Z    0.000000   0.000000   0.000000   0.000000   0.000000
   22  C  2  X   -0.000822   0.001711  -0.002711   0.002726   0.004636
   23  C  2  Y    0.004231  -0.001441  -0.000037   0.001392   0.008061
   24  C  2  Z    0.000000   0.000000   0.000000   0.000000   0.000000
   25  C  2 XX   -0.000164  -0.000009  -0.001007  -0.000370  -0.006287
   26  C  2 YY    0.000295   0.000032   0.000500   0.000217   0.018083
   27  C  2 ZZ   -0.000131  -0.000023   0.000507   0.000152  -0.011796
   28  C  2 XY    0.000111   0.000139  -0.000050   0.000014   0.009028
   29  C  2 XZ    0.000000   0.000000   0.000000   0.000000   0.000000
   30  C  2 YZ    0.000000   0.000000   0.000000   0.000000   0.000000
   31  F  3  S    0.993080   0.002890   0.000008   0.000063  -0.230956
   32  F  3  S    0.034010  -0.000244  -0.000166   0.000427   0.469952
   33  F  3  S   -0.016883   0.001017  -0.000013  -0.000641   0.481461
   34  F  3  X   -0.000302   0.000082   0.000084   0.000109  -0.027945
   35  F  3  Y   -0.001191   0.000001   0.000051   0.000281  -0.095026
   36  F  3  Z    0.000000   0.000000   0.000000   0.000000   0.000000
   37  F  3  X    0.001048  -0.000145  -0.000325   0.000303  -0.012607
   38  F  3  Y    0.003693  -0.000263   0.000162   0.001929  -0.043989
   39  F  3  Z    0.000000   0.000000   0.000000   0.000000   0.000000
   40  F  3 XX    0.000228  -0.000053   0.000192   0.000457  -0.004499
   41  F  3 YY   -0.000419   0.000021  -0.000138  -0.001118   0.010784
   42  F  3 ZZ    0.000191   0.000032  -0.000054   0.000661  -0.006285
   43  F  3 XY   -0.000226   0.000000   0.000025  -0.000565   0.005980
   44  F  3 XZ    0.000000   0.000000   0.000000   0.000000   0.000000
   45  F  3 YZ    0.000000   0.000000   0.000000   0.000000   0.000000
   46  H  4  S   -0.000984   0.000207  -0.000376  -0.001221   0.022140
   47  H  4  S   -0.000123  -0.000148   0.000394   0.003448   0.001529
   48  H  4  X    0.000016  -0.000063  -0.000119   0.000359  -0.001552
   49  H  4  Y   -0.000420   0.000084  -0.000054  -0.000637   0.003218
   50  H  4  Z   -0.000033   0.000004  -0.000061  -0.001056   0.004005
   51  H  5  S   -0.000984   0.000207  -0.000376  -0.001221   0.022140
   52  H  5  S   -0.000123  -0.000148   0.000394   0.003448   0.001529
   53  H  5  X    0.000016  -0.000063  -0.000119   0.000359  -0.001552
   54  H  5  Y   -0.000420   0.000084  -0.000054  -0.000637   0.003218
   55  H  5  Z    0.000033  -0.000004   0.000061   0.001056  -0.004005
   56  F  6  S   -0.002889   0.993087   0.000046   0.000004  -0.051170
   57  F  6  S   -0.000432   0.033663   0.000358  -0.000179   0.102944
   58  F  6  S    0.001037  -0.015872   0.000097   0.000042   0.107050
   59  F  6  X   -0.000089   0.000420  -0.000057  -0.000089   0.011871
   60  F  6  Y    0.000023  -0.001072   0.000054   0.000030  -0.017386
   61  F  6  Z    0.000000   0.000000   0.000000   0.000000   0.000000
   62  F  6  X    0.000209  -0.001402  -0.000284   0.000305   0.006869
   63  F  6  Y   -0.000332   0.003317   0.001320   0.000040  -0.007713
   64  F  6  Z    0.000000   0.000000   0.000000   0.000000   0.000000
   65  F  6 XX   -0.000053   0.000160   0.000311   0.000145   0.000313
   66  F  6 YY    0.000028  -0.000352  -0.000928  -0.000061   0.001634
   67  F  6 ZZ    0.000025   0.000192   0.000617  -0.000084  -0.001948
   68  F  6 XY   -0.000012   0.000303   0.000714  -0.000037  -0.001971
   69  F  6 XZ    0.000000   0.000000   0.000000   0.000000   0.000000
   70  F  6 YZ    0.000000   0.000000   0.000000   0.000000   0.000000
   71  H  7  S    0.000224  -0.000801  -0.001232  -0.000263   0.005064
   72  H  7  S   -0.000151   0.000003   0.003534   0.000158  -0.000159
   73  H  7  X    0.000046   0.000068  -0.000268   0.000146   0.000205
   74  H  7  Y    0.000093  -0.000392  -0.000689   0.000012   0.000795
   75  H  7  Z   -0.000003  -0.000035   0.001077  -0.000016  -0.001080
   76  H  8  S    0.000224  -0.000801  -0.001232  -0.000263   0.005064
   77  H  8  S   -0.000151   0.000003   0.003534   0.000158  -0.000159
   78  H  8  X    0.000046   0.000068  -0.000268   0.000146   0.000205
   79  H  8  Y    0.000093  -0.000392  -0.000689   0.000012   0.000795
   80  H  8  Z    0.000003   0.000035  -0.001077   0.000016   0.001080

                      6          7          8          9         10
                   -1.0541    -0.7160    -0.5747    -0.4695    -0.4625
                     A'         A'         A'         A''        A'  
    1  C  1  S   -0.050210  -0.153811   0.128264   0.000000  -0.007650
    2  C  1  S    0.096905   0.314437  -0.279100   0.000000   0.032374
    3  C  1  S    0.016184   0.175607  -0.144717   0.000000  -0.011346
    4  C  1  X   -0.031162   0.106648   0.118904   0.000000   0.048981
    5  C  1  Y    0.071641  -0.041140   0.048146   0.000000   0.228595
    6  C  1  Z    0.000000   0.000000   0.000000   0.294173   0.000000
    7  C  1  X   -0.009084   0.032231   0.042819   0.000000   0.019904
    8  C  1  Y    0.010299  -0.022501   0.041679   0.000000   0.068011
    9  C  1  Z    0.000000   0.000000   0.000000   0.119792   0.000000
   10  C  1 XX   -0.004220   0.009811   0.009503   0.000000  -0.001229
   11  C  1 YY    0.012391  -0.005525  -0.005721   0.000000   0.009104
   12  C  1 ZZ   -0.008171  -0.004286  -0.003781   0.000000  -0.007875
   13  C  1 XY   -0.009840  -0.000270   0.000971   0.000000   0.006199
   14  C  1 XZ    0.000000   0.000000   0.000000   0.006927   0.000000
   15  C  1 YZ    0.000000   0.000000   0.000000  -0.002805   0.000000
   16  C  2  S    0.007242  -0.148726  -0.128797   0.000000   0.003621
   17  C  2  S   -0.016046   0.304176   0.282083   0.000000   0.010384
   18  C  2  S    0.014257   0.164284   0.133020   0.000000  -0.051707
   19  C  2  X   -0.021777  -0.106038   0.136727   0.000000  -0.102556
   20  C  2  Y   -0.020762  -0.055237  -0.019046   0.000000   0.304982
   21  C  2  Z    0.000000   0.000000   0.000000   0.333268   0.000000
   22  C  2  X   -0.008753  -0.030877   0.049960   0.000000  -0.044709
   23  C  2  Y   -0.002283  -0.028959  -0.039890   0.000000   0.072902
   24  C  2  Z    0.000000   0.000000   0.000000   0.135530   0.000000
   25  C  2 XX    0.004725   0.009914  -0.009755   0.000000  -0.003088
   26  C  2 YY   -0.005698  -0.005794   0.006629   0.000000   0.016066
   27  C  2 ZZ    0.000973  -0.004120   0.003126   0.000000  -0.012978
   28  C  2 XY   -0.003468   0.001615   0.000797   0.000000  -0.004386
   29  C  2 XZ    0.000000   0.000000   0.000000  -0.003690   0.000000
   30  C  2 YZ    0.000000   0.000000   0.000000   0.000332   0.000000
   31  F  3  S    0.057922   0.056836   0.052969   0.000000   0.040815
   32  F  3  S   -0.119361  -0.122785  -0.117699   0.000000  -0.083883
   33  F  3  S   -0.122593  -0.143940  -0.138929   0.000000  -0.131358
   34  F  3  X    0.000565  -0.037892  -0.015572   0.000000  -0.242356
   35  F  3  Y    0.021873  -0.077518  -0.200736   0.000000  -0.300916
   36  F  3  Z    0.000000   0.000000   0.000000   0.204967   0.000000
   37  F  3  X   -0.001363  -0.015290  -0.014646   0.000000  -0.147944
   38  F  3  Y    0.011485  -0.046095  -0.119856   0.000000  -0.182667
   39  F  3  Z    0.000000   0.000000   0.000000   0.120520   0.000000
   40  F  3 XX    0.002208  -0.001605  -0.005277   0.000000   0.000318
   41  F  3 YY   -0.003033   0.004307   0.009662   0.000000   0.005976
   42  F  3 ZZ    0.000825  -0.002702  -0.004385   0.000000  -0.006294
   43  F  3 XY   -0.001012   0.003513   0.001221   0.000000   0.012067
   44  F  3 XZ    0.000000   0.000000   0.000000  -0.003203   0.000000
   45  F  3 YZ    0.000000   0.000000   0.000000  -0.011574   0.000000
   46  H  4  S   -0.004512   0.111407   0.164326  -0.187885  -0.126182
   47  H  4  S   -0.001024  -0.003579   0.007812  -0.026161  -0.033206
   48  H  4  X    0.000277  -0.005838  -0.002579   0.007133   0.001840
   49  H  4  Y   -0.000659   0.003916   0.005486  -0.005776   0.002788
   50  H  4  Z   -0.000654   0.009289   0.011562  -0.003841  -0.007066
   51  H  5  S   -0.004512   0.111407   0.164326   0.187885  -0.126182
   52  H  5  S   -0.001024  -0.003579   0.007812   0.026161  -0.033206
   53  H  5  X    0.000277  -0.005838  -0.002579  -0.007133   0.001840
   54  H  5  Y   -0.000659   0.003916   0.005486   0.005776   0.002788
   55  H  5  Z    0.000654  -0.009289  -0.011562  -0.003841   0.007066
   56  F  6  S   -0.237105   0.050375  -0.043336   0.000000   0.031666
   57  F  6  S    0.483028  -0.108889   0.097601   0.000000  -0.065871
   58  F  6  S    0.504357  -0.126804   0.110807   0.000000  -0.102451
   59  F  6  X    0.029789   0.037090  -0.035969   0.000000   0.178364
   60  F  6  Y   -0.073549  -0.062485   0.146665   0.000000  -0.185351
   61  F  6  Z    0.000000   0.000000   0.000000   0.128598   0.000000
   62  F  6  X    0.014799   0.015986  -0.027682   0.000000   0.109896
   63  F  6  Y   -0.038834  -0.039266   0.090645   0.000000  -0.115969
   64  F  6  Z    0.000000   0.000000   0.000000   0.074750   0.000000
   65  F  6 XX   -0.003411  -0.001097   0.003492   0.000000   0.001943
   66  F  6 YY    0.009262   0.003517  -0.007224   0.000000   0.002553
   67  F  6 ZZ   -0.005851  -0.002421   0.003732   0.000000  -0.004495
   68  F  6 XY   -0.007623  -0.003638   0.003045   0.000000  -0.008379
   69  F  6 XZ    0.000000   0.000000   0.000000   0.003144   0.000000
   70  F  6 YZ    0.000000   0.000000   0.000000  -0.007010   0.000000
   71  H  7  S    0.018885   0.116302  -0.165590   0.168534  -0.079029
   72  H  7  S    0.002034  -0.003761  -0.008529   0.022155  -0.021604
   73  H  7  X    0.000840   0.005427  -0.002115   0.006114  -0.002113
   74  H  7  Y    0.002912   0.004873  -0.005614   0.005602   0.002474
   75  H  7  Z   -0.003185  -0.009802   0.011609  -0.003410   0.004451
   76  H  8  S    0.018885   0.116302  -0.165590  -0.168534  -0.079029
   77  H  8  S    0.002034  -0.003761  -0.008529  -0.022155  -0.021604
   78  H  8  X    0.000840   0.005427  -0.002115  -0.006114  -0.002113
   79  H  8  Y    0.002912   0.004873  -0.005614  -0.005602   0.002474
   80  H  8  Z    0.003185   0.009802  -0.011609  -0.003410  -0.004451

                     11         12         13         14         15
                   -0.4329    -0.4055    -0.3881    -0.3081    -0.3076
                     A'         A'         A''        A''        A'  
    1  C  1  S    0.008169  -0.012061   0.000000   0.000000  -0.026732
    2  C  1  S   -0.019351   0.017814   0.000000   0.000000   0.057418
    3  C  1  S   -0.017426   0.044336   0.000000   0.000000   0.164861
    4  C  1  X    0.323274   0.034964   0.000000   0.000000   0.103974
    5  C  1  Y    0.035889  -0.285320   0.000000   0.000000  -0.002776
    6  C  1  Z    0.000000   0.000000  -0.305050  -0.092211   0.000000
    7  C  1  X    0.121100  -0.006081   0.000000   0.000000   0.141938
    8  C  1  Y    0.030494  -0.076727   0.000000   0.000000  -0.025972
    9  C  1  Z    0.000000   0.000000  -0.140630   0.005334   0.000000
   10  C  1 XX    0.007400   0.002360   0.000000   0.000000  -0.009412
   11  C  1 YY   -0.003352  -0.015125   0.000000   0.000000   0.006824
   12  C  1 ZZ   -0.004048   0.012764   0.000000   0.000000   0.002588
   13  C  1 XY    0.006448   0.017428   0.000000   0.000000   0.009277
   14  C  1 XZ    0.000000   0.000000   0.014358  -0.009948   0.000000
   15  C  1 YZ    0.000000   0.000000   0.002288   0.019519   0.000000
   16  C  2  S   -0.010506   0.015458   0.000000   0.000000   0.018114
   17  C  2  S    0.019538  -0.030074   0.000000   0.000000  -0.033358
   18  C  2  S    0.040383  -0.051886   0.000000   0.000000  -0.141757
   19  C  2  X   -0.313587  -0.067348   0.000000   0.000000  -0.025165
   20  C  2  Y   -0.095755   0.189196   0.000000   0.000000   0.041159
   21  C  2  Z    0.000000   0.000000   0.226414  -0.150895   0.000000
   22  C  2  X   -0.118087  -0.044091   0.000000   0.000000   0.084094
   23  C  2  Y   -0.006905   0.041732   0.000000   0.000000   0.056322
   24  C  2  Z    0.000000   0.000000   0.107724  -0.036460   0.000000
   25  C  2 XX    0.007222  -0.004861   0.000000   0.000000   0.014876
   26  C  2 YY   -0.009032   0.015775   0.000000   0.000000  -0.009051
   27  C  2 ZZ    0.001810  -0.010914   0.000000   0.000000  -0.005825
   28  C  2 XY   -0.014433   0.014409   0.000000   0.000000   0.017088
   29  C  2 XZ    0.000000   0.000000   0.017423   0.004319   0.000000
   30  C  2 YZ    0.000000   0.000000   0.007426   0.023900   0.000000
   31  F  3  S   -0.019889   0.014571   0.000000   0.000000   0.005841
   32  F  3  S    0.039448  -0.027600   0.000000   0.000000  -0.011941
   33  F  3  S    0.062378  -0.044260   0.000000   0.000000  -0.028343
   34  F  3  X   -0.174651  -0.148819   0.000000   0.000000   0.489845
   35  F  3  Y    0.324862  -0.248975   0.000000   0.000000  -0.158013
   36  F  3  Z    0.000000   0.000000   0.321933   0.429967   0.000000
   37  F  3  X   -0.107973  -0.092809   0.000000   0.000000   0.323513
   38  F  3  Y    0.201428  -0.151262   0.000000   0.000000  -0.099176
   39  F  3  Z    0.000000   0.000000   0.207748   0.304021   0.000000
   40  F  3 XX    0.009716  -0.001872   0.000000   0.000000  -0.002922
   41  F  3 YY   -0.012960   0.005223   0.000000   0.000000   0.004324
   42  F  3 ZZ    0.003244  -0.003351   0.000000   0.000000  -0.001402
   43  F  3 XY    0.006803   0.006043   0.000000   0.000000  -0.011898
   44  F  3 XZ    0.000000   0.000000  -0.002274  -0.003512   0.000000
   45  F  3 YZ    0.000000   0.000000  -0.013466  -0.008112   0.000000
   46  H  4  S   -0.040900  -0.111132  -0.148737   0.146119  -0.066400
   47  H  4  S   -0.008732  -0.033950  -0.045210   0.071809  -0.029176
   48  H  4  X   -0.004913  -0.000248   0.001733  -0.005053   0.000123
   49  H  4  Y   -0.003748   0.001764  -0.005361   0.000490   0.000505
   50  H  4  Z   -0.002804  -0.005518  -0.002399   0.001194  -0.002384
   51  H  5  S   -0.040900  -0.111132   0.148737  -0.146119  -0.066400
   52  H  5  S   -0.008732  -0.033950   0.045210  -0.071809  -0.029176
   53  H  5  X   -0.004913  -0.000248  -0.001733   0.005053   0.000123
   54  H  5  Y   -0.003748   0.001764   0.005361  -0.000490   0.000505
   55  H  5  Z    0.002804   0.005518  -0.002399   0.001194   0.002384
   56  F  6  S   -0.011994  -0.030973   0.000000   0.000000  -0.005759
   57  F  6  S    0.024817   0.063321   0.000000   0.000000   0.012798
   58  F  6  S    0.036428   0.094885   0.000000   0.000000   0.022430
   59  F  6  X    0.128966  -0.206924   0.000000   0.000000   0.408890
   60  F  6  Y    0.217724   0.410175   0.000000   0.000000   0.206190
   61  F  6  Z    0.000000   0.000000  -0.262589   0.468090   0.000000
   62  F  6  X    0.078764  -0.131863   0.000000   0.000000   0.264132
   63  F  6  Y    0.139771   0.260219   0.000000   0.000000   0.130246
   64  F  6  Z    0.000000   0.000000  -0.166566   0.326070   0.000000
   65  F  6 XX    0.008498   0.002982   0.000000   0.000000   0.004649
   66  F  6 YY   -0.010296  -0.009236   0.000000   0.000000  -0.005874
   67  F  6 ZZ    0.001798   0.006253   0.000000   0.000000   0.001224
   68  F  6 XY   -0.003022   0.008918   0.000000   0.000000  -0.009316
   69  F  6 XZ    0.000000   0.000000  -0.003167   0.004466   0.000000
   70  F  6 YZ    0.000000   0.000000   0.010996  -0.008558   0.000000
   71  H  7  S   -0.102517   0.120338  -0.208850  -0.095219   0.015322
   72  H  7  S   -0.023935   0.037648  -0.061914  -0.053438   0.003084
   73  H  7  X    0.004669   0.002478  -0.003202  -0.004537   0.002227
   74  H  7  Y   -0.002818  -0.004432  -0.006667   0.000243  -0.000309
   75  H  7  Z    0.005926  -0.006019   0.003230   0.000448  -0.000178
   76  H  8  S   -0.102517   0.120338   0.208850   0.095219   0.015322
   77  H  8  S   -0.023935   0.037648   0.061914   0.053438   0.003084
   78  H  8  X    0.004669   0.002478   0.003202   0.004537   0.002227
   79  H  8  Y   -0.002818  -0.004432   0.006667  -0.000243  -0.000309
   80  H  8  Z   -0.005926   0.006019   0.003230   0.000448   0.000178

                     16         17         18         19         20
                   -0.2923    -0.2779    -0.0282     0.0131     0.0370
                     A'         A''        A'         A'         A'' 
    1  C  1  S    0.017508   0.000000  -0.055468  -0.085724   0.000000
    2  C  1  S   -0.053181   0.000000   0.161738   0.159581   0.000000
    3  C  1  S   -0.045518   0.000000   0.195392   1.162111   0.000000
    4  C  1  X   -0.262457   0.000000  -0.136826  -0.152683   0.000000
    5  C  1  Y   -0.082015   0.000000   0.379979  -0.079982   0.000000
    6  C  1  Z    0.000000  -0.202029   0.000000   0.000000  -0.289328
    7  C  1  X   -0.069917   0.000000  -0.201534  -0.346678   0.000000
    8  C  1  Y   -0.027579   0.000000   0.508265  -0.184649   0.000000
    9  C  1  Z    0.000000  -0.037650   0.000000   0.000000  -0.665479
   10  C  1 XX   -0.019875   0.000000   0.006409   0.011478   0.000000
   11  C  1 YY    0.013260   0.000000  -0.030310  -0.002498   0.000000
   12  C  1 ZZ    0.006615   0.000000   0.023901  -0.008980   0.000000
   13  C  1 XY    0.010796   0.000000   0.035298  -0.000848   0.000000
   14  C  1 XZ    0.000000   0.007876   0.000000   0.000000  -0.024725
   15  C  1 YZ    0.000000   0.019291   0.000000   0.000000  -0.019070
   16  C  2  S    0.018923   0.000000  -0.022806  -0.074247   0.000000
   17  C  2  S   -0.055681   0.000000   0.080327   0.129443   0.000000
   18  C  2  S   -0.076304   0.000000   0.023778   1.119415   0.000000
   19  C  2  X    0.273743   0.000000   0.057905   0.142259   0.000000
   20  C  2  Y   -0.042806   0.000000   0.247838  -0.112733   0.000000
   21  C  2  Z    0.000000   0.210385   0.000000   0.000000  -0.289522
   22  C  2  X    0.102367   0.000000   0.108953   0.329997   0.000000
   23  C  2  Y   -0.007236   0.000000   0.388919  -0.209747   0.000000
   24  C  2  Z    0.000000   0.046260   0.000000   0.000000  -0.661504
   25  C  2 XX   -0.015673   0.000000   0.012763   0.010100   0.000000
   26  C  2 YY    0.009786   0.000000  -0.033849   0.000309   0.000000
   27  C  2 ZZ    0.005888   0.000000   0.021087  -0.010409   0.000000
   28  C  2 XY   -0.013089   0.000000  -0.032892   0.002132   0.000000
   29  C  2 XZ    0.000000   0.009783   0.000000   0.000000   0.026858
   30  C  2 YZ    0.000000  -0.020200   0.000000   0.000000  -0.016032
   31  F  3  S    0.004027   0.000000   0.046296   0.000184   0.000000
   32  F  3  S   -0.012652   0.000000  -0.088929   0.004103   0.000000
   33  F  3  S   -0.001605   0.000000  -0.340840  -0.023972   0.000000
   34  F  3  X   -0.326093   0.000000   0.089996  -0.032088   0.000000
   35  F  3  Y    0.062813   0.000000   0.219540   0.066223   0.000000
   36  F  3  Z    0.000000  -0.375265   0.000000   0.000000   0.064530
   37  F  3  X   -0.242524   0.000000   0.097129  -0.051156   0.000000
   38  F  3  Y    0.046849   0.000000   0.204272   0.088592   0.000000
   39  F  3  Z    0.000000  -0.256822   0.000000   0.000000   0.086298
   40  F  3 XX    0.003189   0.000000  -0.000558  -0.000356   0.000000
   41  F  3 YY   -0.002672   0.000000   0.000601   0.003325   0.000000
   42  F  3 ZZ   -0.000517   0.000000  -0.000042  -0.002969   0.000000
   43  F  3 XY    0.002660   0.000000   0.000635  -0.001979   0.000000
   44  F  3 XZ    0.000000   0.001560   0.000000   0.000000   0.005075
   45  F  3 YZ    0.000000   0.004614   0.000000   0.000000   0.004343
   46  H  4  S    0.106126  -0.208209   0.061476  -0.043405  -0.093763
   47  H  4  S    0.059781  -0.109360   0.170430  -0.730575  -1.023610
   48  H  4  X    0.004630   0.002805   0.007171   0.002180  -0.007027
   49  H  4  Y   -0.000630  -0.002569   0.009829   0.004476   0.009911
   50  H  4  Z    0.004604  -0.001770  -0.006631   0.014116   0.010248
   51  H  5  S    0.106126   0.208209   0.061476  -0.043405   0.093763
   52  H  5  S    0.059781   0.109360   0.170430  -0.730575   1.023610
   53  H  5  X    0.004630  -0.002805   0.007171   0.002180   0.007027
   54  H  5  Y   -0.000630   0.002569   0.009829   0.004476  -0.009911
   55  H  5  Z   -0.004604  -0.001770   0.006631  -0.014116   0.010248
   56  F  6  S    0.002456   0.000000   0.059006   0.006328   0.000000
   57  F  6  S   -0.009417   0.000000  -0.112280  -0.009087   0.000000
   58  F  6  S    0.005597   0.000000  -0.417415  -0.060436   0.000000
   59  F  6  X    0.430477   0.000000  -0.151247   0.007603   0.000000
   60  F  6  Y    0.154834   0.000000   0.314614   0.101622   0.000000
   61  F  6  Z    0.000000   0.407073   0.000000   0.000000   0.054179
   62  F  6  X    0.308291   0.000000  -0.154082   0.023913   0.000000
   63  F  6  Y    0.107611   0.000000   0.293503   0.118823   0.000000
   64  F  6  Z    0.000000   0.277254   0.000000   0.000000   0.071513
   65  F  6 XX    0.004929   0.000000  -0.000996  -0.000948   0.000000
   66  F  6 YY   -0.004551   0.000000   0.001422   0.004138   0.000000
   67  F  6 ZZ   -0.000378   0.000000  -0.000426  -0.003191   0.000000
   68  F  6 XY   -0.004065   0.000000  -0.001652   0.000634   0.000000
   69  F  6 XZ    0.000000   0.002049   0.000000   0.000000  -0.004697
   70  F  6 YZ    0.000000  -0.004569   0.000000   0.000000   0.003284
   71  H  7  S    0.110512  -0.198275   0.036392  -0.054163   0.099788
   72  H  7  S    0.062605  -0.103776   0.091259  -0.766698   1.029597
   73  H  7  X   -0.004597  -0.002295  -0.009263  -0.003417  -0.005592
   74  H  7  Y   -0.001502  -0.002498   0.014058   0.006620  -0.011187
   75  H  7  Z   -0.004667   0.001667   0.007870  -0.013839   0.010133
   76  H  8  S    0.110512   0.198275   0.036392  -0.054163  -0.099788
   77  H  8  S    0.062605   0.103776   0.091259  -0.766698  -1.029597
   78  H  8  X   -0.004597   0.002295  -0.009263  -0.003417   0.005592
   79  H  8  Y   -0.001502   0.002498   0.014058   0.006620   0.011187
   80  H  8  Z    0.004667   0.001667  -0.007870   0.013839   0.010133

                     21         22         23         24         25
                    0.0677     0.1152     0.1244     0.1873     0.3427
                     A'         A'         A''        A'         A'  
    1  C  1  S    0.093161   0.026957   0.000000  -0.076140   0.004227
    2  C  1  S   -0.159152  -0.122459   0.000000   0.105881   0.021717
    3  C  1  S   -1.479308   0.473436   0.000000   1.753575   0.562037
    4  C  1  X    0.041413   0.207330   0.000000   0.349604   0.453821
    5  C  1  Y    0.092084  -0.342929   0.000000   0.199674  -0.190191
    6  C  1  Z    0.000000   0.000000  -0.315104   0.000000   0.000000
    7  C  1  X   -0.010977   0.559273   0.000000   1.968219  -0.895884
    8  C  1  Y    0.296986  -0.655218   0.000000   0.755987   0.142915
    9  C  1  Z    0.000000   0.000000  -1.084383   0.000000   0.000000
   10  C  1 XX    0.004959  -0.016454   0.000000  -0.044415   0.058259
   11  C  1 YY   -0.004770   0.023444   0.000000   0.007853  -0.002152
   12  C  1 ZZ   -0.000189  -0.006990   0.000000   0.036562  -0.056106
   13  C  1 XY    0.004563   0.007165   0.000000  -0.009874  -0.008055
   14  C  1 XZ    0.000000   0.000000   0.001426   0.000000   0.000000
   15  C  1 YZ    0.000000   0.000000  -0.007774   0.000000   0.000000
   16  C  2  S   -0.102665  -0.044844   0.000000   0.079176   0.007656
   17  C  2  S    0.183616   0.160877   0.000000  -0.115362   0.034343
   18  C  2  S    1.586797  -0.205849   0.000000  -1.814289   0.411109
   19  C  2  X    0.063815   0.174501   0.000000   0.389274  -0.431791
   20  C  2  Y   -0.055012   0.397590   0.000000  -0.150464  -0.214548
   21  C  2  Z    0.000000   0.000000   0.319808   0.000000   0.000000
   22  C  2  X    0.073484   0.613660   0.000000   2.010415   1.044617
   23  C  2  Y   -0.209779   0.944618   0.000000  -0.606803  -0.021750
   24  C  2  Z    0.000000   0.000000   1.089668   0.000000   0.000000
   25  C  2 XX   -0.002400   0.021419   0.000000   0.044064   0.053828
   26  C  2 YY   -0.001695  -0.038107   0.000000  -0.004982   0.009850
   27  C  2 ZZ    0.004095   0.016687   0.000000  -0.039082  -0.063678
   28  C  2 XY   -0.000978   0.001069   0.000000  -0.002933   0.016419
   29  C  2 XZ    0.000000   0.000000   0.000901   0.000000   0.000000
   30  C  2 YZ    0.000000   0.000000   0.008366   0.000000   0.000000
   31  F  3  S    0.009850   0.068881   0.000000  -0.020640  -0.000715
   32  F  3  S   -0.015263  -0.129651   0.000000   0.026398   0.021806
   33  F  3  S   -0.094106  -0.596761   0.000000   0.257342  -0.120484
   34  F  3  X    0.053193  -0.006505   0.000000  -0.132697  -0.109043
   35  F  3  Y    0.095563   0.289185   0.000000  -0.047935  -0.081106
   36  F  3  Z    0.000000   0.000000  -0.037497   0.000000   0.000000
   37  F  3  X    0.053901   0.006250   0.000000  -0.208390  -0.167630
   38  F  3  Y    0.121183   0.320430   0.000000  -0.094752   0.043625
   39  F  3  Z    0.000000   0.000000  -0.090525   0.000000   0.000000
   40  F  3 XX   -0.001696  -0.004659   0.000000   0.002874   0.014389
   41  F  3 YY    0.004040   0.006736   0.000000   0.002074  -0.017299
   42  F  3 ZZ   -0.002344  -0.002077   0.000000  -0.004948   0.002909
   43  F  3 XY    0.000329   0.001099   0.000000  -0.011174  -0.008514
   44  F  3 XZ    0.000000   0.000000  -0.003382   0.000000   0.000000
   45  F  3 YZ    0.000000   0.000000  -0.005731   0.000000   0.000000
   46  H  4  S   -0.046741  -0.015005   0.026019  -0.098805  -0.239957
   47  H  4  S   -0.998205   0.024851   1.530690  -0.628482  -0.019028
   48  H  4  X   -0.007707   0.009270   0.010384   0.014249   0.017281
   49  H  4  Y    0.005975   0.022386  -0.007992  -0.003322  -0.010158
   50  H  4  Z    0.008101  -0.006567  -0.009868   0.018514   0.013600
   51  H  5  S   -0.046741  -0.015005  -0.026019  -0.098805  -0.239957
   52  H  5  S   -0.998205   0.024851  -1.530690  -0.628482  -0.019028
   53  H  5  X   -0.007707   0.009270  -0.010384   0.014249   0.017281
   54  H  5  Y    0.005975   0.022386   0.007992  -0.003322  -0.010158
   55  H  5  Z   -0.008101   0.006567  -0.009868  -0.018514  -0.013600
   56  F  6  S    0.000382  -0.045127   0.000000   0.013926   0.007154
   57  F  6  S   -0.002129   0.088801   0.000000  -0.019604   0.010160
   58  F  6  S   -0.001089   0.360148   0.000000  -0.160762  -0.221131
   59  F  6  X    0.047167   0.005612   0.000000  -0.129041   0.121853
   60  F  6  Y   -0.047075  -0.227125   0.000000   0.026461  -0.054033
   61  F  6  Z    0.000000   0.000000   0.031279   0.000000   0.000000
   62  F  6  X    0.044142   0.010119   0.000000  -0.180571   0.113759
   63  F  6  Y   -0.058451  -0.224090   0.000000   0.046814   0.104886
   64  F  6  Z    0.000000   0.000000   0.074712   0.000000   0.000000
   65  F  6 XX    0.001153   0.004751   0.000000   0.000075   0.007891
   66  F  6 YY   -0.003374  -0.007208   0.000000  -0.003107  -0.013148
   67  F  6 ZZ    0.002222   0.002457   0.000000   0.003032   0.005258
   68  F  6 XY    0.001473   0.003012   0.000000  -0.010668   0.014917
   69  F  6 XZ    0.000000   0.000000  -0.003573   0.000000   0.000000
   70  F  6 YZ    0.000000   0.000000   0.004260   0.000000   0.000000
   71  H  7  S    0.056577   0.045403   0.031435   0.092673  -0.210571
   72  H  7  S    0.972088  -0.088290   1.519957   0.624607   0.049443
   73  H  7  X   -0.008508   0.008319  -0.009039   0.014617  -0.015351
   74  H  7  Y   -0.004519  -0.015759  -0.009625   0.002845  -0.007931
   75  H  7  Z    0.008757  -0.005429   0.009656   0.017644  -0.011447
   76  H  8  S    0.056577   0.045403  -0.031435   0.092673  -0.210571
   77  H  8  S    0.972088  -0.088290  -1.519957   0.624607   0.049443
   78  H  8  X   -0.008508   0.008319   0.009039   0.014617  -0.015351
   79  H  8  Y   -0.004519  -0.015759   0.009625   0.002845  -0.007931
   80  H  8  Z   -0.008757   0.005429   0.009656  -0.017644   0.011447

                     26         27         28         29         30
                    0.3638     0.3780     0.4146     0.4892     0.5203
                     A''        A'         A'         A'         A'  
    1  C  1  S    0.000000   0.030028  -0.017099   0.074518   0.053391
    2  C  1  S    0.000000  -0.277553   0.146721  -0.551741  -0.315085
    3  C  1  S    0.000000  -0.078070   0.006680   1.738814   0.382645
    4  C  1  X    0.000000   0.043394  -0.185566  -0.627467   0.423151
    5  C  1  Y    0.000000  -0.595301   0.434271  -0.009955   0.292483
    6  C  1  Z   -0.055110   0.000000   0.000000   0.000000   0.000000
    7  C  1  X    0.000000   0.119643   0.282125   1.897632  -0.515277
    8  C  1  Y    0.000000   1.089466  -1.380991   0.658748  -0.333967
    9  C  1  Z    0.582026   0.000000   0.000000   0.000000   0.000000
   10  C  1 XX    0.000000  -0.032814   0.015041   0.059633  -0.046051
   11  C  1 YY    0.000000  -0.001921  -0.008119  -0.059076  -0.016253
   12  C  1 ZZ    0.000000   0.034735  -0.006922  -0.000557   0.062304
   13  C  1 XY    0.000000  -0.050168  -0.002626   0.012206   0.065997
   14  C  1 XZ    0.075262   0.000000   0.000000   0.000000   0.000000
   15  C  1 YZ    0.076553   0.000000   0.000000   0.000000   0.000000
   16  C  2  S    0.000000   0.033254   0.028776  -0.063626   0.071813
   17  C  2  S    0.000000  -0.263200  -0.250213   0.481779  -0.447229
   18  C  2  S    0.000000  -0.001015   0.064085  -1.655376   0.693801
   19  C  2  X    0.000000   0.078822  -0.129512  -0.679831  -0.329906
   20  C  2  Y    0.000000  -0.466241  -0.670608  -0.016307   0.165839
   21  C  2  Z   -0.056781   0.000000   0.000000   0.000000   0.000000
   22  C  2  X    0.000000  -0.350524   0.098177   1.996760   0.137500
   23  C  2  Y    0.000000   0.459753   1.628543  -0.456098  -0.073946
   24  C  2  Z    0.562930   0.000000   0.000000   0.000000   0.000000
   25  C  2 XX    0.000000  -0.039121  -0.030516  -0.067244  -0.020889
   26  C  2 YY    0.000000   0.020300   0.037410   0.050063  -0.036137
   27  C  2 ZZ    0.000000   0.018820  -0.006894   0.017181   0.057025
   28  C  2 XY    0.000000   0.046580   0.025962  -0.023723  -0.063368
   29  C  2 XZ   -0.084613   0.000000   0.000000   0.000000   0.000000
   30  C  2 YZ    0.060444   0.000000   0.000000   0.000000   0.000000
   31  F  3  S    0.000000   0.004996   0.011426   0.007505  -0.025655
   32  F  3  S    0.000000   0.030979   0.063538  -0.049404   0.101187
   33  F  3  S    0.000000  -0.243576  -0.636427   0.114189   0.022972
   34  F  3  X    0.000000   0.007504  -0.141931   0.008141   0.011323
   35  F  3  Y    0.000000  -0.205287  -0.237682   0.027850  -0.061939
   36  F  3  Z   -0.146696   0.000000   0.000000   0.000000   0.000000
   37  F  3  X    0.000000   0.151798   0.020384  -0.105866  -0.066701
   38  F  3  Y    0.000000   0.005967   0.081077  -0.004504  -0.055202
   39  F  3  Z   -0.079351   0.000000   0.000000   0.000000   0.000000
   40  F  3 XX    0.000000   0.009798   0.012202   0.017038   0.007153
   41  F  3 YY    0.000000  -0.030696  -0.042744  -0.009651  -0.007786
   42  F  3 ZZ    0.000000   0.020899   0.030542  -0.007387   0.000633
   43  F  3 XY    0.000000  -0.018057  -0.024092   0.019282   0.010705
   44  F  3 XZ   -0.011073   0.000000   0.000000   0.000000   0.000000
   45  F  3 YZ   -0.003684   0.000000   0.000000   0.000000   0.000000
   46  H  4  S    0.537382   0.149235   0.111035  -0.193522   0.571334
   47  H  4  S   -0.127514   0.080783   0.141235  -0.439995  -0.431427
   48  H  4  X    0.025510  -0.013192  -0.021747  -0.023080   0.017913
   49  H  4  Y   -0.014152   0.007147   0.002942  -0.011954  -0.017102
   50  H  4  Z    0.005341  -0.000083   0.003460   0.011770  -0.056170
   51  H  5  S   -0.537382   0.149235   0.111035  -0.193522   0.571334
   52  H  5  S    0.127514   0.080783   0.141235  -0.439995  -0.431427
   53  H  5  X   -0.025510  -0.013192  -0.021747  -0.023080   0.017913
   54  H  5  Y    0.014152   0.007147   0.002942  -0.011954  -0.017102
   55  H  5  Z    0.005341   0.000083  -0.003460  -0.011770   0.056170
   56  F  6  S    0.000000   0.019541  -0.011853  -0.010713  -0.021058
   57  F  6  S    0.000000   0.012755  -0.042191   0.064250   0.079588
   58  F  6  S    0.000000  -0.463121   0.505358  -0.098109   0.056545
   59  F  6  X    0.000000   0.038963  -0.135584  -0.002077  -0.009103
   60  F  6  Y    0.000000  -0.203252   0.116490  -0.038419  -0.035663
   61  F  6  Z   -0.149248   0.000000   0.000000   0.000000   0.000000
   62  F  6  X    0.000000  -0.165001   0.025910  -0.102742   0.086239
   63  F  6  Y    0.000000   0.086557  -0.116314  -0.008136  -0.027031
   64  F  6  Z   -0.068875   0.000000   0.000000   0.000000   0.000000
   65  F  6 XX    0.000000   0.006764  -0.001757  -0.014995   0.011209
   66  F  6 YY    0.000000  -0.030955   0.021710   0.006990  -0.009090
   67  F  6 ZZ    0.000000   0.024192  -0.019953   0.008005  -0.002119
   68  F  6 XY    0.000000   0.024189  -0.018562   0.010818  -0.009796
   69  F  6 XZ    0.010312   0.000000   0.000000   0.000000   0.000000
   70  F  6 YZ   -0.005470   0.000000   0.000000   0.000000   0.000000
   71  H  7  S   -0.563820   0.215924  -0.138044   0.313207   0.518784
   72  H  7  S    0.156190   0.110799  -0.092958   0.342155  -0.543356
   73  H  7  X    0.022939   0.017926  -0.015379  -0.026224  -0.013110
   74  H  7  Y    0.019031   0.016068  -0.005367   0.006083  -0.019939
   75  H  7  Z    0.005350   0.003240  -0.002109   0.023024   0.054242
   76  H  8  S    0.563820   0.215924  -0.138044   0.313207   0.518784
   77  H  8  S   -0.156190   0.110799  -0.092958   0.342155  -0.543356
   78  H  8  X   -0.022939   0.017926  -0.015379  -0.026224  -0.013110
   79  H  8  Y   -0.019031   0.016068  -0.005367   0.006083  -0.019939
   80  H  8  Z    0.005350  -0.003240   0.002109  -0.023024  -0.054242

                     31         32         33         34         35
                    0.5321     0.5386     0.5770     0.5958     0.7522
                     A''        A''        A'         A''        A'  
    1  C  1  S    0.000000   0.000000  -0.071074   0.000000   0.025764
    2  C  1  S    0.000000   0.000000   0.532568   0.000000  -1.233096
    3  C  1  S    0.000000   0.000000  -0.089353   0.000000   2.366379
    4  C  1  X    0.000000   0.000000  -0.314374   0.000000  -0.109657
    5  C  1  Y    0.000000   0.000000  -0.347810   0.000000   0.121911
    6  C  1  Z   -0.392104   0.817076   0.000000   0.375112   0.000000
    7  C  1  X    0.000000   0.000000   1.304480   0.000000  -0.361625
    8  C  1  Y    0.000000   0.000000   0.566882   0.000000  -0.377040
    9  C  1  Z    0.709297  -1.234801   0.000000  -2.632371   0.000000
   10  C  1 XX    0.000000   0.000000   0.043036   0.000000  -0.065660
   11  C  1 YY    0.000000   0.000000   0.025452   0.000000   0.069539
   12  C  1 ZZ    0.000000   0.000000  -0.068488   0.000000  -0.003879
   13  C  1 XY    0.000000   0.000000  -0.018679   0.000000  -0.002576
   14  C  1 XZ   -0.050211   0.042554   0.000000   0.020639   0.000000
   15  C  1 YZ   -0.012574   0.116974   0.000000  -0.055019   0.000000
   16  C  2  S    0.000000   0.000000   0.074722   0.000000   0.019038
   17  C  2  S    0.000000   0.000000  -0.573705   0.000000  -1.217375
   18  C  2  S    0.000000   0.000000   0.142169   0.000000   2.613098
   19  C  2  X    0.000000   0.000000  -0.358408   0.000000   0.111261
   20  C  2  Y    0.000000   0.000000   0.297312   0.000000   0.191045
   21  C  2  Z   -0.863168  -0.276406   0.000000  -0.363676   0.000000
   22  C  2  X    0.000000   0.000000   1.369484   0.000000   0.312870
   23  C  2  Y    0.000000   0.000000  -0.400031   0.000000  -0.385359
   24  C  2  Z    1.453955   0.289954   0.000000   2.670228   0.000000
   25  C  2 XX    0.000000   0.000000  -0.044410   0.000000  -0.062911
   26  C  2 YY    0.000000   0.000000  -0.024873   0.000000   0.074016
   27  C  2 ZZ    0.000000   0.000000   0.069283   0.000000  -0.011106
   28  C  2 XY    0.000000   0.000000  -0.020873   0.000000  -0.009838
   29  C  2 XZ    0.077697   0.007269   0.000000  -0.000756   0.000000
   30  C  2 YZ   -0.086194  -0.072123   0.000000   0.049822   0.000000
   31  F  3  S    0.000000   0.000000  -0.006099   0.000000   0.042179
   32  F  3  S    0.000000   0.000000   0.029446   0.000000  -0.186753
   33  F  3  S    0.000000   0.000000  -0.013654   0.000000  -0.176506
   34  F  3  X    0.000000   0.000000   0.003375   0.000000   0.111812
   35  F  3  Y    0.000000   0.000000  -0.031822   0.000000  -0.075699
   36  F  3  Z   -0.002039   0.137297   0.000000  -0.238539   0.000000
   37  F  3  X    0.000000   0.000000  -0.062909   0.000000  -0.065271
   38  F  3  Y    0.000000   0.000000   0.027205   0.000000   0.307920
   39  F  3  Z   -0.111992  -0.041131   0.000000  -0.146776   0.000000
   40  F  3 XX    0.000000   0.000000   0.011560   0.000000   0.025753
   41  F  3 YY    0.000000   0.000000  -0.011534   0.000000  -0.033203
   42  F  3 ZZ    0.000000   0.000000  -0.000026   0.000000   0.007450
   43  F  3 XY    0.000000   0.000000   0.006326   0.000000  -0.009757
   44  F  3 XZ    0.000348   0.009542   0.000000   0.006847   0.000000
   45  F  3 YZ    0.024229   0.018142   0.000000  -0.012351   0.000000
   46  H  4  S   -0.380955  -0.370999   0.472401   0.418995  -0.342853
   47  H  4  S    1.434545   0.614623  -1.078007   1.159357  -0.646970
   48  H  4  X   -0.027985  -0.018809   0.013204  -0.026659  -0.004406
   49  H  4  Y    0.046418   0.037374  -0.013762  -0.029468  -0.041421
   50  H  4  Z    0.057731   0.011699  -0.069466   0.030023  -0.011206
   51  H  5  S    0.380955   0.370999   0.472401  -0.418995  -0.342853
   52  H  5  S   -1.434545  -0.614623  -1.078007  -1.159357  -0.646970
   53  H  5  X    0.027985   0.018809   0.013204   0.026659  -0.004406
   54  H  5  Y   -0.046418  -0.037374  -0.013762   0.029468  -0.041421
   55  H  5  Z    0.057731   0.011699   0.069466   0.030023   0.011206
   56  F  6  S    0.000000   0.000000   0.005393   0.000000   0.039446
   57  F  6  S    0.000000   0.000000  -0.027251   0.000000  -0.181452
   58  F  6  S    0.000000   0.000000   0.006922   0.000000  -0.124730
   59  F  6  X    0.000000   0.000000  -0.004856   0.000000  -0.104233
   60  F  6  Y    0.000000   0.000000   0.021153   0.000000  -0.062241
   61  F  6  Z   -0.095964  -0.078193   0.000000   0.243056   0.000000
   62  F  6  X    0.000000   0.000000  -0.057116   0.000000   0.045576
   63  F  6  Y    0.000000   0.000000  -0.037406   0.000000   0.263871
   64  F  6  Z   -0.034342   0.110971   0.000000   0.109772   0.000000
   65  F  6 XX    0.000000   0.000000  -0.010106   0.000000   0.021711
   66  F  6 YY    0.000000   0.000000   0.009641   0.000000  -0.028283
   67  F  6 ZZ    0.000000   0.000000   0.000465   0.000000   0.006572
   68  F  6 XY    0.000000   0.000000   0.000565   0.000000   0.015651
   69  F  6 XZ    0.006825   0.007471   0.000000   0.002380   0.000000
   70  F  6 YZ    0.001238  -0.023957   0.000000   0.018193   0.000000
   71  H  7  S    0.013128  -0.522167  -0.461947   0.390445  -0.305290
   72  H  7  S   -0.511935   1.445854   1.057955   1.156120  -0.649644
   73  H  7  X   -0.005361   0.024347   0.012180   0.035608   0.009832
   74  H  7  Y   -0.006624   0.062414   0.013978  -0.026017  -0.038490
   75  H  7  Z    0.030900  -0.050294  -0.067905  -0.030193   0.013386
   76  H  8  S   -0.013128   0.522167  -0.461947  -0.390445  -0.305290
   77  H  8  S    0.511935  -1.445854   1.057955  -1.156120  -0.649644
   78  H  8  X    0.005361  -0.024347   0.012180  -0.035608   0.009832
   79  H  8  Y    0.006624  -0.062414   0.013978   0.026017  -0.038490
   80  H  8  Z    0.030900  -0.050294   0.067905  -0.030193  -0.013386

                     36         37         38         39         40
                    0.8819     0.9599     0.9865     1.0224     1.1483
                     A'         A''        A'         A'         A'  
    1  C  1  S    0.001248   0.000000  -0.013012   0.027609   0.026417
    2  C  1  S   -0.277869   0.000000  -0.798901   0.128063   1.309627
    3  C  1  S    0.414909   0.000000   3.412505  -2.168618  -5.122383
    4  C  1  X   -0.034884   0.000000  -0.010481   0.046698  -0.159280
    5  C  1  Y    0.085175   0.000000   0.041933  -0.308311   0.159289
    6  C  1  Z    0.000000   0.080245   0.000000   0.000000   0.000000
    7  C  1  X    0.091264   0.000000   0.960870  -0.615986  -1.694717
    8  C  1  Y    0.043755   0.000000  -0.123406   0.052031   0.101376
    9  C  1  Z    0.000000  -0.354940   0.000000   0.000000   0.000000
   10  C  1 XX   -0.018392   0.000000   0.003756   0.015529  -0.063179
   11  C  1 YY   -0.079221   0.000000   0.068219  -0.136593   0.061301
   12  C  1 ZZ    0.097613   0.000000  -0.071975   0.121064   0.001878
   13  C  1 XY   -0.165099   0.000000   0.024582   0.102861  -0.006751
   14  C  1 XZ    0.000000  -0.215840   0.000000   0.000000   0.000000
   15  C  1 YZ    0.000000   0.098484   0.000000   0.000000   0.000000
   16  C  2  S    0.002132   0.000000   0.023213  -0.006877  -0.034599
   17  C  2  S   -0.299459   0.000000   0.306663  -0.740281  -1.282284
   18  C  2  S    0.611666   0.000000  -3.242384   2.298309   5.159634
   19  C  2  X    0.023728   0.000000  -0.027347  -0.025535  -0.115508
   20  C  2  Y    0.108535   0.000000  -0.347706  -0.138788  -0.112720
   21  C  2  Z    0.000000   0.059849   0.000000   0.000000   0.000000
   22  C  2  X   -0.155540   0.000000   0.899124  -0.678464  -1.670728
   23  C  2  Y    0.025718   0.000000   0.196367  -0.180893  -0.331339
   24  C  2  Z    0.000000  -0.337886   0.000000   0.000000   0.000000
   25  C  2 XX   -0.061833   0.000000   0.031814   0.041825   0.072339
   26  C  2 YY   -0.025124   0.000000  -0.183523  -0.048409  -0.069328
   27  C  2 ZZ    0.086956   0.000000   0.151709   0.006584  -0.003010
   28  C  2 XY    0.149191   0.000000  -0.057050  -0.072722   0.005043
   29  C  2 XZ    0.000000   0.201210   0.000000   0.000000   0.000000
   30  C  2 YZ    0.000000   0.112111   0.000000   0.000000   0.000000
   31  F  3  S    0.004807   0.000000  -0.072302  -0.005753   0.009721
   32  F  3  S    0.031876   0.000000   0.339215   0.030052  -0.041014
   33  F  3  S   -0.177263   0.000000   0.158848  -0.123941  -0.270443
   34  F  3  X   -0.555609   0.000000   0.121908   0.051437   0.024799
   35  F  3  Y    0.100357   0.000000   0.589569   0.269913   0.303231
   36  F  3  Z    0.000000  -0.545147   0.000000   0.000000   0.000000
   37  F  3  X    0.656569   0.000000  -0.311413  -0.026173   0.046549
   38  F  3  Y    0.002059   0.000000  -1.155808  -0.371545  -0.305397
   39  F  3  Z    0.000000   0.655325   0.000000   0.000000   0.000000
   40  F  3 XX   -0.028004   0.000000   0.022080   0.017609  -0.011117
   41  F  3 YY    0.009344   0.000000  -0.028505  -0.046400  -0.056184
   42  F  3 ZZ    0.018660   0.000000   0.006426   0.028792   0.067301
   43  F  3 XY   -0.002179   0.000000  -0.014876  -0.012893  -0.045220
   44  F  3 XZ    0.000000   0.004149   0.000000   0.000000   0.000000
   45  F  3 YZ    0.000000  -0.020400   0.000000   0.000000   0.000000
   46  H  4  S   -0.038080  -0.051050   0.241392  -0.272131  -0.523101
   47  H  4  S   -0.131013  -0.168337   0.197698  -0.142259  -0.219288
   48  H  4  X   -0.045843  -0.096790  -0.008300   0.018404   0.009786
   49  H  4  Y    0.043593  -0.071778   0.075782  -0.006884  -0.006359
   50  H  4  Z   -0.049364  -0.015302  -0.021346   0.002167  -0.011336
   51  H  5  S   -0.038080   0.051050   0.241392  -0.272131  -0.523101
   52  H  5  S   -0.131013   0.168337   0.197698  -0.142259  -0.219288
   53  H  5  X   -0.045843   0.096790  -0.008300   0.018404   0.009786
   54  H  5  Y    0.043593   0.071778   0.075782  -0.006884  -0.006359
   55  H  5  Z    0.049364  -0.015302   0.021346  -0.002167   0.011336
   56  F  6  S    0.001862   0.000000   0.034849  -0.067633  -0.007273
   57  F  6  S    0.037894   0.000000  -0.171495   0.379031   0.005128
   58  F  6  S   -0.139510   0.000000  -0.121053  -0.054828   0.277831
   59  F  6  X    0.530348   0.000000   0.068346  -0.194610   0.095144
   60  F  6  Y    0.174296   0.000000  -0.091576   0.610951  -0.401046
   61  F  6  Z    0.000000  -0.523203   0.000000   0.000000   0.000000
   62  F  6  X   -0.618095   0.000000  -0.215141   0.381482  -0.012322
   63  F  6  Y   -0.108390   0.000000   0.291481  -1.044710   0.408905
   64  F  6  Z    0.000000   0.628349   0.000000   0.000000   0.000000
[...]
   27  C  2 ZZ    0.001311   0.000000   0.010002  -0.037653   0.000000
   28  C  2 XY    0.000859   0.000000   0.003806  -0.003455   0.000000
   29  C  2 XZ    0.000000   0.000712   0.000000   0.000000  -0.086518
   30  C  2 YZ    0.000000   0.008902   0.000000   0.000000   0.055558
   31  F  3  S   -0.001091   0.000000   0.058960  -0.027620   0.000000
   32  F  3  S    0.005308   0.000000  -0.111333   0.043467   0.000000
   33  F  3  S   -0.004571   0.000000  -0.523705   0.301686   0.000000
   34  F  3  X    0.054803   0.000000  -0.024514  -0.136512   0.000000
   35  F  3  Y    0.045685   0.000000   0.250269  -0.072446   0.000000
   36  F  3  Z    0.000000  -0.039385   0.000000   0.000000  -0.135361
   37  F  3  X    0.053841   0.000000  -0.014819  -0.209369   0.000000
   38  F  3  Y    0.067984   0.000000   0.280581  -0.109938   0.000000
   39  F  3  Z    0.000000  -0.091029   0.000000   0.000000  -0.089286
   40  F  3 XX   -0.001141   0.000000  -0.005348   0.002001   0.000000
   41  F  3 YY    0.003176   0.000000   0.007901   0.002258   0.000000
   42  F  3 ZZ   -0.002034   0.000000  -0.002553  -0.004260   0.000000
   43  F  3 XY    0.000739   0.000000   0.000102  -0.011989   0.000000
   44  F  3 XZ    0.000000  -0.003930   0.000000   0.000000  -0.010757
   45  F  3 YZ    0.000000  -0.005772   0.000000   0.000000  -0.001437
   46  H  4  S   -0.052089   0.032013  -0.023982  -0.072289   0.542335
   47  H  4  S   -0.945810   1.471736  -0.170398  -0.590520  -0.132677
   48  H  4  X   -0.009720   0.010258   0.008775   0.014079   0.025683
   49  H  4  Y    0.002493  -0.007824   0.020593  -0.005379  -0.011421
   50  H  4  Z    0.008607  -0.009624  -0.002653   0.017681   0.005980
   51  H  5  S   -0.052089  -0.032013  -0.023982  -0.072289  -0.542335
   52  H  5  S   -0.945810  -1.471736  -0.170398  -0.590520   0.132677
   53  H  5  X   -0.009720  -0.010258   0.008775   0.014079  -0.025683
   54  H  5  Y    0.002493   0.007824   0.020593  -0.005379   0.011421
   55  H  5  Z   -0.008607  -0.009624   0.002653  -0.017681   0.005980
   56  F  6  S    0.000949   0.000000  -0.059016   0.027688   0.000000
   57  F  6  S   -0.005048   0.000000   0.111394  -0.043514   0.000000
   58  F  6  S    0.005793   0.000000   0.524519  -0.302783   0.000000
   59  F  6  X    0.058831   0.000000  -0.002767  -0.142250   0.000000
   60  F  6  Y   -0.041316   0.000000  -0.251485   0.060391   0.000000
   61  F  6  Z    0.000000   0.039313   0.000000   0.000000  -0.135392
   62  F  6  X    0.059877   0.000000   0.009545  -0.218207   0.000000
   63  F  6  Y   -0.063704   0.000000  -0.281033   0.091682   0.000000
   64  F  6  Z    0.000000   0.091015   0.000000   0.000000  -0.089232
   65  F  6 XX    0.001002   0.000000   0.005230  -0.000224   0.000000
   66  F  6 YY   -0.003041   0.000000  -0.007778  -0.004055   0.000000
   67  F  6 ZZ    0.002039   0.000000   0.002548   0.004279   0.000000
   68  F  6 XY    0.001160   0.000000   0.001409  -0.011775   0.000000
   69  F  6 XZ    0.000000  -0.004413   0.000000   0.000000   0.010851
   70  F  6 YZ    0.000000   0.005412   0.000000   0.000000  -0.000481
   71  H  7  S    0.052020   0.031930   0.023704   0.072500  -0.541983
   72  H  7  S    0.946028   1.471865   0.170879   0.590560   0.132265
   73  H  7  X   -0.009447  -0.009547   0.010540   0.013560   0.024615
   74  H  7  Y   -0.003354  -0.008672  -0.019770   0.006614   0.013601
   75  H  7  Z    0.008600   0.009627  -0.002647   0.017691   0.005977
   76  H  8  S    0.052020  -0.031930   0.023704   0.072500   0.541983
   77  H  8  S    0.946028  -1.471865   0.170879   0.590560  -0.132265
   78  H  8  X   -0.009447   0.009547   0.010540   0.013560  -0.024615
   79  H  8  Y   -0.003354   0.008672  -0.019770   0.006614  -0.013601
   80  H  8  Z   -0.008600   0.009627   0.002647  -0.017691   0.005977

                     26         27
                    0.3604     0.3946
                     A'         A'  
    1  C  1  S   -0.006578  -0.034212
    2  C  1  S    0.008854   0.284383
    3  C  1  S   -0.588541   0.042583
    4  C  1  X   -0.469826   0.021491
    5  C  1  Y    0.185089   0.569841
    6  C  1  Z    0.000000   0.000000
    7  C  1  X    0.983357  -0.253776
    8  C  1  Y    0.005694  -0.768736
    9  C  1  Z    0.000000   0.000000
   10  C  1 XX   -0.058407   0.037550
   11  C  1 YY   -0.007888  -0.019476
   12  C  1 ZZ    0.066295  -0.018074
   13  C  1 XY    0.013059   0.061031
   14  C  1 XZ    0.000000   0.000000
   15  C  1 YZ    0.000000   0.000000
   16  C  2  S   -0.006660  -0.034034
   17  C  2  S    0.009756   0.283146
   18  C  2  S   -0.591203   0.046123
   19  C  2  X    0.451471  -0.069768
   20  C  2  Y    0.225881   0.564981
   21  C  2  Z    0.000000   0.000000
   22  C  2  X   -0.977501   0.316138
   23  C  2  Y   -0.082588  -0.743527
   24  C  2  Z    0.000000   0.000000
   25  C  2 XX   -0.056106   0.046397
   26  C  2 YY   -0.010167  -0.028157
   27  C  2 ZZ    0.066273  -0.018240
   28  C  2 XY   -0.017973  -0.054362
   29  C  2 XZ    0.000000   0.000000
   30  C  2 YZ    0.000000   0.000000
   31  F  3  S   -0.001413  -0.008046
   32  F  3  S   -0.027205  -0.030016
   33  F  3  S    0.195244   0.326102
   34  F  3  X    0.121837   0.011514
   35  F  3  Y    0.088996   0.234246
   36  F  3  Z    0.000000   0.000000
   37  F  3  X    0.154437  -0.141139
   38  F  3  Y   -0.068143  -0.011723
   39  F  3  Z    0.000000   0.000000
   40  F  3 XX   -0.014464  -0.011505
   41  F  3 YY    0.019663   0.036316
   42  F  3 ZZ   -0.005200  -0.024811
   43  F  3 XY    0.011395   0.023537
   44  F  3 XZ    0.000000   0.000000
   45  F  3 YZ    0.000000   0.000000
   46  H  4  S    0.229948  -0.144638
   47  H  4  S    0.028182  -0.110474
   48  H  4  X   -0.019199   0.018426
   49  H  4  Y    0.011010  -0.007466
   50  H  4  Z   -0.011760  -0.001289
   51  H  5  S    0.229948  -0.144638
   52  H  5  S    0.028182  -0.110474
   53  H  5  X   -0.019199   0.018426
   54  H  5  Y    0.011010  -0.007466
   55  H  5  Z    0.011760   0.001289
   56  F  6  S   -0.001365  -0.007969
   57  F  6  S   -0.027166  -0.030324
   58  F  6  S    0.193973   0.326209
   59  F  6  X   -0.128920  -0.031909
   60  F  6  Y    0.077919   0.232912
   61  F  6  Z    0.000000   0.000000
   62  F  6  X   -0.148338   0.141647
   63  F  6  Y   -0.081004   0.000931
   64  F  6  Z    0.000000   0.000000
   65  F  6 XX   -0.012548  -0.007587
   66  F  6 YY    0.017696   0.032451
   67  F  6 ZZ   -0.005148  -0.024865
   68  F  6 XY   -0.014566  -0.028039
   69  F  6 XZ    0.000000   0.000000
   70  F  6 YZ    0.000000   0.000000
   71  H  7  S    0.230390  -0.144707
   72  H  7  S    0.028982  -0.110964
   73  H  7  X    0.018174  -0.017670
   74  H  7  Y    0.012674  -0.008980
   75  H  7  Z    0.011775   0.001318
   76  H  8  S    0.230390  -0.144707
   77  H  8  S    0.028982  -0.110964
   78  H  8  X    0.018174  -0.017670
   79  H  8  Y    0.012674  -0.008980
   80  H  8  Z   -0.011775  -0.001318

     ---------------------------------------------------------------------
     PROPERTIES FOR THE PBE      DFT FUNCTIONAL (RHF  TYPE) DENSITY MATRIX
     ---------------------------------------------------------------------

          -----------------
          ENERGY COMPONENTS
          -----------------

         WAVEFUNCTION NORMALIZATION =       1.0000000000

                ONE ELECTRON ENERGY =    -637.8727324218
                TWO ELECTRON ENERGY =     231.9367909831
           NUCLEAR REPULSION ENERGY =     128.0105935945
                                      ------------------
                       TOTAL ENERGY =    -277.9253478441

 ELECTRON-ELECTRON POTENTIAL ENERGY =     231.9367909831
  NUCLEUS-ELECTRON POTENTIAL ENERGY =    -914.9374556206
   NUCLEUS-NUCLEUS POTENTIAL ENERGY =     128.0105935945
                                      ------------------
             TOTAL POTENTIAL ENERGY =    -554.9900710430
               TOTAL KINETIC ENERGY =     277.0647231989
                 VIRIAL RATIO (V/T) =       2.0031062224

          ---------------------------------------
          MULLIKEN AND LOWDIN POPULATION ANALYSES
          ---------------------------------------

     ATOMIC MULLIKEN POPULATION IN EACH MOLECULAR ORBITAL

                      1          2          3          4          5

                  2.000000   2.000000   2.000000   2.000000   2.000000

    1             0.001207  -0.000026   1.283112   0.716723   0.118906
    2             0.000099   0.001080   0.716405   1.283429   0.116565
    3             0.213090   1.785747  -0.000198  -0.000337   0.865032
    4             0.000000  -0.000008   0.000212   0.000138   0.002979
    5             0.000000  -0.000008   0.000212   0.000138   0.002979
    6             1.785615   0.213221  -0.000351  -0.000185   0.887423
    7            -0.000006  -0.000003   0.000304   0.000047   0.003058
    8            -0.000006  -0.000003   0.000304   0.000047   0.003058

                      6          7          8          9         10

                  2.000000   2.000000   2.000000   2.000000   2.000000

    1             0.083720   0.701701   0.464944   0.526947   0.332656
    2             0.085811   0.701958   0.464827   0.525305   0.331478
    3             0.921165   0.148162   0.292694   0.211533   0.550801
    4             0.002751   0.074955   0.121039   0.130554   0.057859
    5             0.002751   0.074955   0.121039   0.130554   0.057859
    6             0.898435   0.148461   0.293372   0.213045   0.553125
    7             0.002683   0.074904   0.121043   0.131031   0.058112
    8             0.002683   0.074904   0.121043   0.131031   0.058112

                     11         12         13         14         15

                  2.000000   2.000000   2.000000   2.000000   2.000000

    1             0.454202   0.275797   0.308893   0.051921   0.088681
    2             0.454073   0.276813   0.310808   0.052156   0.088301
    3             0.509628   0.569003   0.463099   0.928493   0.762001
    4             0.017997   0.077995   0.114025   0.010000   0.074660
    5             0.017997   0.077995   0.114025   0.010000   0.074660
    6             0.510176   0.566893   0.462445   0.927280   0.761966
    7             0.017963   0.077751   0.113352   0.010075   0.074866
    8             0.017963   0.077751   0.113352   0.010075   0.074866

                     16         17

                  2.000000   2.000000

    1             0.301396   0.168563
    2             0.301477   0.168655
    3             0.576291   0.517264
    4             0.061250   0.157268
    5             0.061250   0.157268
    6             0.575947   0.516402
    7             0.061194   0.157290
    8             0.061194   0.157290

               ----- POPULATIONS IN EACH AO -----
                             MULLIKEN      LOWDIN
              1  C  1  S      1.99337     1.97156
              2  C  1  S      0.75829     0.38529
              3  C  1  S      0.37452     0.28345
              4  C  1  X      0.71741     0.65803
              5  C  1  Y      0.56500     0.51770
              6  C  1  Z      0.77688     0.69718
              7  C  1  X      0.21910     0.31126
              8  C  1  Y      0.11718     0.22713
              9  C  1  Z      0.29413     0.40145
             10  C  1 XX      0.00853     0.16032
             11  C  1 YY      0.01812     0.16251
             12  C  1 ZZ      0.01473     0.15268
             13  C  1 XY      0.00639     0.02806
             14  C  1 XZ      0.01567     0.01281
             15  C  1 YZ      0.00000     0.03786
             16  C  2  S      1.99337     1.97156
             17  C  2  S      0.75830     0.38535
             18  C  2  S      0.37456     0.28345
             19  C  2  X      0.73058     0.66875
             20  C  2  Y      0.55171     0.50683
             21  C  2  Z      0.77688     0.69720
             22  C  2  X      0.22964     0.32052
             23  C  2  Y      0.10668     0.21788
             24  C  2  Z      0.29415     0.40150
             25  C  2 XX      0.00852     0.15884
             26  C  2 YY      0.01823     0.16379
             27  C  2 ZZ      0.01458     0.15267
             28  C  2 XY      0.00648     0.02835
             29  C  2 XZ      0.01556     0.01377
             30  C  2 YZ      0.00000     0.03685
             31  F  3  S      1.99544     1.97165
             32  F  3  S      0.95049     0.75209
             33  F  3  S      0.99645     0.52493
             34  F  3  X      1.20164     1.17019
             35  F  3  Y      0.96946     0.91959
             36  F  3  Z      1.24092     1.21265
             37  F  3  X      0.68728     0.71011
             38  F  3  Y      0.55061     0.59734
             39  F  3  Z      0.71034     0.73357
             40  F  3 XX      0.00141     0.18940
             41  F  3 YY      0.00366     0.19751
             42  F  3 ZZ      0.00312     0.18819
             43  F  3 XY      0.00019     0.00459
             44  F  3 XZ      0.00244     0.00029
             45  F  3 YZ      0.00000     0.00396
             46  H  4  S      0.77373     0.65534
             47  H  4  S      0.11329     0.21571
             48  H  4  X      0.00414     0.01021
             49  H  4  Y      0.00373     0.00905
             50  H  4  Z      0.00879     0.01810
             51  H  5  S      0.77373     0.65534
             52  H  5  S      0.11329     0.21571
             53  H  5  X      0.00414     0.01021
             54  H  5  Y      0.00373     0.00905
             55  H  5  Z      0.00879     0.01810
             56  F  6  S      1.99544     1.97165
             57  F  6  S      0.95049     0.75200
             58  F  6  S      0.99633     0.52473
             59  F  6  X      1.18468     1.15218
             60  F  6  Y      0.98654     0.93750
             61  F  6  Z      1.24092     1.21266
             62  F  6  X      0.67774     0.70219
             63  F  6  Y      0.55999     0.60542
             64  F  6  Z      0.71029     0.73349
             65  F  6 XX      0.00141     0.18996
             66  F  6 YY      0.00335     0.19654
             67  F  6 ZZ      0.00344     0.18816
             68  F  6 XY      0.00032     0.00481
             69  F  6 XZ      0.00232     0.00049
             70  F  6 YZ      0.00000     0.00376
             71  H  7  S      0.77375     0.65540
             72  H  7  S      0.11326     0.21571
             73  H  7  X      0.00380     0.00957
             74  H  7  Y      0.00407     0.00970
             75  H  7  Z      0.00879     0.01812
             76  H  8  S      0.77375     0.65540
             77  H  8  S      0.11326     0.21571
             78  H  8  X      0.00380     0.00957
             79  H  8  Y      0.00407     0.00970
             80  H  8  Z      0.00879     0.01812

          ----- MULLIKEN ATOMIC OVERLAP POPULATIONS -----
          (OFF-DIAGONAL ELEMENTS NEED TO BE MULTIPLIED BY 2)

             1           2           3           4           5

    1    4.6417339
    2    0.3341380   4.6419645
    3   -0.0455785   0.2588781   9.1548302
    4   -0.0419629   0.3869403  -0.0297915   0.6313616
    5   -0.0419629   0.3869403  -0.0297915  -0.0424326   0.6313616
    6    0.2589496  -0.0456336   0.0008669   0.0020308   0.0020308
    7    0.3870133  -0.0419942   0.0020282   0.0090275  -0.0114985
    8    0.3870133  -0.0419942   0.0020282  -0.0114985   0.0090275

             6           7           8

    6    9.1546872
    7   -0.0298305   0.6313484
    8   -0.0298305  -0.0424303   0.6313484

          TOTAL MULLIKEN AND LOWDIN ATOMIC POPULATIONS
       ATOM         MULL.POP.    CHARGE          LOW.POP.     CHARGE
    1 C             5.879344    0.120656         6.007283   -0.007283
    2 C             5.879239    0.120761         6.007298   -0.007298
    3 F             9.313470   -0.313470         9.176063   -0.176063
    4 H             0.903675    0.096325         0.908408    0.091592
    5 H             0.903675    0.096325         0.908408    0.091592
    6 F             9.313271   -0.313271         9.175551   -0.175551
    7 H             0.903664    0.096336         0.908494    0.091506
    8 H             0.903664    0.096336         0.908494    0.091506

          MULLIKEN SPHERICAL HARMONIC POPULATIONS
       ATOM           S       P       D      F      G      H      I    TOTAL
    1 C             3.13    2.69    0.06   0.00   0.00   0.00   0.00    5.88
    2 C             3.13    2.69    0.06   0.00   0.00   0.00   0.00    5.88
    3 F             3.94    5.36    0.01   0.00   0.00   0.00   0.00    9.31
    4 H             0.89    0.02    0.00   0.00   0.00   0.00   0.00    0.90
    5 H             0.89    0.02    0.00   0.00   0.00   0.00   0.00    0.90
    6 F             3.94    5.36    0.01   0.00   0.00   0.00   0.00    9.31
    7 H             0.89    0.02    0.00   0.00   0.00   0.00   0.00    0.90
    8 H             0.89    0.02    0.00   0.00   0.00   0.00   0.00    0.90

          -------------------------------
          BOND ORDER AND VALENCE ANALYSIS     BOND ORDER THRESHOLD=0.050
          -------------------------------

                   BOND                       BOND                       BOND
  ATOM PAIR DIST  ORDER      ATOM PAIR DIST  ORDER      ATOM PAIR DIST  ORDER
    1   2  1.553  0.991        1   6  1.390  0.947        1   7  1.107  0.950
    1   8  1.107  0.950        2   3  1.390  0.947        2   4  1.107  0.950
    2   5  1.107  0.950

                       TOTAL       BONDED        FREE
      ATOM            VALENCE     VALENCE     VALENCE
    1 C                 3.834       3.834      -0.000
    2 C                 3.834       3.834      -0.000
    3 F                 0.996       0.996      -0.000
    4 H                 0.948       0.948      -0.000
    5 H                 0.948       0.948      -0.000
    6 F                 0.996       0.996      -0.000
    7 H                 0.948       0.948      -0.000
    8 H                 0.948       0.948      -0.000

          ---------------------
          ELECTROSTATIC MOMENTS
          ---------------------

 POINT   1           X           Y           Z (BOHR)    CHARGE
                -0.000000   -0.000000    0.000000       -0.00 (A.U.)
         DX          DY          DZ         /D/  (DEBYE)
     0.133206   -3.097514    0.000000    3.100377
 ...... END OF PROPERTY EVALUATION ......
 STEP CPU TIME =     0.03 TOTAL CPU TIME =         62.6 (      1.0 MIN)
 TOTAL WALL CLOCK TIME=         63.0 SECONDS, CPU UTILIZATION IS    99.32%
  $VIB   
          IVIB=   0 IATOM=   0 ICOORD=   0 E=     -277.9253478441
 -1.613361403E-05-1.126338081E-05 1.016439537E-20 4.659459953E-05 9.505407777E-07
  0.000000000E+00-1.545097153E-06 6.175310560E-05 9.742245939E-21-8.666106827E-06
 -3.198374780E-05 7.198088467E-07-8.666106827E-06-3.198374780E-05-7.198088467E-07
 -1.440628665E-05 2.774990921E-05-1.270549421E-20 1.411305974E-06-7.611339588E-06
  3.147545953E-06 1.411305974E-06-7.611339588E-06-3.147545953E-06
  1.332064500E-01-3.097513822E+00 1.693156282E-15
 ......END OF GEOMETRY SEARCH......
 STEP CPU TIME =     0.00 TOTAL CPU TIME =         62.6 (      1.0 MIN)
 TOTAL WALL CLOCK TIME=         63.0 SECONDS, CPU UTILIZATION IS    99.30%
                991181  WORDS OF DYNAMIC MEMORY USED
 EXECUTION OF GAMESS TERMINATED NORMALLY Sun Oct  6 23:09:56 2019
 DDI: 263640 bytes (0.3 MB / 0 MWords) used by master data server.

 ----------------------------------------
 CPU timing information for all processes
 ========================================
 0: 61.696 + 0.890 = 62.586
 ----------------------------------------
 ddikick.x: exited gracefully.
----- accounting info -----
Files used on the master node d12chas543.crc.nd.edu were:
-rw-r--r-- 1 wschnei1 campus 353480 Oct  6 23:09 /scratch365/wschnei1/ts-sym-1.F07
Sun Oct  6 23:09:59 EDT 2019
0.450u 0.355s 1:06.74 1.1%	0+0k 0+728io 0pf+0w
