----- GAMESS execution script 'rungms' -----
This job is running on host d12chas537.crc.nd.edu
under operating system Linux at Sun Oct 6 20:48:29 EDT 2019
SGE has assigned the following compute nodes to this run:
Available scratch disk space (Kbyte units) at beginning of the job is
Filesystem      1K-blocks     Used  Available Use% Mounted on
/dev/sda2      1949705068 64315972 1885389096   4% /
GAMESS temporary binary files will be written to /tmp/474045.1.debug
GAMESS supplementary output files will be written to /afs/crc.nd.edu/user/w/wschnei1/scr
Copying input file vib-sym.inp to your run's scratch directory...
reading your own /afs/crc.nd.edu/user/w/wschnei1/.gmsrc

 Distributed Data Interface kickoff program.
 Initiating 1 compute processes on 1 nodes to run the following command:
 /afs/crc.nd.edu/x86_64_linux/g/gamess/nov-2017/gamess/gamess.00.x vib-sym 

          ******************************************************
          *         GAMESS VERSION = 11 NOV 2017 (R3)         *
          *             FROM IOWA STATE UNIVERSITY             *
          * M.W.SCHMIDT, K.K.BALDRIDGE, J.A.BOATZ, S.T.ELBERT, *
          *   M.S.GORDON, J.H.JENSEN, S.KOSEKI, N.MATSUNAGA,   *
          *          K.A.NGUYEN, S.J.SU, T.L.WINDUS,           *
          *       TOGETHER WITH M.DUPUIS, J.A.MONTGOMERY       *
          *         J.COMPUT.CHEM.  14, 1347-1363(1993)        *
          **************** 64 BIT INTEL VERSION ****************

  SINCE 1993, STUDENTS AND POSTDOCS WORKING AT IOWA STATE UNIVERSITY
  AND ALSO IN THEIR VARIOUS JOBS AFTER LEAVING ISU HAVE MADE IMPORTANT
  CONTRIBUTIONS TO THE CODE:
     IVANA ADAMOVIC, CHRISTINE AIKENS, YURI ALEXEEV, POOJA ARORA,
     ANDREY ASADCHEV, ROB BELL, PRADIPTA BANDYOPADHYAY, JONATHAN BENTZ,
     BRETT BODE, KURT BRORSEN, CALEB CARLIN, GALINA CHABAN, WEI CHEN,
     CHEOL HO CHOI, PAUL DAY, ALBERT DEFUSCO, NUWAN DESILVA, TIM DUDLEY,
     DMITRI FEDOROV, ALEX FINDLATER, GRAHAM FLETCHER, MARK FREITAG,
     KURT GLAESEMANN, ANASTASIA GUININA,
     DAN KEMP, GRANT MERRILL, NORIYUKI MINEZAWA, JONATHAN MULLIN,
     TAKESHI NAGATA, SEAN NEDD, HEATHER NETZLOFF, BOSILJKA NJEGIC, RYAN OLSON,
     MIKE PAK, BUU PHAM,
     SPENCER PRUITT, LUKE ROSKOP, JIM SHOEMAKER, LYUDMILA SLIPCHENKO,
     TONY SMITH, SAROM SOK LEANG, JIE SONG, TETSUYA TAKETSUGU, SIMON WEBB,
     PENG XU, SOOHAENG YOO, FEDERICO ZAHARIEV

  ADDITIONAL CODE HAS BEEN PROVIDED BY COLLABORATORS IN OTHER GROUPS:
     IOWA STATE UNIVERSITY:
          JOE IVANIC, AARON WEST, LAIMUTIS BYTAUTAS, KLAUS RUEDENBERG
     UNIVERSITY OF TOKYO: KIMIHIKO HIRAO, TAKAHITO NAKAJIMA,
          TAKAO TSUNEDA, MUNEAKI KAMIYA, SUSUMU YANAGISAWA,
          KIYOSHI YAGI, MAHITO CHIBA, SEIKEN TOKURA, NAOAKI KAWAKAMI
     UNIVERSITY OF AARHUS: FRANK JENSEN
     UNIVERSITY OF IOWA: VISVALDAS KAIRYS, HUI LI
     NATIONAL INST. OF STANDARDS AND TECHNOLOGY: WALT STEVENS, DAVID GARMER
     UNIVERSITY OF PISA: BENEDETTA MENNUCCI, JACOPO TOMASI
     UNIVERSITY OF MEMPHIS: HENRY KURTZ, PRAKASHAN KORAMBATH
     UNIVERSITY OF ALBERTA: TOBY ZENG, MARIUSZ KLOBUKOWSKI
     UNIVERSITY OF NEW ENGLAND: MARK SPACKMAN
     MIE UNIVERSITY: HIROAKI UMEDA
     NAT. INST. OF ADVANCED INDUSTRIAL SCIENCE AND TECHNOLOGY: KAZUO KITAURA
     MICHIGAN STATE UNIVERSITY:
          KAROL KOWALSKI, MARTA WLOCH, JEFFREY GOUR, JESSE LUTZ,
          WEI LI, PIOTR PIECUCH
     UNIVERSITY OF SILESIA: MONIKA MUSIAL, STANISLAW KUCHARSKI
     FACULTES UNIVERSITAIRES NOTRE-DAME DE LA PAIX:
          OLIVIER QUINET, BENOIT CHAMPAGNE
     UNIVERSITY OF CALIFORNIA - SANTA BARBARA: BERNARD KIRTMAN
     INSTITUTE FOR MOLECULAR SCIENCE:
          KAZUYA ISHIMURA, MICHIO KATOUDA, AND SHIGERU NAGASE
     UNIVERSITY OF NOTRE DAME: ANNA POMOGAEVA, DAN CHIPMAN
     KYUSHU UNIVERSITY:
          HARUYUKI NAKANO,
          FENG LONG GU, JACEK KORCHOWIEC, MARCIN MAKOWSKI, AND YURIKO AOKI,
          HIROTOSHI MORI AND EISAKU MIYOSHI
     PENNSYLVANIA STATE UNIVERSITY:
          TZVETELIN IORDANOV, CHET SWALINA, JONATHAN SKONE,
          SHARON HAMMES-SCHIFFER
     WASEDA UNIVERSITY:
          MASATO KOBAYASHI, TOMOKO AKAMA, TSUGUKI TOUMA,
          TAKESHI YOSHIKAWA, YASUHIRO IKABATA, JUNJI SEINO,
          YUYA NAKAJIMA, HIROMI NAKAI
     NANJING UNIVERSITY: SHUHUA LI
     UNIVERSITY OF NEBRASKA:
          PEIFENG SU, DEJUN SI, NANDUN THELLAMUREGE, YALI WANG, HUI LI
     UNIVERSITY OF ZURICH: ROBERTO PEVERATI, KIM BALDRIDGE
     N. COPERNICUS UNIVERSITY AND JACKSON STATE UNIVERSITY:
          MARIA BARYSZ
     UNIVERSITY OF COPENHAGEN: Jimmy Kromann, CASPER STEINMANN
     TOKYO INSTITUTE OF TECHNOLOGY: HIROYA NAKATA
     NAGOYA UNIVERSITY: YOSHIO NISHIMOTO, STEPHAN IRLE
     MOSCOW STATE UNIVERSITY: VLADIMIR MIRONOV

 EXECUTION OF GAMESS BEGUN Sun Oct  6 20:48:29 2019

            ECHO OF THE FIRST FEW INPUT CARDS -
 INPUT CARD> $CONTRL SCFTYP=RHF DFTTYP=PBE RUNTYP=HESSIAN COORD=ZMT NZVAR=18 ISPHER=1 $END  
 INPUT CARD> $FORCE METHOD=SEMINUM $END                                                     
 INPUT CARD> $BASIS GBASIS=PCseg-0 $END                                                     
 INPUT CARD> $DATA                                                                          
 INPUT CARD>FCH2CH2F eclipsed TS                                                            
 INPUT CARD>CS                                                                              
 INPUT CARD>                                                                                
 INPUT CARD> C                                                                              
 INPUT CARD> C      1   1.5738348                                                           
 INPUT CARD> F      2   1.4354089  1   108.6989571                                          
 INPUT CARD> H      2   1.1081347  1   111.1119623  3   119.1947424  0                      
 INPUT CARD> H      2   1.1081347  1   111.1119623  3  -119.1947424  0                      
 INPUT CARD> F      1   1.4342516  2   108.5968010  3     0.0000000  0                      
 INPUT CARD> H      1   1.1080827  2   111.0914608  6   119.1869591  0                      
 INPUT CARD> H      1   1.1080827  2   111.0914608  6  -119.1869591  0                      
 INPUT CARD> $END                                                                           
    1000000 WORDS OF MEMORY AVAILABLE

     BASIS OPTIONS
     -------------
     GBASIS=PCSEG-0      IGAUSS=       0      POLAR=NONE    
     NDFUNC=       0     NFFUNC=       0     DIFFSP=       F
     NPFUNC=       0      DIFFS=       F     BASNAM=        


     RUN TITLE
     ---------
 FCH2CH2F eclipsed TS                                                            

 THE POINT GROUP OF THE MOLECULE IS CS      
 THE ORDER OF THE PRINCIPAL AXIS IS     0

 YOUR FULLY SUBSTITUTED Z-MATRIX IS
 C   
 C      1   1.5738348
 F      2   1.4354089  1  108.6990
 H      2   1.1081347  1  111.1120  3  119.1947  0
 H      2   1.1081347  1  111.1120  3 -119.1947  0
 F      1   1.4342516  2  108.5968  3    0.0000  0
 H      1   1.1080827  2  111.0915  6  119.1870  0
 H      1   1.1080827  2  111.0915  6 -119.1870  0

 THE MOMENTS OF INERTIA ARE (AMU-ANGSTROM**2)
 IXX=    37.240   IYY=    82.777   IZZ=   113.451

 ATOM      ATOMIC                      COORDINATES (BOHR)
           CHARGE         X                   Y                   Z
 C           6.0    -1.4897750391       -1.4190121402        0.0000000000
 C           6.0     1.4843404639       -1.4214741160        0.0000000000
 F           9.0     2.3560925052        1.1471567788        0.0000000000
 H           1.0     2.2378181359       -2.3749820955       -1.7053524664
 H           1.0     2.2378181359       -2.3749820955        1.7053524664
 F           9.0    -2.3519938220        1.1505277708        0.0000000000
 H           1.0    -2.2440957740       -2.3711271356        1.7056373668
 H           1.0    -2.2440957740       -2.3711271356       -1.7056373668

          INTERNUCLEAR DISTANCES (ANGS.)
          ------------------------------

                1 C          2 C          3 F          4 H          5 H     

   1 C       0.0000000    1.5738348 *  2.4466034 *  2.2273935 *  2.2273935 *
   2 C       1.5738348 *  0.0000000    1.4354089 *  1.1081347 *  1.1081347 *
   3 F       2.4466034 *  1.4354089 *  0.0000000    2.0717596 *  2.0717596 *
   4 H       2.2273935 *  1.1081347 *  2.0717596 *  0.0000000    1.8048675 *
   5 H       2.2273935 *  1.1081347 *  2.0717596 *  1.8048675 *  0.0000000  
   6 F       1.4342516 *  2.4441261 *  2.4914128 *  3.1928216    3.1928216  
   7 H       1.1080827 *  2.2270930 *  3.1948133    2.9804670 *  2.3717278 *
   8 H       1.1080827 *  2.2270930 *  3.1948133    2.3717278 *  2.9804670 *

                6 F          7 H          8 H     

   1 C       1.4342516 *  1.1080827 *  1.1080827 *
   2 C       2.4441261 *  2.2270930 *  2.2270930 *
   3 F       2.4914128 *  3.1948133    3.1948133  
   4 H       3.1928216    2.9804670 *  2.3717278 *
   5 H       3.1928216    2.3717278 *  2.9804670 *
   6 F       0.0000000    2.0714362 *  2.0714362 *
   7 H       2.0714362 *  0.0000000    1.8051690 *
   8 H       2.0714362 *  1.8051690 *  0.0000000  

  * ... LESS THAN  3.000


     ATOMIC BASIS SET
     ----------------
 THE CONTRACTED PRIMITIVE FUNCTIONS HAVE BEEN UNNORMALIZED
 THE CONTRACTED BASIS FUNCTIONS ARE NOW NORMALIZED TO UNITY

  SHELL TYPE  PRIMITIVE        EXPONENT          CONTRACTION COEFFICIENT(S)

 C         

      1   S       1           471.5250000    0.018365741272
      1   S       2            71.1900000    0.127245821015
      1   S       3            15.8860000    0.440412776421
      1   S       4             4.1646900    0.553280001111

      2   S       5             0.4425810    1.000000000000

      3   S       6             0.1428360    1.000000000000

      4   P       7             4.4121100    0.213746653399
      4   P       8             0.8798600    0.879956252208

      5   P       9             0.1929920    1.000000000000

 C         

      6   S      10           471.5250000    0.018365741272
      6   S      11            71.1900000    0.127245821015
      6   S      12            15.8860000    0.440412776421
      6   S      13             4.1646900    0.553280001111

      7   S      14             0.4425810    1.000000000000

      8   S      15             0.1428360    1.000000000000

      9   P      16             4.4121100    0.213746653399
      9   P      17             0.8798600    0.879956252208

     10   P      18             0.1929920    1.000000000000

 F         

     11   S      19          1106.0400000    0.017695356391
     11   S      20           166.9030000    0.123797950743
     11   S      21            37.4603000    0.437934495315
     11   S      22             9.9899200    0.556305561791

     12   S      23             1.1379200    1.000000000000

     13   S      24             0.3490830    1.000000000000

     14   P      25            10.7104000    0.232618932285
     14   P      26             2.1985200    0.865223996240

     15   P      27             0.4576870    1.000000000000

 H         

     18   S      28             4.3447300    0.167654352461
     18   S      29             0.6604870    0.896889788192

     19   S      30             0.1366870    1.000000000000

 F         

     20   S      31          1106.0400000    0.017695356391
     20   S      32           166.9030000    0.123797950743
     20   S      33            37.4603000    0.437934495315
     20   S      34             9.9899200    0.556305561791

     21   S      35             1.1379200    1.000000000000

     22   S      36             0.3490830    1.000000000000

     23   P      37            10.7104000    0.232618932285
     23   P      38             2.1985200    0.865223996240

     24   P      39             0.4576870    1.000000000000

 H         

     27   S      40             4.3447300    0.167654352461
     27   S      41             0.6604870    0.896889788192

     28   S      42             0.1366870    1.000000000000

 TOTAL NUMBER OF BASIS SET SHELLS             =   28
 NUMBER OF CARTESIAN GAUSSIAN BASIS FUNCTIONS =   44
 NOTE: THIS RUN WILL RESTRICT THE MO VARIATION SPACE TO SPHERICAL HARMONICS.
 THE NUMBER OF ORBITALS KEPT IN THE VARIATIONAL SPACE WILL BE PRINTED LATER.
 NUMBER OF ELECTRONS                          =   34
 CHARGE OF MOLECULE                           =    0
 SPIN MULTIPLICITY                            =    1
 NUMBER OF OCCUPIED ORBITALS (ALPHA)          =   17
 NUMBER OF OCCUPIED ORBITALS (BETA )          =   17
 TOTAL NUMBER OF ATOMS                        =    8
 THE NUCLEAR REPULSION ENERGY IS      126.2232482140

     LEBEDEV GRID-BASED DFT OPTIONS
     ------------------------------
     DFTTYP=PBE     
     NRAD  =      96     NLEB  =     302
     NRAD0 =      96     NLEB0 =     302
     SWOFF =    5.00E-03 (PURE SCF -> DFT)
     SWITCH=    3.00E-04 (COARSE -> TIGHT GRID)
     THRESH=    0.00E+00 GTHRE=    1.00E+00

 GRIMME'S EMPIRICAL DISPERSION CORRECTION= F

     $CONTRL OPTIONS
     ---------------
 SCFTYP=RHF          RUNTYP=HESSIAN      EXETYP=RUN     
 MPLEVL=       0     CITYP =NONE         CCTYP =NONE         VBTYP =NONE    
 DFTTYP=PBE          TDDFT =NONE    
 MULT  =       1     ICHARG=       0     NZVAR =      18     COORD =ZMT     
 PP    =NONE         RELWFN=NONE         LOCAL =NONE         NUMGRD=       F
 ISPHER=       1     NOSYM =       0     MAXIT =      30     UNITS =ANGS    
 PLTORB=       F     MOLPLT=       F     AIMPAC=       F     FRIEND=        
 NPRINT=       7     IREST =       0     GEOM  =INPUT   
 NORMF =       0     NORMP =       0     ITOL  =      20     ICUT  =       9
 INTTYP=BEST         GRDTYP=BEST         QMTTOL= 1.0E-06

     $SYSTEM OPTIONS
     ---------------
  REPLICATED MEMORY=     1000000 WORDS (ON EVERY NODE).
 DISTRIBUTED MEMDDI=           0 MILLION WORDS IN AGGREGATE,
 MEMDDI DISTRIBUTED OVER   1 PROCESSORS IS           0 WORDS/PROCESSOR.
 TOTAL MEMORY REQUESTED ON EACH PROCESSOR=     1000000 WORDS.
 TIMLIM=      525600.00 MINUTES, OR     365.0 DAYS.
 PARALL= F  BALTYP=  DLB     KDIAG=    0  COREFL= F
 MXSEQ2=     300 MXSEQ3=     150  mem10=         0

          ----------------
          PROPERTIES INPUT
          ----------------

     MOMENTS            FIELD           POTENTIAL          DENSITY
 IEMOM =       1   IEFLD =       0   IEPOT =       0   IEDEN =       0
 WHERE =COMASS     WHERE =NUCLEI     WHERE =NUCLEI     WHERE =NUCLEI  
 OUTPUT=BOTH       OUTPUT=BOTH       OUTPUT=BOTH       OUTPUT=BOTH    
 IEMINT=       0   IEFINT=       0                     IEDINT=       0
                                                       MORB  =       0
          EXTRAPOLATION IN EFFECT
          DIIS IN EFFECT
 ORBITAL PRINTING OPTION: NPREO=     1    44     2     1

     -------------------------------
     INTEGRAL TRANSFORMATION OPTIONS
     -------------------------------
     NWORD  =            0
     CUTOFF = 1.0E-09     MPTRAN =       0
     DIRTRF =       F     AOINTS =DUP     

          ----------------------
          INTEGRAL INPUT OPTIONS
          ----------------------
 NOPK  =       1 NORDER=       0 SCHWRZ=       T

     ------------------------------------------
     THE POINT GROUP IS CS , NAXIS= 0, ORDER= 2
     ------------------------------------------

 -- VARIATIONAL SPACE WILL BE RESTRICTED TO PURE SPHERICAL HARMONICS ONLY --
 AFTER EXCLUDING CONTAMINANT COMBINATIONS FROM THE CARTESIAN GAUSSIAN BASIS
 SET, THE NUMBER OF SPHERICAL HARMONICS KEPT IN THE VARIATION SPACE IS   44

     DIMENSIONS OF THE SYMMETRY SUBSPACES ARE
 A'  =   32     A'' =   12

 ..... DONE SETTING UP THE RUN .....
 STEP CPU TIME =     0.03 TOTAL CPU TIME =          0.0 (      0.0 MIN)
 TOTAL WALL CLOCK TIME=          0.0 SECONDS, CPU UTILIZATION IS   100.00%

     ---------------------------------
     HESSIAN MATRIX CONTROL PARAMETERS
     ---------------------------------
     METHOD=SEMINUM    NVIB  =       2   VIBSIZ= 0.01000
     RDHESS=       F   PURIFY=       F   PRTIFC=       F
     VIBANL=       T   DECOMP=       F   PROJCT=       F
     SCLFAC= 1.00000   PRTSCN=       F   NPRT  =       0
     PULCOR=       F   NPUN  =       0   REDOVB=       T
     HSSTYP=GENERAL 
     THERMOCHEMISTRY WILL BE PRINTED FOR    1 TEMPERATURES:
      298.15000

               * * * EFFICIENCY NOTE * * *
 THIS CALCULATION CAN BE RUN WITH DIFFERENTIATION METHOD=ANALYTIC
 THIS MIGHT BE MORE ACCURATE AND/OR FASTER THAN YOUR CHOICE,
 BUT THE REQUESTED CALCULATION METHOD=SEMINUM  IS PROCEEDING.


   --- ENCODED Z MATRIX ---
 COORD  TYPE   I   J   K   L   M   N
    1      1    2   1
    2      1    3   2
    3      2    3   2   1
    4      1    5   2
    5      2    5   2   1
    6      3    5   2   1   3
    7      1    4   2
    8      2    4   2   1
    9      3    4   2   1   3
   10      1    6   1
   11      2    6   1   2
   12      3    6   1   2   3
   13      1    8   1
   14      2    8   1   2
   15      3    8   1   2   6
   16      1    7   1
   17      2    7   1   2
   18      3    7   1   2   6

 THE DETERMINANT OF THE G MATRIX IS 10**(   -12)


                     --------------------
                     INTERNAL COORDINATES
                     --------------------

                 - - ATOMS - -         COORDINATE      COORDINATE
 NO.   TYPE    I  J  K  L  M  N        (BOHR,RAD)       (ANG,DEG)
 ----------------------------------------------------------------
   1 STRETCH   2  1                     2.9741165       1.5738348
   2 STRETCH   3  2                     2.7125295       1.4354089
   3 BEND      3  2  1                  1.8971547     108.6989571
   4 STRETCH   5  2                     2.0940709       1.1081347
   5 BEND      5  2  1                  1.9392696     111.1119623
   6 TORSION   5  2  1  3               2.0803407     119.1947424
   7 STRETCH   4  2                     2.0940709       1.1081347
   8 BEND      4  2  1                  1.9392696     111.1119623
   9 TORSION   4  2  1  3              -2.0803407    -119.1947424
  10 STRETCH   6  1                     2.7103425       1.4342516
  11 BEND      6  1  2                  1.8953717     108.5968010
  12 TORSION   6  1  2  3               0.0000000       0.0000000
  13 STRETCH   8  1                     2.0939727       1.1080827
  14 BEND      8  1  2                  1.9389118     111.0914608
  15 TORSION   8  1  2  6               2.0802049     119.1869591
  16 STRETCH   7  1                     2.0939727       1.1080827
  17 BEND      7  1  2                  1.9389118     111.0914608
  18 TORSION   7  1  2  6              -2.0802049    -119.1869591
1   ATOM  0
                                        -------------------
   COORD  0                             NUCLEAR COORDINATES
                                        -------------------
     VIB  0

                       ATOM             X              Y              Z

                 1  C               -1.489775      -1.419012       0.000000
                 2  C                1.484340      -1.421474       0.000000
                 3  F                2.356093       1.147157       0.000000
                 4  H                2.237818      -2.374982      -1.705352
                 5  H                2.237818      -2.374982       1.705352
                 6  F               -2.351994       1.150528       0.000000
                 7  H               -2.244096      -2.371127       1.705637
                 8  H               -2.244096      -2.371127      -1.705637

          ********************
          1 ELECTRON INTEGRALS
          ********************
 ...... END OF ONE-ELECTRON INTEGRALS ......
 STEP CPU TIME =     0.00 TOTAL CPU TIME =          0.0 (      0.0 MIN)
 TOTAL WALL CLOCK TIME=          0.0 SECONDS, CPU UTILIZATION IS    75.00%

          -------------
          GUESS OPTIONS
          -------------
          GUESS =HUCKEL            NORB  =       0          NORDER=       0
          MIX   =       F          PRTMO =       F          PUNMO =       F
          TOLZ  = 1.0E-08          TOLE  = 1.0E-05
          SYMDEN=       F          PURIFY=       F

 INITIAL GUESS ORBITALS GENERATED BY HUCKEL   ROUTINE.
 HUCKEL GUESS REQUIRES     22304 WORDS.

 SYMMETRIES FOR INITIAL GUESS ORBITALS FOLLOW.   BOTH SET(S).
    17 ORBITALS ARE OCCUPIED (    4 CORE ORBITALS).
     5=A'       6=A'       7=A'       8=A'       9=A''     10=A'      11=A'' 
    12=A'      13=A'      14=A'      15=A''     16=A''     17=A'      18=A'  
    19=A'      20=A''     21=A'      22=A''     23=A'      24=A'      25=A'  
    26=A'      27=A'  
 ...... END OF INITIAL ORBITAL SELECTION ......
 STEP CPU TIME =     0.01 TOTAL CPU TIME =          0.0 (      0.0 MIN)
 TOTAL WALL CLOCK TIME=          0.1 SECONDS, CPU UTILIZATION IS    66.67%

                    ----------------------
                    AO INTEGRAL TECHNOLOGY
                    ----------------------
     S,P,L SHELL ROTATED AXIS INTEGRALS, REPROGRAMMED BY
        KAZUYA ISHIMURA (IMS) AND JOSE SIERRA (SYNSTAR).
     S,P,D,L SHELL ROTATED AXIS INTEGRALS PROGRAMMED BY
        KAZUYA ISHIMURA (INSTITUTE FOR MOLECULAR SCIENCE).
     S,P,D,F,G SHELL TO TOTAL QUARTET ANGULAR MOMENTUM SUM 5,
        ERIC PROGRAM BY GRAHAM FLETCHER (ELORET AND NASA ADVANCED
        SUPERCOMPUTING DIVISION, AMES RESEARCH CENTER).
     S,P,D,F,G,L SHELL GENERAL RYS QUADRATURE PROGRAMMED BY
        MICHEL DUPUIS (PACIFIC NORTHWEST NATIONAL LABORATORY).

          --------------------
          2 ELECTRON INTEGRALS
          --------------------

 THE -PK- OPTION IS OFF, THE INTEGRALS ARE NOT IN SUPERMATRIX FORM.
 STORING   15000 INTEGRALS/RECORD ON DISK, USING 12 BYTES/INTEGRAL.
 TWO ELECTRON INTEGRAL EVALUATION REQUIRES   89762 WORDS OF MEMORY.
 SCHWARZ INEQUALITY OVERHEAD:       981 INTEGRALS, T=        0.01
 II,JST,KST,LST =  1  1  1  1 NREC =         1 INTLOC =    1
 II,JST,KST,LST =  2  1  1  1 NREC =         1 INTLOC =    2
 II,JST,KST,LST =  3  1  1  1 NREC =         1 INTLOC =    7
 II,JST,KST,LST =  4  1  1  1 NREC =         1 INTLOC =   22
 II,JST,KST,LST =  5  1  1  1 NREC =         1 INTLOC =   67
 II,JST,KST,LST =  6  1  1  1 NREC =         1 INTLOC =  214
 II,JST,KST,LST =  7  1  1  1 NREC =         1 INTLOC =  502
 II,JST,KST,LST =  8  1  1  1 NREC =         1 INTLOC =  926
 II,JST,KST,LST =  9  1  1  1 NREC =         1 INTLOC = 1493
 II,JST,KST,LST = 10  1  1  1 NREC =         1 INTLOC = 3698
 II,JST,KST,LST = 11  1  1  1 NREC =         1 INTLOC = 7400
 II,JST,KST,LST = 12  1  1  1 NREC =         1 INTLOC = 9032
 II,JST,KST,LST = 13  1  1  1 NREC =         1 INTLOC =11295
 II,JST,KST,LST = 14  1  1  1 NREC =         1 INTLOC =14112
 II,JST,KST,LST = 15  1  1  1 NREC =         2 INTLOC = 8118
 II,JST,KST,LST = 16  1  1  1 NREC =         3 INTLOC = 6583
 II,JST,KST,LST = 17  1  1  1 NREC =         3 INTLOC = 6583
 II,JST,KST,LST = 18  1  1  1 NREC =         3 INTLOC = 6583
 II,JST,KST,LST = 19  1  1  1 NREC =         4 INTLOC = 2887
 II,JST,KST,LST = 20  1  1  1 NREC =         5 INTLOC = 1915
 II,JST,KST,LST = 21  1  1  1 NREC =         5 INTLOC = 7380
 II,JST,KST,LST = 22  1  1  1 NREC =         6 INTLOC =  692
 II,JST,KST,LST = 23  1  1  1 NREC =         6 INTLOC =11435
 II,JST,KST,LST = 24  1  1  1 NREC =         8 INTLOC = 8084
 II,JST,KST,LST = 25  1  1  1 NREC =        11 INTLOC = 5505
 II,JST,KST,LST = 26  1  1  1 NREC =        11 INTLOC = 5505
 II,JST,KST,LST = 27  1  1  1 NREC =        11 INTLOC = 5505
 II,JST,KST,LST = 28  1  1  1 NREC =        13 INTLOC = 5519
 SCHWARZ INEQUALITY TEST SKIPPED        5757 INTEGRAL BLOCKS.
 TOTAL NUMBER OF NONZERO TWO-ELECTRON INTEGRALS =              224348
         15 INTEGRAL RECORDS WERE STORED ON DISK FILE  8.
  ...... END OF TWO-ELECTRON INTEGRALS .....
 STEP CPU TIME =     0.08 TOTAL CPU TIME =          0.1 (      0.0 MIN)
 TOTAL WALL CLOCK TIME=          0.1 SECONDS, CPU UTILIZATION IS    85.71%

          --------------------------
               R-PBE SCF CALCULATION
          --------------------------

     NUCLEAR ENERGY =       126.2232482140
     MAXIT =   30     NPUNCH=    2
     EXTRAP=T  DAMP=F  SHIFT=F  RSTRCT=F  DIIS=T  DEM=F  SOSCF=F
         DENSITY MATRIX CONVERGENCE THRESHOLD=  1.00E-05
     COARSE -> FINE DFT GRID SWITCH THRESHOLD=  3.00E-04 (SWITCH IN $DFT)
                   HF -> DFT SWITCH THRESHOLD=  5.00E-03 (SWOFF IN $DFT)
     MEMORY REQUIRED FOR RHF ITERS=    330938 WORDS.

     EXCHANGE FUNCTIONAL   =PBE       
     CORRELATION FUNCTIONAL=PBE       
     DFT THRESHOLD         =.431E-08
 FOR AN EULER-MACLAURIN QUADRATURE USING  96 RADIAL POINTS:
 SMALLEST GAUSSIAN PRIMITIVE EXPONENT=        0.1366870000 OF TYPE -S-
 ON ATOM NUMBER   4 HAS RADIAL NORMALIZATION=  1.000000
  LARGEST GAUSSIAN PRIMITIVE EXPONENT=     1106.0400000000 OF TYPE -S-
 ON ATOM NUMBER   3 HAS RADIAL NORMALIZATION=  1.000000
 DFT IS SWITCHED OFF, PERFORMING PURE SCF UNTIL SWOFF THRESHOLD IS REACHED.

 ITER EX DEM     TOTAL ENERGY        E CHANGE  DENSITY CHANGE    DIIS ERROR
   1  0  0     -275.5428121663  -275.5428121663   0.293640141   0.648058100
          * * *   INITIATING DIIS PROCEDURE   * * *
   2  1  0     -276.0511663781    -0.5083542118   0.068093165   0.108944067
   3  2  0     -276.0767730275    -0.0256066494   0.026758935   0.054460393
   4  3  0     -276.0820698380    -0.0052968105   0.009113498   0.011444041
   5  4  0     -276.0824862091    -0.0004163711   0.000633354   0.001279937
 CONVERGED TO SWOFF, SO DFT CALCULATION IS NOW SWITCHED ON.
          * * *   INITIATING DIIS PROCEDURE   * * *
   6  5  0     -277.1662717177    -1.0837855086   0.122437348   0.102882019
   7  6  0     -277.1715903379    -0.0053186201   0.076753912   0.078031427
   8  7  0     -277.1791575265    -0.0075671886   0.025997370   0.066178966
   9  8  0     -277.1914543457    -0.0122968192   0.006321448   0.010434555
  10  9  0     -277.1916609364    -0.0002065906   0.001359334   0.002405441
  11 10  0     -277.1916779789    -0.0000170425   0.000117832   0.000154091
  12 11  0     -277.1916781044    -0.0000001255   0.000022438   0.000026927
  13 12  0     -277.1916781062    -0.0000000018   0.000009605   0.000017575
  14 13  0     -277.1916781069    -0.0000000007   0.000000332   0.000000491

          -----------------
          DENSITY CONVERGED
          -----------------
     TIME TO FORM FOCK OPERATORS=       3.8 SECONDS (       0.3 SEC/ITER)
     TIME TO SOLVE SCF EQUATIONS=       0.0 SECONDS (       0.0 SEC/ITER)

 FINAL R-PBE ENERGY IS     -277.1916781069 AFTER  14 ITERATIONS
 DFT EXCHANGE + CORRELATION ENERGY =       -32.7946400824
 TOTAL ELECTRON NUMBER             =        34.0002181473

          ------------
          EIGENVECTORS
          ------------

                      1          2          3          4          5
                  -24.2296   -24.2293    -9.9812    -9.9809    -1.0714
                     A'         A'         A'         A'         A'  
    1  C  1  S    0.000079   0.000102   0.759390   0.626216  -0.064617
    2  C  1  S   -0.003033  -0.000613   0.047308   0.035572   0.114367
    3  C  1  S    0.021094  -0.000836  -0.046498  -0.019954   0.011286
    4  C  1  X   -0.000377  -0.000221   0.000761  -0.001024  -0.008973
    5  C  1  Y    0.000707   0.000103   0.000298   0.000134   0.057669
    6  C  1  Z    0.000000   0.000000   0.000000   0.000000   0.000000
    7  C  1  X    0.001805  -0.002836  -0.005137   0.001322   0.002947
    8  C  1  Y    0.005210   0.000370   0.003682   0.001488   0.014111
    9  C  1  Z    0.000000   0.000000   0.000000   0.000000   0.000000
   10  C  2  S    0.000030   0.000125  -0.625406   0.760059  -0.062983
   11  C  2  S    0.001447  -0.002738  -0.039618   0.043965   0.111371
   12  C  2  S   -0.014035   0.015749   0.041828  -0.028454   0.012120
   13  C  2  X   -0.000066   0.000432   0.000943   0.000860   0.008316
   14  C  2  Y   -0.000370   0.000607  -0.000264   0.000184   0.055862
   15  C  2  Z    0.000000   0.000000   0.000000   0.000000   0.000000
   16  C  2  X    0.003326   0.000427  -0.005297  -0.000322  -0.003365
   17  C  2  Y   -0.003018   0.004252  -0.003314   0.002168   0.013901
   18  C  2  Z    0.000000   0.000000   0.000000   0.000000   0.000000
   19  F  3  S   -0.332027   0.926448  -0.000077   0.000208  -0.199795
   20  F  3  S   -0.018520   0.049812   0.000006  -0.000954   0.356469
   21  F  3  S    0.010990  -0.025376  -0.001212   0.002593   0.325909
   22  F  3  X    0.000322  -0.000594   0.000243   0.000192  -0.022580
   23  F  3  Y    0.000728  -0.001869   0.000187  -0.000113  -0.059171
   24  F  3  Z    0.000000   0.000000   0.000000   0.000000   0.000000
   25  F  3  X   -0.000894   0.001460  -0.001295  -0.000254  -0.026418
   26  F  3  Y   -0.001999   0.004271  -0.002119   0.002050  -0.067240
   27  F  3  Z    0.000000   0.000000   0.000000   0.000000   0.000000
   28  H  4  S    0.000523  -0.000914   0.001259  -0.001734   0.010942
   29  H  4  S    0.001448  -0.002532  -0.008203   0.007669   0.006482
   30  H  5  S    0.000523  -0.000914   0.001259  -0.001734   0.010942
   31  H  5  S    0.001448  -0.002532  -0.008203   0.007669   0.006482
   32  F  6  S    0.926395   0.332172   0.000116   0.000191  -0.206137
   33  F  6  S    0.050241   0.017346  -0.000188  -0.000943   0.367807
   34  F  6  S   -0.026602  -0.007635   0.001674   0.002326   0.336407
   35  F  6  X    0.000657   0.000127   0.000202  -0.000236   0.022960
   36  F  6  Y   -0.001912  -0.000627  -0.000204  -0.000071  -0.061233
   37  F  6  Z    0.000000   0.000000   0.000000   0.000000   0.000000
   38  F  6  X   -0.001681  -0.000236  -0.001222   0.000505   0.026842
   39  F  6  Y    0.004581   0.001170   0.002484   0.001606  -0.069648
   40  F  6  Z    0.000000   0.000000   0.000000   0.000000   0.000000
   41  H  7  S   -0.001037  -0.000177  -0.001569  -0.001460   0.011242
   42  H  7  S   -0.002877  -0.000489   0.009519   0.005963   0.006772
   43  H  8  S   -0.001037  -0.000177  -0.001569  -0.001460   0.011242
   44  H  8  S   -0.002877  -0.000489   0.009519   0.005963   0.006772

                      6          7          8          9         10
                   -1.0523    -0.6983    -0.5719    -0.4635    -0.4483
                     A'         A'         A'         A''        A'  
    1  C  1  S    0.049917  -0.185280   0.164194   0.000000  -0.008557
    2  C  1  S   -0.092397   0.344013  -0.318875   0.000000   0.028645
    3  C  1  S    0.019029   0.179608  -0.198172   0.000000  -0.055828
    4  C  1  X    0.025715   0.075763   0.097563   0.000000   0.152593
    5  C  1  Y   -0.052756  -0.048118   0.043075   0.000000   0.192003
    6  C  1  Z    0.000000   0.000000   0.000000   0.254669   0.000000
    7  C  1  X    0.014614   0.050351   0.076462   0.000000   0.147592
    8  C  1  Y   -0.009530  -0.043734   0.063963   0.000000   0.166954
    9  C  1  Z    0.000000   0.000000   0.000000   0.238955   0.000000
   10  C  2  S   -0.051703  -0.185298  -0.164222   0.000000  -0.008582
   11  C  2  S    0.095564   0.344048   0.318876   0.000000   0.028530
   12  C  2  S   -0.018525   0.179464   0.198361   0.000000  -0.054831
   13  C  2  X    0.026163  -0.075802   0.097386   0.000000  -0.152047
   14  C  2  Y    0.054219  -0.047941  -0.043299   0.000000   0.191310
   15  C  2  Z    0.000000   0.000000   0.000000   0.253876   0.000000
   16  C  2  X    0.014588  -0.050335   0.076251   0.000000  -0.147097
   17  C  2  Y    0.009959  -0.043671  -0.064033   0.000000   0.166802
   18  C  2  Z    0.000000   0.000000   0.000000   0.238014   0.000000
   19  F  3  S   -0.213733   0.072609   0.066187   0.000000   0.041374
   20  F  3  S    0.382836  -0.133134  -0.123954   0.000000  -0.074602
   21  F  3  S    0.352565  -0.152872  -0.144791   0.000000  -0.111181
   22  F  3  X   -0.017885  -0.026202  -0.013219   0.000000  -0.182647
   23  F  3  Y   -0.061422  -0.048633  -0.115562   0.000000  -0.118165
   24  F  3  Z    0.000000   0.000000   0.000000   0.123942   0.000000
   25  F  3  X   -0.019912  -0.018608  -0.017059   0.000000  -0.188429
   26  F  3  Y   -0.072103  -0.042433  -0.114259   0.000000  -0.123446
   27  F  3  Z    0.000000   0.000000   0.000000   0.123157   0.000000
   28  H  4  S    0.010236   0.091637   0.135669  -0.148195  -0.098773
   29  H  4  S    0.008662   0.011390   0.027764  -0.051205  -0.029324
   30  H  5  S    0.010236   0.091637   0.135669   0.148195  -0.098773
   31  H  5  S    0.008662   0.011390   0.027764   0.051205  -0.029324
   32  F  6  S    0.207514   0.072763  -0.066226   0.000000   0.041723
   33  F  6  S   -0.371730  -0.133414   0.124030   0.000000  -0.075243
   34  F  6  S   -0.342418  -0.153300   0.144857   0.000000  -0.111979
   35  F  6  X   -0.017023   0.026174  -0.012719   0.000000   0.183527
   36  F  6  Y    0.059814  -0.048824   0.115835   0.000000  -0.120167
   37  F  6  Z    0.000000   0.000000   0.000000   0.124858   0.000000
   38  F  6  X   -0.018894   0.018576  -0.016542   0.000000   0.189375
   39  F  6  Y    0.070256  -0.042541   0.114548   0.000000  -0.125601
   40  F  6  Z    0.000000   0.000000   0.000000   0.124065   0.000000
   41  H  7  S   -0.009895   0.091661  -0.135655   0.148666  -0.099159
   42  H  7  S   -0.008491   0.011381  -0.027788   0.051308  -0.029387
   43  H  8  S   -0.009895   0.091661  -0.135655  -0.148666  -0.099159
   44  H  8  S   -0.008491   0.011381  -0.027788  -0.051308  -0.029387

                     11         12         13         14         15
                   -0.4226    -0.3971    -0.3899    -0.2894    -0.2818
                     A'         A'         A''        A'         A'' 
    1  C  1  S    0.002860   0.006622   0.000000  -0.030536   0.000000
    2  C  1  S   -0.028930   0.014727   0.000000   0.066725   0.000000
    3  C  1  S    0.017066  -0.149088   0.000000   0.176433   0.000000
    4  C  1  X    0.231746   0.014645   0.000000   0.037357   0.000000
    5  C  1  Y   -0.100593   0.198807   0.000000  -0.017846   0.000000
    6  C  1  Z    0.000000   0.000000  -0.230724   0.000000  -0.096727
    7  C  1  X    0.200539   0.002220   0.000000   0.176120   0.000000
    8  C  1  Y   -0.057642   0.153365   0.000000  -0.063614   0.000000
    9  C  1  Z    0.000000   0.000000  -0.270349   0.000000  -0.029275
   10  C  2  S    0.003004  -0.006525   0.000000   0.030794   0.000000
   11  C  2  S   -0.029062  -0.015069   0.000000  -0.067259   0.000000
   12  C  2  S    0.015544   0.148926   0.000000  -0.176899   0.000000
   13  C  2  X   -0.232018   0.013154   0.000000   0.039057   0.000000
   14  C  2  Y   -0.098537  -0.200454   0.000000   0.017404   0.000000
   15  C  2  Z    0.000000   0.000000   0.231747   0.000000  -0.095244
   16  C  2  X   -0.200565   0.001115   0.000000   0.177615   0.000000
   17  C  2  Y   -0.056077  -0.154962   0.000000   0.063132   0.000000
   18  C  2  Z    0.000000   0.000000   0.271202   0.000000  -0.028258
   19  F  3  S   -0.041797  -0.041444   0.000000   0.007075   0.000000
   20  F  3  S    0.074250   0.076351   0.000000  -0.016600   0.000000
   21  F  3  S    0.116570   0.097007   0.000000  -0.021220   0.000000
   22  F  3  X   -0.045984   0.131854   0.000000   0.360473   0.000000
   23  F  3  Y    0.264518   0.272950   0.000000  -0.139813   0.000000
   24  F  3  Z    0.000000   0.000000   0.197270   0.000000   0.361462
   25  F  3  X   -0.043936   0.144507   0.000000   0.389967   0.000000
   26  F  3  Y    0.286103   0.304020   0.000000  -0.141972   0.000000
   27  F  3  Z    0.000000   0.000000   0.203066   0.000000   0.415649
   28  H  4  S   -0.028690   0.089056  -0.156455  -0.034410   0.104717
   29  H  4  S   -0.016303   0.027435  -0.071599  -0.007092   0.088009
   30  H  5  S   -0.028690   0.089056   0.156455  -0.034410  -0.104717
   31  H  5  S   -0.016303   0.027435   0.071599  -0.007092  -0.088009
   32  F  6  S   -0.042113   0.040943   0.000000  -0.007067   0.000000
   33  F  6  S    0.074848  -0.075434   0.000000   0.016574   0.000000
   34  F  6  S    0.117168  -0.095513   0.000000   0.021184   0.000000
   35  F  6  X    0.046618   0.129900   0.000000   0.362122   0.000000
   36  F  6  Y    0.266471  -0.270914   0.000000   0.138714   0.000000
   37  F  6  Z    0.000000   0.000000  -0.197332   0.000000   0.364053
   38  F  6  X    0.044539   0.142329   0.000000   0.391918   0.000000
   39  F  6  Y    0.288301  -0.301851   0.000000   0.140820   0.000000
   40  F  6  Z    0.000000   0.000000  -0.203155   0.000000   0.418646
   41  H  7  S   -0.027858  -0.088848  -0.155711   0.035085  -0.106330
   42  H  7  S   -0.016101  -0.027337  -0.071142   0.007713  -0.089255
   43  H  8  S   -0.027858  -0.088848   0.155711   0.035085   0.106330
   44  H  8  S   -0.016101  -0.027337   0.071142   0.007713   0.089255

                     16         17         18         19         20
                   -0.2698    -0.2624     0.0014     0.0454     0.0611
                     A'         A''        A'         A'         A'' 
    1  C  1  S   -0.026887   0.000000  -0.038593  -0.120097   0.000000
    2  C  1  S    0.068244   0.000000   0.097490   0.248171   0.000000
    3  C  1  S    0.040409   0.000000  -0.080305   1.242845   0.000000
    4  C  1  X    0.207967   0.000000  -0.039497  -0.133373   0.000000
    5  C  1  Y    0.045348   0.000000   0.263519  -0.031604   0.000000
    6  C  1  Z    0.000000   0.143906   0.000000   0.000000  -0.245875
    7  C  1  X    0.144639   0.000000  -0.090135  -0.402508   0.000000
    8  C  1  Y    0.010074   0.000000   0.603191  -0.150021   0.000000
    9  C  1  Z    0.000000   0.072820   0.000000   0.000000  -0.681898
   10  C  2  S   -0.026829   0.000000  -0.039318  -0.120368   0.000000
   11  C  2  S    0.068368   0.000000   0.099099   0.248665   0.000000
   12  C  2  S    0.037748   0.000000  -0.077597   1.244134   0.000000
   13  C  2  X   -0.207733   0.000000   0.039606   0.133032   0.000000
   14  C  2  Y    0.046110   0.000000   0.264809  -0.031293   0.000000
   15  C  2  Z    0.000000  -0.144627   0.000000   0.000000  -0.245895
   16  C  2  X   -0.143108   0.000000   0.090367   0.401633   0.000000
   17  C  2  Y    0.010522   0.000000   0.604229  -0.149857   0.000000
   18  C  2  Z    0.000000  -0.073124   0.000000   0.000000  -0.681917
   19  F  3  S   -0.005045   0.000000   0.058828   0.021075   0.000000
   20  F  3  S    0.015585   0.000000  -0.101341  -0.028273   0.000000
   21  F  3  S    0.001604   0.000000  -0.380448  -0.191013   0.000000
   22  F  3  X    0.315908   0.000000   0.104840   0.003302   0.000000
   23  F  3  Y   -0.092353   0.000000   0.215349   0.110005   0.000000
   24  F  3  Z    0.000000   0.335387   0.000000   0.000000   0.057472
   25  F  3  X    0.381775   0.000000   0.166733   0.006178   0.000000
   26  F  3  Y   -0.109458   0.000000   0.346775   0.174359   0.000000
   27  F  3  Z    0.000000   0.382235   0.000000   0.000000   0.088831
   28  H  4  S   -0.090406   0.156644   0.053263  -0.031888  -0.096120
   29  H  4  S   -0.074193   0.120032   0.269300  -0.875337  -0.875689
   30  H  5  S   -0.090406  -0.156644   0.053263  -0.031888   0.096120
   31  H  5  S   -0.074193  -0.120032   0.269300  -0.875337   0.875689
   32  F  6  S   -0.005075   0.000000   0.058674   0.020990   0.000000
   33  F  6  S    0.015719   0.000000  -0.100964  -0.028114   0.000000
   34  F  6  S    0.001256   0.000000  -0.380280  -0.190569   0.000000
   35  F  6  X   -0.314678   0.000000  -0.103634  -0.002521   0.000000
   36  F  6  Y   -0.090155   0.000000   0.214695   0.109652   0.000000
   37  F  6  Z    0.000000  -0.332163   0.000000   0.000000   0.057708
   38  F  6  X   -0.380600   0.000000  -0.165003  -0.004979   0.000000
   39  F  6  Y   -0.106853   0.000000   0.346198   0.173833   0.000000
   40  F  6  Z    0.000000  -0.378533   0.000000   0.000000   0.089195
   41  H  7  S   -0.090140   0.155942   0.053343  -0.031947   0.096021
   42  H  7  S   -0.074360   0.119515   0.270279  -0.875339   0.875742
   43  H  8  S   -0.090140  -0.155942   0.053343  -0.031947  -0.096021
   44  H  8  S   -0.074360  -0.119515   0.270279  -0.875339  -0.875742

                     21         22         23         24         25
                    0.0906     0.1282     0.1486     0.1824     0.5349
                     A'         A'         A''        A'         A'' 
    1  C  1  S   -0.139865  -0.049560   0.000000  -0.111038   0.000000
    2  C  1  S    0.231253   0.119297   0.000000   0.197257   0.000000
    3  C  1  S    2.064374  -0.236430   0.000000   1.348799   0.000000
    4  C  1  X   -0.010771  -0.202982   0.000000   0.332675   0.000000
    5  C  1  Y   -0.086669   0.293214   0.000000   0.179652   0.000000
    6  C  1  Z    0.000000   0.000000  -0.292628   0.000000  -0.088508
    7  C  1  X    0.150842  -0.680503   0.000000   1.354413   0.000000
    8  C  1  Y   -0.373522   0.741083   0.000000   0.508521   0.000000
    9  C  1  Z    0.000000   0.000000  -0.921563   0.000000   0.428479
   10  C  2  S    0.139714   0.049339   0.000000   0.110704   0.000000
   11  C  2  S   -0.230851  -0.118874   0.000000  -0.196383   0.000000
   12  C  2  S   -2.063814   0.238436   0.000000  -1.346517   0.000000
   13  C  2  X   -0.010641  -0.203626   0.000000   0.332340   0.000000
   14  C  2  Y    0.087109  -0.292346   0.000000  -0.179603   0.000000
   15  C  2  Z    0.000000   0.000000   0.292511   0.000000  -0.088665
   16  C  2  X    0.151478  -0.681134   0.000000   1.354467   0.000000
   17  C  2  Y    0.374507  -0.737419   0.000000  -0.508182   0.000000
   18  C  2  Z    0.000000   0.000000   0.921379   0.000000   0.428397
   19  F  3  S   -0.006909  -0.061670   0.000000  -0.031095   0.000000
   20  F  3  S    0.004929   0.112680   0.000000   0.053306   0.000000
   21  F  3  S    0.088701   0.432004   0.000000   0.265835   0.000000
   22  F  3  X   -0.036244  -0.005440   0.000000  -0.113753   0.000000
   23  F  3  Y   -0.046266  -0.228528   0.000000  -0.066106   0.000000
   24  F  3  Z    0.000000   0.000000  -0.044083   0.000000  -0.097232
   25  F  3  X   -0.045738  -0.031704   0.000000  -0.199633   0.000000
   26  F  3  Y   -0.061591  -0.380602   0.000000  -0.116794   0.000000
   27  F  3  Z    0.000000   0.000000  -0.085443   0.000000  -0.082544
   28  H  4  S    0.050243   0.016928   0.046157  -0.054327   0.598024
   29  H  4  S    1.086169   0.000287   1.113781  -0.209195  -0.310474
   30  H  5  S    0.050243   0.016928  -0.046157  -0.054327  -0.598024
   31  H  5  S    1.086169   0.000287  -1.113781  -0.209195   0.310474
   32  F  6  S    0.007057   0.061903   0.000000   0.031338   0.000000
   33  F  6  S   -0.005195  -0.113017   0.000000  -0.053598   0.000000
   34  F  6  S   -0.089739  -0.434345   0.000000  -0.268917   0.000000
   35  F  6  X   -0.036169  -0.004656   0.000000  -0.113589   0.000000
   36  F  6  Y    0.046846   0.229151   0.000000   0.067357   0.000000
   37  F  6  Z    0.000000   0.000000   0.044198   0.000000  -0.097376
   38  F  6  X   -0.045722  -0.030540   0.000000  -0.199672   0.000000
   39  F  6  Y    0.062542   0.382093   0.000000   0.119305   0.000000
   40  F  6  Z    0.000000   0.000000   0.085714   0.000000  -0.082626
   41  H  7  S   -0.050129  -0.016929   0.045969   0.054775  -0.597494
   42  H  7  S   -1.086123  -0.000440   1.114025   0.208405   0.309412
   43  H  8  S   -0.050129  -0.016929  -0.045969   0.054775   0.597494
   44  H  8  S   -1.086123  -0.000440  -1.114025   0.208405  -0.309412

                     26         27         28         29         30
                    0.5693     0.6076     0.6296     0.6819     0.7097
                     A'         A'         A'         A'         A'  
    1  C  1  S    0.193532  -0.193304   0.031967   0.014926   0.112751
    2  C  1  S   -1.207918   1.221582  -0.521800   0.231928  -0.696961
    3  C  1  S    1.986098  -3.852601   1.209972  -0.519849   0.772682
    4  C  1  X    0.132514   0.077652  -0.133749  -0.462704  -0.400387
    5  C  1  Y   -0.348634   0.218114   0.118910   0.416989   0.442571
    6  C  1  Z    0.000000   0.000000   0.000000   0.000000   0.000000
    7  C  1  X   -0.275941  -0.929727  -0.260790   0.823648   0.475643
    8  C  1  Y    0.288394  -0.803390  -0.378453  -0.553009  -0.448419
    9  C  1  Z    0.000000   0.000000   0.000000   0.000000   0.000000
   10  C  2  S    0.192537   0.194598   0.031367  -0.013390   0.112879
   11  C  2  S   -1.201012  -1.230731  -0.515782  -0.243377  -0.694921
   12  C  2  S    1.962195   3.868127   1.189594   0.536793   0.769829
   13  C  2  X   -0.132896   0.077167   0.136585  -0.458503   0.405944
   14  C  2  Y   -0.346029  -0.218879   0.120822  -0.412352   0.446771
   15  C  2  Z    0.000000   0.000000   0.000000   0.000000   0.000000
   16  C  2  X    0.282411  -0.925684   0.261128   0.821661  -0.486186
   17  C  2  Y    0.281947   0.803806  -0.383643   0.546362  -0.456917
   18  C  2  Z    0.000000   0.000000   0.000000   0.000000   0.000000
   19  F  3  S    0.027493   0.001990   0.058500   0.027220   0.013356
   20  F  3  S   -0.048280   0.079813  -0.210310  -0.055824  -0.071661
   21  F  3  S   -0.444121  -0.765301   0.046655  -0.404487   0.222550
   22  F  3  X    0.024884  -0.059551  -0.017230  -0.085859   0.102811
   23  F  3  Y   -0.125590  -0.092821   0.071434  -0.033936   0.038263
   24  F  3  Z    0.000000   0.000000   0.000000   0.000000   0.000000
   25  F  3  X    0.065333   0.115278  -0.027920  -0.014192   0.025294
   26  F  3  Y    0.086177   0.165667   0.039808   0.162800  -0.091792
   27  F  3  Z    0.000000   0.000000   0.000000   0.000000   0.000000
   28  H  4  S    0.120852   0.364963  -0.578070  -0.315296   0.270038
   29  H  4  S   -0.641573  -0.798454  -0.169915  -0.053051  -0.461994
   30  H  5  S    0.120852   0.364963  -0.578070  -0.315296   0.270038
   31  H  5  S   -0.641573  -0.798454  -0.169915  -0.053051  -0.461994
   32  F  6  S    0.027519  -0.001390   0.058668  -0.026561   0.013754
   33  F  6  S   -0.047869  -0.081642  -0.210409   0.053467  -0.072398
   34  F  6  S   -0.449678   0.764770   0.042163   0.405997   0.216953
   35  F  6  X   -0.024775  -0.060201   0.018056  -0.086960  -0.101680
   36  F  6  Y   -0.126571   0.092826   0.070850   0.034819   0.038292
   37  F  6  Z    0.000000   0.000000   0.000000   0.000000   0.000000
   38  F  6  X   -0.065665   0.113774   0.027729  -0.015552  -0.025998
   39  F  6  Y    0.086863  -0.165211   0.040913  -0.162626  -0.089247
   40  F  6  Z    0.000000   0.000000   0.000000   0.000000   0.000000
   41  H  7  S    0.122188  -0.365866  -0.578151   0.315258   0.268374
   42  H  7  S   -0.645798   0.793654  -0.173875   0.046613  -0.462804
   43  H  8  S    0.122188  -0.365866  -0.578151   0.315258   0.268374
   44  H  8  S   -0.645798   0.793654  -0.173875   0.046613  -0.462804

                     31         32         33         34         35
                    0.7384     0.8005     0.8098     0.8379     0.9231
                     A''        A'         A'         A''        A'  
    1  C  1  S    0.000000   0.119734   0.062633   0.000000  -0.075654
    2  C  1  S    0.000000  -0.812193  -0.324156   0.000000   1.024139
    3  C  1  S    0.000000   1.904902   1.155330   0.000000  -4.838683
    4  C  1  X    0.000000   0.413294   0.580072   0.000000   0.387818
    5  C  1  Y    0.000000   0.526129   0.443855   0.000000  -0.065653
    6  C  1  Z    0.449611   0.000000   0.000000  -0.756460   0.000000
    7  C  1  X    0.000000  -0.704475  -0.734419   0.000000  -1.883936
    8  C  1  Y    0.000000  -1.192711  -0.521030   0.000000   0.573414
    9  C  1  Z   -0.127054   0.000000   0.000000   0.913073   0.000000
   10  C  2  S    0.000000  -0.118076   0.065137   0.000000   0.075617
   11  C  2  S    0.000000   0.803895  -0.340791   0.000000  -1.023319
   12  C  2  S    0.000000  -1.877782   1.189411   0.000000   4.839288
   13  C  2  X    0.000000   0.398557  -0.590470   0.000000   0.385490
   14  C  2  Y    0.000000  -0.516218   0.456736   0.000000   0.065259
   15  C  2  Z   -0.448969   0.000000   0.000000  -0.757057   0.000000
   16  C  2  X    0.000000  -0.685580   0.755578   0.000000  -1.881671
   17  C  2  Y    0.000000   1.181091  -0.548192   0.000000  -0.571385
   18  C  2  Z    0.126711   0.000000   0.000000   0.913463   0.000000
   19  F  3  S    0.000000  -0.015745  -0.010633   0.000000   0.073838
   20  F  3  S    0.000000   0.083320   0.049986   0.000000  -0.284163
   21  F  3  S    0.000000  -0.224844  -0.059868   0.000000   0.021804
   22  F  3  X    0.000000  -0.011750  -0.092519   0.000000  -0.010498
   23  F  3  Y    0.000000  -0.032302   0.033278   0.000000   0.017186
   24  F  3  Z    0.099936   0.000000   0.000000  -0.042065   0.000000
   25  F  3  X    0.000000   0.100274  -0.078361   0.000000   0.097961
   26  F  3  Y    0.000000   0.063044   0.023733   0.000000  -0.008454
   27  F  3  Z    0.005174   0.000000   0.000000  -0.067559   0.000000
   28  H  4  S   -0.591986  -0.024176   0.081901  -0.179321  -0.496240
   29  H  4  S    0.718264   0.940354  -0.601074   0.675374  -0.471917
   30  H  5  S    0.591986  -0.024176   0.081901   0.179321  -0.496240
   31  H  5  S   -0.718264   0.940354  -0.601074  -0.675374  -0.471917
   32  F  6  S    0.000000   0.015603  -0.010994   0.000000  -0.073742
   33  F  6  S    0.000000  -0.082593   0.051845   0.000000   0.283726
   34  F  6  S    0.000000   0.224723  -0.064288   0.000000  -0.020754
   35  F  6  X    0.000000  -0.010000   0.092792   0.000000  -0.010737
   36  F  6  Y    0.000000   0.033089   0.032385   0.000000  -0.017185
   37  F  6  Z   -0.100141   0.000000   0.000000  -0.042196   0.000000
   38  F  6  X    0.000000   0.101846   0.076177   0.000000   0.098359
   39  F  6  Y    0.000000  -0.063073   0.024545   0.000000   0.008176
   40  F  6  Z   -0.005150   0.000000   0.000000  -0.067679   0.000000
   41  H  7  S   -0.592584   0.027097   0.080554   0.178926   0.496081
   42  H  7  S    0.718849  -0.954594  -0.579653  -0.674867   0.471309
   43  H  8  S    0.592584   0.027097   0.080554  -0.178926   0.496081
   44  H  8  S   -0.718849  -0.954594  -0.579653   0.674867   0.471309

                     36         37         38         39         40
                    0.9720     1.3989     1.5001     1.7438     1.7769
                     A''        A'         A'         A'         A'' 
    1  C  1  S    0.000000  -0.033366   0.030719  -0.019203   0.000000
    2  C  1  S    0.000000   0.397276  -0.568574   0.128429   0.000000
    3  C  1  S    0.000000  -1.004236   2.706300   0.039520   0.000000
    4  C  1  X    0.000000   0.063842  -0.041608   0.125830   0.000000
    5  C  1  Y    0.000000   0.011801  -0.003117   0.030514   0.000000
    6  C  1  Z   -0.613401   0.000000   0.000000   0.000000   0.048725
    7  C  1  X    0.000000   0.154365   0.556821  -0.300106   0.000000
    8  C  1  Y    0.000000  -0.217935   0.260762  -0.155904   0.000000
    9  C  1  Z    1.901238   0.000000   0.000000   0.000000  -0.275766
   10  C  2  S    0.000000  -0.033504  -0.030562  -0.019440   0.000000
   11  C  2  S    0.000000   0.399040   0.567212   0.131659   0.000000
   12  C  2  S    0.000000  -1.008841  -2.704412   0.025101   0.000000
   13  C  2  X    0.000000  -0.064152  -0.040466  -0.126507   0.000000
   14  C  2  Y    0.000000   0.012540   0.003231   0.031411   0.000000
   15  C  2  Z    0.613097   0.000000   0.000000   0.000000   0.049018
   16  C  2  X    0.000000  -0.153956   0.554375   0.304873   0.000000
   17  C  2  Y    0.000000  -0.218581  -0.260247  -0.158820   0.000000
   18  C  2  Z   -1.900030   0.000000   0.000000   0.000000  -0.275817
   19  F  3  S    0.000000   0.223861   0.207163  -0.013285   0.000000
   20  F  3  S    0.000000  -1.138715  -1.078213   0.057043   0.000000
   21  F  3  S    0.000000   1.470967   1.535986  -0.023053   0.000000
   22  F  3  X    0.000000  -0.028816  -0.135630   0.666176   0.000000
   23  F  3  Y    0.000000  -0.263664  -0.309755  -0.146317   0.000000
   24  F  3  Z    0.198389   0.000000   0.000000   0.000000  -0.688421
   25  F  3  X    0.000000  -0.042668   0.047169  -0.706668   0.000000
   26  F  3  Y    0.000000   0.069413   0.102900   0.148725   0.000000
   27  F  3  Z    0.104686   0.000000   0.000000   0.000000   0.714607
   28  H  4  S   -0.365040   0.100521   0.176629  -0.081846  -0.087623
   29  H  4  S   -0.613339   0.210368   0.335247  -0.021056  -0.071111
   30  H  5  S    0.365040   0.100521   0.176629  -0.081846   0.087623
   31  H  5  S    0.613339   0.210368   0.335247  -0.021056   0.071111
   32  F  6  S    0.000000   0.223764  -0.207215  -0.013601   0.000000
   33  F  6  S    0.000000  -1.138221   1.078613   0.058876   0.000000
   34  F  6  S    0.000000   1.470095  -1.537753  -0.026913   0.000000
   35  F  6  X    0.000000   0.028434  -0.133318  -0.667078   0.000000
   36  F  6  Y    0.000000  -0.263767   0.310559  -0.143199   0.000000
   37  F  6  Z   -0.198418   0.000000   0.000000   0.000000  -0.687944
   38  F  6  X    0.000000   0.042448   0.045635   0.707368   0.000000
   39  F  6  Y    0.000000   0.069584  -0.103180   0.146068   0.000000
   40  F  6  Z   -0.105065   0.000000   0.000000   0.000000   0.714296
   41  H  7  S   -0.365407   0.100149  -0.176300  -0.082205   0.087653
   42  H  7  S   -0.613730   0.210021  -0.335569  -0.022498   0.071229
   43  H  8  S    0.365407   0.100149  -0.176300  -0.082205  -0.087653
   44  H  8  S    0.613730   0.210021  -0.335569  -0.022498  -0.071229

                     41         42         43         44
                    1.9017     1.9353     2.1065     2.2309
                     A'         A''        A'         A'  
    1  C  1  S    0.011520   0.000000   0.029530  -0.048287
    2  C  1  S   -0.101098   0.000000   0.016261  -0.095931
    3  C  1  S    0.019125   0.000000  -0.807468   2.197900
    4  C  1  X    0.004551   0.000000   0.132930  -0.077837
    5  C  1  Y   -0.043183   0.000000  -0.219754   0.253419
    6  C  1  Z    0.000000  -0.130440   0.000000   0.000000
    7  C  1  X   -0.409176   0.000000   0.176225   0.360244
    8  C  1  Y    0.108363   0.000000  -0.208705   0.380260
    9  C  1  Z    0.000000   0.938373   0.000000   0.000000
   10  C  2  S   -0.011573   0.000000   0.029541   0.048235
   11  C  2  S    0.101706   0.000000   0.018611   0.096132
   12  C  2  S   -0.019721   0.000000  -0.815619  -2.194441
   13  C  2  X    0.004869   0.000000  -0.133931  -0.077459
   14  C  2  Y    0.043549   0.000000  -0.219303  -0.251966
   15  C  2  Z    0.000000   0.130271   0.000000   0.000000
   16  C  2  X   -0.409351   0.000000  -0.176351   0.358734
   17  C  2  Y   -0.107999   0.000000  -0.210041  -0.378828
   18  C  2  Z    0.000000  -0.936860   0.000000   0.000000
   19  F  3  S   -0.007268   0.000000   0.099716   0.126594
   20  F  3  S    0.017539   0.000000  -0.605353  -0.771155
   21  F  3  S    0.094421   0.000000   1.005391   1.354622
   22  F  3  X   -0.635324   0.000000   0.154689   0.225522
   23  F  3  Y    0.266234   0.000000   0.625716   0.564992
   24  F  3  Z    0.000000  -0.664703   0.000000   0.000000
   25  F  3  X    0.679797   0.000000  -0.246499  -0.353348
   26  F  3  Y   -0.329102   0.000000  -0.896516  -0.910621
   27  F  3  Z    0.000000   0.802315   0.000000   0.000000
   28  H  4  S    0.038532  -0.256972   0.116959   0.171289
   29  H  4  S    0.061042  -0.201408   0.156246   0.256559
   30  H  5  S    0.038532   0.256972   0.116959   0.171289
   31  H  5  S    0.061042   0.201408   0.156246   0.256559
   32  F  6  S    0.007317   0.000000   0.099358  -0.126993
   33  F  6  S   -0.017845   0.000000  -0.603370   0.773847
   34  F  6  S   -0.093776   0.000000   1.001991  -1.360274
   35  F  6  X   -0.636020   0.000000  -0.152460   0.223615
   36  F  6  Y   -0.264773   0.000000   0.624323  -0.567535
   37  F  6  Z    0.000000   0.665161   0.000000   0.000000
   38  F  6  X    0.680948   0.000000   0.243282  -0.350691
   39  F  6  Y    0.327419   0.000000  -0.894779   0.915292
   40  F  6  Z    0.000000  -0.803204   0.000000   0.000000
   41  H  7  S   -0.038469  -0.257412   0.116277  -0.171463
   42  H  7  S   -0.061014  -0.202017   0.155216  -0.257032
   43  H  8  S   -0.038469   0.257412   0.116277  -0.171463
   44  H  8  S   -0.061014   0.202017   0.155216  -0.257032
 ...... END OF RHF CALCULATION ......
 STEP CPU TIME =     3.97 TOTAL CPU TIME =          4.1 (      0.1 MIN)
 TOTAL WALL CLOCK TIME=          4.1 SECONDS, CPU UTILIZATION IS    99.03%

     ---------------------------------------------------------------------
     PROPERTIES FOR THE PBE      DFT FUNCTIONAL (RHF  TYPE) DENSITY MATRIX
     ---------------------------------------------------------------------

          -----------------
          ENERGY COMPONENTS
          -----------------

         WAVEFUNCTION NORMALIZATION =       1.0000000000

                ONE ELECTRON ENERGY =    -633.3452484263
                TWO ELECTRON ENERGY =     229.9303221054
           NUCLEAR REPULSION ENERGY =     126.2232482140
                                      ------------------
                       TOTAL ENERGY =    -277.1916781069

 ELECTRON-ELECTRON POTENTIAL ENERGY =     229.9303221054
  NUCLEUS-ELECTRON POTENTIAL ENERGY =    -909.1611277288
   NUCLEUS-NUCLEUS POTENTIAL ENERGY =     126.2232482140
                                      ------------------
             TOTAL POTENTIAL ENERGY =    -553.0075574094
               TOTAL KINETIC ENERGY =     275.8158793024
                 VIRIAL RATIO (V/T) =       2.0049881059

          ---------------------------------------
          MULLIKEN AND LOWDIN POPULATION ANALYSES
          ---------------------------------------

     ATOMIC MULLIKEN POPULATION IN EACH MOLECULAR ORBITAL

                      1          2          3          4          5

                  2.000000   2.000000   2.000000   2.000000   2.000000

    1             0.001776  -0.000006   1.189008   0.807290   0.106518
    2             0.000200   0.001564   0.807582   1.188725   0.102231
    3             0.227460   1.770908  -0.000141  -0.000054   0.860383
    4            -0.000010  -0.000057   0.000737   0.001209   0.003763
    5            -0.000010  -0.000057   0.000737   0.001209   0.003763
    6             1.770708   0.227657  -0.000181  -0.000016   0.915345
    7            -0.000062  -0.000005   0.001128   0.000819   0.003999
    8            -0.000062  -0.000005   0.001128   0.000819   0.003999

                      6          7          8          9         10

                  2.000000   2.000000   2.000000   2.000000   2.000000

    1             0.062920   0.759214   0.577880   0.609548   0.491879
    2             0.067063   0.759072   0.578020   0.605851   0.489076
    3             0.956071   0.114510   0.188052   0.121981   0.386405
    4             0.003412   0.063038   0.116886   0.134326   0.059755
    5             0.003412   0.063038   0.116886   0.134326   0.059755
    6             0.900727   0.115022   0.188547   0.123717   0.392738
    7             0.003198   0.063052   0.116865   0.135125   0.060196
    8             0.003198   0.063052   0.116865   0.135125   0.060196

                     11         12         13         14         15

                  2.000000   2.000000   2.000000   2.000000   2.000000

    1             0.428820   0.245854   0.444072   0.050541   0.037903
    2             0.427618   0.249777   0.448130   0.051921   0.036583
    3             0.559094   0.669433   0.280916   0.936922   0.845908
    4             0.004449   0.044598   0.137167   0.004473   0.054655
    5             0.004449   0.044598   0.137167   0.004473   0.054655
    6             0.567215   0.657046   0.280957   0.942304   0.857679
    7             0.004178   0.044347   0.135795   0.004683   0.056309
    8             0.004178   0.044347   0.135795   0.004683   0.056309

                     16         17

                  2.000000   2.000000

    1             0.205926   0.089952
    2             0.205299   0.090855
    3             0.710320   0.700864
    4             0.044030   0.108306
    5             0.044030   0.108306
    6             0.702664   0.687103
    7             0.043865   0.107307
    8             0.043865   0.107307

               ----- POPULATIONS IN EACH AO -----
                             MULLIKEN      LOWDIN
              1  C  1  S      1.98043     1.95755
              2  C  1  S      0.86601     0.67538
              3  C  1  S      0.41503     0.40591
              4  C  1  X      0.49977     0.48333
              5  C  1  Y      0.38489     0.37494
              6  C  1  Z      0.54381     0.51935
              7  C  1  X      0.48040     0.56016
              8  C  1  Y      0.30109     0.40056
              9  C  1  Z      0.63767     0.63118
             10  C  2  S      1.98043     1.95755
             11  C  2  S      0.86606     0.67554
             12  C  2  S      0.41525     0.40599
             13  C  2  X      0.49958     0.48317
             14  C  2  Y      0.38474     0.37476
             15  C  2  Z      0.54377     0.51933
             16  C  2  X      0.47985     0.55984
             17  C  2  Y      0.30223     0.40117
             18  C  2  Z      0.63765     0.63127
             19  F  3  S      1.98456     1.97090
             20  F  3  S      1.03253     0.99253
             21  F  3  S      0.97625     0.87560
             22  F  3  X      0.86239     0.86799
             23  F  3  Y      0.65414     0.64381
             24  F  3  Z      0.89904     0.90706
             25  F  3  X      1.02264     1.02346
             26  F  3  Y      0.84685     0.87018
             27  F  3  Z      1.05062     1.05155
             28  H  4  S      0.59519     0.57376
             29  H  4  S      0.18555     0.32049
             30  H  5  S      0.59519     0.57376
             31  H  5  S      0.18555     0.32049
             32  F  6  S      1.98456     1.97089
             33  F  6  S      1.03248     0.99244
             34  F  6  S      0.97634     0.87530
             35  F  6  X      0.86311     0.86877
             36  F  6  Y      0.65373     0.64336
             37  F  6  Z      0.89898     0.90699
             38  F  6  X      1.02310     1.02381
             39  F  6  Y      0.84646     0.86984
             40  F  6  Z      1.05047     1.05145
             41  H  7  S      0.59523     0.57380
             42  H  7  S      0.18556     0.32050
             43  H  8  S      0.59523     0.57380
             44  H  8  S      0.18556     0.32050

          ----- MULLIKEN ATOMIC OVERLAP POPULATIONS -----
          (OFF-DIAGONAL ELEMENTS NEED TO BE MULTIPLIED BY 2)

             1           2           3           4           5

    1    5.1471976
    2    0.1553860   5.1470787
    3   -0.0327259   0.1877860   9.2084996
    4   -0.0392072   0.3652592  -0.0183518   0.5108781
    5   -0.0392072   0.3652592  -0.0183518  -0.0393391   0.5108781
    6    0.1875241  -0.0328246  -0.0001090   0.0011524   0.0011524
    7    0.3650634  -0.0391889   0.0011430   0.0043928  -0.0040453
    8    0.3650634  -0.0391889   0.0011430  -0.0040453   0.0043928

             6           7           8

    6    9.2090564
    7   -0.0183599   0.5111412
    8   -0.0183599  -0.0393485   0.5111412

          TOTAL MULLIKEN AND LOWDIN ATOMIC POPULATIONS
       ATOM         MULL.POP.    CHARGE          LOW.POP.     CHARGE
    1 C             6.109094   -0.109094         6.008368   -0.008368
    2 C             6.109567   -0.109567         6.008609   -0.008609
    3 F             9.329033   -0.329033         9.203065   -0.203065
    4 H             0.780739    0.219261         0.894251    0.105749
    5 H             0.780739    0.219261         0.894251    0.105749
    6 F             9.329232   -0.329232         9.202850   -0.202850
    7 H             0.780798    0.219202         0.894303    0.105697
    8 H             0.780798    0.219202         0.894303    0.105697

          MULLIKEN SPHERICAL HARMONIC POPULATIONS
       ATOM           S       P       D      F      G      H      I    TOTAL
    1 C             3.26    2.85    0.00   0.00   0.00   0.00   0.00    6.11
    2 C             3.26    2.85    0.00   0.00   0.00   0.00   0.00    6.11
    3 F             3.99    5.34    0.00   0.00   0.00   0.00   0.00    9.33
    4 H             0.78    0.00    0.00   0.00   0.00   0.00   0.00    0.78
    5 H             0.78    0.00    0.00   0.00   0.00   0.00   0.00    0.78
    6 F             3.99    5.34    0.00   0.00   0.00   0.00   0.00    9.33
    7 H             0.78    0.00    0.00   0.00   0.00   0.00   0.00    0.78
    8 H             0.78    0.00    0.00   0.00   0.00   0.00   0.00    0.78

          -------------------------------
          BOND ORDER AND VALENCE ANALYSIS     BOND ORDER THRESHOLD=0.050
          -------------------------------

                   BOND                       BOND                       BOND
  ATOM PAIR DIST  ORDER      ATOM PAIR DIST  ORDER      ATOM PAIR DIST  ORDER
    1   2  1.574  0.898        1   6  1.434  0.869        1   7  1.108  0.904
    1   8  1.108  0.904        2   3  1.435  0.869        2   4  1.108  0.904
    2   5  1.108  0.904

                       TOTAL       BONDED        FREE
      ATOM            VALENCE     VALENCE     VALENCE
    1 C                 3.584       3.584      -0.000
    2 C                 3.585       3.585       0.000
    3 F                 0.966       0.966      -0.000
    4 H                 0.915       0.915       0.000
    5 H                 0.915       0.915       0.000
    6 F                 0.966       0.966      -0.000
    7 H                 0.915       0.915       0.000
    8 H                 0.915       0.915       0.000

          ---------------------
          ELECTROSTATIC MOMENTS
          ---------------------

 POINT   1           X           Y           Z (BOHR)    CHARGE
                -0.000000   -0.000000    0.000000       -0.00 (A.U.)
         DX          DY          DZ         /D/  (DEBYE)
    -0.007627   -3.595740   -0.000000    3.595748
 ...... END OF PROPERTY EVALUATION ......
 STEP CPU TIME =     0.01 TOTAL CPU TIME =          4.1 (      0.1 MIN)
 TOTAL WALL CLOCK TIME=          4.1 SECONDS, CPU UTILIZATION IS    99.27%

 BEGINNING ONE ELECTRON GRADIENT...
 ..... END OF 1-ELECTRON GRADIENT ......
 STEP CPU TIME =     0.00 TOTAL CPU TIME =          4.1 (      0.1 MIN)
 TOTAL WALL CLOCK TIME=          4.1 SECONDS, CPU UTILIZATION IS    99.03%

          ----------------------
          GRADIENT OF THE ENERGY
          ----------------------
 MEMORY FOR GRID POINT CONTRIBUTIONS TO THE DFT GRADIENT=    295391 WORDS.
 STEP CPU TIME =     0.83 TOTAL CPU TIME =          4.9 (      0.1 MIN)
 TOTAL WALL CLOCK TIME=          5.0 SECONDS, CPU UTILIZATION IS    99.20%
 THE COARSE/FINE SCHWARZ SCREENINGS SKIPPED         5910/        3204 BLOCKS.
 THE NUMBER OF GRADIENT INTEGRAL BLOCKS COMPUTED WAS     43255
 ...... END OF 2-ELECTRON GRADIENT ......
 STEP CPU TIME =     0.05 TOTAL CPU TIME =          5.0 (      0.1 MIN)
 TOTAL WALL CLOCK TIME=          5.0 SECONDS, CPU UTILIZATION IS    99.40%
 THE VIB 0 GRADIENT RMS = 1.55050783E-04

 THE VIB 0 GEOMETRY GRADIENT IS

 UNITS ARE HARTREE/BOHR    E'X               E'Y               E'Z 
    1 C               -0.000366099       0.000034220       0.000000000
    2 C               -0.000240952      -0.000203310       0.000000000
    3 F                0.000189895       0.000372422       0.000000000
    4 H                0.000045486       0.000009957      -0.000015241
    5 H                0.000045486       0.000009957       0.000015241
    6 F                0.000286806      -0.000279368       0.000000000
    7 H                0.000019689       0.000028061       0.000009260
    8 H                0.000019689       0.000028061      -0.000009260
  $VIB   
          IVIB=   0 IATOM=   0 ICOORD=   0 E=     -277.1916781069
 -3.660994142E-04 3.421976896E-05 0.000000000E+00-2.409523771E-04-2.033098309E-04
  0.000000000E+00 1.898946563E-04 3.724222284E-04 0.000000000E+00 4.548620564E-05
  9.957071223E-06-1.524092610E-05 4.548620564E-05 9.957071223E-06 1.524092610E-05
  2.868058898E-04-2.793684613E-04 0.000000000E+00 1.968941698E-05 2.806107617E-05
  9.259699795E-06 1.968941698E-05 2.806107617E-05-9.259699795E-06
 -7.627093199E-03-3.595740369E+00-1.693156282E-15
1   ATOM  1
                                        -------------------
   COORD  1                             NUCLEAR COORDINATES
                                        -------------------
     VIB  1

                       ATOM             X              Y              Z

                 1  C               -1.479775      -1.419012       0.000000
                 2  C                1.484340      -1.421474       0.000000
                 3  F                2.356093       1.147157       0.000000
                 4  H                2.237818      -2.374982      -1.705352
                 5  H                2.237818      -2.374982       1.705352
                 6  F               -2.351994       1.150528       0.000000
                 7  H               -2.244096      -2.371127       1.705637
                 8  H               -2.244096      -2.371127      -1.705637
 ...... END OF ONE-ELECTRON INTEGRALS ......
 STEP CPU TIME =     0.00 TOTAL CPU TIME =          5.0 (      0.1 MIN)
 TOTAL WALL CLOCK TIME=          5.0 SECONDS, CPU UTILIZATION IS    99.20%
 TOTAL NUMBER OF NONZERO TWO-ELECTRON INTEGRALS =              339397
         23 INTEGRAL RECORDS WERE STORED ON DISK FILE  8.
  ...... END OF TWO-ELECTRON INTEGRALS .....
 STEP CPU TIME =     0.04 TOTAL CPU TIME =          5.0 (      0.1 MIN)
 TOTAL WALL CLOCK TIME=          5.1 SECONDS, CPU UTILIZATION IS    99.01%

          --------------------------
               R-PBE SCF CALCULATION
          --------------------------
         DENSITY MATRIX CONVERGENCE THRESHOLD=  1.00E-05
     COARSE -> FINE DFT GRID SWITCH THRESHOLD=  3.00E-04 (SWITCH IN $DFT)
                   HF -> DFT SWITCH THRESHOLD=  5.00E-03 (SWOFF IN $DFT)

 ITER EX DEM     TOTAL ENERGY        E CHANGE  DENSITY CHANGE    DIIS ERROR
          * * *   INITIATING DIIS PROCEDURE   * * *
   1  0  0     -277.1916469719  -277.1916469719   0.004281754   0.001857811
   2  1  0     -277.1916607068    -0.0000137349   0.001099411   0.000581000
   3  2  0     -277.1916601320     0.0000005748   0.000514690   0.000777182
   4  3  0     -277.1916621390    -0.0000020070   0.000083288   0.000098715
   5  4  0     -277.1916621739    -0.0000000349   0.000021192   0.000032030
   6  5  0     -277.1916621759    -0.0000000020   0.000004291   0.000004004
   7  6  0     -277.1916621760    -0.0000000000   0.000001130   0.000001356

          -----------------
          DENSITY CONVERGED
          -----------------
     TIME TO FORM FOCK OPERATORS=       3.7 SECONDS (       0.5 SEC/ITER)
     TIME TO SOLVE SCF EQUATIONS=       0.0 SECONDS (       0.0 SEC/ITER)

 FINAL R-PBE ENERGY IS     -277.1916621760 AFTER   7 ITERATIONS
 DFT EXCHANGE + CORRELATION ENERGY =       -32.7948131339
 TOTAL ELECTRON NUMBER             =        34.0002320911
 ...... END OF RHF CALCULATION ......
 STEP CPU TIME =     3.82 TOTAL CPU TIME =          8.8 (      0.1 MIN)
 TOTAL WALL CLOCK TIME=          8.9 SECONDS, CPU UTILIZATION IS    99.33%
 ..... END OF 1-ELECTRON GRADIENT ......
 STEP CPU TIME =     0.01 TOTAL CPU TIME =          8.9 (      0.1 MIN)
 TOTAL WALL CLOCK TIME=          8.9 SECONDS, CPU UTILIZATION IS    99.33%
 MEMORY FOR GRID POINT CONTRIBUTIONS TO THE DFT GRADIENT=    295391 WORDS.
 STEP CPU TIME =     1.28 TOTAL CPU TIME =         10.1 (      0.2 MIN)
 TOTAL WALL CLOCK TIME=         10.2 SECONDS, CPU UTILIZATION IS    99.51%
 ...... END OF 2-ELECTRON GRADIENT ......
 STEP CPU TIME =     0.06 TOTAL CPU TIME =         10.2 (      0.2 MIN)
 TOTAL WALL CLOCK TIME=         10.2 SECONDS, CPU UTILIZATION IS    99.41%

 UNITS ARE HARTREE/BOHR    E'X               E'Y               E'Z 
    1 C                0.003564134       0.000418976       0.000000080
    2 C               -0.001464599      -0.000157604      -0.000000077
    3 F               -0.000010681       0.000218159      -0.000000077
    4 H               -0.000082972       0.000006989      -0.000054036
    5 H               -0.000083070       0.000007014       0.000054094
    6 F               -0.000338596       0.000238194       0.000000076
    7 H               -0.000792155      -0.000365876       0.000739162
    8 H               -0.000792061      -0.000365851      -0.000739222
  $VIB   
          IVIB=   1 IATOM=   1 ICOORD=   1 E=     -277.1916621760
  3.564134310E-03 4.189759974E-04 7.990744572E-08-1.464598529E-03-1.576043564E-04
 -7.655943615E-08-1.068123504E-05 2.181587596E-04-7.699084359E-08-8.297218590E-05
  6.989479348E-06-5.403641629E-05-8.306978901E-05 7.014106723E-06 5.409438485E-05
 -3.385958999E-04 2.381935842E-04 7.595985694E-08-7.921553802E-04-3.658761612E-04
  7.391617685E-04-7.920612907E-04-3.658514098E-04-7.392220540E-04
  1.479256422E-04-3.599085741E+00-2.535899819E-08
1   ATOM  1
                                        -------------------
   COORD  2                             NUCLEAR COORDINATES
                                        -------------------
     VIB  1

                       ATOM             X              Y              Z

                 1  C               -1.489775      -1.409012       0.000000
                 2  C                1.484340      -1.421474       0.000000
                 3  F                2.356093       1.147157       0.000000
                 4  H                2.237818      -2.374982      -1.705352
                 5  H                2.237818      -2.374982       1.705352
                 6  F               -2.351994       1.150528       0.000000
                 7  H               -2.244096      -2.371127       1.705637
                 8  H               -2.244096      -2.371127      -1.705637
 ...... END OF ONE-ELECTRON INTEGRALS ......
 STEP CPU TIME =     0.00 TOTAL CPU TIME =         10.2 (      0.2 MIN)
 TOTAL WALL CLOCK TIME=         10.2 SECONDS, CPU UTILIZATION IS    99.41%
 TOTAL NUMBER OF NONZERO TWO-ELECTRON INTEGRALS =              339352
         23 INTEGRAL RECORDS WERE STORED ON DISK FILE  8.
  ...... END OF TWO-ELECTRON INTEGRALS .....
 STEP CPU TIME =     0.09 TOTAL CPU TIME =         10.3 (      0.2 MIN)
 TOTAL WALL CLOCK TIME=         10.3 SECONDS, CPU UTILIZATION IS    99.32%

          --------------------------
               R-PBE SCF CALCULATION
          --------------------------
         DENSITY MATRIX CONVERGENCE THRESHOLD=  1.00E-05
     COARSE -> FINE DFT GRID SWITCH THRESHOLD=  3.00E-04 (SWITCH IN $DFT)
                   HF -> DFT SWITCH THRESHOLD=  5.00E-03 (SWOFF IN $DFT)

 ITER EX DEM     TOTAL ENERGY        E CHANGE  DENSITY CHANGE    DIIS ERROR
          * * *   INITIATING DIIS PROCEDURE   * * *
   1  0  0     -277.1916369717  -277.1916369717   0.003035700   0.001537470
   2  1  0     -277.1916493118    -0.0000123401   0.001589566   0.001065504
   3  2  0     -277.1916517513    -0.0000024396   0.000557483   0.000743847
   4  3  0     -277.1916545005    -0.0000027492   0.000089256   0.000128652
   5  4  0     -277.1916545506    -0.0000000501   0.000020883   0.000017451
   6  5  0     -277.1916545515    -0.0000000009   0.000007822   0.000013335
   7  6  0     -277.1916545520    -0.0000000005   0.000001131   0.000001197

          -----------------
          DENSITY CONVERGED
          -----------------
     TIME TO FORM FOCK OPERATORS=       3.8 SECONDS (       0.5 SEC/ITER)
     TIME TO SOLVE SCF EQUATIONS=       0.0 SECONDS (       0.0 SEC/ITER)

 FINAL R-PBE ENERGY IS     -277.1916545520 AFTER   7 ITERATIONS
 DFT EXCHANGE + CORRELATION ENERGY =       -32.7947089984
 TOTAL ELECTRON NUMBER             =        34.0002201049
 ...... END OF RHF CALCULATION ......
 STEP CPU TIME =     3.97 TOTAL CPU TIME =         14.2 (      0.2 MIN)
 TOTAL WALL CLOCK TIME=         14.3 SECONDS, CPU UTILIZATION IS    99.44%
 ..... END OF 1-ELECTRON GRADIENT ......
 STEP CPU TIME =     0.00 TOTAL CPU TIME =         14.2 (      0.2 MIN)
 TOTAL WALL CLOCK TIME=         14.3 SECONDS, CPU UTILIZATION IS    99.44%
 MEMORY FOR GRID POINT CONTRIBUTIONS TO THE DFT GRADIENT=    295391 WORDS.
 STEP CPU TIME =     1.11 TOTAL CPU TIME =         15.4 (      0.3 MIN)
 TOTAL WALL CLOCK TIME=         15.4 SECONDS, CPU UTILIZATION IS    99.48%
 ...... END OF 2-ELECTRON GRADIENT ......
 STEP CPU TIME =     0.06 TOTAL CPU TIME =         15.4 (      0.3 MIN)
 TOTAL WALL CLOCK TIME=         15.5 SECONDS, CPU UTILIZATION IS    99.48%

 UNITS ARE HARTREE/BOHR    E'X               E'Y               E'Z 
    1 C               -0.000008627       0.004683518       0.000000079
    2 C               -0.000287607      -0.000673149      -0.000000077
    3 F               -0.000083440       0.000166036      -0.000000077
    4 H                0.000150717       0.000043172      -0.000001267
    5 H                0.000150620       0.000043197       0.000001325
    6 F                0.000859310      -0.002558548       0.000000076
    7 H               -0.000390534      -0.000852126       0.000837048
    8 H               -0.000390439      -0.000852100      -0.000837107
  $VIB   
          IVIB=   1 IATOM=   1 ICOORD=   2 E=     -277.1916545520
 -8.627377341E-06 4.683518455E-03 7.863719008E-08-2.876072575E-04-6.731492916E-04
 -7.736762007E-08-8.344000104E-05 1.660360520E-04-7.672633121E-08 1.507173497E-04
  4.317186555E-05-1.266908279E-06 1.506200515E-04 4.319703835E-05 1.325186553E-06
  8.593099795E-04-2.558548196E-03 7.599906262E-08-3.905342057E-04-8.521256459E-04
  8.370481695E-04-3.904385392E-04-8.521002770E-04-8.371069901E-04
 -7.712231094E-03-3.581415856E+00-6.112106237E-08
1   ATOM  1
                                        -------------------
   COORD  3                             NUCLEAR COORDINATES
                                        -------------------
     VIB  1

                       ATOM             X              Y              Z

                 1  C               -1.489775      -1.419012       0.010000
                 2  C                1.484340      -1.421474       0.000000
                 3  F                2.356093       1.147157       0.000000
                 4  H                2.237818      -2.374982      -1.705352
                 5  H                2.237818      -2.374982       1.705352
                 6  F               -2.351994       1.150528       0.000000
                 7  H               -2.244096      -2.371127       1.705637
                 8  H               -2.244096      -2.371127      -1.705637
 ...... END OF ONE-ELECTRON INTEGRALS ......
 STEP CPU TIME =     0.00 TOTAL CPU TIME =         15.4 (      0.3 MIN)
 TOTAL WALL CLOCK TIME=         15.5 SECONDS, CPU UTILIZATION IS    99.48%
 TOTAL NUMBER OF NONZERO TWO-ELECTRON INTEGRALS =              393177
         27 INTEGRAL RECORDS WERE STORED ON DISK FILE  8.
  ...... END OF TWO-ELECTRON INTEGRALS .....
 STEP CPU TIME =     0.05 TOTAL CPU TIME =         15.5 (      0.3 MIN)
 TOTAL WALL CLOCK TIME=         15.6 SECONDS, CPU UTILIZATION IS    99.49%

          --------------------------
               R-PBE SCF CALCULATION
          --------------------------
         DENSITY MATRIX CONVERGENCE THRESHOLD=  1.00E-05
     COARSE -> FINE DFT GRID SWITCH THRESHOLD=  3.00E-04 (SWITCH IN $DFT)
                   HF -> DFT SWITCH THRESHOLD=  5.00E-03 (SWOFF IN $DFT)

 ITER EX DEM     TOTAL ENERGY        E CHANGE  DENSITY CHANGE    DIIS ERROR
          * * *   INITIATING DIIS PROCEDURE   * * *
   1  0  0     -277.1916347676  -277.1916347676   0.002060571   0.001260183
   2  1  0     -277.1916493016    -0.0000145340   0.000299753   0.000150347
   3  2  0     -277.1916494512    -0.0000001496   0.000080153   0.000047910
   4  3  0     -277.1916494644    -0.0000000131   0.000013545   0.000012697
[...]
                D/DZ    -0.406000403   -0.436618257   -0.332270049

          --------------------------------------------------------
          NORMAL COORDINATE ANALYSIS IN THE HARMONIC APPROXIMATION
          --------------------------------------------------------

          ATOMIC WEIGHTS (AMU)

    1     C                12.00000
    2     C                12.00000
    3     F                18.99840
    4     H                 1.00782
    5     H                 1.00782
    6     F                18.99840
    7     H                 1.00782
    8     H                 1.00782

 MODE(S)     1 TO     1 TREATED AS IMAGINARY.

 MODES    2 TO    7 ARE TAKEN AS ROTATIONS AND TRANSLATIONS.

 ANALYZING SYMMETRY OF NORMAL MODES...

 --- SYMMETRY FOR NORMAL MODES ---
 INCLUDING TRANSLATION AND ROTATION
   14*A'    10*A'' 
 EXCLUDING TRANSLATION AND ROTATION (SAYVETZ < 0.01)
    7*A'     4*A'' 

     FREQUENCIES IN CM**-1, IR INTENSITIES IN DEBYE**2/AMU-ANGSTROM**2,
     REDUCED MASSES IN AMU.

                            1           2           3           4           5
       FREQUENCY:       174.94 I     11.32        5.28        0.04        0.02  
        SYMMETRY:         A''         A''         A'          A'          A'  
    REDUCED MASS:      1.95184     4.19229     6.18158     8.30679     8.25381
    IR INTENSITY:      0.00002     0.19222     0.10891     0.00001     0.00000

  1   C            X -0.00000000 -0.00001791  0.07004797  0.12253433  0.00452238
                   Y  0.00000010  0.00001893 -0.07441388 -0.00405486  0.12300437
                   Z  0.11414444 -0.03456848  0.00000865  0.00004960  0.00012373
  2   C            X  0.00000000 -0.00001791  0.07015663  0.12253379  0.00452011
                   Y  0.00000006 -0.00001914  0.07440067 -0.00503323  0.12295552
                   Z -0.11207734 -0.14636713 -0.00003345  0.00005037  0.00012551
  3   F            X  0.00000010  0.00001407 -0.05493068  0.12333654  0.00456229
                   Y  0.00000001 -0.00003017  0.11750758 -0.00530613  0.12294408
                   Z  0.07417213 -0.01765021 -0.00002166  0.00005066  0.00012600
  4   H            X -0.12056814 -0.06529191  0.11848234  0.12223003  0.00450386
                   Y  0.18044387  0.10845595  0.11268250 -0.00526550  0.12294201
                   Z -0.26564568 -0.23601632 -0.00005971  0.00004789  0.00012549
  5   H            X  0.12056802  0.06523125  0.11853111  0.12222921  0.00450185
                   Y -0.18044370 -0.10851376  0.11265018 -0.00526556  0.12294193
                   Z -0.26564562 -0.23601626 -0.00004680  0.00005318  0.00012640
  6   F            X -0.00000006  0.00001424 -0.05600880  0.12334179  0.00456295
                   Y  0.00000006  0.00002992 -0.11742719 -0.00378306  0.12302085
                   Z -0.07580678  0.16760338  0.00004869  0.00004939  0.00012331
  7   H            X  0.12064752  0.06308613  0.11857711  0.12222913  0.00450735
                   Y  0.18245455 -0.11419904 -0.11300764 -0.00382110  0.12301502
                   Z  0.26877431 -0.07065922 -0.00003098  0.00004693  0.00012354
  8   H            X -0.12064744 -0.06314679  0.11852910  0.12223007  0.00450933
                   Y -0.18245428  0.11425658 -0.11297015 -0.00382109  0.12301503
                   Z  0.26877426 -0.07065922  0.00004852  0.00005186  0.00012303

 TRANS. SAYVETZ    X  0.00000064 -0.00001431  0.05261215  8.12005516  0.30003820
                   Y  0.00000386 -0.00000744  0.00071848 -0.30005260  8.12022181
                   Z  0.00005560  0.05949251  0.00012615  0.00330181  0.00822976
               TOTAL  0.00005574  0.05949251  0.05261721  8.12559772  8.12576722

   ROT. SAYVETZ    X -0.09227341  8.59732080  0.00134856  0.00000208  0.00000148
                   Y  0.57268289 11.45467811  0.00434185 -0.00007834 -0.00017077
                   Z -0.00000413 -0.00514561 20.12666788 -0.13015699 -0.00659077
               TOTAL  0.58006903 14.32213679 20.12666840  0.13015702  0.00659298

                            6           7           8           9          10
       FREQUENCY:         0.05       13.49      256.24      550.33      823.65  
        SYMMETRY:         A''         A''         A'          A'          A'' 
    REDUCED MASS:      8.21957     4.54944    17.76367     6.72375     1.16711
    IR INTENSITY:      0.00000     0.15445     0.00487     0.46053     0.00312

  1   C            X -0.00005530  0.00000758 -0.00726555  0.11765025 -0.00000002
                   Y -0.00012196 -0.00000854  0.03104328  0.08945578 -0.00000000
                   Z  0.12265009 -0.14346497 -0.00000011 -0.00000003  0.07233491
  2   C            X -0.00005530  0.00000755  0.00686756  0.11723053  0.00000015
                   Y -0.00012347  0.00000788  0.03079815 -0.08923961 -0.00000008
                   Z  0.12404308 -0.02140657  0.00000011 -0.00000002  0.07274551
  3   F            X -0.00005402 -0.00000636  0.15896924 -0.08662394 -0.00000005
                   Y -0.00012391  0.00001265 -0.01995075 -0.05318566 -0.00000002
                   Z  0.12399635  0.17009396  0.00000003 -0.00000001 -0.02414453
  4   H            X  0.00074433  0.06930123 -0.02799831  0.11650891 -0.34872624
                   Y -0.00042178  0.10502931 -0.00068561 -0.08644743  0.21818935
                   Z  0.12456351 -0.04974107  0.00170403 -0.00453978 -0.20541428
  5   H            X -0.00085582 -0.06927547 -0.02799853  0.11650850  0.34872669
                   Y  0.00017404 -0.10500505 -0.00068552 -0.08644700 -0.21818950
                   Z  0.12456347 -0.04974105 -0.00170365  0.00454014 -0.20541432
  6   F            X -0.00005401 -0.00000635 -0.15865534 -0.08656234 -0.00000007
                   Y -0.00012152 -0.00001329 -0.01899642  0.05308797  0.00000008
                   Z  0.12166206 -0.03851686 -0.00000003 -0.00000000 -0.02393121
  7   H            X -0.00085728 -0.07138706  0.02738773  0.11732393 -0.34959071
                   Y  0.00026679 -0.09425190 -0.00037613  0.08609159 -0.21639049
                   Z  0.12251355 -0.22780065 -0.00170832 -0.00462860 -0.20523076
  8   H            X  0.00074578  0.07141281  0.02738794  0.11732350  0.34959075
                   Y -0.00050990  0.09422625 -0.00037604  0.08609119  0.21639062
                   Z  0.12251351 -0.22780059  0.00170795  0.00462894 -0.20523084

 TRANS. SAYVETZ    X -0.00360425 -0.00000808 -0.00004302 -0.00036861 -0.00000017
                   Y -0.00810259 -0.00002159  0.00002344  0.00002106  0.00000024
                   Z  8.12545556 -0.03813085  0.00000008 -0.00000015 -0.00011378
               TOTAL  8.12546040  0.03813086  0.00004899  0.00036921  0.00011378

   ROT. SAYVETZ    X -0.02688351  7.68506742 -0.00000003 -0.00000263 -0.06373737
                   Y -0.14397687-12.80799693 -0.00000901  0.00000016  0.00387482
                   Z -0.00020479  0.00222397 -0.05836909  0.18050447 -0.00000044
               TOTAL  0.14646537 14.93670149  0.05836909  0.18050447  0.06385504

                           11          12          13          14          15
       FREQUENCY:       849.64     1016.93     1046.10     1096.45     1194.58  
        SYMMETRY:         A'          A'          A'          A''         A'' 
    REDUCED MASS:      4.57837     5.87543     8.83748     1.44478     1.08158
    IR INTENSITY:      0.15664     0.18411     1.68411     0.00000     0.01592

  1   C            X  0.16242114  0.01649511 -0.09513789  0.00000003 -0.00000000
                   Y  0.07096512 -0.13760055  0.13539133 -0.00000003  0.00000008
                   Z  0.00000004 -0.00000002  0.00000003  0.10893023 -0.04388703
  2   C            X -0.16235876  0.02764719  0.09322468 -0.00000004 -0.00000000
                   Y  0.07279726  0.14976861  0.12126127 -0.00000007 -0.00000006
                   Z  0.00000004 -0.00000005 -0.00000001 -0.10888271 -0.04447075
  3   F            X -0.01364753 -0.02249308 -0.02764649  0.00000003  0.00000001
                   Y -0.04745569 -0.10233432 -0.08589747  0.00000006  0.00000005
                   Z -0.00000004  0.00000002  0.00000001  0.03405575  0.02636002
  4   H            X -0.19248772  0.06949495  0.04417772 -0.01215071 -0.30535623
                   Y  0.01693010  0.15390242  0.08499069 -0.39571534 -0.36512287
                   Z  0.01805542  0.01026271 -0.00712453  0.10052957  0.01327854
  5   H            X -0.19248736  0.06949519  0.04417791  0.01215055  0.30535580
                   Y  0.01692988  0.15390300  0.08499101  0.39571544  0.36512259
                   Z -0.01805568 -0.01026256  0.00712464  0.10052970  0.01327862
  6   F            X  0.01360897 -0.01943919  0.02963594 -0.00000003  0.00000001
                   Y -0.04675428  0.09373964 -0.09591734  0.00000004 -0.00000006
                   Z  0.00000001  0.00000001 -0.00000001 -0.03402110  0.02665492
  7   H            X  0.19248047  0.06297141 -0.05153864  0.00892806 -0.31070390
                   Y  0.01515602 -0.14533244  0.10078421 -0.39484357  0.36904002
                   Z -0.01798630  0.01095665  0.00620133 -0.10113769  0.01307956
  8   H            X  0.19248086  0.06297175 -0.05153886 -0.00892792  0.31070351
                   Y  0.01515632 -0.14533285  0.10078469  0.39484375 -0.36903970
                   Z  0.01798610 -0.01095657 -0.00620148 -0.10113783  0.01307963

 TRANS. SAYVETZ    X  0.00000224  0.00006784  0.00000075  0.00000001 -0.00000040
                   Y -0.00001563  0.00000578  0.00009890  0.00000090  0.00000009
                   Z  0.00000002 -0.00000002  0.00000004  0.00000278  0.00003452
               TOTAL  0.00001579  0.00006809  0.00009890  0.00000292  0.00003453

   ROT. SAYVETZ    X -0.00000005 -0.00000039  0.00000003  0.00033943  0.01310907
                   Y  0.00000207  0.00000004 -0.00000021  0.00372889 -0.00063227
                   Z -0.00451580  0.01109148 -0.00190778 -0.00000014 -0.00000099
               TOTAL  0.00451580  0.01109148  0.00190778  0.00374430  0.01312431

                           16          17          18          19          20
       FREQUENCY:      1207.97     1341.11     1370.05     1502.08     1513.54  
        SYMMETRY:         A''         A'          A'          A'          A'  
    REDUCED MASS:      1.16442     1.15776     1.28350     1.08801     1.07780
    IR INTENSITY:      0.00000     0.05227     0.00400     0.04585     0.04452

  1   C            X  0.00000002  0.06886748 -0.07145896  0.03917410 -0.02680813
                   Y -0.00000003 -0.02318257  0.06734466  0.04207034 -0.04736453
                   Z -0.07767859 -0.00000001 -0.00000003  0.00000004 -0.00000006
  2   C            X -0.00000003 -0.06886806 -0.07115481  0.03947700  0.02679467
                   Y -0.00000001 -0.02324514 -0.06691133 -0.04226416 -0.04692386
                   Z  0.07716645  0.00000001 -0.00000003  0.00000003  0.00000006
  3   F            X  0.00000000  0.00928874  0.00819591 -0.00018551  0.00077275
                   Y  0.00000002 -0.01695579 -0.00652217 -0.00413007 -0.00260345
                   Z  0.00882885 -0.00000001  0.00000000 -0.00000001 -0.00000001
  4   H            X -0.44195859  0.35345265  0.34586254 -0.23330466 -0.23499035
                   Y -0.12486027  0.29773201  0.26432418  0.30475548  0.30414362
                   Z -0.05716275  0.01250574  0.00021921 -0.28631088 -0.28562314
  5   H            X  0.44195861  0.35345272  0.34586270 -0.23330465 -0.23499021
                   Y  0.12486010  0.29773202  0.26432445  0.30475538  0.30414350
                   Z -0.05716286 -0.01250577 -0.00021924  0.28631090  0.28562316
  6   F            X -0.00000001 -0.00939470  0.00834971 -0.00013912 -0.00084064
                   Y  0.00000003 -0.01679527  0.00625365  0.00411067 -0.00258746
                   Z -0.00849994  0.00000001  0.00000001 -0.00000001  0.00000001
  7   H            X  0.43738202 -0.35244916  0.34710028 -0.23192840  0.23571104
                   Y -0.12074449  0.29681256 -0.26437202 -0.30341882  0.30612017
                   Z  0.05711091 -0.01299151  0.00104906 -0.28474057  0.28703282
  8   H            X -0.43738203 -0.35244922  0.34710047 -0.23192835  0.23571089
                   Y  0.12074422  0.29681256 -0.26437229 -0.30341873  0.30612005
                   Z  0.05711103  0.01299155 -0.00104910  0.28474059 -0.28703284

 TRANS. SAYVETZ    X -0.00000004  0.00000273 -0.00025403 -0.00010135  0.00000131
                   Y -0.00000012  0.00004507  0.00000217 -0.00000022 -0.00000166
                   Z -0.00000150  0.00000004 -0.00000058  0.00000056  0.00000002
               TOTAL  0.00000151  0.00004515  0.00025404  0.00010135  0.00000212

   ROT. SAYVETZ    X -0.00032173  0.00000003  0.00000045 -0.00000136  0.00000003
                   Y  0.00087563  0.00000055  0.00000004  0.00000002 -0.00000070
                   Z  0.00000013  0.00070509 -0.05611468 -0.00416073  0.00094634
               TOTAL  0.00093287  0.00070509  0.05611468  0.00416073  0.00094634

                           21          22          23          24
       FREQUENCY:      2955.05     2963.51     2992.23     3019.69  
        SYMMETRY:         A'          A'          A''         A'' 
    REDUCED MASS:      1.05355     1.05460     1.10949     1.11190
    IR INTENSITY:      0.69433     0.82205     0.00008     1.45928

  1   C            X  0.02789934  0.03020638  0.00000003 -0.00000001
                   Y  0.03357729  0.03419208  0.00000002  0.00000001
                   Z  0.00000001 -0.00000003  0.06403887 -0.06576471
  2   C            X  0.02886531 -0.02924504 -0.00000003 -0.00000000
                   Y -0.03472670  0.03311108  0.00000002 -0.00000001
                   Z  0.00000000  0.00000003 -0.06507423 -0.06472560
  3   F            X -0.00056276  0.00025231 -0.00000000  0.00000000
                   Y -0.00091921  0.00060778 -0.00000000 -0.00000000
                   Z -0.00000000  0.00000000  0.00040675  0.00043663
  4   H            X -0.16638927  0.16442684 -0.17741007 -0.17526772
                   Y  0.21106578 -0.20290986  0.21102037  0.20767437
                   Z  0.41454514 -0.40006726  0.38833613  0.38119033
  5   H            X -0.16638926  0.16442666  0.17741026  0.17526773
                   Y  0.21106577 -0.20290965 -0.21102060 -0.20767436
                   Z -0.41454513  0.40006688  0.38833654  0.38119030
  6   F            X -0.00054831 -0.00026306  0.00000000  0.00000000
                   Y  0.00089887  0.00063641 -0.00000000  0.00000000
                   Z -0.00000000 -0.00000000 -0.00039799  0.00044046
  7   H            X -0.16109306 -0.17004924  0.17479896 -0.17830272
                   Y -0.20403092 -0.20950425  0.20737936 -0.21070564
                   Z  0.40118462  0.41355492 -0.38225531  0.38740455
  8   H            X -0.16109306 -0.17004905 -0.17479914  0.17830274
                   Y -0.20403093 -0.20950402 -0.20737958  0.21070565
                   Z -0.40118464 -0.41355449 -0.38225571  0.38740457

 TRANS. SAYVETZ    X -0.00002252 -0.00000088 -0.00000000 -0.00000010
                   Y  0.00000037 -0.00000662 -0.00000012 -0.00000001
                   Z  0.00000005 -0.00000000 -0.00000117 -0.00000202
               TOTAL  0.00002252  0.00000668  0.00000118  0.00000202

   ROT. SAYVETZ    X -0.00000018 -0.00000003  0.00003485  0.00496632
                   Y -0.00000000  0.00000001 -0.00197230 -0.00026281
                   Z  0.00005352 -0.00015752 -0.00000003 -0.00000058
               TOTAL  0.00005352  0.00015752  0.00197261  0.00497327

 REFERENCE ON SAYVETZ CONDITIONS - A. SAYVETZ, J.CHEM.PHYS., 7, 383-389(1939).

 NOTE - THE MODES J,K ARE ORTHONORMALIZED ACCORDING TO
 SUM ON I   M(I) * (X(I,J)*X(I,K) + Y(I,J)*Y(I,K) + Z(I,J)*Z(I,K)) = DELTA(J,K)

  MODE FREQ(CM**-1)  SYMMETRY  RED. MASS  IR INTENS.
     1     174.945    A''      1.951840    0.000020
     2      11.319    A''      4.192292    0.192225
     3       5.278    A'       6.181583    0.108906
     4       0.042    A'       8.306785    0.000006
     5       0.015    A'       8.253808    0.000000
     6       0.052    A''      8.219566    0.000002
     7      13.486    A''      4.549437    0.154452
     8     256.242    A'      17.763671    0.004872
     9     550.329    A'       6.723754    0.460533
    10     823.645    A''      1.167106    0.003121
    11     849.635    A'       4.578374    0.156636
    12    1016.926    A'       5.875434    0.184107
    13    1046.101    A'       8.837476    1.684112
    14    1096.451    A''      1.444778    0.000001
    15    1194.584    A''      1.081581    0.015917
    16    1207.972    A''      1.164420    0.000000
    17    1341.109    A'       1.157755    0.052271
    18    1370.051    A'       1.283496    0.003998
    19    1502.076    A'       1.088013    0.045852
    20    1513.544    A'       1.077796    0.044518
    21    2955.049    A'       1.053554    0.694329
    22    2963.514    A'       1.054596    0.822051
    23    2992.229    A''      1.109490    0.000080
    24    3019.694    A''      1.111897    1.459280

     -------------------------------
     THERMOCHEMISTRY AT T=  298.15 K
     -------------------------------

 USING IDEAL GAS, RIGID ROTOR, HARMONIC NORMAL MODE APPROXIMATIONS.
 P=  1.01325E+05 PASCAL.
 ALL FREQUENCIES ARE SCALED BY   1.00000
 THE MOMENTS OF INERTIA ARE (IN AMU*BOHR**2)
    132.98768   295.60318   405.13908
 THE ROTATIONAL SYMMETRY NUMBER IS  1.0
 THE ROTATIONAL CONSTANTS ARE (IN GHZ)
     13.55831     6.09969     4.45054
   1 IMAGINARY FREQUENCY VIBRATION(S) IS(ARE) EXCLUDED
     FROM THE FOLLOWING THERMOCHEMICAL ANALYSIS.
      8 -     24 VIBRATIONAL MODES ARE USED IN THERMOCHEMISTRY.
 THE HARMONIC ZERO POINT ENERGY IS (SCALED BY   1.000)
        0.058547 HARTREE/MOLECULE    12849.576123 CM**-1/MOLECULE 
       36.738819 KCAL/MOL              153.715217 KJ/MOL

               Q               LN Q
 ELEC.     1.00000E+00       0.000000
 TRANS.    2.10886E+07      16.864241
 ROT.      4.51756E+04      10.718312
 VIB.      1.61740E+00       0.480819
 TOT.      1.54088E+12      28.063372

              E         H         G         CV        CP        S
           KJ/MOL    KJ/MOL    KJ/MOL   J/MOL-K   J/MOL-K   J/MOL-K
 ELEC.      0.000     0.000     0.000     0.000     0.000     0.000
 TRANS.     3.718     6.197   -41.805    12.472    20.786   161.002
 ROT.       3.718     3.718   -26.570    12.472    12.472   101.588
 VIB.     156.224   156.224   152.523    24.471    24.471    12.413
 TOTAL    163.661   166.140    84.148    49.414    57.728   275.004
 VIB. THERMAL CORRECTION E(T)-E(0) = H(T)-H(0) =  2509.089 J/MOL

              E         H         G         CV        CP        S
         KCAL/MOL  KCAL/MOL  KCAL/MOL CAL/MOL-K CAL/MOL-K CAL/MOL-K
 ELEC.      0.000     0.000     0.000     0.000     0.000     0.000
 TRANS.     0.889     1.481    -9.992     2.981     4.968    38.480
 ROT.       0.889     0.889    -6.350     2.981     2.981    24.280
 VIB.      37.339    37.339    36.454     5.849     5.849     2.967
 TOTAL     39.116    39.708    20.112    11.810    13.797    65.727
 VIB. THERMAL CORRECTION E(T)-E(0) = H(T)-H(0) =   599.687 CAL/MOL
 ......END OF NORMAL COORDINATE ANALYSIS......
 STEP CPU TIME =     0.01 TOTAL CPU TIME =        179.3 (      3.0 MIN)
 TOTAL WALL CLOCK TIME=        180.7 SECONDS, CPU UTILIZATION IS    99.23%
                580000  WORDS OF DYNAMIC MEMORY USED
 EXECUTION OF GAMESS TERMINATED NORMALLY Sun Oct  6 20:51:30 2019
 DDI: 263640 bytes (0.3 MB / 0 MWords) used by master data server.

 ----------------------------------------
 CPU timing information for all processes
 ========================================
 0: 178.902 + 0.441 = 179.343
 ----------------------------------------
 ddikick.x: exited gracefully.
----- accounting info -----
Files used on the master node d12chas537.crc.nd.edu were:
-rw-r--r-- 1 wschnei1 campus 59593 Oct  6 20:51 /scratch365/wschnei1/vib-sym.F07
Sun Oct  6 20:51:33 EDT 2019
0.470u 0.453s 3:04.69 0.4%	0+0k 0+152io 0pf+0w
