   1   1   1   0
  0.2129600E+02  0.3111270E-09  0.3111270E-09  0.3111270E-09  0.5000000E-15
   1.0000000000000000E-004
  CAR 
 Au, FCC                                 
     22.22091954     -5.72064553  301      3.07581531      1.00000000
     -5.721  0.0000E+00  0.0000E+00
     -5.628  0.0000E+00  0.0000E+00
     -5.534  0.0000E+00  0.0000E+00
     -5.441  0.0000E+00  0.0000E+00
     -5.348  0.0000E+00  0.0000E+00
     -5.255  0.0000E+00  0.0000E+00
     -5.162  0.0000E+00  0.0000E+00
     -5.069  0.0000E+00  0.0000E+00
     -4.976  0.4763E-14  0.4437E-15
     -4.882  0.4260E-10  0.3968E-11
     -4.789  0.7000E-07  0.6523E-08
     -4.696  0.2155E-04  0.2014E-05
     -4.603  0.1284E-02  0.1216E-03
     -4.510  0.1555E-01  0.1570E-02
     -4.417  0.4055E-01  0.5347E-02
     -4.324  0.2580E-01  0.7750E-02
     -4.230  0.3858E-01  0.1134E-01
     -4.137  0.1162E+00  0.2216E-01
     -4.044  0.8629E-01  0.3020E-01
     -3.951  0.4956E-01  0.3481E-01
     -3.858  0.1170E+00  0.4571E-01
     -3.765  0.8719E-01  0.5383E-01
     -3.672  0.6645E-01  0.6002E-01
     -3.578  0.1566E+00  0.7461E-01
     -3.485  0.1183E+00  0.8562E-01
     -3.392  0.1376E+00  0.9844E-01
     -3.299  0.2514E+00  0.1218E+00
     -3.206  0.1615E+00  0.1369E+00
     -3.113  0.1335E+00  0.1493E+00
     -3.020  0.7577E-01  0.1564E+00
     -2.926  0.1121E+00  0.1668E+00
     -2.833  0.3068E+00  0.1954E+00
     -2.740  0.3121E+00  0.2245E+00
     -2.647  0.3176E+00  0.2540E+00
     -2.554  0.3485E+00  0.2865E+00
     -2.461  0.2924E+00  0.3137E+00
     -2.368  0.5949E+00  0.3691E+00
     -2.275  0.8497E+00  0.4483E+00
     -2.181  0.8165E+00  0.5243E+00
     -2.088  0.9863E+00  0.6162E+00
     -1.995  0.1287E+01  0.7361E+00
     -1.902  0.1955E+01  0.9182E+00
     -1.809  0.2220E+01  0.1125E+01
     -1.716  0.2317E+01  0.1341E+01
     -1.623  0.2648E+01  0.1587E+01
     -1.529  0.2367E+01  0.1808E+01
     -1.436  0.2150E+01  0.2008E+01
     -1.343  0.2190E+01  0.2212E+01
     -1.250  0.1901E+01  0.2389E+01
     -1.157  0.1727E+01  0.2550E+01
     -1.064  0.1952E+01  0.2732E+01
     -0.971  0.2549E+01  0.2969E+01
     -0.877  0.2845E+01  0.3234E+01
     -0.784  0.2874E+01  0.3502E+01
     -0.691  0.2721E+01  0.3755E+01
     -0.598  0.3085E+01  0.4043E+01
     -0.505  0.3527E+01  0.4371E+01
     -0.412  0.3911E+01  0.4735E+01
     -0.319  0.3959E+01  0.5104E+01
     -0.225  0.3836E+01  0.5461E+01
     -0.132  0.3526E+01  0.5790E+01
     -0.039  0.2795E+01  0.6050E+01
      0.054  0.2743E+01  0.6306E+01
      0.147  0.2584E+01  0.6546E+01
      0.240  0.2504E+01  0.6780E+01
      0.333  0.2716E+01  0.7032E+01
      0.426  0.3175E+01  0.7328E+01
      0.520  0.3321E+01  0.7638E+01
      0.613  0.2655E+01  0.7885E+01
      0.706  0.2820E+01  0.8147E+01
      0.799  0.3063E+01  0.8433E+01
      0.892  0.2123E+01  0.8630E+01
      0.985  0.2520E+01  0.8865E+01
      1.078  0.3037E+01  0.9148E+01
      1.172  0.2988E+01  0.9426E+01
      1.265  0.3880E+01  0.9788E+01
      1.358  0.3856E+01  0.1015E+02
      1.451  0.2527E+01  0.1038E+02
      1.544  0.1299E+01  0.1050E+02
      1.637  0.3458E+00  0.1054E+02
      1.730  0.4678E-01  0.1054E+02
      1.824  0.9404E-01  0.1055E+02
      1.917  0.2905E+00  0.1058E+02
      2.010  0.5405E+00  0.1063E+02
      2.103  0.6025E+00  0.1068E+02
      2.196  0.4001E+00  0.1072E+02
      2.289  0.3522E+00  0.1075E+02
      2.382  0.2255E+00  0.1077E+02
      2.476  0.8327E-01  0.1078E+02
      2.569  0.7239E-01  0.1079E+02
      2.662  0.2090E+00  0.1081E+02
      2.755  0.3966E+00  0.1084E+02
      2.848  0.4549E+00  0.1089E+02
      2.941  0.4358E+00  0.1093E+02
      3.034  0.5851E+00  0.1098E+02
      3.128  0.3317E+00  0.1101E+02
      3.221  0.1606E+00  0.1103E+02
      3.314  0.3086E+00  0.1106E+02
      3.407  0.2506E+00  0.1108E+02
      3.500  0.1593E+00  0.1109E+02
      3.593  0.3399E+00  0.1113E+02
      3.686  0.3640E+00  0.1116E+02
      3.779  0.4496E+00  0.1120E+02
      3.873  0.4188E+00  0.1124E+02
      3.966  0.1993E+00  0.1126E+02
      4.059  0.4204E+00  0.1130E+02
      4.152  0.3950E+00  0.1134E+02
      4.245  0.9768E-01  0.1134E+02
      4.338  0.1190E+00  0.1136E+02
      4.431  0.2816E+00  0.1138E+02
      4.525  0.3936E+00  0.1142E+02
      4.618  0.5926E+00  0.1147E+02
      4.711  0.4277E+00  0.1151E+02
      4.804  0.2993E+00  0.1154E+02
      4.897  0.2163E+00  0.1156E+02
      4.990  0.2668E+00  0.1159E+02
      5.083  0.2779E+00  0.1161E+02
      5.177  0.3349E+00  0.1164E+02
      5.270  0.3932E+00  0.1168E+02
      5.363  0.4661E+00  0.1172E+02
      5.456  0.5730E+00  0.1178E+02
      5.549  0.5051E+00  0.1182E+02
      5.642  0.4181E+00  0.1186E+02
      5.735  0.4612E+00  0.1191E+02
      5.829  0.3899E+00  0.1194E+02
      5.922  0.1301E+00  0.1195E+02
      6.015  0.1738E+00  0.1197E+02
      6.108  0.4140E+00  0.1201E+02
      6.201  0.3447E+00  0.1204E+02
      6.294  0.2756E+00  0.1207E+02
      6.387  0.5418E+00  0.1212E+02
      6.481  0.4935E+00  0.1216E+02
      6.574  0.3220E+00  0.1219E+02
      6.667  0.2339E+00  0.1221E+02
      6.760  0.1718E+00  0.1223E+02
      6.853  0.3015E+00  0.1226E+02
      6.946  0.2401E+00  0.1228E+02
      7.039  0.9261E-01  0.1229E+02
      7.132  0.1085E+00  0.1230E+02
      7.226  0.2209E+00  0.1232E+02
      7.319  0.3461E+00  0.1235E+02
      7.412  0.4074E+00  0.1239E+02
      7.505  0.3205E+00  0.1242E+02
      7.598  0.2497E+00  0.1244E+02
      7.691  0.7099E+00  0.1251E+02
      7.784  0.9340E+00  0.1260E+02
      7.878  0.5361E+00  0.1265E+02
      7.971  0.4259E+00  0.1269E+02
      8.064  0.2417E+00  0.1271E+02
      8.157  0.2015E+00  0.1273E+02
      8.250  0.5076E+00  0.1278E+02
      8.343  0.4988E+00  0.1282E+02
      8.436  0.5144E+00  0.1287E+02
      8.530  0.5468E+00  0.1292E+02
      8.623  0.2503E+00  0.1294E+02
      8.716  0.1084E+00  0.1295E+02
      8.809  0.1188E+00  0.1296E+02
      8.902  0.5076E-01  0.1297E+02
      8.995  0.1507E+00  0.1298E+02
      9.088  0.4815E+00  0.1303E+02
      9.182  0.5687E+00  0.1308E+02
      9.275  0.2693E+00  0.1311E+02
      9.368  0.1082E+00  0.1312E+02
      9.461  0.2001E+00  0.1314E+02
      9.554  0.4029E+00  0.1317E+02
      9.647  0.6070E+00  0.1323E+02
      9.740  0.4047E+00  0.1327E+02
      9.833  0.1951E+00  0.1329E+02
      9.927  0.4853E+00  0.1333E+02
     10.020  0.9366E+00  0.1342E+02
     10.113  0.8228E+00  0.1349E+02
     10.206  0.3365E+00  0.1353E+02
     10.299  0.6996E-01  0.1353E+02
     10.392  0.9592E-01  0.1354E+02
     10.485  0.2719E+00  0.1357E+02
     10.579  0.5587E+00  0.1362E+02
     10.672  0.6415E+00  0.1368E+02
     10.765  0.3908E+00  0.1371E+02
     10.858  0.2737E+00  0.1374E+02
     10.951  0.1076E+00  0.1375E+02
     11.044  0.9646E-01  0.1376E+02
     11.137  0.2492E+00  0.1378E+02
     11.231  0.4079E+00  0.1382E+02
     11.324  0.5568E+00  0.1387E+02
     11.417  0.5796E+00  0.1393E+02
     11.510  0.6705E+00  0.1399E+02
     11.603  0.5272E+00  0.1404E+02
     11.696  0.1731E+00  0.1405E+02
     11.789  0.1201E+00  0.1406E+02
     11.883  0.4561E+00  0.1411E+02
     11.976  0.5447E+00  0.1416E+02
     12.069  0.3321E+00  0.1419E+02
     12.162  0.5719E+00  0.1424E+02
     12.255  0.8059E+00  0.1432E+02
     12.348  0.6465E+00  0.1438E+02
     12.441  0.4997E+00  0.1442E+02
     12.535  0.5019E+00  0.1447E+02
     12.628  0.6116E+00  0.1453E+02
     12.721  0.8504E+00  0.1461E+02
     12.814  0.7737E+00  0.1468E+02
     12.907  0.5623E+00  0.1473E+02
     13.000  0.5501E+00  0.1478E+02
     13.093  0.4286E+00  0.1482E+02
     13.186  0.3388E+00  0.1485E+02
     13.280  0.3436E+00  0.1489E+02
     13.373  0.2804E+00  0.1491E+02
     13.466  0.1554E+00  0.1493E+02
     13.559  0.3598E+00  0.1496E+02
     13.652  0.6953E+00  0.1503E+02
     13.745  0.7461E+00  0.1509E+02
     13.838  0.7869E+00  0.1517E+02
     13.932  0.6824E+00  0.1523E+02
     14.025  0.8258E+00  0.1531E+02
     14.118  0.8976E+00  0.1539E+02
     14.211  0.6449E+00  0.1545E+02
     14.304  0.5328E+00  0.1550E+02
     14.397  0.6476E+00  0.1556E+02
     14.490  0.5043E+00  0.1561E+02
     14.584  0.2211E+00  0.1563E+02
     14.677  0.3643E+00  0.1566E+02
     14.770  0.5235E+00  0.1571E+02
     14.863  0.2729E+00  0.1574E+02
     14.956  0.1831E+00  0.1575E+02
     15.049  0.4976E+00  0.1580E+02
     15.142  0.6885E+00  0.1587E+02
     15.236  0.7974E+00  0.1594E+02
     15.329  0.6686E+00  0.1600E+02
     15.422  0.5249E+00  0.1605E+02
     15.515  0.4859E+00  0.1610E+02
     15.608  0.3291E+00  0.1613E+02
     15.701  0.5084E+00  0.1617E+02
     15.794  0.8306E+00  0.1625E+02
     15.887  0.6690E+00  0.1631E+02
     15.981  0.4914E+00  0.1636E+02
     16.074  0.2241E+00  0.1638E+02
     16.167  0.8055E-01  0.1639E+02
     16.260  0.3118E+00  0.1642E+02
     16.353  0.7549E+00  0.1649E+02
     16.446  0.6361E+00  0.1655E+02
     16.539  0.2423E+00  0.1657E+02
     16.633  0.2441E+00  0.1659E+02
     16.726  0.4821E+00  0.1664E+02
     16.819  0.4904E+00  0.1668E+02
     16.912  0.4686E+00  0.1673E+02
     17.005  0.5243E+00  0.1677E+02
     17.098  0.6503E+00  0.1684E+02
     17.191  0.5709E+00  0.1689E+02
     17.285  0.3153E+00  0.1692E+02
     17.378  0.1775E+00  0.1693E+02
     17.471  0.4078E+00  0.1697E+02
     17.564  0.1098E+01  0.1707E+02
     17.657  0.9464E+00  0.1716E+02
     17.750  0.3251E+00  0.1719E+02
     17.843  0.3238E+00  0.1722E+02
     17.937  0.3005E+00  0.1725E+02
     18.030  0.2326E+00  0.1727E+02
     18.123  0.3147E+00  0.1730E+02
     18.216  0.4174E+00  0.1734E+02
     18.309  0.3055E+00  0.1737E+02
     18.402  0.2686E+00  0.1739E+02
     18.495  0.3406E+00  0.1743E+02
     18.589  0.2903E+00  0.1745E+02
     18.682  0.2963E+00  0.1748E+02
     18.775  0.3904E+00  0.1752E+02
     18.868  0.7369E+00  0.1759E+02
     18.961  0.7383E+00  0.1765E+02
     19.054  0.3149E+00  0.1768E+02
     19.147  0.2218E+00  0.1770E+02
     19.240  0.3441E+00  0.1774E+02
     19.334  0.4154E+00  0.1778E+02
     19.427  0.3815E+00  0.1781E+02
     19.520  0.1707E+00  0.1783E+02
     19.613  0.8656E-01  0.1783E+02
     19.706  0.1246E+00  0.1785E+02
     19.799  0.6593E-01  0.1785E+02
     19.892  0.4618E-01  0.1786E+02
     19.986  0.6513E-01  0.1786E+02
     20.079  0.2526E+00  0.1789E+02
     20.172  0.4344E+00  0.1793E+02
     20.265  0.2717E+00  0.1795E+02
     20.358  0.9124E-01  0.1796E+02
     20.451  0.6917E-01  0.1797E+02
     20.544  0.1235E+00  0.1798E+02
     20.638  0.5660E-01  0.1798E+02
     20.731  0.7135E-02  0.1798E+02
     20.824  0.1956E-01  0.1799E+02
     20.917  0.6424E-01  0.1799E+02
     21.010  0.6293E-01  0.1800E+02
     21.103  0.1823E-01  0.1800E+02
     21.196  0.1350E-02  0.1800E+02
     21.290  0.2187E-04  0.1800E+02
     21.383  0.7029E-07  0.1800E+02
     21.476  0.4264E-10  0.1800E+02
     21.569  0.4768E-14  0.1800E+02
     21.662  0.0000E+00  0.1800E+02
     21.755  0.0000E+00  0.1800E+02
     21.848  0.0000E+00  0.1800E+02
     21.942  0.0000E+00  0.1800E+02
     22.035  0.0000E+00  0.1800E+02
     22.128  0.0000E+00  0.1800E+02
     22.221  0.0000E+00  0.1800E+02
     22.22091954     -5.72064553  301      3.07581531      1.00000000
     -5.721  0.0000E+00  0.0000E+00  0.0000E+00  0.0000E+00  0.0000E+00  0.0000E+00  0.0000E+00  0.0000E+00  0.0000E+00
     -5.628  0.0000E+00  0.0000E+00  0.0000E+00  0.0000E+00  0.0000E+00  0.0000E+00  0.0000E+00  0.0000E+00  0.0000E+00
     -5.534  0.0000E+00  0.0000E+00  0.0000E+00  0.0000E+00  0.0000E+00  0.0000E+00  0.0000E+00  0.0000E+00  0.0000E+00
     -5.441  0.0000E+00  0.0000E+00  0.0000E+00  0.0000E+00  0.0000E+00  0.0000E+00  0.0000E+00  0.0000E+00  0.0000E+00
     -5.348  0.0000E+00  0.0000E+00  0.0000E+00  0.0000E+00  0.0000E+00  0.0000E+00  0.0000E+00  0.0000E+00  0.0000E+00
     -5.255  0.0000E+00  0.0000E+00  0.0000E+00  0.0000E+00  0.0000E+00  0.0000E+00  0.0000E+00  0.0000E+00  0.0000E+00
     -5.162  0.0000E+00  0.0000E+00  0.0000E+00  0.0000E+00  0.0000E+00  0.0000E+00  0.0000E+00  0.0000E+00  0.0000E+00
     -5.069  0.0000E+00  0.0000E+00  0.0000E+00  0.0000E+00  0.0000E+00  0.0000E+00  0.0000E+00  0.0000E+00  0.0000E+00
     -4.976  0.2414E-14  0.5986E-17  0.5986E-17  0.5986E-17  0.3192E-18  0.3192E-18  0.1787E-29  0.3192E-18  0.4789E-29
     -4.882  0.2158E-10  0.5353E-13  0.5353E-13  0.5353E-13  0.2854E-14  0.2854E-14  0.1598E-25  0.2854E-14  0.4283E-25
     -4.789  0.3547E-07  0.8797E-10  0.8797E-10  0.8797E-10  0.4690E-11  0.4690E-11  0.2626E-22  0.4690E-11  0.7038E-22
     -4.696  0.1092E-04  0.2708E-07  0.2708E-07  0.2708E-07  0.1444E-08  0.1444E-08  0.6308E-18  0.1444E-08  0.1890E-17
     -4.603  0.6506E-03  0.1614E-05  0.1614E-05  0.1614E-05  0.8604E-07  0.8604E-07  0.7146E-14  0.8604E-07  0.2144E-13
     -4.510  0.7880E-02  0.1954E-04  0.1954E-04  0.1954E-04  0.1042E-05  0.1042E-05  0.1506E-10  0.1042E-05  0.4518E-10
     -4.417  0.2055E-01  0.5096E-04  0.5096E-04  0.5126E-04  0.2735E-05  0.2718E-05  0.5925E-08  0.2735E-05  0.1777E-07
     -4.324  0.1305E-01  0.3226E-04  0.3226E-04  0.5544E-04  0.3058E-05  0.1789E-05  0.4485E-06  0.3058E-05  0.1345E-05
     -4.230  0.1916E-01  0.4595E-04  0.4595E-04  0.3997E-03  0.2287E-04  0.3502E-05  0.6844E-05  0.2287E-04  0.2053E-04
     -4.137  0.5758E-01  0.1380E-03  0.1380E-03  0.1290E-02  0.7389E-04  0.1096E-04  0.2230E-04  0.7389E-04  0.6691E-04
     -4.044  0.4275E-01  0.1246E-03  0.1246E-03  0.9350E-03  0.5552E-04  0.2241E-04  0.1651E-04  0.5552E-04  0.4953E-04
     -3.951  0.2412E-01  0.3945E-03  0.3945E-03  0.1867E-03  0.4070E-04  0.2214E-03  0.8481E-05  0.4070E-04  0.2544E-04
     -3.858  0.5656E-01  0.1218E-02  0.1218E-02  0.1304E-03  0.1042E-03  0.7076E-03  0.1937E-04  0.1042E-03  0.5737E-04
     -3.765  0.4209E-01  0.8882E-03  0.9490E-03  0.1102E-03  0.9112E-04  0.5251E-03  0.3325E-04  0.9488E-04  0.4071E-04
     -3.672  0.3136E-01  0.3532E-03  0.1317E-02  0.2317E-03  0.1823E-03  0.3091E-03  0.3140E-03  0.2419E-03  0.6364E-05
     -3.578  0.7351E-01  0.5108E-03  0.3767E-02  0.5121E-03  0.3735E-03  0.5724E-03  0.1055E-02  0.5705E-03  0.1163E-05
     -3.485  0.5535E-01  0.3879E-03  0.2722E-02  0.6256E-03  0.4202E-03  0.3527E-03  0.8278E-03  0.3652E-03  0.4362E-04
     -3.392  0.6280E-01  0.1139E-02  0.5380E-03  0.3364E-02  0.2284E-02  0.2642E-03  0.4845E-03  0.3819E-03  0.4083E-03
     -3.299  0.1142E+00  0.2275E-02  0.2552E-03  0.6864E-02  0.4707E-02  0.5194E-03  0.7279E-03  0.7967E-03  0.8401E-03
     -3.206  0.7218E-01  0.1371E-02  0.4529E-03  0.4246E-02  0.3356E-02  0.1033E-02  0.3691E-03  0.1590E-02  0.5070E-03
     -3.113  0.5763E-01  0.9756E-03  0.8873E-03  0.3211E-02  0.3326E-02  0.2056E-02  0.1415E-03  0.3154E-02  0.3612E-03
     -3.020  0.3243E-01  0.6418E-03  0.7428E-03  0.1588E-02  0.1744E-02  0.1523E-02  0.1896E-03  0.1748E-02  0.2003E-03
     -2.926  0.4650E-01  0.1682E-02  0.3331E-02  0.2737E-03  0.9455E-03  0.4467E-02  0.2046E-02  0.1058E-02  0.2467E-03
     -2.833  0.1249E+00  0.4111E-02  0.9823E-02  0.4137E-03  0.3880E-02  0.1245E-01  0.6970E-02  0.4265E-02  0.5139E-03
     -2.740  0.1232E+00  0.3748E-02  0.9766E-02  0.6236E-03  0.6741E-02  0.1439E-01  0.7216E-02  0.7045E-02  0.3565E-03
     -2.647  0.1216E+00  0.2739E-02  0.1197E-01  0.6148E-03  0.7206E-02  0.1554E-01  0.1058E-01  0.7381E-02  0.1085E-03
     -2.554  0.1293E+00  0.2277E-02  0.1348E-01  0.9037E-03  0.1065E-01  0.1800E-01  0.1215E-01  0.1106E-01  0.4999E-04
     -2.461  0.9029E-01  0.1457E-02  0.6637E-02  0.2303E-02  0.2496E-01  0.2635E-01  0.5680E-02  0.2321E-01  0.4233E-03
     -2.368  0.1483E+00  0.3580E-02  0.2086E-02  0.9034E-02  0.8456E-01  0.7666E-01  0.2773E-02  0.6873E-01  0.2343E-02
     -2.275  0.2142E+00  0.6546E-02  0.2276E-02  0.1520E-01  0.1238E+00  0.1003E+00  0.9910E-02  0.8754E-01  0.4372E-02
     -2.181  0.1815E+00  0.4835E-02  0.7376E-02  0.9976E-02  0.1161E+00  0.1027E+00  0.4987E-01  0.8082E-01  0.3165E-02
     -2.088  0.1685E+00  0.3031E-02  0.1265E-01  0.4483E-02  0.1288E+00  0.1334E+00  0.1530E+00  0.9750E-01  0.3757E-02
     -1.995  0.1988E+00  0.3473E-02  0.2061E-01  0.5754E-02  0.1554E+00  0.1276E+00  0.3242E+00  0.7731E-01  0.1145E-01
     -1.902  0.2480E+00  0.6237E-02  0.2510E-01  0.8221E-02  0.3638E+00  0.1944E+00  0.4875E+00  0.9963E-01  0.1340E-01
     -1.809  0.2161E+00  0.7840E-02  0.2097E-01  0.7509E-02  0.5803E+00  0.2184E+00  0.5370E+00  0.9771E-01  0.9149E-02
     -1.716  0.1864E+00  0.7694E-02  0.2451E-01  0.6274E-02  0.8044E+00  0.1750E+00  0.5167E+00  0.7089E-01  0.6975E-02
     -1.623  0.1604E+00  0.8167E-02  0.2024E-01  0.9568E-02  0.1055E+01  0.1939E+00  0.5564E+00  0.7355E-01  0.2513E-01
     -1.529  0.1299E+00  0.9779E-02  0.1081E-01  0.1639E-01  0.9051E+00  0.2430E+00  0.4398E+00  0.6317E-01  0.7245E-01
     -1.436  0.1024E+00  0.1176E-01  0.6523E-02  0.2087E-01  0.8310E+00  0.2838E+00  0.3272E+00  0.4046E-01  0.1050E+00
     -1.343  0.6395E-01  0.1297E-01  0.6497E-02  0.1634E-01  0.8091E+00  0.3020E+00  0.4215E+00  0.2992E-01  0.1292E+00
     -1.250  0.4027E-01  0.1493E-01  0.8352E-02  0.1336E-01  0.6371E+00  0.2527E+00  0.4261E+00  0.2722E-01  0.1378E+00
     -1.157  0.3012E-01  0.1583E-01  0.1015E-01  0.1440E-01  0.5498E+00  0.2616E+00  0.3799E+00  0.3002E-01  0.1239E+00
     -1.064  0.1929E-01  0.1575E-01  0.1279E-01  0.1686E-01  0.7154E+00  0.3029E+00  0.3756E+00  0.4663E-01  0.1170E+00
     -0.971  0.2023E-01  0.2257E-01  0.1863E-01  0.1763E-01  0.6802E+00  0.4825E+00  0.6025E+00  0.9013E-01  0.1938E+00
     -0.877  0.1902E-01  0.2461E-01  0.1715E-01  0.1654E-01  0.4762E+00  0.6135E+00  0.8257E+00  0.1956E+00  0.2090E+00
     -0.784  0.2304E-01  0.1789E-01  0.1600E-01  0.1879E-01  0.5707E+00  0.6145E+00  0.6699E+00  0.2826E+00  0.2346E+00
     -0.691  0.2708E-01  0.1331E-01  0.1212E-01  0.1912E-01  0.5660E+00  0.5675E+00  0.6401E+00  0.2257E+00  0.2678E+00
     -0.598  0.4225E-01  0.1430E-01  0.1496E-01  0.2267E-01  0.6042E+00  0.6836E+00  0.7606E+00  0.2111E+00  0.3063E+00
     -0.505  0.5874E-01  0.1405E-01  0.3139E-01  0.3014E-01  0.8102E+00  0.8413E+00  0.5619E+00  0.2985E+00  0.3882E+00
     -0.412  0.5174E-01  0.1536E-01  0.3473E-01  0.2698E-01  0.8895E+00  0.7947E+00  0.6329E+00  0.4521E+00  0.5003E+00
     -0.319  0.3818E-01  0.1366E-01  0.2438E-01  0.1634E-01  0.7783E+00  0.7621E+00  0.7743E+00  0.5680E+00  0.5237E+00
     -0.225  0.3655E-01  0.1224E-01  0.3170E-01  0.1553E-01  0.6376E+00  0.8239E+00  0.5724E+00  0.7257E+00  0.5424E+00
     -0.132  0.4794E-01  0.1404E-01  0.4399E-01  0.1967E-01  0.4471E+00  0.8209E+00  0.3999E+00  0.7947E+00  0.5030E+00
     -0.039  0.5621E-01  0.1570E-01  0.4008E-01  0.1895E-01  0.2750E+00  0.6438E+00  0.4179E+00  0.5472E+00  0.4136E+00
      0.054  0.4715E-01  0.1310E-01  0.4070E-01  0.1513E-01  0.2093E+00  0.6346E+00  0.3801E+00  0.5549E+00  0.5094E+00
      0.147  0.2500E-01  0.1069E-01  0.3211E-01  0.1224E-01  0.1822E+00  0.5129E+00  0.3482E+00  0.5001E+00  0.6740E+00
      0.240  0.2351E-01  0.1097E-01  0.2418E-01  0.1249E-01  0.1684E+00  0.3294E+00  0.4091E+00  0.4059E+00  0.8597E+00
      0.333  0.1993E-01  0.6197E-02  0.1607E-01  0.9407E-02  0.1214E+00  0.2372E+00  0.4343E+00  0.5130E+00  0.1121E+01
      0.426  0.2367E-01  0.4866E-02  0.1886E-01  0.7645E-02  0.1084E+00  0.3392E+00  0.5718E+00  0.5683E+00  0.1274E+01
      0.520  0.3213E-01  0.9084E-02  0.2865E-01  0.1076E-01  0.1217E+00  0.4413E+00  0.6962E+00  0.4469E+00  0.1245E+01
      0.613  0.2464E-01  0.9744E-02  0.2242E-01  0.1262E-01  0.1041E+00  0.3188E+00  0.5132E+00  0.4320E+00  0.9865E+00
      0.706  0.2426E-01  0.7775E-02  0.1702E-01  0.1062E-01  0.1520E+00  0.2538E+00  0.4161E+00  0.6585E+00  0.1067E+01
      0.799  0.3195E-01  0.6804E-02  0.2330E-01  0.8100E-02  0.1790E+00  0.3738E+00  0.3925E+00  0.6753E+00  0.1147E+01
      0.892  0.1904E-01  0.3598E-02  0.1455E-01  0.3808E-02  0.8923E-01  0.3204E+00  0.1850E+00  0.4702E+00  0.8777E+00
      0.985  0.1161E-01  0.3493E-02  0.8945E-02  0.3822E-02  0.1192E+00  0.3609E+00  0.1613E+00  0.7673E+00  0.9499E+00
      1.078  0.1128E-01  0.3647E-02  0.1058E-01  0.4319E-02  0.1965E+00  0.3786E+00  0.2157E+00  0.9973E+00  0.1067E+01
      1.172  0.9820E-02  0.2101E-02  0.6984E-02  0.3908E-02  0.2363E+00  0.2968E+00  0.2261E+00  0.1157E+01  0.9197E+00
      1.265  0.1794E-01  0.2896E-02  0.5456E-02  0.6468E-02  0.3042E+00  0.4382E+00  0.2630E+00  0.1836E+01  0.8503E+00
      1.358  0.3436E-01  0.4714E-02  0.7534E-02  0.7961E-02  0.3258E+00  0.5814E+00  0.2859E+00  0.1806E+01  0.6398E+00
      1.451  0.4698E-01  0.4967E-02  0.9171E-02  0.7569E-02  0.2357E+00  0.4119E+00  0.2265E+00  0.1181E+01  0.2786E+00
      1.544  0.4430E-01  0.2817E-02  0.1172E-01  0.6964E-02  0.1037E+00  0.1690E+00  0.9956E-01  0.7011E+00  0.7259E-01
      1.637  0.2456E-01  0.8920E-03  0.9013E-02  0.2992E-02  0.2324E-01  0.4178E-01  0.2853E-01  0.1606E+00  0.1409E-01
      1.730  0.5437E-02  0.4814E-03  0.2222E-02  0.5872E-03  0.1989E-02  0.8633E-02  0.4818E-02  0.1119E-01  0.2646E-02
      1.824  0.1066E-01  0.3168E-02  0.3271E-02  0.1920E-02  0.1550E-03  0.3569E-01  0.4884E-02  0.3808E-03  0.1389E-01
      1.917  0.3260E-01  0.7648E-02  0.8427E-02  0.3687E-02  0.2350E-03  0.1198E+00  0.1864E-01  0.5711E-03  0.4757E-01
      2.010  0.6310E-01  0.9295E-02  0.1516E-01  0.2713E-02  0.6073E-03  0.2339E+00  0.4952E-01  0.4405E-02  0.8232E-01
      2.103  0.7530E-01  0.8737E-02  0.2085E-01  0.2821E-02  0.1584E-02  0.2503E+00  0.6892E-01  0.1184E-01  0.6887E-01
      2.196  0.5687E-01  0.6689E-02  0.2167E-01  0.3926E-02  0.2323E-02  0.1414E+00  0.4901E-01  0.1254E-01  0.2457E-01
      2.289  0.5554E-01  0.6372E-02  0.2512E-01  0.4796E-02  0.2421E-02  0.1025E+00  0.4399E-01  0.1752E-01  0.8490E-02
      2.382  0.3489E-01  0.4643E-02  0.1498E-01  0.4113E-02  0.1399E-02  0.5319E-01  0.3058E-01  0.2394E-01  0.2564E-02
      2.476  0.1267E-01  0.1913E-02  0.5142E-02  0.1871E-02  0.5370E-03  0.1545E-01  0.1189E-01  0.1308E-01  0.2065E-03
      2.569  0.1302E-01  0.7828E-03  0.5215E-02  0.8677E-03  0.2361E-02  0.1154E-01  0.1039E-01  0.1151E-01  0.3456E-04
      2.662  0.3881E-01  0.2781E-02  0.1015E-01  0.4133E-02  0.3421E-01  0.2127E-01  0.3121E-01  0.2150E-01  0.5185E-03
      2.755  0.7406E-01  0.8155E-02  0.6497E-02  0.1364E-01  0.1304E+00  0.1008E-01  0.6077E-01  0.1181E-01  0.2378E-02
      2.848  0.8489E-01  0.1069E-01  0.9546E-02  0.1816E-01  0.1540E+00  0.2532E-02  0.6569E-01  0.6409E-02  0.3923E-02
      2.941  0.8292E-01  0.9262E-02  0.2604E-01  0.1921E-01  0.1033E+00  0.5639E-02  0.5074E-01  0.1128E-01  0.7192E-02
      3.034  0.1082E+00  0.1546E-01  0.2772E-01  0.3524E-01  0.1380E+00  0.4705E-02  0.5552E-01  0.1634E-01  0.1579E-01
      3.128  0.5959E-01  0.1033E-01  0.1109E-01  0.2207E-01  0.8267E-01  0.3462E-02  0.2983E-01  0.9412E-02  0.9754E-02
      3.221  0.3118E-01  0.3948E-02  0.1061E-01  0.4898E-02  0.1168E-01  0.2674E-01  0.1658E-01  0.9473E-02  0.2470E-02
      3.314  0.5476E-01  0.1013E-01  0.2563E-01  0.9406E-02  0.3022E-02  0.5966E-01  0.2920E-01  0.2044E-01  0.4291E-02
      3.407  0.3231E-01  0.1445E-01  0.2250E-01  0.1520E-01  0.5293E-02  0.3135E-01  0.1585E-01  0.1410E-01  0.5690E-02
      3.500  0.2733E-01  0.7473E-02  0.1574E-01  0.6523E-02  0.2396E-02  0.2550E-01  0.8295E-02  0.4361E-02  0.4979E-02
      3.593  0.8035E-01  0.5845E-02  0.3771E-01  0.1010E-02  0.4035E-03  0.7692E-01  0.2509E-01  0.4805E-02  0.8720E-02
      3.686  0.8718E-01  0.6351E-02  0.3823E-01  0.2023E-02  0.2017E-02  0.8108E-01  0.2659E-01  0.6338E-02  0.9402E-02
      3.779  0.1127E+00  0.1212E-01  0.2755E-01  0.9475E-02  0.1178E-01  0.9929E-01  0.2319E-01  0.1358E-01  0.1846E-01
      3.873  0.1046E+00  0.1150E-01  0.2163E-01  0.1203E-01  0.1598E-01  0.8486E-01  0.2006E-01  0.1715E-01  0.1883E-01
      3.966  0.4412E-01  0.7192E-02  0.1380E-01  0.6770E-02  0.4931E-02  0.3648E-01  0.1039E-01  0.8539E-02  0.7465E-02
      4.059  0.8788E-01  0.1653E-01  0.3843E-01  0.1168E-01  0.5473E-03  0.7747E-01  0.2634E-01  0.1759E-01  0.9896E-02
      4.152  0.8653E-01  0.1316E-01  0.3767E-01  0.8926E-02  0.1980E-03  0.7175E-01  0.2709E-01  0.1947E-01  0.7480E-02
      4.245  0.2275E-01  0.2472E-02  0.9988E-02  0.1581E-02  0.3846E-04  0.1754E-01  0.7386E-02  0.5060E-02  0.1316E-02
      4.338  0.3251E-01  0.9457E-03  0.1459E-01  0.1740E-03  0.2262E-04  0.2377E-01  0.1046E-01  0.1464E-02  0.1844E-03
      4.431  0.7383E-01  0.3426E-02  0.3450E-01  0.1754E-02  0.7576E-03  0.5369E-01  0.2424E-01  0.4012E-02  0.4813E-03
      4.525  0.8467E-01  0.1231E-01  0.4730E-01  0.1197E-01  0.1285E-01  0.4886E-01  0.2734E-01  0.1117E-01  0.1645E-02
      4.618  0.1342E+00  0.1967E-01  0.6705E-01  0.2361E-01  0.4843E-01  0.3864E-01  0.3056E-01  0.1586E-01  0.3109E-02
      4.711  0.1160E+00  0.1007E-01  0.4304E-01  0.1379E-01  0.4078E-01  0.2666E-01  0.2145E-01  0.1219E-01  0.1837E-02
      4.804  0.8902E-01  0.3308E-02  0.3088E-01  0.3311E-02  0.9089E-02  0.3814E-01  0.2169E-01  0.1639E-01  0.3676E-03
      4.897  0.6900E-01  0.3827E-02  0.1544E-01  0.5251E-02  0.1580E-01  0.2103E-01  0.1264E-01  0.1064E-01  0.6414E-03
      4.990  0.9416E-01  0.8327E-02  0.3827E-02  0.1470E-01  0.4635E-01  0.5061E-02  0.6774E-02  0.7339E-02  0.2298E-02
      5.083  0.1005E+00  0.6456E-02  0.2497E-02  0.1920E-01  0.4890E-01  0.2340E-02  0.5261E-02  0.4890E-02  0.6415E-02
      5.177  0.1109E+00  0.3322E-02  0.1843E-01  0.2279E-01  0.4613E-01  0.7455E-02  0.6755E-02  0.3286E-02  0.1106E-01
      5.270  0.9664E-01  0.1511E-02  0.6669E-01  0.1041E-01  0.2189E-01  0.2859E-01  0.1335E-01  0.8636E-02  0.5218E-02
      5.363  0.1464E+00  0.2138E-02  0.5936E-01  0.6715E-02  0.2219E-01  0.4131E-01  0.1370E-01  0.2456E-01  0.3326E-02
      5.456  0.2390E+00  0.6172E-02  0.1862E-01  0.1662E-01  0.4893E-01  0.4249E-01  0.6065E-02  0.3533E-01  0.8255E-02
      5.549  0.2128E+00  0.9881E-02  0.9332E-02  0.1758E-01  0.4517E-01  0.3491E-01  0.2459E-02  0.2924E-01  0.6598E-02
      5.642  0.1546E+00  0.1278E-01  0.1251E-01  0.1871E-01  0.4330E-01  0.2152E-01  0.4674E-02  0.2378E-01  0.3237E-02
      5.735  0.1721E+00  0.1047E-01  0.3134E-01  0.1296E-01  0.3025E-01  0.3013E-01  0.9884E-02  0.1874E-01  0.2423E-02
      5.829  0.1574E+00  0.4355E-02  0.3743E-01  0.2663E-02  0.7565E-02  0.3494E-01  0.1033E-01  0.1158E-01  0.1723E-02
      5.922  0.5248E-01  0.9545E-03  0.1418E-01  0.1879E-03  0.9683E-03  0.1273E-01  0.4025E-02  0.3099E-02  0.5311E-03
      6.015  0.6130E-01  0.2081E-03  0.2585E-01  0.2655E-03  0.1257E-02  0.1733E-01  0.8870E-02  0.1715E-02  0.4570E-03
      6.108  0.1644E+00  0.7207E-03  0.5045E-01  0.1563E-02  0.6590E-02  0.3473E-01  0.1910E-01  0.5531E-02  0.1147E-02
      6.201  0.1508E+00  0.2217E-02  0.3040E-01  0.3403E-02  0.9382E-02  0.2216E-01  0.1395E-01  0.6548E-02  0.1013E-02
      6.294  0.7122E-01  0.1335E-01  0.2698E-01  0.1361E-01  0.1011E-01  0.1608E-01  0.1567E-01  0.7714E-02  0.7531E-03
      6.387  0.1355E+00  0.2806E-01  0.5188E-01  0.2835E-01  0.1754E-01  0.3281E-01  0.3104E-01  0.1528E-01  0.3380E-02
      6.481  0.1834E+00  0.1590E-01  0.3530E-01  0.1658E-01  0.1292E-01  0.2946E-01  0.2083E-01  0.1211E-01  0.5795E-02
      6.574  0.1185E+00  0.1183E-01  0.1998E-01  0.1023E-01  0.1026E-01  0.2579E-01  0.6357E-02  0.1465E-01  0.2540E-02
      6.667  0.6806E-01  0.1203E-01  0.1642E-01  0.1008E-01  0.8917E-02  0.2256E-01  0.3036E-02  0.1426E-01  0.6214E-03
      6.760  0.2456E-01  0.1199E-01  0.1839E-01  0.1433E-01  0.4237E-02  0.1620E-01  0.7563E-02  0.3693E-02  0.1691E-02
      6.853  0.3185E-01  0.2331E-01  0.3520E-01  0.2821E-01  0.5614E-02  0.2840E-01  0.1524E-01  0.1664E-02  0.3942E-02
      6.946  0.3976E-01  0.1872E-01  0.2432E-01  0.1821E-01  0.4669E-02  0.2360E-01  0.7578E-02  0.2769E-02  0.3003E-02
      7.039  0.2085E-01  0.6867E-02  0.7440E-02  0.6137E-02  0.2721E-02  0.7927E-02  0.1173E-02  0.2515E-02  0.1489E-02
      7.132  0.2439E-01  0.6190E-02  0.6118E-02  0.1092E-01  0.7543E-02  0.1467E-02  0.1324E-02  0.6972E-02  0.3607E-02
      7.226  0.4791E-01  0.1325E-01  0.1314E-01  0.2290E-01  0.1763E-01  0.1450E-02  0.3361E-02  0.1147E-01  0.6479E-02
      7.319  0.6540E-01  0.2054E-01  0.3361E-01  0.3210E-01  0.2681E-01  0.5929E-02  0.5805E-02  0.1193E-01  0.6996E-02
      7.412  0.6141E-01  0.1771E-01  0.7448E-01  0.2479E-01  0.2061E-01  0.1787E-01  0.6211E-02  0.1090E-01  0.3734E-02
      7.505  0.6391E-01  0.9947E-02  0.6524E-01  0.1234E-01  0.1048E-01  0.1446E-01  0.5582E-02  0.6606E-02  0.9692E-03
      7.598  0.6827E-01  0.1005E-01  0.3291E-01  0.1508E-01  0.1053E-01  0.4407E-02  0.6451E-02  0.3232E-02  0.1964E-02
      7.691  0.2064E+00  0.2778E-01  0.7780E-01  0.4908E-01  0.2918E-01  0.1108E-01  0.2464E-01  0.1004E-01  0.9000E-02
      7.784  0.2990E+00  0.2858E-01  0.1048E+00  0.5212E-01  0.3055E-01  0.2028E-01  0.3974E-01  0.1670E-01  0.1087E-01
      7.878  0.1660E+00  0.1737E-01  0.5120E-01  0.3579E-01  0.2168E-01  0.1286E-01  0.2800E-01  0.1154E-01  0.6177E-02
      7.971  0.6685E-01  0.2224E-01  0.3026E-01  0.6117E-01  0.3349E-01  0.1081E-01  0.1413E-01  0.1059E-01  0.9686E-02
      8.064  0.2442E-01  0.1356E-01  0.1806E-01  0.4007E-01  0.2083E-01  0.6991E-02  0.5791E-02  0.6092E-02  0.6611E-02
      8.157  0.2683E-01  0.9885E-02  0.3342E-01  0.1515E-01  0.6621E-02  0.1550E-01  0.3626E-02  0.5196E-02  0.2575E-02
      8.250  0.7170E-01  0.2448E-01  0.9284E-01  0.2853E-01  0.1079E-01  0.4343E-01  0.1014E-01  0.1332E-01  0.4650E-02
      8.343  0.7205E-01  0.2699E-01  0.8280E-01  0.3070E-01  0.8683E-02  0.3760E-01  0.1983E-01  0.1447E-01  0.3101E-02
      8.436  0.8863E-01  0.3522E-01  0.6040E-01  0.4232E-01  0.1347E-01  0.2424E-01  0.2714E-01  0.1361E-01  0.1339E-02
      8.530  0.1056E+00  0.3998E-01  0.5035E-01  0.5500E-01  0.1943E-01  0.1933E-01  0.2322E-01  0.9077E-02  0.1353E-02
      8.623  0.4917E-01  0.1776E-01  0.2286E-01  0.2665E-01  0.7656E-02  0.9202E-02  0.1089E-01  0.2767E-02  0.4369E-03
      8.716  0.2851E-01  0.7280E-02  0.1247E-01  0.8499E-02  0.3955E-02  0.1247E-02  0.1492E-02  0.2747E-03  0.3061E-04
      8.809  0.3439E-01  0.7929E-02  0.1459E-01  0.7960E-02  0.4902E-02  0.5953E-04  0.8646E-04  0.2975E-04  0.6178E-05