    1    1    1    1
  0.2129600E+02  0.3111270E-09  0.3111270E-09  0.3111270E-09  0.5000000E-15
   1.0000000000000000E-004
  CAR 
 Au, FCC                                 
   11   60    9

  0.6250000E-01  0.6250000E-01  0.6250000E-01  0.3906250E-02
   1       -4.4506
   2       -0.5704
   3       -0.5106
   4       -0.5106
   5        0.4627
   6        0.4627
   7       18.3791
   8       19.8655
   9       20.8799

  0.1875000E+00  0.6250000E-01  0.6250000E-01  0.1171875E-01
   1       -3.8789
   2       -0.7019
   3       -0.3683
   4       -0.3501
   5        0.3348
   6        0.5459
   7       16.8757
   8       18.4571
   9       20.2324

  0.3125000E+00  0.6250000E-01  0.6250000E-01  0.1171875E-01
   1       -2.7960
   2       -0.5786
   3       -0.3271
   4       -0.3113
   5        0.5108
   6        0.9106
   7       12.2259
   8       18.0199
   9       19.6533

  0.4375000E+00  0.6250000E-01  0.6250000E-01  0.1171875E-01
   1       -2.3406
   2       -0.5294
   3       -0.4584
   4        0.7010
   5        1.0183
   6        1.8557
   7        7.7635
   8       17.5284
   9       18.4269

 -0.4375000E+00  0.6250000E-01  0.6250000E-01  0.1171875E-01
   1       -2.3234
   2       -0.5967
   3       -0.4988
   4        0.9976
   5        1.2909
   6        3.3574
   7        5.4044
   8       17.5794
   9       18.2708

 -0.3125000E+00  0.6250000E-01  0.6250000E-01  0.1171875E-01
   1       -2.4001
   2       -0.4961
   3       -0.3908
   4        0.1763
   5        1.0965
   6        1.2369
   7        9.1782
   8       18.1450
   9       18.5987

 -0.1875000E+00  0.6250000E-01  0.6250000E-01  0.1171875E-01
   1       -3.1508
   2       -0.7259
   3       -0.3107
   4       -0.2814
   5        0.4496
   6        0.6914
   7       13.8017
   8       18.8668
   9       19.4157

 -0.6250000E-01  0.6250000E-01  0.6250000E-01  0.1171875E-01
   1       -4.1574
   2       -0.6740
   3       -0.4087
   4       -0.4051
   5        0.3480
   6        0.5256
   7       18.1943
   8       18.9397
   9       20.1306

  0.1875000E+00  0.1875000E+00  0.6250000E-01  0.1171875E-01
   1       -3.5964
   2       -0.8779
   3       -0.2155
   4       -0.2000
   5        0.1856
   6        0.6433
   7       17.1270
   8       18.7878
   9       18.8700

  0.3125000E+00  0.1875000E+00  0.6250000E-01  0.2343750E-01
   1       -2.6461
   2       -1.0562
   3       -0.3363
   4        0.0479
   5        0.4210
   6        0.9792
   7       14.0820
   8       16.3577
   9       19.1728

  0.4375000E+00  0.1875000E+00  0.6250000E-01  0.2343750E-01
   1       -1.9663
   2       -0.6605
   3       -0.5488
   4       -0.0433
   5        1.0828
   6        2.0720
   7        9.5359
   8       15.7453
   9       17.0781

 -0.4375000E+00  0.1875000E+00  0.6250000E-01  0.2343750E-01
   1       -1.9186
   2       -0.7973
   3       -0.1843
   4        0.1973
   5        1.2495
   6        4.5425
   7        5.6359
   8       15.2618
   9       16.3439

 -0.3125000E+00  0.1875000E+00  0.6250000E-01  0.2343750E-01
   1       -1.8903
   2       -0.7182
   3       -0.2193
   4       -0.0421
   5        0.9553
   6        2.8098
   7        8.2205
   8       14.6761
   9       17.5401

 -0.1875000E+00  0.1875000E+00  0.6250000E-01  0.2343750E-01
   1       -2.2881
   2       -0.9300
   3       -0.4372
   4        0.0165
   5        0.3507
   6        1.4143
   7       12.5006
   8       15.0577
   9       19.3004

 -0.6250000E-01  0.1875000E+00  0.6250000E-01  0.2343750E-01
   1       -3.3483
   2       -0.8440
   3       -0.2755
   4       -0.2021
   5        0.2562
   6        0.7160
   7       15.4571
   8       17.5700
   9       20.1066

  0.3125000E+00  0.3125000E+00  0.6250000E-01  0.1171875E-01
   1       -2.1805
   2       -1.3982
   3       -0.0274
   4        0.4376
   5        0.7490
   6        0.9786
   7       14.3364
   8       15.6624
   9       16.2373

  0.4375000E+00  0.3125000E+00  0.6250000E-01  0.2343750E-01
   1       -1.7873
   2       -1.4885
   3       -0.0362
   4        0.7036
   5        1.1259
   6        2.2293
   7       11.3055
   8       13.6169
   9       14.4494

 -0.4375000E+00  0.3125000E+00  0.6250000E-01  0.2343750E-01
   1       -1.6520
   2       -1.1352
   3       -0.1998
   4        0.4801
   5        1.3026
   6        4.7658
   7        7.6633
   8       11.9146
   9       14.3760

 -0.3125000E+00  0.3125000E+00  0.6250000E-01  0.2343750E-01
   1       -1.3970
   2       -0.8682
   3       -0.4932
   4        0.3117
   5        0.9818
   6        4.6069
   7        8.3638
   8       10.5964
   9       15.7479

 -0.1875000E+00  0.3125000E+00  0.6250000E-01  0.2343750E-01
   1       -1.5185
   2       -0.8357
   3       -0.6437
   4        0.1574
   5        0.6404
   6        2.7313
   7       10.0310
   8       12.5953
   9       17.5706

 -0.6250000E-01  0.3125000E+00  0.6250000E-01  0.2343750E-01
   1       -2.3641
   2       -0.5586
   3       -0.4077
   4       -0.2302
   5        0.7342
   6        1.3278
   7       10.8011
   8       16.9212
   9       18.8932

  0.4375000E+00  0.4375000E+00  0.6250000E-01  0.1171875E-01
   1       -2.0165
   2       -1.8047
   3        1.0507
   4        1.0631
   5        1.3321
   6        2.9290
   7        9.9944
   8       12.8273
   9       13.3412

 -0.4375000E+00  0.4375000E+00  0.6250000E-01  0.2343750E-01
   1       -1.9333
   2       -1.7406
   3        0.7738
   4        1.0483
   5        1.4500
   6        5.2549
   7        7.7069
   8       11.4048
   9       12.7240

 -0.3125000E+00  0.4375000E+00  0.6250000E-01  0.2343750E-01
   1       -1.6659
   2       -1.2325
   3        0.0062
   4        0.6447
   5        1.2767
   6        6.1270
   7        7.3955
   8        9.9326
   9       13.9987

 -0.1875000E+00  0.4375000E+00  0.6250000E-01  0.2343750E-01
   1       -1.6152
   2       -0.9102
   3       -0.1519
   4        0.0745
   5        1.1431
   6        4.9631
   7        6.3435
   8       12.9243
   9       15.9325

 -0.6250000E-01  0.4375000E+00  0.6250000E-01  0.2343750E-01
   1       -2.1755
   2       -0.6478
   3       -0.3751
   4        0.5184
   5        1.2083
   6        3.0125
   7        6.5787
   8       16.7735
   9       17.5379

 -0.4375000E+00 -0.4375000E+00  0.6250000E-01  0.1171875E-01
   1       -2.0920
   2       -1.8963
   3        1.1928
   4        1.3140
   5        1.4628
   6        4.5865
   7        7.8114
   8       12.2486
   9       12.8090

 -0.3125000E+00 -0.4375000E+00  0.6250000E-01  0.2343750E-01
   1       -1.8551
   2       -1.6520
   3        0.4384
   4        0.9758
   5        1.3193
   6        3.5896
   7        9.6173
   8       12.1709
   9       13.2521

 -0.1875000E+00 -0.4375000E+00  0.6250000E-01  0.2343750E-01
   1       -1.7192
   2       -0.9317
   3       -0.4355
   4        0.2164
   5        1.2652
   6        3.2702
   7        8.4604
   8       14.1765
   9       15.2124

 -0.3125000E+00 -0.3125000E+00  0.6250000E-01  0.1171875E-01
   1       -1.9563
   2       -1.6317
   3        0.5349
   4        0.7899
   5        1.1584
   6        1.5425
   7       12.4136
   8       14.0351
   9       14.3303

 -0.1875000E+00 -0.3125000E+00  0.6250000E-01  0.2343750E-01
   1       -2.0040
   2       -1.2821
   3       -0.3701
   4        0.3600
   5        0.8097
   6        1.3917
   7       12.7229
   8       15.0181
   9       16.6614

 -0.1875000E+00 -0.1875000E+00  0.6250000E-01  0.1171875E-01
   1       -2.8506
   2       -1.1340
   3       -0.1527
   4        0.0903
   5        0.2924
   6        0.8008
   7       15.8116
   8       17.2058
   9       18.7653

  0.1875000E+00  0.1875000E+00  0.1875000E+00  0.3906250E-02
   1       -3.6254
   2       -0.6718
   3       -0.3513
   4       -0.3513
   5        0.4710
   6        0.4710
   7       15.3088
   8       19.0395
   9       20.9508

  0.3125000E+00  0.1875000E+00  0.1875000E+00  0.1171875E-01
   1       -2.8848
   2       -0.8453
   3       -0.3099
   4       -0.1393
   5        0.2171
   6        0.9933
   7       13.9010
   8       16.3176
   9       20.4962

  0.4375000E+00  0.1875000E+00  0.1875000E+00  0.1171875E-01
   1       -1.8793
   2       -0.8354
   3       -0.4660
   4       -0.0127
   5        0.3877
   6        1.9822
   7       11.1489
   8       13.7784
   9       19.3743

 -0.4375000E+00  0.1875000E+00  0.1875000E+00  0.1171875E-01
   1       -1.7765
   2       -0.7885
   3       -0.1146
   4        0.0267
   5        0.9945
   6        3.7609
   7        7.1449
   8       13.7133
   9       17.9043

 -0.3125000E+00  0.1875000E+00  0.1875000E+00  0.1171875E-01
   1       -1.8553
   2       -0.8098
   3       -0.1182
   4       -0.0578
   5        1.3216
   6        3.8001
   7        6.9058
   8       14.7992
   9       16.4642

 -0.1875000E+00  0.1875000E+00  0.1875000E+00  0.1171875E-01
   1       -2.0028
   2       -1.0206
   3       -0.4704
   4        0.0862
   5        1.1613
   6        1.5051
   7       11.0785
   8       16.3173
   9       16.6955

  0.3125000E+00  0.3125000E+00  0.1875000E+00  0.1171875E-01
   1       -2.5423
   2       -0.8580
   3       -0.3963
   4       -0.1356
   5        0.7732
   6        0.9384
   7       12.3932
   8       17.7936
   9       18.6314

  0.4375000E+00  0.3125000E+00  0.1875000E+00  0.2343750E-01
   1       -1.7308
   2       -1.0500
   3       -0.6458
   4        0.2842
   5        0.6915
   6        2.0260
   7       11.2453
   8       13.8283
   9       17.0384

 -0.4375000E+00  0.3125000E+00  0.1875000E+00  0.2343750E-01
   1       -1.2434
   2       -0.9798
   3       -0.7796
   4        0.3997
   5        0.9603
   6        3.7827
   7        9.1420
   8       11.5621
   9       15.1955

 -0.3125000E+00  0.3125000E+00  0.1875000E+00  0.2343750E-01
   1       -1.4071
   2       -1.0455
   3       -0.4220
   4        0.3242
   5        1.2270
   6        5.4266
   7        6.8067
   8       12.1060
   9       14.0027

 -0.1875000E+00  0.3125000E+00  0.1875000E+00  0.2343750E-01
   1       -1.5092
   2       -1.1984
   3       -0.5710
   4        0.5895
   5        1.0191
   6        2.9999
   7       10.1191
   8       12.6694
   9       14.7142

  0.4375000E+00  0.4375000E+00  0.1875000E+00  0.1171875E-01
   1       -1.7901
   2       -1.2367
   3       -0.2006
   4        0.3626
   5        1.3162
   6        2.6151
   7        9.8669
   8       14.1098
   9       15.1076

 -0.4375000E+00  0.4375000E+00  0.1875000E+00  0.2343750E-01
   1       -1.5720
   2       -1.3618
   3       -0.2084
   4        0.7671
   5        1.2733
   6        4.3862
   7        9.0446
   8       11.4926
   9       12.9804

 -0.3125000E+00  0.4375000E+00  0.1875000E+00  0.2343750E-01
   1       -1.3605
   2       -1.0588
   3       -0.5352
   4        0.4833
   5        1.4439
   6        6.4250
   7        8.2225
   8        9.6555
   9       11.8916

 -0.1875000E+00  0.4375000E+00  0.1875000E+00  0.2343750E-01
   1       -1.2406
   2       -1.0648
   3       -0.6936
   4        0.5067
   5        1.2516
   6        5.1282
   7        8.5037
   8       10.6469
   9       13.1048

 -0.4375000E+00 -0.4375000E+00  0.1875000E+00  0.1171875E-01
   1       -1.8608
   2       -1.5352
   3        0.5169
   4        0.8696
   5        1.3463
   6        5.7538
   7        7.4674
   8       10.4165
   9       13.8014

 -0.3125000E+00 -0.4375000E+00  0.1875000E+00  0.2343750E-01
   1       -1.6538
   2       -1.4451
   3        0.0959
   4        0.7591
   5        1.4454
   6        6.0496
   7        7.7245
   8       10.5315
   9       12.2455

 -0.3125000E+00 -0.3125000E+00  0.1875000E+00  0.1171875E-01
   1       -1.8097
   2       -1.4312
   3        0.2306
   4        0.6506
   5        1.3730
   6        4.0732
   7        8.7396
   8       11.8449
   9       14.2484

  0.3125000E+00  0.3125000E+00  0.3125000E+00  0.3906250E-02
   1       -2.6295
   2       -0.4040
   3       -0.4040
   4       -0.0670
   5        0.8257
   6        0.8257
   7       10.6155
   8       18.4622
   9       20.0542

  0.4375000E+00  0.3125000E+00  0.3125000E+00  0.1171875E-01
   1       -2.1417
   2       -0.5792
   3       -0.2728
   4       -0.1023
   5        0.7167
   6        1.9290
   7        9.4051
   8       15.7412
   9       18.8472

 -0.4375000E+00  0.3125000E+00  0.3125000E+00  0.1171875E-01
   1       -1.4391
   2       -0.7892
   3       -0.4845
   4        0.1374
   5        0.7474
   6        3.5654
   7        9.0819
   8       11.4797
   9       17.8283

 -0.3125000E+00  0.3125000E+00  0.3125000E+00  0.1171875E-01
   1       -1.5831
   2       -0.9697
   3       -0.2142
   4        0.4560
   5        1.0927
   6        5.4946
   7        7.6987
   8       10.0033
   9       15.5608

  0.4375000E+00  0.4375000E+00  0.3125000E+00  0.1171875E-01
   1       -2.1279
   2       -0.6404
   3       -0.2705
   4        0.0322
   5        1.2733
   6        2.3472
   7        7.9302
   8       17.1968
   9       17.3837

 -0.4375000E+00  0.4375000E+00  0.3125000E+00  0.2343750E-01
   1       -1.6253
   2       -0.9089
   3       -0.3022
   4        0.1175
   5        1.1538
   6        4.0562
   7        7.2782
   8       13.6603
   9       15.4011

 -0.3125000E+00  0.4375000E+00  0.3125000E+00  0.2343750E-01
   1       -1.3582
   2       -1.0107
   3       -0.5107
   4        0.4429
   5        1.2507
   6        5.7587
   7        7.9473
   8       10.0090
   9       13.5535

 -0.4375000E+00 -0.4375000E+00  0.3125000E+00  0.1171875E-01
   1       -1.6571
   2       -0.9334
   3       -0.1960
   4        0.2124
   5        1.2399
   6        5.3370
   7        6.3344
   8       12.3323
   9       15.8583

  0.4375000E+00  0.4375000E+00  0.4375000E+00  0.3906250E-02
   1       -2.4042
   2       -0.5367
   3       -0.5367
   4        1.2244
   5        1.2244
   6        2.2119
   7        6.3918
   8       17.7419
   9       18.9518

 -0.4375000E+00  0.4375000E+00  0.4375000E+00  0.1171875E-01
   1       -2.1048
   2       -0.6948
   3       -0.3501
   4        0.5549
   5        1.2050
   6        4.0371
   7        5.5341
   8       15.9724
   9       18.1388
