       N       E                     dE             d eps       ncg     rms          rms(c)
DAV:   1     0.467647437622E+02    0.46765E+02   -0.45205E+03  1240   0.789E+02

DAV:   2    -0.245568744037E+01   -0.49220E+02   -0.45320E+02  1096   0.212E+02

DAV:   3    -0.326856568012E+01   -0.81288E+00   -0.81226E+00  1316   0.322E+01

DAV:   4    -0.327073595544E+01   -0.21703E-02   -0.21702E-02  1273   0.160E+00

DAV:   5    -0.327075177566E+01   -0.15820E-04   -0.15820E-04  1272   0.131E-01    0.264E+00
RMM:   6    -0.305384484525E+01    0.21691E+00   -0.50943E-01  1083   0.945E+00    0.615E-01
RMM:   7    -0.304617089878E+01    0.76739E-02   -0.16106E-02  1129   0.124E+00    0.312E-01
RMM:   8    -0.304432277239E+01    0.18481E-02   -0.11987E-03  1131   0.614E-01    0.184E-02
RMM:   9    -0.304434165343E+01   -0.18881E-04   -0.18434E-05   683   0.577E-02

   1 F= -.30443417E+01 E0= -.30434732E+01  d E =-.173691E-02

