PROCAR lm decomposed
# of k-points:   60         # of bands:   9         # of ions:   1

 k-point    1 :    0.06250000 0.06250000 0.06250000     weight = 0.00390625

band   1 # energy   -4.45057439 # occ.  2.00000000

ion      s     py     pz     px    dxy    dyz    dz2    dxz    dx2    tot
  1  0.507  0.001  0.001  0.001  0.000  0.000  0.000  0.000  0.000  0.511

band   2 # energy   -0.57044588 # occ.  2.00000000

ion      s     py     pz     px    dxy    dyz    dz2    dxz    dx2    tot
  1  0.000  0.000  0.000  0.000  0.302  0.302  0.000  0.302  0.000  0.908

band   3 # energy   -0.51061867 # occ.  2.00000000

ion      s     py     pz     px    dxy    dyz    dz2    dxz    dx2    tot
  1  0.000  0.000  0.000  0.000  0.451  0.000  0.001  0.459  0.000  0.912

band   4 # energy   -0.51061825 # occ.  2.00000000

ion      s     py     pz     px    dxy    dyz    dz2    dxz    dx2    tot
  1  0.000  0.000  0.000  0.000  0.156  0.607  0.000  0.148  0.001  0.912

band   5 # energy    0.46268266 # occ.  2.00000000

ion      s     py     pz     px    dxy    dyz    dz2    dxz    dx2    tot
  1  0.000  0.000  0.000  0.000  0.000  0.001  0.189  0.000  0.758  0.949

band   6 # energy    0.46268271 # occ.  2.00000000

ion      s     py     pz     px    dxy    dyz    dz2    dxz    dx2    tot
  1  0.000  0.000  0.000  0.000  0.001  0.000  0.758  0.000  0.189  0.949

band   7 # energy   18.37907399 # occ.  0.00000000

ion      s     py     pz     px    dxy    dyz    dz2    dxz    dx2    tot
  1  0.000  0.002  0.002  0.002  0.008  0.008  0.000  0.008  0.000  0.031

band   8 # energy   19.86549705 # occ.  0.00000000

ion      s     py     pz     px    dxy    dyz    dz2    dxz    dx2    tot
  1  0.026  0.088  0.087  0.088  0.007  0.007  0.000  0.007  0.000  0.311

band   9 # energy   20.87988625 # occ.  0.00000000

ion      s     py     pz     px    dxy    dyz    dz2    dxz    dx2    tot
  1  0.000  0.145  0.000  0.155  0.000  0.006  0.000  0.005  0.004  0.315


 k-point    2 :    0.18750000 0.06250000 0.06250000     weight = 0.01171875

band   1 # energy   -3.87887750 # occ.  2.00000000

ion      s     py     pz     px    dxy    dyz    dz2    dxz    dx2    tot
  1  0.483  0.010  0.010  0.001  0.001  0.006  0.000  0.001  0.000  0.514

band   2 # energy   -0.70194233 # occ.  2.00000000

ion      s     py     pz     px    dxy    dyz    dz2    dxz    dx2    tot
  1  0.001  0.001  0.001  0.004  0.432  0.023  0.000  0.432  0.000  0.892

band   3 # energy   -0.36829922 # occ.  2.00000000

ion      s     py     pz     px    dxy    dyz    dz2    dxz    dx2    tot
  1  0.000  0.000  0.000  0.000  0.450  0.000  0.012  0.450  0.004  0.916

band   4 # energy   -0.35013751 # occ.  2.00000000

ion      s     py     pz     px    dxy    dyz    dz2    dxz    dx2    tot
  1  0.001  0.002  0.002  0.000  0.012  0.811  0.018  0.012  0.054  0.911

band   5 # energy    0.33475689 # occ.  2.00000000

ion      s     py     pz     px    dxy    dyz    dz2    dxz    dx2    tot
  1  0.000  0.000  0.000  0.000  0.008  0.000  0.692  0.008  0.231  0.939

band   6 # energy    0.54594975 # occ.  2.00000000

ion      s     py     pz     px    dxy    dyz    dz2    dxz    dx2    tot
  1  0.001  0.000  0.000  0.000  0.001  0.071  0.218  0.001  0.655  0.948

band   7 # energy   16.87569963 # occ.  0.00000000

ion      s     py     pz     px    dxy    dyz    dz2    dxz    dx2    tot
  1  0.068  0.095  0.095  0.067  0.031  0.044  0.001  0.031  0.002  0.433

band   8 # energy   18.45709010 # occ.  0.00000000

ion      s     py     pz     px    dxy    dyz    dz2    dxz    dx2    tot
  1  0.017  0.030  0.030  0.064  0.049  0.007  0.001  0.049  0.003  0.248

band   9 # energy   20.23235678 # occ.  0.00000000

ion      s     py     pz     px    dxy    dyz    dz2    dxz    dx2    tot
  1  0.000  0.012  0.012  0.235  0.005  0.017  0.000  0.005  0.001  0.287


 k-point    3 :    0.31250000 0.06250000 0.06250000     weight = 0.01171875

band   1 # energy   -2.79599885 # occ.  2.00000000

ion      s     py     pz     px    dxy    dyz    dz2    dxz    dx2    tot
  1  0.374  0.017  0.017  0.004  0.046  0.071  0.000  0.046  0.001  0.577

band   2 # energy   -0.57863844 # occ.  2.00000000

ion      s     py     pz     px    dxy    dyz    dz2    dxz    dx2    tot
  1  0.040  0.009  0.009  0.016  0.373  0.000  0.002  0.373  0.007  0.830

band   3 # energy   -0.32711756 # occ.  2.00000000

ion      s     py     pz     px    dxy    dyz    dz2    dxz    dx2    tot
  1  0.011  0.006  0.006  0.001  0.000  0.488  0.094  0.000  0.281  0.887

band   4 # energy   -0.31125703 # occ.  2.00000000

ion      s     py     pz     px    dxy    dyz    dz2    dxz    dx2    tot
  1  0.000  0.000  0.000  0.000  0.281  0.000  0.265  0.281  0.088  0.914

band   5 # energy    0.51078602 # occ.  2.00000000

ion      s     py     pz     px    dxy    dyz    dz2    dxz    dx2    tot
  1  0.000  0.000  0.000  0.000  0.182  0.000  0.431  0.182  0.144  0.940

band   6 # energy    0.91057038 # occ.  2.00000000

ion      s     py     pz     px    dxy    dyz    dz2    dxz    dx2    tot
  1  0.013  0.003  0.003  0.000  0.012  0.350  0.138  0.012  0.413  0.943

band   7 # energy   12.22586052 # occ.  0.00000000

ion      s     py     pz     px    dxy    dyz    dz2    dxz    dx2    tot
  1  0.149  0.090  0.090  0.092  0.047  0.046  0.001  0.047  0.002  0.564

band   8 # energy   18.01989908 # occ.  0.00000000

ion      s     py     pz     px    dxy    dyz    dz2    dxz    dx2    tot
  1  0.014  0.025  0.024  0.159  0.058  0.008  0.003  0.058  0.009  0.359

band   9 # energy   19.65327646 # occ.  0.00000000

ion      s     py     pz     px    dxy    dyz    dz2    dxz    dx2    tot
  1  0.003  0.062  0.062  0.115  0.001  0.031  0.000  0.001  0.000  0.274


 k-point    4 :    0.43750000 0.06250000 0.06250000     weight = 0.01171875

band   1 # energy   -2.34055306 # occ.  2.00000000

ion      s     py     pz     px    dxy    dyz    dz2    dxz    dx2    tot
  1  0.184  0.005  0.005  0.000  0.173  0.185  0.000  0.173  0.000  0.724

band   2 # energy   -0.52937921 # occ.  2.00000000

ion      s     py     pz     px    dxy    dyz    dz2    dxz    dx2    tot
  1  0.000  0.000  0.000  0.000  0.066  0.276  0.123  0.066  0.369  0.902

band   3 # energy   -0.45835629 # occ.  2.00000000

ion      s     py     pz     px    dxy    dyz    dz2    dxz    dx2    tot
  1  0.000  0.000  0.000  0.000  0.190  0.000  0.394  0.190  0.131  0.906

band   4 # energy    0.70101127 # occ.  2.00000000

ion      s     py     pz     px    dxy    dyz    dz2    dxz    dx2    tot
  1  0.053  0.026  0.026  0.027  0.166  0.079  0.063  0.166  0.189  0.796

band   5 # energy    1.01827953 # occ.  2.00000000

ion      s     py     pz     px    dxy    dyz    dz2    dxz    dx2    tot
  1  0.000  0.000  0.000  0.000  0.280  0.000  0.299  0.280  0.100  0.959

band   6 # energy    1.85571167 # occ.  2.00000000

ion      s     py     pz     px    dxy    dyz    dz2    dxz    dx2    tot
  1  0.115  0.038  0.038  0.025  0.002  0.364  0.045  0.002  0.136  0.765

band   7 # energy    7.76353847 # occ.  0.00000000

ion      s     py     pz     px    dxy    dyz    dz2    dxz    dx2    tot
  1  0.253  0.062  0.062  0.075  0.070  0.049  0.001  0.070  0.003  0.643

band   8 # energy   17.52844754 # occ.  0.00000000

ion      s     py     pz     px    dxy    dyz    dz2    dxz    dx2    tot
  1  0.010  0.017  0.017  0.170  0.029  0.005  0.005  0.029  0.015  0.298

band   9 # energy   18.42691012 # occ.  0.00000000

ion      s     py     pz     px    dxy    dyz    dz2    dxz    dx2    tot
  1  0.009  0.069  0.070  0.124  0.003  0.001  0.000  0.003  0.000  0.281


 k-point    5 :   -0.43750000 0.06250000 0.06250000     weight = 0.01171875

band   1 # energy   -2.32336885 # occ.  2.00000000

ion      s     py     pz     px    dxy    dyz    dz2    dxz    dx2    tot
  1  0.147  0.000  0.000  0.002  0.194  0.214  0.000  0.194  0.000  0.752

band   2 # energy   -0.59665209 # occ.  2.00000000

ion      s     py     pz     px    dxy    dyz    dz2    dxz    dx2    tot
  1  0.000  0.000  0.000  0.000  0.066  0.222  0.136  0.066  0.408  0.898

band   3 # energy   -0.49878660 # occ.  2.00000000

ion      s     py     pz     px    dxy    dyz    dz2    dxz    dx2    tot
  1  0.000  0.000  0.000  0.000  0.185  0.000  0.401  0.185  0.134  0.904

band   4 # energy    0.99755670 # occ.  2.00000000

ion      s     py     pz     px    dxy    dyz    dz2    dxz    dx2    tot
  1  0.001  0.012  0.012  0.010  0.079  0.383  0.083  0.079  0.248  0.906

band   5 # energy    1.29094990 # occ.  2.00000000

ion      s     py     pz     px    dxy    dyz    dz2    dxz    dx2    tot
  1  0.000  0.000  0.000  0.000  0.289  0.000  0.295  0.289  0.098  0.971

band   6 # energy    3.35740223 # occ.  0.00006827

ion      s     py     pz     px    dxy    dyz    dz2    dxz    dx2    tot
  1  0.042  0.100  0.100  0.114  0.043  0.004  0.012  0.043  0.036  0.495

band   7 # energy    5.40436190 # occ.  0.00000000

ion      s     py     pz     px    dxy    dyz    dz2    dxz    dx2    tot
  1  0.418  0.017  0.017  0.008  0.097  0.125  0.000  0.097  0.001  0.780

band   8 # energy   17.57940693 # occ.  0.00000000

ion      s     py     pz     px    dxy    dyz    dz2    dxz    dx2    tot
  1  0.002  0.000  0.000  0.063  0.003  0.005  0.006  0.003  0.018  0.101

band   9 # energy   18.27075402 # occ.  0.00000000

ion      s     py     pz     px    dxy    dyz    dz2    dxz    dx2    tot
  1  0.018  0.049  0.117  0.245  0.005  0.012  0.001  0.008  0.005  0.459


 k-point    6 :   -0.31250000 0.06250000 0.06250000     weight = 0.01171875

band   1 # energy   -2.40005374 # occ.  2.00000000

ion      s     py     pz     px    dxy    dyz    dz2    dxz    dx2    tot
  1  0.229  0.002  0.002  0.012  0.143  0.155  0.001  0.143  0.002  0.689

band   2 # energy   -0.49610550 # occ.  2.00000000

ion      s     py     pz     px    dxy    dyz    dz2    dxz    dx2    tot
  1  0.001  0.000  0.000  0.000  0.082  0.246  0.123  0.082  0.370  0.904

band   3 # energy   -0.39082740 # occ.  2.00000000

ion      s     py     pz     px    dxy    dyz    dz2    dxz    dx2    tot
  1  0.000  0.001  0.001  0.000  0.226  0.000  0.342  0.226  0.114  0.909

band   4 # energy    0.17633967 # occ.  2.00000000

ion      s     py     pz     px    dxy    dyz    dz2    dxz    dx2    tot
  1  0.084  0.028  0.028  0.026  0.007  0.420  0.039  0.007  0.118  0.756

band   5 # energy    1.09646946 # occ.  2.00000000

ion      s     py     pz     px    dxy    dyz    dz2    dxz    dx2    tot
  1  0.000  0.000  0.000  0.000  0.242  0.000  0.359  0.242  0.120  0.963

band   6 # energy    1.23690660 # occ.  2.00000000

ion      s     py     pz     px    dxy    dyz    dz2    dxz    dx2    tot
  1  0.073  0.013  0.013  0.026  0.201  0.056  0.067  0.201  0.201  0.850

band   7 # energy    9.17815595 # occ.  0.00000000

ion      s     py     pz     px    dxy    dyz    dz2    dxz    dx2    tot
  1  0.213  0.082  0.082  0.071  0.050  0.064  0.000  0.050  0.001  0.614

band   8 # energy   18.14500511 # occ.  0.00000000

ion      s     py     pz     px    dxy    dyz    dz2    dxz    dx2    tot
  1  0.001  0.007  0.007  0.002  0.001  0.031  0.004  0.001  0.012  0.066

band   9 # energy   18.59868709 # occ.  0.00000000

ion      s     py     pz     px    dxy    dyz    dz2    dxz    dx2    tot
  1  0.000  0.234  0.231  0.000  0.032  0.000  0.008  0.032  0.003  0.539


 k-point    7 :   -0.18750000 0.06250000 0.06250000     weight = 0.01171875

band   1 # energy   -3.15081581 # occ.  2.00000000

ion      s     py     pz     px    dxy    dyz    dz2    dxz    dx2    tot
  1  0.430  0.007  0.007  0.024  0.025  0.017  0.001  0.025  0.003  0.539

band   2 # energy   -0.72593072 # occ.  2.00000000

ion      s     py     pz     px    dxy    dyz    dz2    dxz    dx2    tot
  1  0.018  0.007  0.007  0.005  0.085  0.650  0.000  0.085  0.000  0.857

band   3 # energy   -0.31069523 # occ.  2.00000000

ion      s     py     pz     px    dxy    dyz    dz2    dxz    dx2    tot
  1  0.002  0.001  0.001  0.001  0.226  0.146  0.076  0.226  0.229  0.908

band   4 # energy   -0.28142466 # occ.  2.00000000

ion      s     py     pz     px    dxy    dyz    dz2    dxz    dx2    tot
  1  0.000  0.001  0.001  0.000  0.349  0.000  0.161  0.349  0.054  0.915

band   5 # energy    0.44964447 # occ.  2.00000000

ion      s     py     pz     px    dxy    dyz    dz2    dxz    dx2    tot
  1  0.008  0.000  0.000  0.003  0.110  0.079  0.155  0.110  0.465  0.931

band   6 # energy    0.69141296 # occ.  2.00000000

ion      s     py     pz     px    dxy    dyz    dz2    dxz    dx2    tot
  1  0.000  0.000  0.000  0.000  0.111  0.000  0.546  0.111  0.182  0.950

band   7 # energy   13.80165716 # occ.  0.00000000

ion      s     py     pz     px    dxy    dyz    dz2    dxz    dx2    tot
  1  0.119  0.096  0.096  0.088  0.045  0.044  0.000  0.045  0.001  0.534

band   8 # energy   18.86684400 # occ.  0.00000000

ion      s     py     pz     px    dxy    dyz    dz2    dxz    dx2    tot
  1  0.011  0.006  0.006  0.009  0.007  0.074  0.002  0.007  0.006  0.128

band   9 # energy   19.41566130 # occ.  0.00000000

ion      s     py     pz     px    dxy    dyz    dz2    dxz    dx2    tot
  1  0.000  0.211  0.211  0.000  0.058  0.000  0.007  0.058  0.002  0.547


 k-point    8 :   -0.06250000 0.06250000 0.06250000     weight = 0.01171875

band   1 # energy   -4.15743056 # occ.  2.00000000

ion      s     py     pz     px    dxy    dyz    dz2    dxz    dx2    tot
  1  0.496  0.001  0.001  0.011  0.001  0.000  0.000  0.001  0.001  0.511

band   2 # energy   -0.67403842 # occ.  2.00000000

ion      s     py     pz     px    dxy    dyz    dz2    dxz    dx2    tot
  1  0.000  0.001  0.001  0.000  0.045  0.809  0.000  0.045  0.000  0.901

band   3 # energy   -0.40866171 # occ.  2.00000000

ion      s     py     pz     px    dxy    dyz    dz2    dxz    dx2    tot
  1  0.000  0.001  0.001  0.000  0.405  0.093  0.002  0.405  0.005  0.913

band   4 # energy   -0.40514314 # occ.  2.00000000

ion      s     py     pz     px    dxy    dyz    dz2    dxz    dx2    tot
  1  0.000  0.001  0.001  0.000  0.451  0.000  0.007  0.451  0.002  0.913

band   5 # energy    0.34798040 # occ.  2.00000000

ion      s     py     pz     px    dxy    dyz    dz2    dxz    dx2    tot
  1  0.001  0.000  0.000  0.000  0.003  0.001  0.233  0.003  0.700  0.941

band   6 # energy    0.52564256 # occ.  2.00000000

ion      s     py     pz     px    dxy    dyz    dz2    dxz    dx2    tot
  1  0.000  0.000  0.000  0.000  0.005  0.000  0.705  0.005  0.235  0.950

band   7 # energy   18.19429776 # occ.  0.00000000

ion      s     py     pz     px    dxy    dyz    dz2    dxz    dx2    tot
  1  0.022  0.051  0.051  0.041  0.025  0.048  0.000  0.025  0.001  0.266

band   8 # energy   18.93968452 # occ.  0.00000000

ion      s     py     pz     px    dxy    dyz    dz2    dxz    dx2    tot
  1  0.034  0.026  0.026  0.072  0.003  0.014  0.001  0.003  0.003  0.182

band   9 # energy   20.13056896 # occ.  0.00000000

ion      s     py     pz     px    dxy    dyz    dz2    dxz    dx2    tot
  1  0.000  0.177  0.171  0.000  0.038  0.000  0.002  0.037  0.001  0.426


 k-point    9 :    0.18750000 0.18750000 0.06250000     weight = 0.01171875

band   1 # energy   -3.59635497 # occ.  2.00000000

ion      s     py     pz     px    dxy    dyz    dz2    dxz    dx2    tot
  1  0.470  0.001  0.029  0.001  0.000  0.002  0.009  0.002  0.000  0.515

band   2 # energy   -0.87793310 # occ.  2.00000000

ion      s     py     pz     px    dxy    dyz    dz2    dxz    dx2    tot
  1  0.000  0.001  0.000  0.001  0.859  0.014  0.000  0.014  0.000  0.888

band   3 # energy   -0.21547853 # occ.  2.00000000

ion      s     py     pz     px    dxy    dyz    dz2    dxz    dx2    tot
  1  0.000  0.002  0.000  0.002  0.028  0.396  0.092  0.396  0.000  0.915

band   4 # energy   -0.20002171 # occ.  2.00000000

ion      s     py     pz     px    dxy    dyz    dz2    dxz    dx2    tot
  1  0.000  0.002  0.000  0.002  0.000  0.442  0.000  0.442  0.029  0.917

band   5 # energy    0.18564190 # occ.  2.00000000

ion      s     py     pz     px    dxy    dyz    dz2    dxz    dx2    tot
  1  0.007  0.000  0.002  0.000  0.003  0.044  0.824  0.044  0.000  0.924

band   6 # energy    0.64330085 # occ.  2.00000000

ion      s     py     pz     px    dxy    dyz    dz2    dxz    dx2    tot
  1  0.000  0.000  0.000  0.000  0.000  0.015  0.000  0.015  0.924  0.953

band   7 # energy   17.12696664 # occ.  0.00000000

ion      s     py     pz     px    dxy    dyz    dz2    dxz    dx2    tot
  1  0.066  0.101  0.075  0.101  0.027  0.038  0.007  0.038  0.000  0.453

band   8 # energy   18.78780387 # occ.  0.00000000

ion      s     py     pz     px    dxy    dyz    dz2    dxz    dx2    tot
  1  0.000  0.194  0.000  0.195  0.000  0.059  0.000  0.059  0.002  0.508

band   9 # energy   18.87001106 # occ.  0.00000000

ion      s     py     pz     px    dxy    dyz    dz2    dxz    dx2    tot
  1  0.025  0.001  0.035  0.001  0.111  0.001  0.011  0.001  0.000  0.186


 k-point   10 :    0.31250000 0.18750000 0.06250000     weight = 0.02343750

band   1 # energy   -2.64609446 # occ.  2.00000000

ion      s     py     pz     px    dxy    dyz    dz2    dxz    dx2    tot
  1  0.395  0.007  0.046  0.001  0.006  0.039  0.045  0.006  0.000  0.546

band   2 # energy   -1.05616298 # occ.  2.00000000

ion      s     py     pz     px    dxy    dyz    dz2    dxz    dx2    tot
  1  0.004  0.001  0.001  0.005  0.796  0.002  0.002  0.056  0.000  0.867

band   3 # energy   -0.33627579 # occ.  2.00000000

ion      s     py     pz     px    dxy    dyz    dz2    dxz    dx2    tot
  1  0.002  0.003  0.000  0.000  0.010  0.332  0.500  0.017  0.036  0.901

band   4 # energy    0.04794764 # occ.  2.00000000

ion      s     py     pz     px    dxy    dyz    dz2    dxz    dx2    tot
  1  0.001  0.001  0.001  0.003  0.041  0.100  0.033  0.604  0.137  0.921

band   5 # energy    0.42095302 # occ.  2.00000000

ion      s     py     pz     px    dxy    dyz    dz2    dxz    dx2    tot
  1  0.023  0.002  0.008  0.001  0.022  0.132  0.269  0.225  0.228  0.912

band   6 # energy    0.97915117 # occ.  2.00000000

ion      s     py     pz     px    dxy    dyz    dz2    dxz    dx2    tot
  1  0.015  0.002  0.004  0.000  0.000  0.313  0.058  0.003  0.549  0.945

band   7 # energy   14.08203332 # occ.  0.00000000

ion      s     py     pz     px    dxy    dyz    dz2    dxz    dx2    tot
  1  0.134  0.140  0.094  0.069  0.025  0.047  0.006  0.024  0.003  0.541

band   8 # energy   16.35769542 # occ.  0.00000000

ion      s     py     pz     px    dxy    dyz    dz2    dxz    dx2    tot
  1  0.018  0.055  0.017  0.271  0.064  0.015  0.002  0.080  0.004  0.526

band   9 # energy   19.17281782 # occ.  0.00000000

ion      s     py     pz     px    dxy    dyz    dz2    dxz    dx2    tot
  1  0.023  0.000  0.150  0.004  0.003  0.000  0.148  0.001  0.000  0.328


 k-point   11 :    0.43750000 0.18750000 0.06250000     weight = 0.02343750

band   1 # energy   -1.96629625 # occ.  2.00000000

ion      s     py     pz     px    dxy    dyz    dz2    dxz    dx2    tot
  1  0.181  0.003  0.024  0.000  0.224  0.141  0.047  0.091  0.000  0.712

band   2 # energy   -0.66047362 # occ.  2.00000000

ion      s     py     pz     px    dxy    dyz    dz2    dxz    dx2    tot
  1  0.003  0.010  0.001  0.005  0.010  0.116  0.643  0.042  0.029  0.858

band   3 # energy   -0.54881173 # occ.  2.00000000

ion      s     py     pz     px    dxy    dyz    dz2    dxz    dx2    tot
  1  0.055  0.007  0.018  0.013  0.540  0.161  0.000  0.002  0.021  0.818

band   4 # energy   -0.04333336 # occ.  2.00000000

ion      s     py     pz     px    dxy    dyz    dz2    dxz    dx2    tot
  1  0.005  0.003  0.003  0.000  0.057  0.066  0.026  0.317  0.432  0.910

band   5 # energy    1.08284212 # occ.  2.00000000

ion      s     py     pz     px    dxy    dyz    dz2    dxz    dx2    tot
  1  0.005  0.000  0.004  0.002  0.021  0.065  0.041  0.417  0.392  0.950

band   6 # energy    2.07204658 # occ.  2.00000000

ion      s     py     pz     px    dxy    dyz    dz2    dxz    dx2    tot
  1  0.133  0.015  0.041  0.008  0.005  0.376  0.140  0.043  0.063  0.825

band   7 # energy    9.53593171 # occ.  0.00000000

ion      s     py     pz     px    dxy    dyz    dz2    dxz    dx2    tot
  1  0.207  0.090  0.071  0.094  0.061  0.027  0.007  0.036  0.004  0.597

band   8 # energy   15.74533221 # occ.  0.00000000

ion      s     py     pz     px    dxy    dyz    dz2    dxz    dx2    tot
  1  0.037  0.067  0.049  0.271  0.047  0.006  0.000  0.050  0.020  0.545

band   9 # energy   17.07813339 # occ.  0.00000000

ion      s     py     pz     px    dxy    dyz    dz2    dxz    dx2    tot
  1  0.028  0.050  0.183  0.000  0.000  0.022  0.130  0.001  0.002  0.416


 k-point   12 :   -0.43750000 0.18750000 0.06250000     weight = 0.02343750

band   1 # energy   -1.91856523 # occ.  2.00000000

ion      s     py     pz     px    dxy    dyz    dz2    dxz    dx2    tot
  1  0.113  0.000  0.009  0.004  0.298  0.200  0.009  0.136  0.001  0.770

band   2 # energy   -0.79733021 # occ.  2.00000000

ion      s     py     pz     px    dxy    dyz    dz2    dxz    dx2    tot
  1  0.000  0.005  0.000  0.001  0.099  0.147  0.540  0.016  0.065  0.873

band   3 # energy   -0.18428773 # occ.  2.00000000

ion      s     py     pz     px    dxy    dyz    dz2    dxz    dx2    tot
  1  0.000  0.000  0.000  0.003  0.002  0.077  0.078  0.246  0.503  0.910

band   4 # energy    0.19725778 # occ.  2.00000000

ion      s     py     pz     px    dxy    dyz    dz2    dxz    dx2    tot
  1  0.004  0.019  0.022  0.018  0.364  0.186  0.162  0.028  0.033  0.836

band   5 # energy    1.24953637 # occ.  2.00000000

ion      s     py     pz     px    dxy    dyz    dz2    dxz    dx2    tot
  1  0.001  0.000  0.000  0.000  0.032  0.172  0.028  0.422  0.312  0.968

band   6 # energy    4.54252568 # occ.  0.00000000

ion      s     py     pz     px    dxy    dyz    dz2    dxz    dx2    tot
  1  0.151  0.057  0.102  0.051  0.001  0.139  0.079  0.051  0.006  0.637

band   7 # energy    5.63589114 # occ.  0.00000000

ion      s     py     pz     px    dxy    dyz    dz2    dxz    dx2    tot
  1  0.327  0.042  0.023  0.062  0.139  0.026  0.014  0.052  0.006  0.692

band   8 # energy   15.26178994 # occ.  0.00000000

ion      s     py     pz     px    dxy    dyz    dz2    dxz    dx2    tot
  1  0.065  0.012  0.245  0.109  0.007  0.025  0.050  0.031  0.006  0.550

band   9 # energy   16.34393250 # occ.  0.00000000

ion      s     py     pz     px    dxy    dyz    dz2    dxz    dx2    tot
  1  0.004  0.125  0.006  0.166  0.027  0.010  0.048  0.004  0.044  0.432


 k-point   13 :   -0.31250000 0.18750000 0.06250000     weight = 0.02343750

band   1 # energy   -1.89027384 # occ.  2.00000000

ion      s     py     pz     px    dxy    dyz    dz2    dxz    dx2    tot
  1  0.147  0.004  0.003  0.014  0.243  0.203  0.000  0.123  0.006  0.743

band   2 # energy   -0.71818616 # occ.  2.00000000

ion      s     py     pz     px    dxy    dyz    dz2    dxz    dx2    tot
  1  0.000  0.003  0.001  0.000  0.219  0.128  0.440  0.008  0.083  0.882

band   3 # energy   -0.21933587 # occ.  2.00000000

ion      s     py     pz     px    dxy    dyz    dz2    dxz    dx2    tot
  1  0.012  0.009  0.013  0.004  0.068  0.040  0.003  0.247  0.470  0.866

band   4 # energy   -0.04213992 # occ.  2.00000000

ion      s     py     pz     px    dxy    dyz    dz2    dxz    dx2    tot
  1  0.026  0.014  0.009  0.021  0.021  0.370  0.258  0.040  0.079  0.838

band   5 # energy    0.95527733 # occ.  2.00000000

ion      s     py     pz     px    dxy    dyz    dz2    dxz    dx2    tot
  1  0.001  0.000  0.001  0.003  0.032  0.117  0.066  0.462  0.267  0.950

band   6 # energy    2.80976781 # occ.  1.99983176

ion      s     py     pz     px    dxy    dyz    dz2    dxz    dx2    tot
  1  0.182  0.028  0.012  0.046  0.348  0.000  0.138  0.014  0.011  0.779

band   7 # energy    8.22048306 # occ.  0.00000000

ion      s     py     pz     px    dxy    dyz    dz2    dxz    dx2    tot
  1  0.226  0.071  0.095  0.062  0.018  0.070  0.025  0.050  0.000  0.618

band   8 # energy   14.67613434 # occ.  0.00000000

ion      s     py     pz     px    dxy    dyz    dz2    dxz    dx2    tot
  1  0.049  0.047  0.258  0.048  0.002  0.057  0.033  0.048  0.001  0.542

band   9 # energy   17.54010756 # occ.  0.00000000

ion      s     py     pz     px    dxy    dyz    dz2    dxz    dx2    tot
  1  0.018  0.040  0.002  0.194  0.025  0.000  0.037  0.001  0.067  0.385


 k-point   14 :   -0.18750000 0.18750000 0.06250000     weight = 0.02343750

band   1 # energy   -2.28807149 # occ.  2.00000000

ion      s     py     pz     px    dxy    dyz    dz2    dxz    dx2    tot
  1  0.349  0.017  0.000  0.038  0.123  0.018  0.009  0.013  0.012  0.580

band   2 # energy   -0.93002497 # occ.  2.00000000

ion      s     py     pz     px    dxy    dyz    dz2    dxz    dx2    tot
  1  0.011  0.002  0.014  0.002  0.003  0.638  0.000  0.183  0.001  0.854

band   3 # energy   -0.43717469 # occ.  2.00000000

ion      s     py     pz     px    dxy    dyz    dz2    dxz    dx2    tot
  1  0.002  0.006  0.000  0.002  0.305  0.002  0.425  0.003  0.143  0.888

band   4 # energy    0.01648420 # occ.  2.00000000

ion      s     py     pz     px    dxy    dyz    dz2    dxz    dx2    tot
  1  0.003  0.001  0.001  0.002  0.032  0.122  0.057  0.369  0.332  0.918

band   5 # energy    0.35065537 # occ.  2.00000000

ion      s     py     pz     px    dxy    dyz    dz2    dxz    dx2    tot
  1  0.007  0.000  0.001  0.004  0.011  0.098  0.040  0.332  0.430  0.924

band   6 # energy    1.41428573 # occ.  2.00000000

ion      s     py     pz     px    dxy    dyz    dz2    dxz    dx2    tot
  1  0.053  0.007  0.000  0.011  0.450  0.001  0.400  0.000  0.000  0.921

band   7 # energy   12.50056818 # occ.  0.00000000

ion      s     py     pz     px    dxy    dyz    dz2    dxz    dx2    tot
  1  0.172  0.122  0.057  0.102  0.041  0.025  0.017  0.022  0.000  0.558

band   8 # energy   15.05767512 # occ.  0.00000000

ion      s     py     pz     px    dxy    dyz    dz2    dxz    dx2    tot
  1  0.024  0.030  0.281  0.021  0.008  0.090  0.008  0.086  0.000  0.548

band   9 # energy   19.30043841 # occ.  0.00000000

ion      s     py     pz     px    dxy    dyz    dz2    dxz    dx2    tot
  1  0.020  0.000  0.004  0.148  0.004  0.000  0.043  0.000  0.060  0.280


 k-point   15 :   -0.06250000 0.18750000 0.06250000     weight = 0.02343750

band   1 # energy   -3.34832027 # occ.  2.00000000

ion      s     py     pz     px    dxy    dyz    dz2    dxz    dx2    tot
  1  0.455  0.009  0.001  0.027  0.019  0.002  0.003  0.003  0.003  0.522

band   2 # energy   -0.84397727 # occ.  2.00000000

ion      s     py     pz     px    dxy    dyz    dz2    dxz    dx2    tot
  1  0.002  0.001  0.005  0.001  0.007  0.719  0.000  0.146  0.000  0.881

band   3 # energy   -0.27552301 # occ.  2.00000000

ion      s     py     pz     px    dxy    dyz    dz2    dxz    dx2    tot
  1  0.001  0.003  0.000  0.001  0.623  0.018  0.202  0.009  0.051  0.909

band   4 # energy   -0.20214423 # occ.  2.00000000

ion      s     py     pz     px    dxy    dyz    dz2    dxz    dx2    tot
  1  0.000  0.000  0.001  0.000  0.030  0.134  0.009  0.691  0.053  0.918

band   5 # energy    0.25621538 # occ.  2.00000000

ion      s     py     pz     px    dxy    dyz    dz2    dxz    dx2    tot
  1  0.005  0.000  0.000  0.002  0.061  0.017  0.009  0.051  0.782  0.928

band   6 # energy    0.71595369 # occ.  2.00000000

ion      s     py     pz     px    dxy    dyz    dz2    dxz    dx2    tot
  1  0.004  0.001  0.000  0.001  0.175  0.000  0.721  0.005  0.042  0.949

band   7 # energy   15.45713404 # occ.  0.00000000

ion      s     py     pz     px    dxy    dyz    dz2    dxz    dx2    tot
  1  0.102  0.121  0.065  0.095  0.051  0.027  0.005  0.027  0.001  0.495

band   8 # energy   17.57002973 # occ.  0.00000000

ion      s     py     pz     px    dxy    dyz    dz2    dxz    dx2    tot
  1  0.016  0.038  0.195  0.021  0.013  0.078  0.005  0.075  0.000  0.441

band   9 # energy   20.10661438 # occ.  0.00000000

ion      s     py     pz     px    dxy    dyz    dz2    dxz    dx2    tot
  1  0.000  0.049  0.108  0.000  0.018  0.028  0.000  0.007  0.006  0.216


 k-point   16 :    0.31250000 0.31250000 0.06250000     weight = 0.01171875

band   1 # energy   -2.18053383 # occ.  2.00000000

ion      s     py     pz     px    dxy    dyz    dz2    dxz    dx2    tot
  1  0.281  0.001  0.050  0.001  0.003  0.004  0.265  0.004  0.000  0.608

band   2 # energy   -1.39820374 # occ.  2.00000000

ion      s     py     pz     px    dxy    dyz    dz2    dxz    dx2    tot
  1  0.001  0.001  0.000  0.001  0.851  0.002  0.002  0.002  0.000  0.861

band   3 # energy   -0.02741414 # occ.  2.00000000

ion      s     py     pz     px    dxy    dyz    dz2    dxz    dx2    tot
  1  0.079  0.001  0.029  0.001  0.004  0.132  0.461  0.132  0.000  0.837

band   4 # energy    0.43758725 # occ.  2.00000000

ion      s     py     pz     px    dxy    dyz    dz2    dxz    dx2    tot
  1  0.000  0.003  0.000  0.003  0.000  0.394  0.000  0.394  0.139  0.932

band   5 # energy    0.74900635 # occ.  2.00000000

ion      s     py     pz     px    dxy    dyz    dz2    dxz    dx2    tot
  1  0.053  0.003  0.020  0.003  0.004  0.324  0.153  0.324  0.000  0.886

band   6 # energy    0.97862630 # occ.  2.00000000

ion      s     py     pz     px    dxy    dyz    dz2    dxz    dx2    tot
  1  0.000  0.000  0.000  0.000  0.000  0.070  0.000  0.070  0.821  0.962

band   7 # energy   14.33641117 # occ.  0.00000000

ion      s     py     pz     px    dxy    dyz    dz2    dxz    dx2    tot
  1  0.140  0.124  0.116  0.124  0.013  0.027  0.000  0.027  0.000  0.572

band   8 # energy   15.66242759 # occ.  0.00000000
