loading vasp
job was accepted on:
Mon Apr  2 09:14:02 EDT 2012
Vasp has completed.
Mon Apr  2 09:14:07 EDT 2012
--------------------------------------------------------
Logfile:
 running on    8 nodes
 distr:  one band on    4 nodes,    2 groups
 vasp.5.2.12 11Nov11 complex                                                    
  
 POSCAR found :  1 types and       1 ions

 ----------------------------------------------------------------------------- 
|                                                                             |
|  ADVICE TO THIS USER RUNNING 'VASP/VAMP'   (HEAR YOUR MASTER'S VOICE ...):  |
|                                                                             |
|      You have a (more or less) 'small supercell' and for smaller cells      |
|      it is recommended  to use the reciprocal-space projection scheme!      |
|      The real space optimization is not  efficient for small cells and it   |
|      is also less accurate ...                                              |
|      Therefore set LREAL=.FALSE. in the  INCAR file                         |
|                                                                             |
 ----------------------------------------------------------------------------- 

 LDA part: xc-table for Ceperly-Alder, standard interpolation
 POSCAR, INCAR and KPOINTS ok, starting setup
 WARNING: small aliasing (wrap around) errors must be expected
 FFT: planning ...(           1 )
 WAVECAR not read
 entering main loop
       N       E                     dE             d eps       ncg     rms          rms(c)
DAV:   1     0.607882901487E+02    0.60788E+02   -0.12417E+03    24   0.268E+02
DAV:   2     0.105625614738E+02   -0.50226E+02   -0.50226E+02    32   0.771E+01
DAV:   3     0.317824649882E+00   -0.10245E+02   -0.10245E+02    16   0.471E+01
DAV:   4    -0.410026096108E-02   -0.32192E+00   -0.32192E+00    16   0.117E+01
DAV:   5    -0.704347882504E-02   -0.29432E-02   -0.29432E-02    32   0.917E-01    0.302E-01
RMM:   6    -0.106613134469E-01   -0.36178E-02   -0.23290E-03    16   0.450E-01    0.165E-01
RMM:   7    -0.118673697144E-01   -0.12061E-02   -0.81738E-04    16   0.242E-01    0.416E-02
RMM:   8    -0.119395135571E-01   -0.72144E-04   -0.36654E-05    12   0.457E-02
   1 F= -.11939514E-01 E0= -.11939514E-01  d E =-.119395E-01
 curvature:   0.00 expect dE= 0.000E+00 dE for cont linesearch  0.000E+00
 trial: gam= 0.00000 g(F)=  0.000E+00 g(S)=  0.000E+00 ort = 0.000E+00 (trialstep = 0.100E+01)
 search vector abs. value=  0.100E-09
 reached required accuracy - stopping structural energy minimisation
end logfile.
--------------------------------------------------------
