   1   1   0   0
  0.1728000E+04  0.1200000E-08  0.1200000E-08  0.1200000E-08  0.1000000E-15
  1.000000000000000E-004
  CAR 
 Ar atom                                 
      2.17576148    -25.40103135  301    -10.03845968      1.00000000
    -25.401  0.0000E+00  0.0000E+00
    -25.309  0.0000E+00  0.0000E+00
    -25.217  0.0000E+00  0.0000E+00
    -25.125  0.0000E+00  0.0000E+00
    -25.033  0.0000E+00  0.0000E+00
    -24.941  0.0000E+00  0.0000E+00
    -24.849  0.0000E+00  0.0000E+00
    -24.758  0.0000E+00  0.0000E+00
    -24.666  0.0000E+00  0.0000E+00
    -24.574  0.0000E+00  0.0000E+00
    -24.482  0.0000E+00  0.0000E+00
    -24.390  0.1558E-11  0.1432E-12
    -24.298  0.4559E-05  0.4191E-06
    -24.206  0.2132E-01  0.1960E-02
    -24.114  0.3389E+00  0.3311E-01
    -24.022  0.7485E-01  0.3999E-01
    -23.930  0.8529E-04  0.4000E-01
    -23.838  0.1736E-09  0.4000E-01
    -23.746  0.0000E+00  0.4000E-01
    -23.655  0.0000E+00  0.4000E-01
    -23.563  0.0000E+00  0.4000E-01
    -23.471  0.0000E+00  0.4000E-01
    -23.379  0.0000E+00  0.4000E-01
    -23.287  0.0000E+00  0.4000E-01
    -23.195  0.0000E+00  0.4000E-01
    -23.103  0.0000E+00  0.4000E-01
    -23.011  0.0000E+00  0.4000E-01
    -22.919  0.0000E+00  0.4000E-01
    -22.827  0.0000E+00  0.4000E-01
    -22.735  0.0000E+00  0.4000E-01
    -22.643  0.0000E+00  0.4000E-01
    -22.551  0.0000E+00  0.4000E-01
    -22.460  0.0000E+00  0.4000E-01
    -22.368  0.0000E+00  0.4000E-01
    -22.276  0.0000E+00  0.4000E-01
    -22.184  0.0000E+00  0.4000E-01
    -22.092  0.0000E+00  0.4000E-01
    -22.000  0.0000E+00  0.4000E-01
    -21.908  0.0000E+00  0.4000E-01
    -21.816  0.0000E+00  0.4000E-01
    -21.724  0.0000E+00  0.4000E-01
    -21.632  0.0000E+00  0.4000E-01
    -21.540  0.0000E+00  0.4000E-01
    -21.448  0.0000E+00  0.4000E-01
    -21.356  0.0000E+00  0.4000E-01
    -21.265  0.0000E+00  0.4000E-01
    -21.173  0.0000E+00  0.4000E-01
    -21.081  0.0000E+00  0.4000E-01
    -20.989  0.0000E+00  0.4000E-01
    -20.897  0.0000E+00  0.4000E-01
    -20.805  0.0000E+00  0.4000E-01
    -20.713  0.0000E+00  0.4000E-01
    -20.621  0.0000E+00  0.4000E-01
    -20.529  0.0000E+00  0.4000E-01
    -20.437  0.0000E+00  0.4000E-01
    -20.345  0.0000E+00  0.4000E-01
    -20.253  0.0000E+00  0.4000E-01
    -20.161  0.0000E+00  0.4000E-01
    -20.070  0.0000E+00  0.4000E-01
    -19.978  0.0000E+00  0.4000E-01
    -19.886  0.0000E+00  0.4000E-01
    -19.794  0.0000E+00  0.4000E-01
    -19.702  0.0000E+00  0.4000E-01
    -19.610  0.0000E+00  0.4000E-01
    -19.518  0.0000E+00  0.4000E-01
    -19.426  0.0000E+00  0.4000E-01
    -19.334  0.0000E+00  0.4000E-01
    -19.242  0.0000E+00  0.4000E-01
    -19.150  0.0000E+00  0.4000E-01
    -19.058  0.0000E+00  0.4000E-01
    -18.966  0.0000E+00  0.4000E-01
    -18.875  0.0000E+00  0.4000E-01
    -18.783  0.0000E+00  0.4000E-01
    -18.691  0.0000E+00  0.4000E-01
    -18.599  0.0000E+00  0.4000E-01
    -18.507  0.0000E+00  0.4000E-01
    -18.415  0.0000E+00  0.4000E-01
    -18.323  0.0000E+00  0.4000E-01
    -18.231  0.0000E+00  0.4000E-01
    -18.139  0.0000E+00  0.4000E-01
    -18.047  0.0000E+00  0.4000E-01
    -17.955  0.0000E+00  0.4000E-01
    -17.863  0.0000E+00  0.4000E-01
    -17.771  0.0000E+00  0.4000E-01
    -17.680  0.0000E+00  0.4000E-01
    -17.588  0.0000E+00  0.4000E-01
    -17.496  0.0000E+00  0.4000E-01
    -17.404  0.0000E+00  0.4000E-01
    -17.312  0.0000E+00  0.4000E-01
    -17.220  0.0000E+00  0.4000E-01
    -17.128  0.0000E+00  0.4000E-01
    -17.036  0.0000E+00  0.4000E-01
    -16.944  0.0000E+00  0.4000E-01
    -16.852  0.0000E+00  0.4000E-01
    -16.760  0.0000E+00  0.4000E-01
    -16.668  0.0000E+00  0.4000E-01
    -16.576  0.0000E+00  0.4000E-01
    -16.485  0.0000E+00  0.4000E-01
    -16.393  0.0000E+00  0.4000E-01
    -16.301  0.0000E+00  0.4000E-01
    -16.209  0.0000E+00  0.4000E-01
    -16.117  0.0000E+00  0.4000E-01
    -16.025  0.0000E+00  0.4000E-01
    -15.933  0.0000E+00  0.4000E-01
    -15.841  0.0000E+00  0.4000E-01
    -15.749  0.0000E+00  0.4000E-01
    -15.657  0.0000E+00  0.4000E-01
    -15.565  0.0000E+00  0.4000E-01
    -15.473  0.0000E+00  0.4000E-01
    -15.381  0.0000E+00  0.4000E-01
    -15.290  0.0000E+00  0.4000E-01
    -15.198  0.0000E+00  0.4000E-01
    -15.106  0.0000E+00  0.4000E-01
    -15.014  0.0000E+00  0.4000E-01
    -14.922  0.0000E+00  0.4000E-01
    -14.830  0.0000E+00  0.4000E-01
    -14.738  0.0000E+00  0.4000E-01
    -14.646  0.0000E+00  0.4000E-01
    -14.554  0.0000E+00  0.4000E-01
    -14.462  0.0000E+00  0.4000E-01
    -14.370  0.0000E+00  0.4000E-01
    -14.278  0.0000E+00  0.4000E-01
    -14.186  0.0000E+00  0.4000E-01
    -14.095  0.0000E+00  0.4000E-01
    -14.003  0.0000E+00  0.4000E-01
    -13.911  0.0000E+00  0.4000E-01
    -13.819  0.0000E+00  0.4000E-01
    -13.727  0.0000E+00  0.4000E-01
    -13.635  0.0000E+00  0.4000E-01
    -13.543  0.0000E+00  0.4000E-01
    -13.451  0.0000E+00  0.4000E-01
    -13.359  0.0000E+00  0.4000E-01
    -13.267  0.0000E+00  0.4000E-01
    -13.175  0.0000E+00  0.4000E-01
    -13.083  0.0000E+00  0.4000E-01
    -12.991  0.0000E+00  0.4000E-01
    -12.900  0.0000E+00  0.4000E-01
    -12.808  0.0000E+00  0.4000E-01
    -12.716  0.0000E+00  0.4000E-01
    -12.624  0.0000E+00  0.4000E-01
    -12.532  0.0000E+00  0.4000E-01
    -12.440  0.0000E+00  0.4000E-01
    -12.348  0.0000E+00  0.4000E-01
    -12.256  0.0000E+00  0.4000E-01
    -12.164  0.0000E+00  0.4000E-01
    -12.072  0.0000E+00  0.4000E-01
    -11.980  0.0000E+00  0.4000E-01
    -11.888  0.0000E+00  0.4000E-01
    -11.796  0.0000E+00  0.4000E-01
    -11.705  0.0000E+00  0.4000E-01
    -11.613  0.0000E+00  0.4000E-01
    -11.521  0.0000E+00  0.4000E-01
    -11.429  0.0000E+00  0.4000E-01
    -11.337  0.0000E+00  0.4000E-01
    -11.245  0.0000E+00  0.4000E-01
    -11.153  0.0000E+00  0.4000E-01
    -11.061  0.0000E+00  0.4000E-01
    -10.969  0.0000E+00  0.4000E-01
    -10.877  0.0000E+00  0.4000E-01
    -10.785  0.0000E+00  0.4000E-01
    -10.693  0.0000E+00  0.4000E-01
    -10.601  0.0000E+00  0.4000E-01
    -10.510  0.7812E-10  0.4000E-01
    -10.418  0.8038E-04  0.4001E-01
    -10.326  0.1403E+00  0.5290E-01
    -10.234  0.1052E+01  0.1496E+00
    -10.142  0.1134E+00  0.1600E+00
    -10.050  0.4890E-04  0.1600E+00
     -9.958  0.3510E-10  0.1600E+00
     -9.866  0.0000E+00  0.1600E+00
     -9.774  0.0000E+00  0.1600E+00
     -9.682  0.0000E+00  0.1600E+00
     -9.590  0.0000E+00  0.1600E+00
     -9.498  0.0000E+00  0.1600E+00
     -9.406  0.0000E+00  0.1600E+00
     -9.315  0.0000E+00  0.1600E+00
     -9.223  0.0000E+00  0.1600E+00
     -9.131  0.0000E+00  0.1600E+00
     -9.039  0.0000E+00  0.1600E+00
     -8.947  0.0000E+00  0.1600E+00
     -8.855  0.0000E+00  0.1600E+00
     -8.763  0.0000E+00  0.1600E+00
     -8.671  0.0000E+00  0.1600E+00
     -8.579  0.0000E+00  0.1600E+00
     -8.487  0.0000E+00  0.1600E+00
     -8.395  0.0000E+00  0.1600E+00
     -8.303  0.0000E+00  0.1600E+00
     -8.211  0.0000E+00  0.1600E+00
     -8.120  0.0000E+00  0.1600E+00
     -8.028  0.0000E+00  0.1600E+00
     -7.936  0.0000E+00  0.1600E+00
     -7.844  0.0000E+00  0.1600E+00
     -7.752  0.0000E+00  0.1600E+00
     -7.660  0.0000E+00  0.1600E+00
     -7.568  0.0000E+00  0.1600E+00
     -7.476  0.0000E+00  0.1600E+00
     -7.384  0.0000E+00  0.1600E+00
     -7.292  0.0000E+00  0.1600E+00
     -7.200  0.0000E+00  0.1600E+00
     -7.108  0.0000E+00  0.1600E+00
     -7.017  0.0000E+00  0.1600E+00
     -6.925  0.0000E+00  0.1600E+00
     -6.833  0.0000E+00  0.1600E+00
     -6.741  0.0000E+00  0.1600E+00
     -6.649  0.0000E+00  0.1600E+00
     -6.557  0.0000E+00  0.1600E+00
     -6.465  0.0000E+00  0.1600E+00
     -6.373  0.0000E+00  0.1600E+00
     -6.281  0.0000E+00  0.1600E+00
     -6.189  0.0000E+00  0.1600E+00
     -6.097  0.0000E+00  0.1600E+00
     -6.005  0.0000E+00  0.1600E+00
     -5.913  0.0000E+00  0.1600E+00
     -5.822  0.0000E+00  0.1600E+00
     -5.730  0.0000E+00  0.1600E+00
     -5.638  0.0000E+00  0.1600E+00
     -5.546  0.0000E+00  0.1600E+00
     -5.454  0.0000E+00  0.1600E+00
     -5.362  0.0000E+00  0.1600E+00
     -5.270  0.0000E+00  0.1600E+00
     -5.178  0.0000E+00  0.1600E+00
     -5.086  0.0000E+00  0.1600E+00
     -4.994  0.0000E+00  0.1600E+00
     -4.902  0.0000E+00  0.1600E+00
     -4.810  0.0000E+00  0.1600E+00
     -4.718  0.0000E+00  0.1600E+00
     -4.627  0.0000E+00  0.1600E+00
     -4.535  0.0000E+00  0.1600E+00
     -4.443  0.0000E+00  0.1600E+00
     -4.351  0.0000E+00  0.1600E+00
     -4.259  0.0000E+00  0.1600E+00
     -4.167  0.0000E+00  0.1600E+00
     -4.075  0.0000E+00  0.1600E+00
     -3.983  0.0000E+00  0.1600E+00
     -3.891  0.0000E+00  0.1600E+00
     -3.799  0.0000E+00  0.1600E+00
     -3.707  0.0000E+00  0.1600E+00
     -3.615  0.0000E+00  0.1600E+00
     -3.523  0.0000E+00  0.1600E+00
     -3.432  0.0000E+00  0.1600E+00
     -3.340  0.0000E+00  0.1600E+00
     -3.248  0.0000E+00  0.1600E+00
     -3.156  0.0000E+00  0.1600E+00
     -3.064  0.0000E+00  0.1600E+00
     -2.972  0.0000E+00  0.1600E+00
     -2.880  0.0000E+00  0.1600E+00
     -2.788  0.0000E+00  0.1600E+00
     -2.696  0.0000E+00  0.1600E+00
     -2.604  0.0000E+00  0.1600E+00
     -2.512  0.0000E+00  0.1600E+00
     -2.420  0.0000E+00  0.1600E+00
     -2.328  0.0000E+00  0.1600E+00
     -2.237  0.0000E+00  0.1600E+00
     -2.145  0.0000E+00  0.1600E+00
     -2.053  0.0000E+00  0.1600E+00
     -1.961  0.0000E+00  0.1600E+00
     -1.869  0.0000E+00  0.1600E+00
     -1.777  0.0000E+00  0.1600E+00
     -1.685  0.0000E+00  0.1600E+00
     -1.593  0.0000E+00  0.1600E+00
     -1.501  0.0000E+00  0.1600E+00
     -1.409  0.0000E+00  0.1600E+00
     -1.317  0.0000E+00  0.1600E+00
     -1.225  0.0000E+00  0.1600E+00
     -1.133  0.0000E+00  0.1600E+00
     -1.042  0.0000E+00  0.1600E+00
     -0.950  0.0000E+00  0.1600E+00
     -0.858  0.0000E+00  0.1600E+00
     -0.766  0.0000E+00  0.1600E+00
     -0.674  0.0000E+00  0.1600E+00
     -0.582  0.0000E+00  0.1600E+00
     -0.490  0.7464E-09  0.1600E+00
     -0.398  0.2033E-03  0.1600E+00
     -0.306  0.1038E+00  0.1696E+00
     -0.214  0.3184E+00  0.1988E+00
     -0.122  0.1277E-01  0.2000E+00
     -0.030  0.1547E-05  0.2000E+00
      0.062  0.2912E-12  0.2000E+00
      0.153  0.0000E+00  0.2000E+00
      0.245  0.0000E+00  0.2000E+00
      0.337  0.0000E+00  0.2000E+00
      0.429  0.2295E-09  0.2000E+00
      0.521  0.1009E-03  0.2000E+00
      0.613  0.7988E-01  0.2074E+00
      0.705  0.3357E+00  0.2382E+00
      0.797  0.1960E-01  0.2400E+00
      0.889  0.1498E+00  0.2538E+00
      0.981  0.6777E+00  0.3161E+00
      1.073  0.4262E-01  0.3200E+00
      1.165  0.9105E-05  0.3200E+00
      1.257  0.3108E-11  0.3200E+00
      1.348  0.0000E+00  0.3200E+00
      1.440  0.0000E+00  0.3200E+00
      1.532  0.0000E+00  0.3200E+00
      1.624  0.0000E+00  0.3200E+00
      1.716  0.0000E+00  0.3200E+00
      1.808  0.0000E+00  0.3200E+00
      1.900  0.0000E+00  0.3200E+00
      1.992  0.0000E+00  0.3200E+00
      2.084  0.0000E+00  0.3200E+00
      2.176  0.0000E+00  0.3200E+00
