    1    1   50    1
  0.1728000E+04  0.1200000E-08  0.1200000E-08  0.1200000E-08  0.1000000E-15
  1.000000000000000E-004
  CAR 
 Ar atom                                 
    8    1    8
 
  0.0000000E+00  0.0000000E+00  0.0000000E+00  0.1000000E+01
   1      -24.147541
   2      -10.281884
   3      -10.281884
   4      -10.281884
   5       -0.281061
   6        0.644930
   7        0.922271
   8        0.922250
