<?xml version="1.0" encoding="ISO-8859-1"?>
<modeling>
 <generator>
  <i name="program" type="string">vasp </i>
  <i name="version" type="string">5.2.12  </i>
  <i name="subversion" type="string">11Nov11 complex                                                      parallel </i>
  <i name="platform" type="string">LinuxIFC </i>
  <i name="date" type="string">2012 04 02 </i>
  <i name="time" type="string">09:14:02 </i>
 </generator>
 <incar>
  <i type="string" name="SYSTEM"> Ar atom</i>
  <i type="int" name="ISTART">     0</i>
  <i type="string" name="PREC">normal  ! precision parameter, typicall</i>
  <i type="string" name="ALGO"> fast   ! sets SCF algorithm.  fast: com</i>
  <i type="int" name="NSIM">     4</i>
  <i type="int" name="ISPIN">     1</i>
  <i type="int" name="ICHARG">     2</i>
  <i type="int" name="INIWAV">     1</i>
  <i type="int" name="NELM">    30</i>
  <i type="int" name="IBRION">     2</i>
  <i type="int" name="NFREE">    10</i>
  <i name="EDIFF">      0.00010000</i>
  <i name="EDIFFG">     -0.03000000</i>
  <i type="int" name="NSW">    50</i>
  <i type="int" name="ISIF">     0</i>
  <i name="ENCUT">    250.00000000</i>
  <i name="POTIM">      0.10000000</i>
  <i type="string" name="LREAL"> auto  ! how to numerically handle core</i>
  <i type="logical" name="LPLANE"> T  </i>
  <i type="int" name="ISMEAR">     0</i>
  <i name="SIGMA">      0.05000000</i>
  <i type="int" name="NWRITE">     1</i>
  <i type="logical" name="LWAVE"> F  </i>
  <i type="logical" name="LCHARG"> T  </i>
  <i type="logical" name="LVTOT"> F  </i>
  <i type="int" name="NELM">    30</i>
 </incar>
 <kpoints>
  <varray name="kpointlist" >
   <v>       0.00000000       0.00000000       0.00000000 </v>
  </varray>
  <varray name="weights" >
   <v>       1.00000000 </v>
  </varray>
 </kpoints>
 <parameters>
  <separator name="general" >
   <i type="string" name="SYSTEM">Ar atom</i>
   <i type="logical" name="LCOMPAT"> F  </i>
  </separator>
  <separator name="electronic" >
   <i type="string" name="PREC">normal</i>
   <i name="ENMAX">    250.00000000</i>
   <i name="ENAUG">    482.93000000</i>
   <i name="EDIFF">      0.00010000</i>
   <i type="int" name="IALGO">    68</i>
   <i type="int" name="IWAVPR">    11</i>
   <i type="int" name="NBANDS">     8</i>
   <i name="NELECT">      8.00000000</i>
   <i type="int" name="TURBO">     0</i>
   <i type="int" name="IRESTART">     0</i>
   <i type="int" name="NREBOOT">     0</i>
   <i type="int" name="NMIN">     0</i>
   <i name="EREF">      0.00000000</i>
   <separator name="electronic smearing" >
    <i type="int" name="ISMEAR">     0</i>
    <i name="SIGMA">      0.05000000</i>
    <i name="KSPACING">      0.50000000</i>
    <i type="logical" name="KGAMMA"> T  </i>
   </separator>
   <separator name="electronic projectors" >
    <i type="logical" name="LREAL"> T  </i>
    <v name="ROPT">     -0.00050000</v>
    <i type="int" name="LMAXPAW">  -100</i>
    <i type="int" name="LMAXMIX">     2</i>
    <i type="logical" name="NLSPLINE"> F  </i>
   </separator>
   <separator name="electronic startup" >
    <i type="int" name="ISTART">     0</i>
    <i type="int" name="ICHARG">     2</i>
    <i type="int" name="INIWAV">     1</i>
   </separator>
   <separator name="electronic spin" >
    <i type="int" name="ISPIN">     1</i>
    <i type="logical" name="LNONCOLLINEAR"> F  </i>
    <v name="MAGMOM">      1.00000000</v>
    <i name="NUPDOWN">     -1.00000000</i>
    <i type="logical" name="LSORBIT"> F  </i>
    <v name="SAXIS">      0.00000000      0.00000000      1.00000000</v>
    <i type="logical" name="LSPIRAL"> F  </i>
    <v name="QSPIRAL">      0.00000000      0.00000000      0.00000000</v>
    <i type="logical" name="LZEROZ"> F  </i>
   </separator>
   <separator name="electronic exchange-correlation" >
    <i type="logical" name="LASPH"> F  </i>
    <i type="logical" name="LMETAGGA"> F  </i>
   </separator>
   <separator name="electronic convergence" >
    <i type="int" name="NELM">    30</i>
    <i type="int" name="NELMDL">    -5</i>
    <i type="int" name="NELMIN">     2</i>
    <i name="ENINI">    250.00000000</i>
    <separator name="electronic convergence detail" >
     <i type="logical" name="LDIAG"> T  </i>
     <i type="logical" name="LSUBROT"> T  </i>
     <i name="WEIMIN">      0.00100000</i>
     <i name="EBREAK">      0.00000313</i>
     <i name="DEPER">      0.30000000</i>
     <i type="int" name="NRMM">     4</i>
     <i name="TIME">      0.40000000</i>
    </separator>
   </separator>
   <separator name="electronic mixer" >
    <i name="AMIX">      0.40000000</i>
    <i name="BMIX">      1.00000000</i>
    <i name="AMIN">      0.10000000</i>
    <i name="AMIX_MAG">      1.60000000</i>
    <i name="BMIX_MAG">      1.00000000</i>
    <separator name="electronic mixer details" >
     <i type="int" name="IMIX">     4</i>
     <i type="int" name="MAXMIX">   -45</i>
     <i name="WC">    100.00000000</i>
     <i type="int" name="INIMIX">     1</i>
     <i type="int" name="MIXPRE">     1</i>
     <i type="int" name="MREMOVE">     5</i>
    </separator>
   </separator>
   <separator name="electronic dipolcorrection" >
    <i type="logical" name="LDIPOL"> F  </i>
    <i type="logical" name="LMONO"> F  </i>
    <i type="int" name="IDIPOL">     0</i>
    <i name="EPSILON">      1.00000000</i>
    <v name="DIPOL">   -100.00000000   -100.00000000   -100.00000000</v>
    <i name="EFIELD">      0.00000000</i>
   </separator>
  </separator>
  <separator name="grids" >
   <i type="int" name="NGX">    48</i>
   <i type="int" name="NGY">    48</i>
   <i type="int" name="NGZ">    48</i>
   <i type="int" name="NGXF">    96</i>
   <i type="int" name="NGYF">    96</i>
   <i type="int" name="NGZF">    96</i>
   <i type="logical" name="ADDGRID"> F  </i>
  </separator>
  <separator name="ionic" >
   <i type="int" name="NSW">    50</i>
   <i type="int" name="IBRION">     2</i>
   <i type="int" name="ISIF">     0</i>
   <i name="PSTRESS">      0.00000000</i>
   <i name="EDIFFG">     -0.03000000</i>
   <i type="int" name="NFREE">    10</i>
   <i name="POTIM">      0.10000000</i>
   <i name="SMASS">     -3.00000000</i>
   <i name="SCALEE">      1.00000000</i>
  </separator>
  <separator name="ionic md" >
   <i name="TEBEG">      0.00010000</i>
   <i name="TEEND">      0.00010000</i>
   <i type="int" name="NBLOCK">     1</i>
   <i type="int" name="KBLOCK">    50</i>
   <i type="int" name="NPACO">   256</i>
   <i name="APACO">     16.00000000</i>
  </separator>
  <separator name="symmetry" >
   <i type="int" name="ISYM">     2</i>
   <i name="SYMPREC">      0.00001000</i>
  </separator>
  <separator name="dos" >
   <i type="logical" name="LORBIT"> F  </i>
   <v name="RWIGS">     -1.00000000</v>
   <i type="int" name="NEDOS">   301</i>
   <i name="EMIN">     10.00000000</i>
   <i name="EMAX">    -10.00000000</i>
   <i name="EFERMI">      0.00000000</i>
  </separator>
  <separator name="writing" >
   <i type="int" name="NWRITE">     1</i>
   <i type="logical" name="LWAVE"> F  </i>
   <i type="logical" name="LCHARG"> T  </i>
   <i type="logical" name="LPARD"> F  </i>
   <i type="logical" name="LVTOT"> F  </i>
   <i type="logical" name="LVHAR"> F  </i>
   <i type="logical" name="LELF"> F  </i>
   <i type="logical" name="LOPTICS"> F  </i>
   <v name="STM">      0.00000000      0.00000000      0.00000000      0.00000000      0.00000000      0.00000000      0.00000000</v>
  </separator>
  <separator name="performance" >
   <i type="int" name="NPAR">     2</i>
   <i type="int" name="NSIM">     4</i>
   <i type="int" name="NBLK">    -1</i>
   <i type="logical" name="LPLANE"> T  </i>
   <i type="logical" name="LSCALAPACK"> F  </i>
   <i type="logical" name="LSCAAWARE"> F  </i>
   <i type="logical" name="LSCALU"> F  </i>
   <i type="logical" name="LASYNC"> F  </i>
   <i type="logical" name="LORBITALREAL"> F  </i>
  </separator>
  <separator name="miscellaneous" >
   <i type="int" name="IDIOT">     3</i>
   <i type="logical" name="LMUSIC"> F  </i>
   <v name="POMASS">     39.94900000</v>
   <v name="DARWINR">      0.00000000</v>
   <v name="DARWINV">      1.00000000</v>
   <i type="logical" name="LCORR"> T  </i>
  </separator>
  <i type="logical" name="GGA_COMPAT"> T  </i>
  <i type="logical" name="LBERRY"> F  </i>
  <i type="int" name="ICORELEVEL">     0</i>
  <i type="logical" name="LDAU"> F  </i>
  <i type="int" name="I_CONSTRAINED_M">     0</i>
  <separator name="electronic exchange-correlation" >
   <i type="string" name="GGA">--</i>
   <i type="int" name="VOSKOWN">     0</i>
   <i type="logical" name="LHFCALC"> F  </i>
   <i type="string" name="PRECFOCK"></i>
   <i type="logical" name="LHFONE"> F  </i>
   <i type="logical" name="LRHFCALC"> F  </i>
   <i type="logical" name="LTHOMAS"> F  </i>
   <i type="logical" name="LMODELHF"> F  </i>
   <i name="ENCUT4O">     -1.00000000</i>
   <i type="int" name="EXXOEP">     0</i>
   <i type="int" name="FOURORBIT">     0</i>
   <i name="AEXX">      0.00000000</i>
   <i name="HFALPHA">      0.00000000</i>
   <i name="ALDAX">      1.00000000</i>
   <i name="AGGAX">      1.00000000</i>
   <i name="ALDAC">      1.00000000</i>
   <i name="AGGAC">      1.00000000</i>
   <i type="int" name="NKREDX">     1</i>
   <i type="int" name="NKREDY">     1</i>
   <i type="int" name="NKREDZ">     1</i>
   <i type="logical" name="SHIFTRED"> F  </i>
   <i type="logical" name="ODDONLY"> F  </i>
   <i type="logical" name="EVENONLY"> F  </i>
   <i type="int" name="LMAXFOCK">     0</i>
   <i type="int" name="NMAXFOCKAE">     0</i>
   <i type="logical" name="LFOCKAEDFT"> F  </i>
   <i name="HFSCREEN">      0.00000000</i>
   <i name="HFSCREENC">      0.00000000</i>
  </separator>
  <separator name="vdW DFT" >
   <i type="logical" name="LUSE_VDW"> F  </i>
   <i name="Zab_VDW">     -0.84910000</i>
   <i name="PARAM1">      0.12340000</i>
   <i name="PARAM2">      1.00000000</i>
   <i name="PARAM3">      0.00000000</i>
  </separator>
  <separator name="model GW" >
   <i type="int" name="MODEL_GW">     0</i>
   <i name="MODEL_EPS0">   1036.80000000</i>
   <i name="MODEL_ALPHA">      1.00000000</i>
  </separator>
  <separator name="linear response parameters" >
   <i type="logical" name="LEPSILON"> F  </i>
   <i type="logical" name="LRPA"> F  </i>
   <i type="logical" name="LNABLA"> F  </i>
   <i type="logical" name="LVEL"> F  </i>
   <i type="int" name="KINTER">     0</i>
   <i name="CSHIFT">      0.10000000</i>
   <i name="OMEGAMAX">     -1.00000000</i>
  </separator>
  <separator name="orbital magnetization" >
   <i type="logical" name="NUCIND"> F  </i>
   <v name="MAGPOS">      0.00000000      0.00000000      0.00000000</v>
   <i type="logical" name="LNICSALL"> T  </i>
   <i type="logical" name="ORBITALMAG"> F  </i>
   <i type="logical" name="LMAGBLOCH"> F  </i>
   <i type="logical" name="LCHIMAG"> F  </i>
   <i type="logical" name="LGAUGE"> T  </i>
   <i type="int" name="MAGATOM">     0</i>
   <v name="MAGDIPOL">      0.00000000      0.00000000      0.00000000</v>
   <v name="AVECCONST">      0.00000000      0.00000000      0.00000000</v>
  </separator>
  <separator name="response functions" >
   <i type="logical" name="LADDER"> F  </i>
   <i type="logical" name="LHARTREE"> T  </i>
   <i type="int" name="IBSE">     0</i>
   <i type="logical" name="LTCTE"> F  </i>
   <i type="logical" name="LTETE"> F  </i>
   <i type="logical" name="LFXCEPS"> F  </i>
   <i type="logical" name="L2ORDER"> F  </i>
   <i type="logical" name="LUSEW"> F  </i>
   <i name="ENCUTGW">     -2.00000000</i>
   <i name="ENCUTGWSOFT">     -2.00000000</i>
   <i name="ENCUTLF">     -1.00000000</i>
   <i type="int" name="LMAXMP2">    -1</i>
   <i name="SCISSOR">      0.00000000</i>
   <i type="int" name="NOMEGA">     0</i>
   <i type="int" name="NOMEGAR">     0</i>
   <i type="int" name="NBANDSGW">    -1</i>
   <i type="int" name="NBANDSO">    -1</i>
   <i type="int" name="NBANDSV">    -1</i>
   <i name="OPTEMAX">      0.00000000</i>
   <i type="int" name="NELM">    30</i>
   <i type="int" name="DIM">     3</i>
   <i type="int" name="ANTIRES">     0</i>
   <i name="OMEGAMAX">    -30.00000000</i>
   <i name="OMEGATL">   -200.00000000</i>
   <i type="int" name="OMEGAGRID">     0</i>
   <i name="CSHIFT">     -0.10000000</i>
   <i type="logical" name="SELFENERGY"> F  </i>
   <i type="logical" name="LSPECTRAL"> F  </i>
   <i type="logical" name="ODDONLYGW"> F  </i>
   <i type="logical" name="EVENONLYGW"> F  </i>
   <i type="int" name="NKREDLFX">     1</i>
   <i type="int" name="NKREDLFY">     1</i>
   <i type="int" name="NKREDLFZ">     1</i>
   <i type="int" name="MAXMEM">  1800</i>
   <i type="int" name="TELESCOPE">     0</i>
  </separator>
 </parameters>
 <atominfo>
  <atoms>       1 </atoms>
  <types>       1 </types>
  <array name="atoms" >
   <dimension dim="1">ion</dimension>
   <field type="string">element</field>
   <field type="int">atomtype</field>
   <set>
    <rc><c>Ar</c><c>   1</c></rc>
   </set>
  </array>
  <array name="atomtypes" >
   <dimension dim="1">type</dimension>
   <field type="int">atomspertype</field>
   <field type="string">element</field>
   <field>mass</field>
   <field>valence</field>
   <field type="string">pseudopotential</field>
   <set>
    <rc><c>   1</c><c>Ar</c><c>     39.94900000</c><c>      8.00000000</c><c> PAW Ar 07Sep2000                       </c></rc>
   </set>
  </array>
 </atominfo>
 <structure name="initialpos" >
  <crystal>
   <varray name="basis" >
    <v>      12.00000000       0.00000000       0.00000000 </v>
    <v>       0.00000000      12.00000000       0.00000000 </v>
    <v>       0.00000000       0.00000000      12.00000000 </v>
   </varray>
   <i name="volume">   1728.00000000 </i>
   <varray name="rec_basis" >
    <v>       0.08333333       0.00000000       0.00000000 </v>
    <v>       0.00000000       0.08333333       0.00000000 </v>
    <v>       0.00000000       0.00000000       0.08333333 </v>
   </varray>
  </crystal>
  <varray name="positions" >
   <v>       0.50000000       0.50000000       0.50000000 </v>
  </varray>
 </structure>
 <calculation>
  <scstep>
   <time name="dav">    0.05    0.05</time>
   <time name="total">    0.09    0.10</time>
   <energy>
    <i name="alphaZ">      0.08011924 </i>
    <i name="ewald">   -108.95061336 </i>
    <i name="hartreedc">   -385.08583539 </i>
    <i name="XCdc">     29.58335866 </i>
    <i name="pawpsdc">    317.25610341 </i>
    <i name="pawaedc">   -322.64641344 </i>
    <i name="eentropy">      0.00000000 </i>
    <i name="bandstr">    -48.95205228 </i>
    <i name="atom">    579.50362332 </i>
    <i name="e_fr_energy">     60.78829015 </i>
    <i name="e_wo_entrp">     60.78829015 </i>
    <i name="e_0_energy">     60.78829015 </i>
   </energy>
  </scstep>
  <scstep>
   <time name="dav">    0.07    0.07</time>
   <time name="total">    0.07    0.07</time>
   <energy>
    <i name="e_fr_energy">     10.56256147 </i>
    <i name="e_wo_entrp">     10.56256147 </i>
    <i name="e_0_energy">     10.56256147 </i>
   </energy>
  </scstep>
  <scstep>
   <time name="dav">    0.04    0.04</time>
   <time name="total">    0.04    0.05</time>
   <energy>
    <i name="e_fr_energy">      0.31782465 </i>
    <i name="e_wo_entrp">      0.31782465 </i>
    <i name="e_0_energy">      0.31782465 </i>
   </energy>
  </scstep>
  <scstep>
   <time name="dav">    0.04    0.04</time>
   <time name="total">    0.04    0.04</time>
   <energy>
    <i name="e_fr_energy">     -0.00410026 </i>
    <i name="e_wo_entrp">     -0.00410026 </i>
    <i name="e_0_energy">     -0.00410026 </i>
   </energy>
  </scstep>
  <scstep>
   <time name="dav">    0.07    0.07</time>
   <time name="total">    0.10    0.10</time>
   <energy>
    <i name="e_fr_energy">     -0.00704348 </i>
    <i name="e_wo_entrp">     -0.00704348 </i>
    <i name="e_0_energy">     -0.00704348 </i>
   </energy>
  </scstep>
  <scstep>
   <time name="diag">    0.01    0.01</time>
   <time name="diis">    0.03    0.03</time>
   <time name="orth">    0.00    0.00</time>
   <time name="total">    0.10    0.11</time>
   <energy>
    <i name="e_fr_energy">     -0.01066131 </i>
    <i name="e_wo_entrp">     -0.01066131 </i>
    <i name="e_0_energy">     -0.01066131 </i>
   </energy>
  </scstep>
  <scstep>
   <time name="diag">    0.01    0.01</time>
   <time name="diis">    0.03    0.03</time>
   <time name="orth">    0.00    0.00</time>
   <time name="total">    0.10    0.11</time>
   <energy>
    <i name="e_fr_energy">     -0.01186737 </i>
    <i name="e_wo_entrp">     -0.01186737 </i>
    <i name="e_0_energy">     -0.01186737 </i>
   </energy>
  </scstep>
  <scstep>
   <time name="diag">    0.01    0.01</time>
   <time name="diis">    0.02    0.02</time>
   <time name="orth">    0.00    0.00</time>
   <time name="total">    0.07    0.07</time>
   <energy>
    <i name="alphaZ">      0.08011924 </i>
    <i name="ewald">   -108.95061336 </i>
    <i name="hartreedc">   -384.93005681 </i>
    <i name="XCdc">     29.59331741 </i>
    <i name="pawpsdc">    314.56386650 </i>
    <i name="pawaedc">   -319.88580894 </i>
    <i name="eentropy">      0.00000000 </i>
    <i name="bandstr">   -109.98638688 </i>
    <i name="atom">    579.50362332 </i>
    <i name="e_fr_energy">     -0.01193951 </i>
    <i name="e_wo_entrp">     -0.01193951 </i>
    <i name="e_0_energy">     -0.01193951 </i>
   </energy>
  </scstep>
  <parameters_embedded>
   <separator name="dft+d2" >
    <i type="logical" name="LVDW"> F  </i>
   </separator>
  </parameters_embedded>
  <structure>
   <crystal>
    <varray name="basis" >
     <v>      12.00000000       0.00000000       0.00000000 </v>
     <v>       0.00000000      12.00000000       0.00000000 </v>
     <v>       0.00000000       0.00000000      12.00000000 </v>
    </varray>
    <i name="volume">   1728.00000000 </i>
    <varray name="rec_basis" >
     <v>       0.08333333       0.00000000       0.00000000 </v>
     <v>       0.00000000       0.08333333       0.00000000 </v>
     <v>       0.00000000       0.00000000       0.08333333 </v>
    </varray>
   </crystal>
   <varray name="positions" >
    <v>       0.50000000       0.50000000       0.50000000 </v>
   </varray>
  </structure>
  <varray name="forces" >
   <v>       0.00000000       0.00000000       0.00000000 </v>
  </varray>
  <energy>
   <i name="e_fr_energy">     -0.01193951 </i>
   <i name="e_wo_entrp">     -0.01193951 </i>
   <i name="e_0_energy">      0.00000000 </i>
  </energy>
  <time name="totalsc">    2.37    2.43</time>
  <eigenvalues>
   <array>
    <dimension dim="1">band</dimension>
    <dimension dim="2">kpoint</dimension>
    <dimension dim="3">spin</dimension>
    <field>eigene</field>
    <field>occ</field>
    <set>
     <set comment="spin 1">
      <set comment="kpoint 1">
       <r>  -24.1475    1.0000 </r>
       <r>  -10.2819    1.0000 </r>
       <r>  -10.2819    1.0000 </r>
       <r>  -10.2819    1.0000 </r>
       <r>   -0.2811    0.0000 </r>
       <r>    0.6449    0.0000 </r>
       <r>    0.9223    0.0000 </r>
       <r>    0.9222    0.0000 </r>
      </set>
     </set>
    </set>
   </array>
  </eigenvalues>
  <separator name="orbital magnetization" >
   <v name="MAGDIPOLOUT">      0.00000000      0.00000000      0.00000000</v>
  </separator>
  <dos>
   <i name="efermi">    -10.03845968 </i>
   <total>
    <array>
     <dimension dim="1">gridpoints</dimension>
     <dimension dim="2">spin</dimension>
     <field>energy</field>
     <field>total</field>
     <field>integrated</field>
     <set>
      <set comment="spin 1">
       <r>   -25.4010     0.0000     0.0000 </r>
       <r>   -25.3091     0.0000     0.0000 </r>
       <r>   -25.2172     0.0000     0.0000 </r>
       <r>   -25.1253     0.0000     0.0000 </r>
       <r>   -25.0333     0.0000     0.0000 </r>
       <r>   -24.9414     0.0000     0.0000 </r>
       <r>   -24.8495     0.0000     0.0000 </r>
       <r>   -24.7576     0.0000     0.0000 </r>
       <r>   -24.6657     0.0000     0.0000 </r>
       <r>   -24.5737     0.0000     0.0000 </r>
       <r>   -24.4818     0.0000     0.0000 </r>
       <r>   -24.3899     0.0000     0.0000 </r>
       <r>   -24.2980     0.0002     0.0000 </r>
       <r>   -24.2060     1.0661     0.0980 </r>
       <r>   -24.1141    16.9441     1.6556 </r>
       <r>   -24.0222     3.7427     1.9996 </r>
       <r>   -23.9303     0.0043     2.0000 </r>
       <r>   -23.8383     0.0000     2.0000 </r>
       <r>   -23.7464     0.0000     2.0000 </r>
       <r>   -23.6545     0.0000     2.0000 </r>
       <r>   -23.5626     0.0000     2.0000 </r>
       <r>   -23.4707     0.0000     2.0000 </r>
       <r>   -23.3787     0.0000     2.0000 </r>
       <r>   -23.2868     0.0000     2.0000 </r>
       <r>   -23.1949     0.0000     2.0000 </r>
       <r>   -23.1030     0.0000     2.0000 </r>
       <r>   -23.0110     0.0000     2.0000 </r>
       <r>   -22.9191     0.0000     2.0000 </r>
       <r>   -22.8272     0.0000     2.0000 </r>
       <r>   -22.7353     0.0000     2.0000 </r>
       <r>   -22.6434     0.0000     2.0000 </r>
       <r>   -22.5514     0.0000     2.0000 </r>
       <r>   -22.4595     0.0000     2.0000 </r>
       <r>   -22.3676     0.0000     2.0000 </r>
       <r>   -22.2757     0.0000     2.0000 </r>
       <r>   -22.1837     0.0000     2.0000 </r>
       <r>   -22.0918     0.0000     2.0000 </r>
       <r>   -21.9999     0.0000     2.0000 </r>
       <r>   -21.9080     0.0000     2.0000 </r>
       <r>   -21.8160     0.0000     2.0000 </r>
       <r>   -21.7241     0.0000     2.0000 </r>
       <r>   -21.6322     0.0000     2.0000 </r>
       <r>   -21.5403     0.0000     2.0000 </r>
       <r>   -21.4484     0.0000     2.0000 </r>
       <r>   -21.3564     0.0000     2.0000 </r>
       <r>   -21.2645     0.0000     2.0000 </r>
       <r>   -21.1726     0.0000     2.0000 </r>
       <r>   -21.0807     0.0000     2.0000 </r>
       <r>   -20.9887     0.0000     2.0000 </r>
       <r>   -20.8968     0.0000     2.0000 </r>
       <r>   -20.8049     0.0000     2.0000 </r>
       <r>   -20.7130     0.0000     2.0000 </r>
       <r>   -20.6211     0.0000     2.0000 </r>
       <r>   -20.5291     0.0000     2.0000 </r>
       <r>   -20.4372     0.0000     2.0000 </r>
       <r>   -20.3453     0.0000     2.0000 </r>
       <r>   -20.2534     0.0000     2.0000 </r>
       <r>   -20.1614     0.0000     2.0000 </r>
       <r>   -20.0695     0.0000     2.0000 </r>
       <r>   -19.9776     0.0000     2.0000 </r>
       <r>   -19.8857     0.0000     2.0000 </r>
       <r>   -19.7938     0.0000     2.0000 </r>
       <r>   -19.7018     0.0000     2.0000 </r>
       <r>   -19.6099     0.0000     2.0000 </r>
       <r>   -19.5180     0.0000     2.0000 </r>
       <r>   -19.4261     0.0000     2.0000 </r>
       <r>   -19.3341     0.0000     2.0000 </r>
       <r>   -19.2422     0.0000     2.0000 </r>
       <r>   -19.1503     0.0000     2.0000 </r>
       <r>   -19.0584     0.0000     2.0000 </r>
       <r>   -18.9664     0.0000     2.0000 </r>
       <r>   -18.8745     0.0000     2.0000 </r>
       <r>   -18.7826     0.0000     2.0000 </r>
       <r>   -18.6907     0.0000     2.0000 </r>
       <r>   -18.5988     0.0000     2.0000 </r>
       <r>   -18.5068     0.0000     2.0000 </r>
       <r>   -18.4149     0.0000     2.0000 </r>
       <r>   -18.3230     0.0000     2.0000 </r>
       <r>   -18.2311     0.0000     2.0000 </r>
       <r>   -18.1391     0.0000     2.0000 </r>
       <r>   -18.0472     0.0000     2.0000 </r>
       <r>   -17.9553     0.0000     2.0000 </r>
       <r>   -17.8634     0.0000     2.0000 </r>
       <r>   -17.7715     0.0000     2.0000 </r>
       <r>   -17.6795     0.0000     2.0000 </r>
       <r>   -17.5876     0.0000     2.0000 </r>
       <r>   -17.4957     0.0000     2.0000 </r>
       <r>   -17.4038     0.0000     2.0000 </r>
       <r>   -17.3118     0.0000     2.0000 </r>
       <r>   -17.2199     0.0000     2.0000 </r>
       <r>   -17.1280     0.0000     2.0000 </r>
       <r>   -17.0361     0.0000     2.0000 </r>
       <r>   -16.9441     0.0000     2.0000 </r>
       <r>   -16.8522     0.0000     2.0000 </r>
       <r>   -16.7603     0.0000     2.0000 </r>
       <r>   -16.6684     0.0000     2.0000 </r>
       <r>   -16.5765     0.0000     2.0000 </r>
       <r>   -16.4845     0.0000     2.0000 </r>
       <r>   -16.3926     0.0000     2.0000 </r>
       <r>   -16.3007     0.0000     2.0000 </r>
       <r>   -16.2088     0.0000     2.0000 </r>
       <r>   -16.1168     0.0000     2.0000 </r>
       <r>   -16.0249     0.0000     2.0000 </r>
       <r>   -15.9330     0.0000     2.0000 </r>
       <r>   -15.8411     0.0000     2.0000 </r>
       <r>   -15.7492     0.0000     2.0000 </r>
       <r>   -15.6572     0.0000     2.0000 </r>
       <r>   -15.5653     0.0000     2.0000 </r>
       <r>   -15.4734     0.0000     2.0000 </r>
       <r>   -15.3815     0.0000     2.0000 </r>
       <r>   -15.2895     0.0000     2.0000 </r>
       <r>   -15.1976     0.0000     2.0000 </r>
       <r>   -15.1057     0.0000     2.0000 </r>
       <r>   -15.0138     0.0000     2.0000 </r>
       <r>   -14.9219     0.0000     2.0000 </r>
       <r>   -14.8299     0.0000     2.0000 </r>
       <r>   -14.7380     0.0000     2.0000 </r>
       <r>   -14.6461     0.0000     2.0000 </r>
       <r>   -14.5542     0.0000     2.0000 </r>
       <r>   -14.4622     0.0000     2.0000 </r>
       <r>   -14.3703     0.0000     2.0000 </r>
       <r>   -14.2784     0.0000     2.0000 </r>
       <r>   -14.1865     0.0000     2.0000 </r>
       <r>   -14.0945     0.0000     2.0000 </r>
       <r>   -14.0026     0.0000     2.0000 </r>
       <r>   -13.9107     0.0000     2.0000 </r>
       <r>   -13.8188     0.0000     2.0000 </r>
       <r>   -13.7269     0.0000     2.0000 </r>
       <r>   -13.6349     0.0000     2.0000 </r>
       <r>   -13.5430     0.0000     2.0000 </r>
       <r>   -13.4511     0.0000     2.0000 </r>
       <r>   -13.3592     0.0000     2.0000 </r>
       <r>   -13.2672     0.0000     2.0000 </r>
       <r>   -13.1753     0.0000     2.0000 </r>
       <r>   -13.0834     0.0000     2.0000 </r>
       <r>   -12.9915     0.0000     2.0000 </r>
       <r>   -12.8996     0.0000     2.0000 </r>
       <r>   -12.8076     0.0000     2.0000 </r>
       <r>   -12.7157     0.0000     2.0000 </r>
       <r>   -12.6238     0.0000     2.0000 </r>
       <r>   -12.5319     0.0000     2.0000 </r>
       <r>   -12.4399     0.0000     2.0000 </r>
       <r>   -12.3480     0.0000     2.0000 </r>
       <r>   -12.2561     0.0000     2.0000 </r>
       <r>   -12.1642     0.0000     2.0000 </r>
       <r>   -12.0722     0.0000     2.0000 </r>
       <r>   -11.9803     0.0000     2.0000 </r>
       <r>   -11.8884     0.0000     2.0000 </r>
       <r>   -11.7965     0.0000     2.0000 </r>
       <r>   -11.7046     0.0000     2.0000 </r>
       <r>   -11.6126     0.0000     2.0000 </r>
       <r>   -11.5207     0.0000     2.0000 </r>
       <r>   -11.4288     0.0000     2.0000 </r>
       <r>   -11.3369     0.0000     2.0000 </r>
       <r>   -11.2449     0.0000     2.0000 </r>
       <r>   -11.1530     0.0000     2.0000 </r>
       <r>   -11.0611     0.0000     2.0000 </r>
       <r>   -10.9692     0.0000     2.0000 </r>
       <r>   -10.8773     0.0000     2.0000 </r>
       <r>   -10.7853     0.0000     2.0000 </r>
       <r>   -10.6934     0.0000     2.0000 </r>
       <r>   -10.6015     0.0000     2.0000 </r>
       <r>   -10.5096     0.0000     2.0000 </r>
       <r>   -10.4176     0.0040     2.0004 </r>
       <r>   -10.3257     7.0143     2.6451 </r>
       <r>   -10.2338    52.5825     7.4787 </r>
       <r>   -10.1419     5.6690     7.9998 </r>
       <r>   -10.0500     0.0024     8.0000 </r>
       <r>    -9.9580     0.0000     8.0000 </r>
       <r>    -9.8661     0.0000     8.0000 </r>
       <r>    -9.7742     0.0000     8.0000 </r>
       <r>    -9.6823     0.0000     8.0000 </r>
       <r>    -9.5903     0.0000     8.0000 </r>
       <r>    -9.4984     0.0000     8.0000 </r>
       <r>    -9.4065     0.0000     8.0000 </r>
       <r>    -9.3146     0.0000     8.0000 </r>
       <r>    -9.2226     0.0000     8.0000 </r>
       <r>    -9.1307     0.0000     8.0000 </r>
       <r>    -9.0388     0.0000     8.0000 </r>
       <r>    -8.9469     0.0000     8.0000 </r>
       <r>    -8.8550     0.0000     8.0000 </r>
       <r>    -8.7630     0.0000     8.0000 </r>
       <r>    -8.6711     0.0000     8.0000 </r>
       <r>    -8.5792     0.0000     8.0000 </r>
       <r>    -8.4873     0.0000     8.0000 </r>
       <r>    -8.3953     0.0000     8.0000 </r>
       <r>    -8.3034     0.0000     8.0000 </r>
       <r>    -8.2115     0.0000     8.0000 </r>
       <r>    -8.1196     0.0000     8.0000 </r>
       <r>    -8.0277     0.0000     8.0000 </r>
       <r>    -7.9357     0.0000     8.0000 </r>
       <r>    -7.8438     0.0000     8.0000 </r>
       <r>    -7.7519     0.0000     8.0000 </r>
       <r>    -7.6600     0.0000     8.0000 </r>
       <r>    -7.5680     0.0000     8.0000 </r>
       <r>    -7.4761     0.0000     8.0000 </r>
       <r>    -7.3842     0.0000     8.0000 </r>
       <r>    -7.2923     0.0000     8.0000 </r>
       <r>    -7.2003     0.0000     8.0000 </r>
       <r>    -7.1084     0.0000     8.0000 </r>
       <r>    -7.0165     0.0000     8.0000 </r>
       <r>    -6.9246     0.0000     8.0000 </r>
       <r>    -6.8327     0.0000     8.0000 </r>
       <r>    -6.7407     0.0000     8.0000 </r>
       <r>    -6.6488     0.0000     8.0000 </r>
       <r>    -6.5569     0.0000     8.0000 </r>
       <r>    -6.4650     0.0000     8.0000 </r>
       <r>    -6.3730     0.0000     8.0000 </r>
       <r>    -6.2811     0.0000     8.0000 </r>
       <r>    -6.1892     0.0000     8.0000 </r>
       <r>    -6.0973     0.0000     8.0000 </r>
       <r>    -6.0054     0.0000     8.0000 </r>
       <r>    -5.9134     0.0000     8.0000 </r>
       <r>    -5.8215     0.0000     8.0000 </r>
       <r>    -5.7296     0.0000     8.0000 </r>
       <r>    -5.6377     0.0000     8.0000 </r>
       <r>    -5.5457     0.0000     8.0000 </r>
       <r>    -5.4538     0.0000     8.0000 </r>
       <r>    -5.3619     0.0000     8.0000 </r>
       <r>    -5.2700     0.0000     8.0000 </r>
       <r>    -5.1780     0.0000     8.0000 </r>
       <r>    -5.0861     0.0000     8.0000 </r>
       <r>    -4.9942     0.0000     8.0000 </r>
       <r>    -4.9023     0.0000     8.0000 </r>
       <r>    -4.8104     0.0000     8.0000 </r>
       <r>    -4.7184     0.0000     8.0000 </r>
       <r>    -4.6265     0.0000     8.0000 </r>
       <r>    -4.5346     0.0000     8.0000 </r>
       <r>    -4.4427     0.0000     8.0000 </r>
       <r>    -4.3507     0.0000     8.0000 </r>
       <r>    -4.2588     0.0000     8.0000 </r>
       <r>    -4.1669     0.0000     8.0000 </r>
       <r>    -4.0750     0.0000     8.0000 </r>
       <r>    -3.9831     0.0000     8.0000 </r>
       <r>    -3.8911     0.0000     8.0000 </r>
       <r>    -3.7992     0.0000     8.0000 </r>
       <r>    -3.7073     0.0000     8.0000 </r>
       <r>    -3.6154     0.0000     8.0000 </r>
       <r>    -3.5234     0.0000     8.0000 </r>
       <r>    -3.4315     0.0000     8.0000 </r>
       <r>    -3.3396     0.0000     8.0000 </r>
       <r>    -3.2477     0.0000     8.0000 </r>
       <r>    -3.1558     0.0000     8.0000 </r>
       <r>    -3.0638     0.0000     8.0000 </r>
       <r>    -2.9719     0.0000     8.0000 </r>
       <r>    -2.8800     0.0000     8.0000 </r>
       <r>    -2.7881     0.0000     8.0000 </r>
       <r>    -2.6961     0.0000     8.0000 </r>
       <r>    -2.6042     0.0000     8.0000 </r>
       <r>    -2.5123     0.0000     8.0000 </r>
       <r>    -2.4204     0.0000     8.0000 </r>
       <r>    -2.3284     0.0000     8.0000 </r>
       <r>    -2.2365     0.0000     8.0000 </r>
       <r>    -2.1446     0.0000     8.0000 </r>
       <r>    -2.0527     0.0000     8.0000 </r>
       <r>    -1.9608     0.0000     8.0000 </r>
       <r>    -1.8688     0.0000     8.0000 </r>
       <r>    -1.7769     0.0000     8.0000 </r>
       <r>    -1.6850     0.0000     8.0000 </r>
       <r>    -1.5931     0.0000     8.0000 </r>
       <r>    -1.5011     0.0000     8.0000 </r>
       <r>    -1.4092     0.0000     8.0000 </r>
       <r>    -1.3173     0.0000     8.0000 </r>
       <r>    -1.2254     0.0000     8.0000 </r>
       <r>    -1.1335     0.0000     8.0000 </r>
       <r>    -1.0415     0.0000     8.0000 </r>
       <r>    -0.9496     0.0000     8.0000 </r>
       <r>    -0.8577     0.0000     8.0000 </r>
       <r>    -0.7658     0.0000     8.0000 </r>
       <r>    -0.6738     0.0000     8.0000 </r>
       <r>    -0.5819     0.0000     8.0000 </r>
       <r>    -0.4900     0.0000     8.0000 </r>
       <r>    -0.3981     0.0102     8.0009 </r>
       <r>    -0.3061     5.1892     8.4779 </r>
       <r>    -0.2142    15.9194     9.9413 </r>
       <r>    -0.1223     0.6386    10.0000 </r>
       <r>    -0.0304     0.0001    10.0000 </r>
       <r>     0.0615     0.0000    10.0000 </r>
       <r>     0.1535     0.0000    10.0000 </r>
       <r>     0.2454     0.0000    10.0000 </r>
       <r>     0.3373     0.0000    10.0000 </r>
       <r>     0.4292     0.0000    10.0000 </r>
       <r>     0.5212     0.0050    10.0005 </r>
       <r>     0.6131     3.9941    10.3676 </r>
       <r>     0.7050    16.7866    11.9107 </r>
       <r>     0.7969     0.9800    12.0008 </r>
       <r>     0.8888     7.4890    12.6892 </r>
       <r>     0.9808    33.8862    15.8041 </r>
       <r>     1.0727     2.1309    16.0000 </r>
       <r>     1.1646     0.0005    16.0000 </r>
       <r>     1.2565     0.0000    16.0000 </r>
       <r>     1.3485     0.0000    16.0000 </r>
       <r>     1.4404     0.0000    16.0000 </r>
       <r>     1.5323     0.0000    16.0000 </r>
       <r>     1.6242     0.0000    16.0000 </r>
       <r>     1.7161     0.0000    16.0000 </r>
       <r>     1.8081     0.0000    16.0000 </r>
       <r>     1.9000     0.0000    16.0000 </r>
       <r>     1.9919     0.0000    16.0000 </r>
       <r>     2.0838     0.0000    16.0000 </r>
       <r>     2.1758     0.0000    16.0000 </r>
      </set>
     </set>
    </array>
   </total>
  </dos>
 </calculation>
 <structure name="finalpos" >
  <crystal>
   <varray name="basis" >
    <v>      12.00000000       0.00000000       0.00000000 </v>
    <v>       0.00000000      12.00000000       0.00000000 </v>
    <v>       0.00000000       0.00000000      12.00000000 </v>
   </varray>
   <i name="volume">   1728.00000000 </i>
   <varray name="rec_basis" >
    <v>       0.08333333       0.00000000       0.00000000 </v>
    <v>       0.00000000       0.08333333       0.00000000 </v>
    <v>       0.00000000       0.00000000       0.08333333 </v>
   </varray>
  </crystal>
  <varray name="positions" >
   <v>       0.50000000       0.50000000       0.50000000 </v>
  </varray>
 </structure>
</modeling>
