 Entering Gaussian System, Link 0=g03
 Input=C2H4F2-drag.com
 Output=C2H4F2-drag.log
 Initial command:
 /opt/und/gaussian/03D01/linux86-64/g03/l1.exe /scratch/Gau-18537.inp -scrdir=/scratch/
 Entering Link 1 = /opt/und/gaussian/03D01/linux86-64/g03/l1.exe PID=     18538.
  
 Copyright (c) 1988,1990,1992,1993,1995,1998,2003,2004, Gaussian, Inc.
                  All Rights Reserved.
  
 This is the Gaussian(R) 03 program.  It is based on the
 the Gaussian(R) 98 system (copyright 1998, Gaussian, Inc.),
 the Gaussian(R) 94 system (copyright 1995, Gaussian, Inc.),
 the Gaussian 92(TM) system (copyright 1992, Gaussian, Inc.),
 the Gaussian 90(TM) system (copyright 1990, Gaussian, Inc.),
 the Gaussian 88(TM) system (copyright 1988, Gaussian, Inc.),
 the Gaussian 86(TM) system (copyright 1986, Carnegie Mellon
 University), and the Gaussian 82(TM) system (copyright 1983,
 Carnegie Mellon University). Gaussian is a federally registered
 trademark of Gaussian, Inc.
  
 This software contains proprietary and confidential information,
 including trade secrets, belonging to Gaussian, Inc.
  
 This software is provided under written license and may be
 used, copied, transmitted, or stored only in accord with that
 written license.
  
 The following legend is applicable only to US Government
 contracts under FAR:
  
                    RESTRICTED RIGHTS LEGEND
  
 Use, reproduction and disclosure by the US Government is
 subject to restrictions as set forth in subparagraphs (a)
 and (c) of the Commercial Computer Software - Restricted
 Rights clause in FAR 52.227-19.
  
 Gaussian, Inc.
 340 Quinnipiac St., Bldg. 40, Wallingford CT 06492
  
  
 ---------------------------------------------------------------
 Warning -- This program may not be used in any manner that
 competes with the business of Gaussian, Inc. or will provide
 assistance to any competitor of Gaussian, Inc.  The licensee
 of this program is prohibited from giving any competitor of
 Gaussian, Inc. access to this program.  By using this program,
 the user acknowledges that Gaussian, Inc. is engaged in the
 business of creating and licensing software in the field of
 computational chemistry and represents and warrants to the
 licensee that it is not a competitor of Gaussian, Inc. and that
 it will not use this program in any manner prohibited above.
 ---------------------------------------------------------------
  

 Cite this work as:
 Gaussian 03, Revision D.01,
 M. J. Frisch, G. W. Trucks, H. B. Schlegel, G. E. Scuseria, 
 M. A. Robb, J. R. Cheeseman, J. A. Montgomery, Jr., T. Vreven, 
 K. N. Kudin, J. C. Burant, J. M. Millam, S. S. Iyengar, J. Tomasi, 
 V. Barone, B. Mennucci, M. Cossi, G. Scalmani, N. Rega, 
 G. A. Petersson, H. Nakatsuji, M. Hada, M. Ehara, K. Toyota, 
 R. Fukuda, J. Hasegawa, M. Ishida, T. Nakajima, Y. Honda, O. Kitao, 
 H. Nakai, M. Klene, X. Li, J. E. Knox, H. P. Hratchian, J. B. Cross, 
 V. Bakken, C. Adamo, J. Jaramillo, R. Gomperts, R. E. Stratmann, 
 O. Yazyev, A. J. Austin, R. Cammi, C. Pomelli, J. W. Ochterski, 
 P. Y. Ayala, K. Morokuma, G. A. Voth, P. Salvador, J. J. Dannenberg, 
 V. G. Zakrzewski, S. Dapprich, A. D. Daniels, M. C. Strain, 
 O. Farkas, D. K. Malick, A. D. Rabuck, K. Raghavachari, 
 J. B. Foresman, J. V. Ortiz, Q. Cui, A. G. Baboul, S. Clifford, 
 J. Cioslowski, B. B. Stefanov, G. Liu, A. Liashenko, P. Piskorz, 
 I. Komaromi, R. L. Martin, D. J. Fox, T. Keith, M. A. Al-Laham, 
 C. Y. Peng, A. Nanayakkara, M. Challacombe, P. M. W. Gill, 
 B. Johnson, W. Chen, M. W. Wong, C. Gonzalez, and J. A. Pople, 
 Gaussian, Inc., Wallingford CT, 2004.
 
 ******************************************
 Gaussian 03:  AM64L-G03RevD.01 13-Oct-2005
                 7-Oct-2007 
 ******************************************
 %chk=C2H4F2-drag.chk
 %mem=6MW
 %nproc=1
 Will use up to    1 processors via shared memory.
 -----------------------------------
 #N HF/3-21G opt=z-matrix NOSYMMETRY
 -----------------------------------
 1/10=7,18=40,38=1/1,3;
 2/15=1,17=6,18=5,29=3,40=1/2;
 3/5=5,11=9,16=1,25=1,30=1/1,2,3;
 4//1;
 5/5=2,38=5/2;
 6/7=2,8=2,9=2,10=2,28=1/1;
 7/29=1,30=1/1,2,3,16;
 1/10=7,18=40/3(3);
 2/15=1,29=3/2;
 6/7=2,8=2,9=2,10=2,19=2,28=1/1;
 99//99;
 2/15=1,29=3/2;
 3/5=5,11=9,16=1,25=1,30=1/1,2,3;
 4/5=5,16=3/1;
 5/5=2,38=5/2;
 7/30=1/1,2,3,16;
 1/18=40/3(-5);
 2/15=1,29=3/2;
 6/7=2,8=2,9=2,10=2,19=2,28=1/1;
 99/9=1/99;
 ----------------------
 C2H4F2 Coordinate Drag
 ----------------------
 Symbolic Z-matrix:
 Charge =  0 Multiplicity = 1
 C
 C                    1    r1
 F                    2    r2       1    A1
 H                    2    r3       1    A2       3    D1       0
 H                    2    r4       1    A3       3    D2       0
 F                    1    r2       2    A1       3    D3       0
 H                    1    r3       2    A2       6    D1       0
 H                    1    r4       2    A3       6    D2       0
       Variables:
  r1                    1.5386                   
  r2                    1.39462                  
  r3                    1.11456                  
  r4                    1.12                     
  A1                  109.54214                  
  A2                  111.                       
  A3                  110.                       
  D1                  120.                       
  D2                 -120.5                      
  D3                   50.     Scan 26    5.     
 

 GradGradGradGradGradGradGradGradGradGradGradGradGradGradGradGradGradGrad
 Berny optimization.
 Initialization pass.
                       ----------------------------
                       !    Initial Parameters    !
                       ! (Angstroms and Degrees)  !
 ----------------------                            ----------------------
 !      Name          Value   Derivative information (Atomic Units)     !
 ------------------------------------------------------------------------
 !       r1          1.5386   estimate D2E/DX2                          !
 !       r2          1.3946   estimate D2E/DX2                          !
 !       r3          1.1146   estimate D2E/DX2                          !
 !       r4          1.12     estimate D2E/DX2                          !
 !       A1        109.5421   estimate D2E/DX2                          !
 !       A2        111.0      estimate D2E/DX2                          !
 !       A3        110.0      estimate D2E/DX2                          !
 !       D1        120.0      estimate D2E/DX2                          !
 !       D2       -120.5      estimate D2E/DX2                          !
 !       D3         50.0      Scan                                      !
 ------------------------------------------------------------------------
 Trust Radius=3.00D-01 FncErr=1.00D-07 GrdErr=1.00D-07
 Number of optimizations in scan=  27
 Number of steps in this run=  20 maximum allowed number of steps= 100.
 GradGradGradGradGradGradGradGradGradGradGradGradGradGradGradGradGradGrad

 ------------------------------------------------------------------------
                         Z-MATRIX (ANGSTROMS AND DEGREES)
 CD Cent Atom  N1     Length/X     N2    Alpha/Y     N3     Beta/Z      J
 ------------------------------------------------------------------------
   1   1  C 
   2   2  C     1   1.538600(  1)
   3   3  F     2   1.394620(  2)   1  109.542(  8)
   4   4  H     2   1.114560(  3)   1  111.000(  9)   3  120.000( 14)   0
   5   5  H     2   1.120000(  4)   1  110.000( 10)   3 -120.500( 15)   0
   6   6  F     1   1.394620(  5)   2  109.542( 11)   3   50.000( 16)   0
   7   7  H     1   1.114560(  6)   2  111.000( 12)   6  120.000( 17)   0
   8   8  H     1   1.120000(  7)   2  110.000( 13)   6 -120.500( 18)   0
 ------------------------------------------------------------------------
                         Z-Matrix orientation:                         
 ---------------------------------------------------------------------
 Center     Atomic     Atomic              Coordinates (Angstroms)
 Number     Number      Type              X           Y           Z
 ---------------------------------------------------------------------
    1          6             0        0.000000    0.000000    0.000000
    2          6             0        0.000000    0.000000    1.538600
    3          9             0        1.314284    0.000000    2.005100
    4          1             0       -0.520266    0.901127    1.938023
    5          1             0       -0.534162   -0.906827    1.921663
    6          9             0        0.844805   -1.006800   -0.466500
    7          1             0       -1.024723   -0.180686   -0.399423
    8          1             0        0.351317    0.992088   -0.383063
 ---------------------------------------------------------------------
                    Distance matrix (angstroms):
                    1          2          3          4          5
     1  C    0.000000
     2  C    1.538600   0.000000
     3  F    2.397451   1.394620   0.000000
     4  H    2.199690   1.114560   2.045019   0.000000
     5  H    2.190993   1.120000   2.060594   1.808081   0.000000
     6  F    1.394620   2.397451   2.709773   3.359365   2.759505
     7  H    1.114560   2.199690   3.359365   2.624585   2.481001
     8  H    1.120000   2.190993   2.759505   2.481001   3.114757
                    6          7          8
     6  F    0.000000
     7  H    2.045019   0.000000
     8  H    2.060594   1.808081   0.000000
                           Interatomic angles:
       C1-C2-F3=109.5421       C1-C2-H4=111.           F3-C2-H4=108.6646
       C1-C2-H5=110.           F3-C2-H5=109.5756       H4-C2-H5=108.0245
       C2-C1-F6=109.5421       C2-C1-H7=111.           F6-C1-H7=108.6646
       C2-C1-H8=110.           F6-C1-H8=109.5756       H7-C1-H8=108.0245
 Symmetry turned off by external request.
 Stoichiometry    C2H4F2
 Framework group  C2[X(C2H4F2)]
 Deg. of freedom    10
 Full point group                 C2
 Rotational constants (GHZ):     15.3820216      5.4744996      4.4581674
 Standard basis: 3-21G (6D, 7F)
 Integral buffers will be    131072 words long.
 Raffenetti 1 integral format.
 Two-electron integral symmetry is turned off.
    44 basis functions,    72 primitive gaussians,    44 cartesian basis functions
    17 alpha electrons       17 beta electrons
       nuclear repulsion energy       127.1209447291 Hartrees.
 NAtoms=    8 NActive=    8 NUniq=    8 SFac= 7.50D-01 NAtFMM=   80 NAOKFM=F Big=F
 One-electron integrals computed using PRISM.
 NBasis=    44 RedAO= T  NBF=    44
 NBsUse=    44 1.00D-06 NBFU=    44
 Harris functional with IExCor=  205 diagonalized for initial guess.
 ExpMin= 1.83D-01 ExpMax= 4.14D+02 ExpMxC= 4.14D+02 IAcc=1 IRadAn=         1 AccDes= 1.00D-06
 HarFok:  IExCor= 205 AccDes= 1.00D-06 IRadAn=         1 IDoV=1
 ScaDFX=  1.000000  1.000000  1.000000  1.000000
 Requested convergence on RMS density matrix=1.00D-08 within 128 cycles.
 Requested convergence on MAX density matrix=1.00D-06.
 Requested convergence on             energy=1.00D-06.
 No special actions if energy rises.
 Keep R1 integrals in memory in canonical form, NReq=     1360461.
 SCF Done:  E(RHF) =  -275.411003086     A.U. after   11 cycles
             Convg  =    0.4003D-08             -V/T =  2.0036
             S**2   =   0.0000

 **********************************************************************

            Population analysis using the SCF density.

 **********************************************************************

 Alpha  occ. eigenvalues --  -26.13932 -26.13923 -11.27690 -11.27649  -1.57724
 Alpha  occ. eigenvalues --   -1.56283  -1.03865  -0.86743  -0.71788  -0.71578
 Alpha  occ. eigenvalues --   -0.67499  -0.65244  -0.63592  -0.59694  -0.53614
 Alpha  occ. eigenvalues --   -0.50385  -0.49214
 Alpha virt. eigenvalues --    0.25112   0.28421   0.29801   0.30433   0.35697
 Alpha virt. eigenvalues --    0.39241   0.43349   0.92487   0.93747   0.98625
 Alpha virt. eigenvalues --    0.98651   1.02465   1.12118   1.19076   1.26795
 Alpha virt. eigenvalues --    1.29158   1.32451   1.76027   2.17587   2.33040
 Alpha virt. eigenvalues --    2.35236   2.39111   2.45357   2.48412   2.49495
 Alpha virt. eigenvalues --    3.96640   4.01323
          Condensed to atoms (all electrons):
              1          2          3          4          5          6
     1  C    5.083330   0.170822  -0.029600  -0.044515  -0.050688   0.208403
     2  C    0.170822   5.083330   0.208403   0.328915   0.350062  -0.029600
     3  F   -0.029600   0.208403   9.265068  -0.026652  -0.026077  -0.000007
     4  H   -0.044515   0.328915  -0.026652   0.575963  -0.035704   0.000995
     5  H   -0.050688   0.350062  -0.026077  -0.035704   0.548709   0.000332
     6  F    0.208403  -0.029600  -0.000007   0.000995   0.000332   9.265068
     7  H    0.328915  -0.044515   0.000995   0.004049  -0.001116  -0.026652
     8  H    0.350062  -0.050688   0.000332  -0.001116   0.003356  -0.026077
              7          8
     1  C    0.328915   0.350062
     2  C   -0.044515  -0.050688
     3  F    0.000995   0.000332
     4  H    0.004049  -0.001116
     5  H   -0.001116   0.003356
     6  F   -0.026652  -0.026077
     7  H    0.575963  -0.035704
     8  H   -0.035704   0.548709
 Mulliken atomic charges:
              1
     1  C   -0.016729
     2  C   -0.016729
     3  F   -0.392462
     4  H    0.198065
     5  H    0.211126
     6  F   -0.392462
     7  H    0.198065
     8  H    0.211126
 Sum of Mulliken charges=   0.00000
 Atomic charges with hydrogens summed into heavy atoms:
              1
     1  C    0.392462
     2  C    0.392462
     3  F   -0.392462
     4  H    0.000000
     5  H    0.000000
     6  F   -0.392462
     7  H    0.000000
     8  H    0.000000
 Sum of Mulliken charges=   0.00000
 Electronic spatial extent (au):  <R**2>=   396.3268
 Charge=     0.0000 electrons
 Dipole moment (field-independent basis, Debye):
    X=    -3.3010    Y=     1.5393    Z=     0.0000  Tot=     3.6422
 Quadrupole moment (field-independent basis, Debye-Ang):
   XX=   -25.8964   YY=   -23.2953   ZZ=   -24.8195
   XY=     1.5499   XZ=    -3.5130   YZ=    -0.9037
 Traceless Quadrupole moment (field-independent basis, Debye-Ang):
   XX=    -1.2260   YY=     1.3751   ZZ=    -0.1490
   XY=     1.5499   XZ=    -3.5130   YZ=    -0.9037
 Octapole moment (field-independent basis, Debye-Ang**2):
  XXX=   -31.3370  YYY=    14.3027  ZZZ=   -57.2808  XYY=   -10.3472
  XXY=     5.1350  XXZ=   -22.2612  XZZ=   -17.8140  YZZ=     4.3960
  YYZ=   -15.5820  XYZ=    -0.7704
 Hexadecapole moment (field-independent basis, Debye-Ang**3):
 XXXX=   -96.6801 YYYY=   -57.0155 ZZZZ=  -256.9379 XXXY=    11.5375
 XXXZ=   -33.8904 YYYX=    12.0978 YYYZ=    -6.9569 ZZZX=   -44.9560
 ZZZY=    -5.9436 XXYY=   -25.5501 XXZZ=   -66.7832 YYZZ=   -47.9289
 XXYZ=    -2.4835 YYXZ=    -9.5523 ZZXY=     3.9259
 N-N= 1.271209447291D+02 E-N=-9.086773846122D+02  KE= 2.744218997068D+02
 -------------------------------------------------------------------
 Center     Atomic                   Forces (Hartrees/Bohr)
 Number     Number              X              Y              Z
 -------------------------------------------------------------------
    1          6          -0.013926250    0.025805897   -0.005741903
    2          6          -0.028720084   -0.005919585    0.005741902
    3          9           0.002284213    0.000874908   -0.000465628
    4          1           0.008903854   -0.018574989   -0.012034336
    5          1           0.015652410    0.019588835   -0.008546392
    6          9           0.000798045   -0.002312189    0.000465628
    7          1           0.019952555    0.005119025    0.012034336
    8          1          -0.004944744   -0.024581903    0.008546392
 -------------------------------------------------------------------
 Cartesian Forces:  Max     0.028720084 RMS     0.013447272
 ------------------------------------------------------------------------
           Internal Coordinate Forces (Hartree/Bohr or radian)
 Cent Atom N1     Length/X     N2     Alpha/Y      N3      Beta/Z       J
 ------------------------------------------------------------------------
   1  C 
   2  C     1  -0.015304(   1)
   3  F     2   0.001997(   2)  1  -0.003170(   8)
   4  H     2  -0.023487(   3)  1  -0.008161(   9)  3   0.003100(  14)  0
   5  H     2  -0.026249(   4)  1   0.000971(  10)  3   0.007049(  15)  0
   6  F     1   0.001997(   5)  2  -0.003170(  11)  3   0.012322(  16)  0
   7  H     1  -0.023487(   6)  2  -0.008161(  12)  6   0.003100(  17)  0
   8  H     1  -0.026249(   7)  2   0.000971(  13)  6   0.007049(  18)  0
 ------------------------------------------------------------------------
 Internal  Forces:  Max     0.026248568 RMS     0.013226838

 GradGradGradGradGradGradGradGradGradGradGradGradGradGradGradGradGradGrad
 Berny optimization.
 Search for a local minimum.
 Step number   1 out of a maximum of  20 on scan point     1 out of    27
 All quantities printed in internal units (Hartrees-Bohrs-Radians)
 Second derivative matrix not updated -- first step.
 The second derivative matrix:
                          r1        r2        r3        r4        A1
           r1           0.28643
           r2           0.00000   0.93048
           r3           0.00000   0.00000   0.64244
           r4           0.00000   0.00000   0.00000   0.63128
           A1           0.00000   0.00000   0.00000   0.00000   0.67350
           A2           0.00000   0.00000   0.00000   0.00000   0.08712
           A3           0.00000   0.00000   0.00000   0.00000   0.08540
           D1           0.00000   0.00000   0.00000   0.00000  -0.13310
           D2           0.00000   0.00000   0.00000   0.00000   0.13149
           D3           0.00000   0.00000   0.00000   0.00000  -0.00001
                          A2        A3        D1        D2        D3
           A2           0.48886
           A3           0.08716   0.49167
           D1           0.00055   0.13255   0.43744
           D2          -0.13010  -0.00216  -0.20312   0.44040
           D3          -0.00002   0.00002   0.01527   0.01530   0.02298
     Eigenvalues ---    0.16487   0.28643   0.33566   0.47401   0.63128
     Eigenvalues ---    0.64244   0.71179   0.84554   0.930481000.00000
 RFO step:  Lambda=-9.65499989D-03.
 Linear search not attempted -- first point.
 Variable       Old X    -DE/DX   Delta X   Delta X   Delta X     New X
                                 (Linear)    (Quad)   (Total)
    r1        2.90753  -0.01530   0.00000  -0.05169  -0.05169   2.85584
    r2        2.63545   0.00399   0.00000   0.00425   0.00425   2.63970
    r3        2.10621  -0.04697   0.00000  -0.07204  -0.07204   2.03418
    r4        2.11649  -0.05250   0.00000  -0.08191  -0.08191   2.03459
    A1        1.91187  -0.00634   0.00000  -0.00901  -0.00901   1.90286
    A2        1.93732  -0.01632   0.00000  -0.02064  -0.02064   1.91667
    A3        1.91986   0.00194   0.00000   0.00135   0.00135   1.92121
    D1        2.09440   0.00620   0.00000   0.02960   0.02960   2.12399
    D2       -2.10312   0.01410   0.00000   0.04136   0.04136  -2.06176
    D3        0.87266   0.01232   0.00000   0.00000   0.00000   0.87266
         Item               Value     Threshold  Converged?
 Maximum Force            0.052497     0.000450     NO 
 RMS     Force            0.025299     0.000300     NO 
 Maximum Displacement     0.081908     0.001800     NO 
 RMS     Displacement     0.042052     0.001200     NO 
 Predicted change in Energy=-4.912867D-03
 GradGradGradGradGradGradGradGradGradGradGradGradGradGradGradGradGradGrad

 ------------------------------------------------------------------------
                         Z-MATRIX (ANGSTROMS AND DEGREES)
 CD Cent Atom  N1     Length/X     N2    Alpha/Y     N3     Beta/Z      J
 ------------------------------------------------------------------------
   1   1  C 
   2   2  C     1   1.511247(  1)
   3   3  F     2   1.396868(  2)   1  109.026(  8)
   4   4  H     2   1.076441(  3)   1  109.817(  9)   3  121.696( 14)   0
   5   5  H     2   1.076656(  4)   1  110.077( 10)   3 -118.130( 15)   0
   6   6  F     1   1.396868(  5)   2  109.026( 11)   3   50.000( 16)   0
   7   7  H     1   1.076441(  6)   2  109.817( 12)   6  121.696( 17)   0
   8   8  H     1   1.076656(  7)   2  110.077( 13)   6 -118.130( 18)   0
 ------------------------------------------------------------------------
                         Z-Matrix orientation:                         
 ---------------------------------------------------------------------
 Center     Atomic     Atomic              Coordinates (Angstroms)
 Number     Number      Type              X           Y           Z
 ---------------------------------------------------------------------
    1          6             0        0.000000    0.000000    0.000000
    2          6             0        0.000000    0.000000    1.511247
    3          9             0        1.320559    0.000000    1.966619
    4          1             0       -0.532079    0.861648    1.876185
    5          1             0       -0.476773   -0.891778    1.880851
    6          9             0        0.848839   -1.011607   -0.455371
    7          1             0       -1.002074   -0.146261   -0.364937
    8          1             0        0.376678    0.938454   -0.369604
 ---------------------------------------------------------------------
                    Distance matrix (angstroms):
                    1          2          3          4          5
     1  C    0.000000
     2  C    1.511247   0.000000
     3  F    2.368853   1.396868   0.000000
     4  H    2.132045   1.076441   2.045210   0.000000
     5  H    2.135459   1.076656   2.008241   1.754305   0.000000
     6  F    1.396868   2.368853   2.666816   3.294264   2.688781
     7  H    1.076441   2.132045   3.294264   2.501880   2.423903
     8  H    1.076656   2.135459   2.688781   2.423903   3.023686
                    6          7          8
     6  F    0.000000
     7  H    2.045210   0.000000
     8  H    2.008241   1.754305   0.000000
                           Interatomic angles:
       C1-C2-F3=109.0258       C1-C2-H4=109.8173       F3-C2-H4=110.9021
       C1-C2-H5=110.0774       F3-C2-H5=107.8621       H4-C2-H5=109.1316
       C2-C1-F6=109.0258       C2-C1-H7=109.8173       F6-C1-H7=110.9021
       C2-C1-H8=110.0774       F6-C1-H8=107.8621       H7-C1-H8=109.1316
 Symmetry turned off by external request.
 Stoichiometry    C2H4F2
 Framework group  C2[X(C2H4F2)]
 Deg. of freedom    10
 Full point group                 C2
 Rotational constants (GHZ):     15.4566263      5.6770165      4.5800143
 Standard basis: 3-21G (6D, 7F)
 Integral buffers will be    131072 words long.
 Raffenetti 1 integral format.
 Two-electron integral symmetry is turned off.
    44 basis functions,    72 primitive gaussians,    44 cartesian basis functions
    17 alpha electrons       17 beta electrons
       nuclear repulsion energy       128.7285452654 Hartrees.
 NAtoms=    8 NActive=    8 NUniq=    8 SFac= 7.50D-01 NAtFMM=   80 NAOKFM=F Big=F
 One-electron integrals computed using PRISM.
 NBasis=    44 RedAO= T  NBF=    44
 NBsUse=    44 1.00D-06 NBFU=    44
 Initial guess read from the read-write file:
 Harris functional with IExCor=  205 diagonalized for initial guess.
 ExpMin= 1.83D-01 ExpMax= 4.14D+02 ExpMxC= 4.14D+02 IAcc=1 IRadAn=         1 AccDes= 1.00D-06
 HarFok:  IExCor= 205 AccDes= 1.00D-06 IRadAn=         1 IDoV=1
 ScaDFX=  1.000000  1.000000  1.000000  1.000000
 Requested convergence on RMS density matrix=1.00D-08 within 128 cycles.
 Requested convergence on MAX density matrix=1.00D-06.
 Requested convergence on             energy=1.00D-06.
 No special actions if energy rises.
 Keep R1 integrals in memory in canonical form, NReq=     1360461.
 SCF Done:  E(RHF) =  -275.415568032     A.U. after   10 cycles
             Convg  =    0.4820D-08             -V/T =  2.0026
             S**2   =   0.0000
 -------------------------------------------------------------------
 Center     Atomic                   Forces (Hartrees/Bohr)
 Number     Number              X              Y              Z
 -------------------------------------------------------------------
    1          6           0.004446549    0.008926050    0.002987978
    2          6          -0.003979565   -0.009143809   -0.002987978
    3          9           0.002594275    0.006191935    0.001688844
    4          1           0.000769943    0.002044160    0.001642145
    5          1          -0.000607738   -0.001715200    0.000854089
    6          9          -0.003075730   -0.005967430   -0.001688844
    7          1          -0.001071008   -0.001903771   -0.001642145
    8          1           0.000923273    0.001568064   -0.000854089
 -------------------------------------------------------------------
 Cartesian Forces:  Max     0.009143809 RMS     0.003739491
 ------------------------------------------------------------------------
           Internal Coordinate Forces (Hartree/Bohr or radian)
 Cent Atom N1     Length/X     N2     Alpha/Y      N3      Beta/Z       J
 ------------------------------------------------------------------------
   1  C 
   2  C     1   0.001197(   1)
   3  F     2   0.003003(   2)  1   0.001982(   8)
   4  H     2   0.001812(   3)  1   0.002222(   9)  3  -0.003309(  14)  0
   5  H     2   0.001983(   4)  1   0.000376(  10)  3   0.000521(  15)  0
   6  F     1   0.003003(   5)  2   0.001982(  11)  3   0.012664(  16)  0
   7  H     1   0.001812(   6)  2   0.002222(  12)  6  -0.003309(  17)  0
   8  H     1   0.001983(   7)  2   0.000376(  13)  6   0.000521(  18)  0
 ------------------------------------------------------------------------
 Internal  Forces:  Max     0.012664074 RMS     0.003611255

 GradGradGradGradGradGradGradGradGradGradGradGradGradGradGradGradGradGrad
 Berny optimization.
 Search for a local minimum.
 Step number   2 out of a maximum of  20 on scan point     1 out of    27
 All quantities printed in internal units (Hartrees-Bohrs-Radians)
 Update second derivatives using D2CorN and points  1  2
 Trust test= 9.29D-01 RLast= 1.33D-01 DXMaxT set to 3.99D-01
 The second derivative matrix:
                          r1        r2        r3        r4        A1
           r1           0.29139
           r2           0.00851   0.92904
           r3           0.00977   0.01163   0.66004
           r4           0.01088   0.01324   0.01969   0.65331
           A1           0.00635   0.00103   0.00935   0.01059   0.67556
           A2           0.00778   0.00292   0.01198   0.01353   0.09067
           A3           0.00101  -0.00032   0.00134   0.00153   0.08543
           D1          -0.01151  -0.00416  -0.01768  -0.01997  -0.13825
           D2          -0.00104  -0.00705  -0.00374  -0.00407   0.12692
           D3           0.00209  -0.00017   0.00291   0.00330   0.00036
                          A2        A3        D1        D2        D3
           A2           0.49428
           A3           0.08742   0.49161
           D1          -0.00737   0.13219   0.44900
           D2          -0.13516  -0.00305  -0.19558   0.43890
           D3           0.00081  -0.00003   0.01407   0.01364   0.02298
     Eigenvalues ---    0.16932   0.29004   0.33546   0.48161   0.63667
     Eigenvalues ---    0.67347   0.71672   0.84917   0.930681000.00000
 RFO step:  Lambda=-1.31628836D-04.
 Quartic linear search produced a step of -0.07763.
 Variable       Old X    -DE/DX   Delta X   Delta X   Delta X     New X
                                 (Linear)    (Quad)   (Total)
    r1        2.85584   0.00120   0.00401  -0.00185   0.00217   2.85801
    r2        2.63970   0.00601  -0.00033   0.00631   0.00598   2.64568
    r3        2.03418   0.00362   0.00559  -0.00144   0.00415   2.03832
    r4        2.03459   0.00397   0.00636  -0.00179   0.00457   2.03916
    A1        1.90286   0.00396   0.00070   0.00072   0.00142   1.90427
    A2        1.91667   0.00444   0.00160   0.00471   0.00631   1.92298
    A3        1.92121   0.00075  -0.00010   0.00429   0.00418   1.92539
    D1        2.12399  -0.00662  -0.00230  -0.01302  -0.01531   2.10868
    D2       -2.06176   0.00104  -0.00321   0.00066  -0.00255  -2.06431
    D3        0.87266   0.01266   0.00000   0.00000   0.00000   0.87266
         Item               Value     Threshold  Converged?
 Maximum Force            0.006618     0.000450     NO 
 RMS     Force            0.004045     0.000300     NO 
 Maximum Displacement     0.015313     0.001800     NO 
 RMS     Displacement     0.006155     0.001200     NO 
 Predicted change in Energy=-1.095539D-04
 GradGradGradGradGradGradGradGradGradGradGradGradGradGradGradGradGradGrad

 ------------------------------------------------------------------------
                         Z-MATRIX (ANGSTROMS AND DEGREES)
 CD Cent Atom  N1     Length/X     N2    Alpha/Y     N3     Beta/Z      J
 ------------------------------------------------------------------------
   1   1  C 
   2   2  C     1   1.512393(  1)
   3   3  F     2   1.400033(  2)   1  109.107(  8)
   4   4  H     2   1.078635(  3)   1  110.179(  9)   3  120.818( 14)   0
   5   5  H     2   1.079076(  4)   1  110.317( 10)   3 -118.276( 15)   0
   6   6  F     1   1.400033(  5)   2  109.107( 11)   3   50.000( 16)   0
   7   7  H     1   1.078635(  6)   2  110.179( 12)   6  120.818( 17)   0
   8   8  H     1   1.079076(  7)   2  110.317( 13)   6 -118.276( 18)   0
 ------------------------------------------------------------------------
                         Z-Matrix orientation:                         
 ---------------------------------------------------------------------
 Center     Atomic     Atomic              Coordinates (Angstroms)
 Number     Number      Type              X           Y           Z
 ---------------------------------------------------------------------
    1          6             0        0.000000    0.000000    0.000000
    2          6             0        0.000000    0.000000    1.512393
    3          9             0        1.322904    0.000000    1.970669
    4          1             0       -0.518688    0.869468    1.884471
    5          1             0       -0.479383   -0.891190    1.887063
    6          9             0        0.850346   -1.013403   -0.458276
    7          1             0       -0.999457   -0.161546   -0.372078
    8          1             0        0.374550    0.940074   -0.374670
 ---------------------------------------------------------------------
                    Distance matrix (angstroms):
                    1          2          3          4          5
     1  C    0.000000
     2  C    1.512393   0.000000
     3  F    2.373523   1.400033   0.000000
     4  H    2.139215   1.078635   2.038348   0.000000
     5  H    2.141269   1.079076   2.012324   1.761098   0.000000
     6  F    1.400033   2.373523   2.673961   3.302714   2.698838
     7  H    1.078635   2.139215   3.302714   2.527081   2.430345
     8  H    1.079076   2.141269   2.698838   2.430345   3.032847
                    6          7          8
     6  F    0.000000
     7  H    2.038348   0.000000
     8  H    2.012324   1.761098   0.000000
                           Interatomic angles:
       C1-C2-F3=109.1069       C1-C2-H4=110.1789       F3-C2-H4=109.9664
       C1-C2-H5=110.317        F3-C2-H5=107.8258       H4-C2-H5=109.4101
       C2-C1-F6=109.1069       C2-C1-H7=110.1789       F6-C1-H7=109.9664
       C2-C1-H8=110.317        F6-C1-H8=107.8258       H7-C1-H8=109.4101
 Symmetry turned off by external request.
 Stoichiometry    C2H4F2
 Framework group  C2[X(C2H4F2)]
 Deg. of freedom    10
 Full point group                 C2
 Rotational constants (GHZ):     15.4285081      5.6468791      4.5594912
 Standard basis: 3-21G (6D, 7F)
 Integral buffers will be    131072 words long.
 Raffenetti 1 integral format.
 Two-electron integral symmetry is turned off.
    44 basis functions,    72 primitive gaussians,    44 cartesian basis functions
    17 alpha electrons       17 beta electrons
       nuclear repulsion energy       128.4721560429 Hartrees.
 NAtoms=    8 NActive=    8 NUniq=    8 SFac= 7.50D-01 NAtFMM=   80 NAOKFM=F Big=F
 One-electron integrals computed using PRISM.
 NBasis=    44 RedAO= T  NBF=    44
 NBsUse=    44 1.00D-06 NBFU=    44
 Initial guess read from the read-write file:
 Requested convergence on RMS density matrix=1.00D-08 within 128 cycles.
 Requested convergence on MAX density matrix=1.00D-06.
 Requested convergence on             energy=1.00D-06.
 No special actions if energy rises.
 Keep R1 integrals in memory in canonical form, NReq=     1360461.
 SCF Done:  E(RHF) =  -275.415674235     A.U. after    9 cycles
             Convg  =    0.4267D-08             -V/T =  2.0027
             S**2   =   0.0000
 -------------------------------------------------------------------
 Center     Atomic                   Forces (Hartrees/Bohr)
 Number     Number              X              Y              Z
 -------------------------------------------------------------------
    1          6           0.004349643    0.006771188    0.000350604
    2          6          -0.002391134   -0.007684455   -0.000350604
    3          9           0.001222921    0.005062198    0.000211948
    4          1          -0.000093031    0.000038908   -0.000045145
    5          1           0.000050266   -0.000013601   -0.000080741
    6          9          -0.003091790   -0.004190730   -0.000211948
    7          1          -0.000089605    0.000046256    0.000045145
    8          1           0.000042730   -0.000029763    0.000080741
 -------------------------------------------------------------------
 Cartesian Forces:  Max     0.007684455 RMS     0.002770064
 ------------------------------------------------------------------------
           Internal Coordinate Forces (Hartree/Bohr or radian)
 Cent Atom N1     Length/X     N2     Alpha/Y      N3      Beta/Z       J
 ------------------------------------------------------------------------
   1  C 
   2  C     1  -0.000265(   1)
   3  F     2   0.001225(   2)  1  -0.000529(   8)
   4  H     2   0.000061(   3)  1  -0.000143(   9)  3   0.000115(  14)  0
   5  H     2  -0.000039(   4)  1  -0.000146(  10)  3   0.000097(  15)  0
   6  F     1   0.001225(   5)  2  -0.000529(  11)  3   0.012867(  16)  0
   7  H     1   0.000061(   6)  2  -0.000143(  12)  6   0.000115(  17)  0
   8  H     1  -0.000039(   7)  2  -0.000146(  13)  6   0.000097(  18)  0
 ------------------------------------------------------------------------
 Internal  Forces:  Max     0.012866814 RMS     0.003067076

 GradGradGradGradGradGradGradGradGradGradGradGradGradGradGradGradGradGrad
 Berny optimization.
 Search for a local minimum.
 Step number   3 out of a maximum of  20 on scan point     1 out of    27
 All quantities printed in internal units (Hartrees-Bohrs-Radians)
 Update second derivatives using D2CorN and points  1  2  3
 Trust test= 9.69D-01 RLast= 1.95D-02 DXMaxT set to 3.99D-01
 The second derivative matrix:
                          r1        r2        r3        r4        A1
           r1           0.28981
           r2           0.01388   0.88761
           r3           0.00915   0.01122   0.65991
           r4           0.01026   0.01509   0.02009   0.65429
           A1           0.01107   0.00722   0.01719   0.01962   0.68031
           A2           0.01369  -0.01140   0.01765   0.02160   0.10206
           A3           0.00447  -0.01198   0.00384   0.00557   0.09261
           D1          -0.02346   0.03873  -0.02629  -0.03399  -0.16418
           D2           0.00142  -0.00844  -0.00098  -0.00125   0.12221
           D3           0.00319  -0.00052   0.00441   0.00501   0.00051
                          A2        A3        D1        D2        D3
           A2           0.50280
           A3           0.09241   0.49518
           D1          -0.02174   0.12335   0.46978
           D2          -0.13939  -0.00599  -0.18724   0.43588
           D3           0.00103  -0.00023   0.01402   0.01278   0.02298
     Eigenvalues ---    0.17682   0.28486   0.32840   0.48642   0.63668
     Eigenvalues ---    0.66783   0.72268   0.87058   0.901311000.00000
 RFO step:  Lambda=-9.34618153D-06.
 Quartic linear search produced a step of  0.02841.
 Variable       Old X    -DE/DX   Delta X   Delta X   Delta X     New X
                                 (Linear)    (Quad)   (Total)
    r1        2.85801  -0.00026   0.00006  -0.00106  -0.00100   2.85701
    r2        2.64568   0.00245   0.00017   0.00266   0.00283   2.64851
    r3        2.03832   0.00012   0.00012   0.00008   0.00020   2.03852
    r4        2.03916  -0.00008   0.00013  -0.00025  -0.00012   2.03903
    A1        1.90427  -0.00106   0.00004  -0.00181  -0.00177   1.90250
    A2        1.92298  -0.00029   0.00018   0.00005   0.00023   1.92322
    A3        1.92539  -0.00029   0.00012  -0.00037  -0.00025   1.92514
    D1        2.10868   0.00023  -0.00044   0.00056   0.00012   2.10880
    D2       -2.06431   0.00019  -0.00007   0.00120   0.00113  -2.06318
    D3        0.87266   0.01287   0.00000   0.00000   0.00000   0.87266
         Item               Value     Threshold  Converged?
 Maximum Force            0.002450     0.000450     NO 
 RMS     Force            0.000911     0.000300     NO 
 Maximum Displacement     0.002834     0.001800     NO 
 RMS     Displacement     0.001168     0.001200     YES
 Predicted change in Energy=-4.615781D-06
 GradGradGradGradGradGradGradGradGradGradGradGradGradGradGradGradGradGrad

 ------------------------------------------------------------------------
                         Z-MATRIX (ANGSTROMS AND DEGREES)
 CD Cent Atom  N1     Length/X     N2    Alpha/Y     N3     Beta/Z      J
 ------------------------------------------------------------------------
   1   1  C 
   2   2  C     1   1.511862(  1)
   3   3  F     2   1.401532(  2)   1  109.006(  8)
   4   4  H     2   1.078741(  3)   1  110.192(  9)   3  120.826( 14)   0
   5   5  H     2   1.079010(  4)   1  110.303( 10)   3 -118.212( 15)   0
   6   6  F     1   1.401532(  5)   2  109.006( 11)   3   50.000( 16)   0
   7   7  H     1   1.078741(  6)   2  110.192( 12)   6  120.826( 17)   0
   8   8  H     1   1.079010(  7)   2  110.303( 13)   6 -118.212( 18)   0
 ------------------------------------------------------------------------
                         Z-Matrix orientation:                         
 ---------------------------------------------------------------------
 Center     Atomic     Atomic              Coordinates (Angstroms)
 Number     Number      Type              X           Y           Z
 ---------------------------------------------------------------------
    1          6             0        0.000000    0.000000    0.000000
    2          6             0        0.000000    0.000000    1.511862
    3          9             0        1.325131    0.000000    1.968284
    4          1             0       -0.518802    0.869415    1.884213
    5          1             0       -0.478389   -0.891759    1.886256
    6          9             0        0.851778   -1.015109   -0.456422
    7          1             0       -0.999490   -0.161424   -0.372350
    8          1             0        0.375624    0.939679   -0.374394
 ---------------------------------------------------------------------
                    Distance matrix (angstroms):
                    1          2          3          4          5
     1  C    0.000000
     2  C    1.511862   0.000000
     3  F    2.372786   1.401532   0.000000
     4  H    2.138994   1.078741   2.040352   0.000000
     5  H    2.140573   1.079010   2.013616   1.761639   0.000000
     6  F    1.401532   2.372786   2.670900   3.302800   2.696795
     7  H    1.078741   2.138994   3.302800   2.527007   2.430276
     8  H    1.079010   2.140573   2.696795   2.430276   3.032169
                    6          7          8
     6  F    0.000000
     7  H    2.040352   0.000000
     8  H    2.013616   1.761639   0.000000
                           Interatomic angles:
       C1-C2-F3=109.0055       C1-C2-H4=110.1922       F3-C2-H4=110.0175
       C1-C2-H5=110.3027       F3-C2-H5=107.83         H4-C2-H5=109.4568
       C2-C1-F6=109.0055       C2-C1-H7=110.1922       F6-C1-H7=110.0175
       C2-C1-H8=110.3027       F6-C1-H8=107.83         H7-C1-H8=109.4568
 Symmetry turned off by external request.
 Stoichiometry    C2H4F2
 Framework group  C2[X(C2H4F2)]
 Deg. of freedom    10
 Full point group                 C2
 Rotational constants (GHZ):     15.3852572      5.6574545      4.5636236
 Standard basis: 3-21G (6D, 7F)
 Integral buffers will be    131072 words long.
 Raffenetti 1 integral format.
 Two-electron integral symmetry is turned off.
    44 basis functions,    72 primitive gaussians,    44 cartesian basis functions
    17 alpha electrons       17 beta electrons
       nuclear repulsion energy       128.4546392505 Hartrees.
 NAtoms=    8 NActive=    8 NUniq=    8 SFac= 7.50D-01 NAtFMM=   80 NAOKFM=F Big=F
 One-electron integrals computed using PRISM.
 NBasis=    44 RedAO= T  NBF=    44
 NBsUse=    44 1.00D-06 NBFU=    44
 Initial guess read from the read-write file:
 Requested convergence on RMS density matrix=1.00D-08 within 128 cycles.
 Requested convergence on MAX density matrix=1.00D-06.
 Requested convergence on             energy=1.00D-06.
 No special actions if energy rises.
 Keep R1 integrals in memory in canonical form, NReq=     1360461.
 SCF Done:  E(RHF) =  -275.415679125     A.U. after    9 cycles
             Convg  =    0.1399D-08             -V/T =  2.0027
             S**2   =   0.0000
 -------------------------------------------------------------------
 Center     Atomic                   Forces (Hartrees/Bohr)
 Number     Number              X              Y              Z
 -------------------------------------------------------------------
    1          6           0.004952067    0.006019126    0.000061098
    2          6          -0.001427790   -0.007662523   -0.000061098
    3          9           0.000051363    0.005134488    0.000036657
    4          1           0.000085072   -0.000052909    0.000053437
    5          1           0.000095960    0.000017412    0.000038250
    6          9          -0.003900230   -0.003339732   -0.000036657
    7          1           0.000095214   -0.000031159   -0.000053437
    8          1           0.000048343   -0.000084702   -0.000038250
 -------------------------------------------------------------------
 Cartesian Forces:  Max     0.007662523 RMS     0.002694862
 ------------------------------------------------------------------------
           Internal Coordinate Forces (Hartree/Bohr or radian)
 Cent Atom N1     Length/X     N2     Alpha/Y      N3      Beta/Z       J
 ------------------------------------------------------------------------
   1  C 
   2  C     1   0.000067(   1)
   3  F     2   0.000061(   2)  1   0.000047(   8)
   4  H     2  -0.000065(   3)  1   0.000165(   9)  3  -0.000088(  14)  0
   5  H     2  -0.000044(   4)  1   0.000116(  10)  3   0.000146(  15)  0
   6  F     1   0.000061(   5)  2   0.000047(  11)  3   0.012916(  16)  0
   7  H     1  -0.000065(   6)  2   0.000165(  12)  6  -0.000088(  17)  0
   8  H     1  -0.000044(   7)  2   0.000116(  13)  6   0.000146(  18)  0
 ------------------------------------------------------------------------
 Internal  Forces:  Max     0.012915522 RMS     0.003045751

 GradGradGradGradGradGradGradGradGradGradGradGradGradGradGradGradGradGrad
 Berny optimization.
 Search for a local minimum.
 Step number   4 out of a maximum of  20 on scan point     1 out of    27
 All quantities printed in internal units (Hartrees-Bohrs-Radians)
 Update second derivatives using D2CorN and points  1  2  3  4
 Trust test= 1.06D+00 RLast= 3.69D-03 DXMaxT set to 3.99D-01
 The second derivative matrix:
                          r1        r2        r3        r4        A1
           r1           0.29389
           r2           0.01304   0.84664
           r3           0.00226   0.02804   0.66100
           r4           0.00543   0.02954   0.01884   0.65163
           A1           0.01930   0.00596   0.00870   0.01509   0.69308
           A2           0.02309  -0.05195   0.01588   0.02312   0.12336
           A3           0.01215  -0.04088   0.00021   0.00499   0.10921
           D1          -0.02663   0.07140  -0.02495  -0.03473  -0.17905
           D2           0.01012  -0.04585   0.00331   0.00495   0.13614
           D3           0.00584  -0.00735   0.00452   0.00592   0.00429
                          A2        A3        D1        D2        D3
           A2           0.49574
           A3           0.09212   0.49859
           D1          -0.01995   0.12248   0.47144
           D2          -0.15548  -0.01318  -0.17935   0.41170
           D3           0.00012  -0.00018   0.01504   0.01005   0.02298
     Eigenvalues ---    0.16851   0.25784   0.30456   0.48635   0.63623
     Eigenvalues ---    0.66506   0.72955   0.83838   0.937211000.00000
 RFO step:  Lambda=-9.42163084D-07.
 Quartic linear search produced a step of  0.04702.
 Variable       Old X    -DE/DX   Delta X   Delta X   Delta X     New X
                                 (Linear)    (Quad)   (Total)
    r1        2.85701   0.00007  -0.00005   0.00013   0.00008   2.85709
    r2        2.64851   0.00012   0.00013   0.00021   0.00034   2.64885
    r3        2.03852  -0.00013   0.00001  -0.00026  -0.00025   2.03828
    r4        2.03903  -0.00009  -0.00001  -0.00019  -0.00020   2.03883
    A1        1.90250   0.00009  -0.00008  -0.00035  -0.00044   1.90207
    A2        1.92322   0.00033   0.00001   0.00112   0.00113   1.92435
    A3        1.92514   0.00023  -0.00001   0.00049   0.00047   1.92562
    D1        2.10880  -0.00018   0.00001  -0.00022  -0.00021   2.10859
    D2       -2.06318   0.00029   0.00005   0.00121   0.00126  -2.06192
    D3        0.87266   0.01292   0.00000   0.00000   0.00000   0.87266
         Item               Value     Threshold  Converged?
 Maximum Force            0.000330     0.000450     YES
 RMS     Force            0.000192     0.000300     YES
 Maximum Displacement     0.001259     0.001800     YES
 RMS     Displacement     0.000596     0.001200     YES
 Predicted change in Energy=-4.629055D-07
 Optimization completed.
    -- Stationary point found.
                       ----------------------------
                       !   Optimized Parameters   !
                       ! (Angstroms and Degrees)  !
 ----------------------                            ----------------------
 !      Name          Value   Derivative information (Atomic Units)     !
 ------------------------------------------------------------------------
 !       r1          1.5119   -DE/DX =    0.0001                        !
 !       r2          1.4015   -DE/DX =    0.0001                        !
 !       r3          1.0787   -DE/DX =   -0.0001                        !
 !       r4          1.079    -DE/DX =   -0.0001                        !
 !       A1        109.0055   -DE/DX =    0.0001                        !
 !       A2        110.1922   -DE/DX =    0.0003                        !
 !       A3        110.3027   -DE/DX =    0.0002                        !
 !       D1        120.8256   -DE/DX =   -0.0002                        !
 !       D2       -118.2116   -DE/DX =    0.0003                        !
 !       D3         50.0      -DE/DX =    0.0129                        !
 ------------------------------------------------------------------------
 GradGradGradGradGradGradGradGradGradGradGradGradGradGradGradGradGradGrad

 ------------------------------------------------------------------------
                         Z-MATRIX (ANGSTROMS AND DEGREES)
 CD Cent Atom  N1     Length/X     N2    Alpha/Y     N3     Beta/Z      J
 ------------------------------------------------------------------------
   1   1  C 
   2   2  C     1   1.511862(  1)
   3   3  F     2   1.401532(  2)   1  109.006(  8)
   4   4  H     2   1.078741(  3)   1  110.192(  9)   3  120.826( 14)   0
   5   5  H     2   1.079010(  4)   1  110.303( 10)   3 -118.212( 15)   0
   6   6  F     1   1.401532(  5)   2  109.006( 11)   3   55.000( 16)   0
   7   7  H     1   1.078741(  6)   2  110.192( 12)   6  120.826( 17)   0
   8   8  H     1   1.079010(  7)   2  110.303( 13)   6 -118.212( 18)   0
 ------------------------------------------------------------------------
                         Z-Matrix orientation:                         
 ---------------------------------------------------------------------
 Center     Atomic     Atomic              Coordinates (Angstroms)
 Number     Number      Type              X           Y           Z
 ---------------------------------------------------------------------
    1          6             0        0.000000    0.000000    0.000000
    2          6             0        0.000000    0.000000    1.511862
    3          9             0        1.325131    0.000000    1.968284
    4          1             0       -0.518802    0.869415    1.884213
    5          1             0       -0.478389   -0.891759    1.886256
    6          9             0        0.760064   -1.085484   -0.456422
    7          1             0       -1.009755   -0.073698   -0.372350
    8          1             0        0.456093    0.903366   -0.374394
 ---------------------------------------------------------------------
                    Distance matrix (angstroms):
                    1          2          3          4          5
     1  C    0.000000
     2  C    1.511862   0.000000
     3  F    2.372786   1.401532   0.000000
     4  H    2.138994   1.078741   2.040352   0.000000
     5  H    2.140573   1.079010   2.013616   1.761639   0.000000
     6  F    1.401532   2.372786   2.716022   3.306916   2.656960
     7  H    1.078741   2.138994   3.306916   2.494509   2.460260
     8  H    1.079010   2.140573   2.656960   2.460260   3.034184
                    6          7          8
     6  F    0.000000
     7  H    2.040352   0.000000
     8  H    2.013616   1.761639   0.000000
                           Interatomic angles:
       C1-C2-F3=109.0055       C1-C2-H4=110.1922       F3-C2-H4=110.0175
       C1-C2-H5=110.3027       F3-C2-H5=107.83         H4-C2-H5=109.4568
       C2-C1-F6=109.0055       C2-C1-H7=110.1922       F6-C1-H7=110.0175
       C2-C1-H8=110.3027       F6-C1-H8=107.83         H7-C1-H8=109.4568
 Symmetry turned off by external request.
 Stoichiometry    C2H4F2
 Framework group  C2[X(C2H4F2)]
 Deg. of freedom    10
 Full point group                 C2
 Rotational constants (GHZ):     15.6593029      5.5194911      4.5313803
 Standard basis: 3-21G (6D, 7F)
 Integral buffers will be    131072 words long.
 Raffenetti 1 integral format.
 Two-electron integral symmetry is turned off.
    44 basis functions,    72 primitive gaussians,    44 cartesian basis functions
    17 alpha electrons       17 beta electrons
       nuclear repulsion energy       128.2346972226 Hartrees.
 NAtoms=    8 NActive=    8 NUniq=    8 SFac= 7.50D-01 NAtFMM=   80 NAOKFM=F Big=F
 One-electron integrals computed using PRISM.
 NBasis=    44 RedAO= T  NBF=    44
 NBsUse=    44 1.00D-06 NBFU=    44
 Initial guess read from the read-write file:
 Harris functional with IExCor=  205 diagonalized for initial guess.
 ExpMin= 1.83D-01 ExpMax= 4.14D+02 ExpMxC= 4.14D+02 IAcc=1 IRadAn=         1 AccDes= 1.00D-06
 HarFok:  IExCor= 205 AccDes= 1.00D-06 IRadAn=         1 IDoV=1
 ScaDFX=  1.000000  1.000000  1.000000  1.000000
 Requested convergence on RMS density matrix=1.00D-08 within 128 cycles.
 Requested convergence on MAX density matrix=1.00D-06.
 Requested convergence on             energy=1.00D-06.
 No special actions if energy rises.
 Keep R1 integrals in memory in canonical form, NReq=     1360461.
 SCF Done:  E(RHF) =  -275.416698069     A.U. after   10 cycles
             Convg  =    0.5465D-08             -V/T =  2.0027
             S**2   =   0.0000
 -------------------------------------------------------------------
 Center     Atomic                   Forces (Hartrees/Bohr)
 Number     Number              X              Y              Z
 -------------------------------------------------------------------
    1          6           0.004684319    0.005355624    0.001175720
    2          6          -0.001700257   -0.006909035   -0.001175717
    3          9           0.000490714    0.004747209    0.000147196
    4          1           0.000491138    0.000258872   -0.000019628
    5          1          -0.000237076    0.000067492   -0.000526580
    6          9          -0.003607218   -0.003124852   -0.000147198
    7          1           0.000069648   -0.000550798    0.000019629
    8          1          -0.000191267    0.000155487    0.000526577
 -------------------------------------------------------------------
 Cartesian Forces:  Max     0.006909035 RMS     0.002507538
 ------------------------------------------------------------------------
           Internal Coordinate Forces (Hartree/Bohr or radian)
 Cent Atom N1     Length/X     N2     Alpha/Y      N3      Beta/Z       J
 ------------------------------------------------------------------------
   1  C 
   2  C     1  -0.001575(   1)
   3  F     2   0.000512(   2)  1  -0.000055(   8)
   4  H     2  -0.000034(   3)  1  -0.000017(   9)  3  -0.001061(  14)  0
   5  H     2  -0.000133(   4)  1  -0.001044(  10)  3  -0.000461(  15)  0
   6  F     1   0.000512(   5)  2  -0.000055(  11)  3   0.010366(  16)  0
   7  H     1  -0.000034(   6)  2  -0.000017(  12)  6  -0.001061(  17)  0
   8  H     1  -0.000133(   7)  2  -0.001044(  13)  6  -0.000461(  18)  0
 ------------------------------------------------------------------------
 Internal  Forces:  Max     0.010366394 RMS     0.002531640

 GradGradGradGradGradGradGradGradGradGradGradGradGradGradGradGradGradGrad
 Berny optimization.
 Search for a local minimum.
 Step number   1 out of a maximum of  20 on scan point     2 out of    27
 All quantities printed in internal units (Hartrees-Bohrs-Radians)
 Second derivative matrix not updated -- first step.
 The second derivative matrix:
                          r1        r2        r3        r4        A1
           r1           0.29389
           r2           0.01304   0.84664
           r3           0.00226   0.02804   0.66100
           r4           0.00543   0.02954   0.01884   0.65163
           A1           0.01930   0.00596   0.00870   0.01509   0.69308
           A2           0.02309  -0.05195   0.01588   0.02312   0.12336
           A3           0.01215  -0.04088   0.00021   0.00499   0.10921
           D1          -0.02663   0.07140  -0.02495  -0.03473  -0.17905
           D2           0.01012  -0.04585   0.00331   0.00495   0.13614
           D3           0.00584  -0.00735   0.00452   0.00592   0.00429
                          A2        A3        D1        D2        D3
           A2           0.49574
           A3           0.09212   0.49859
           D1          -0.01995   0.12248   0.47144
           D2          -0.15548  -0.01318  -0.17935   0.41170
           D3           0.00012  -0.00018   0.01504   0.01005   0.02298
     Eigenvalues ---    0.16851   0.25784   0.30456   0.48635   0.63623
     Eigenvalues ---    0.66506   0.72955   0.83838   0.937211000.00000
 RFO step:  Lambda=-3.40962488D-05.
 Linear search not attempted -- first point.
 Variable       Old X    -DE/DX   Delta X   Delta X   Delta X     New X
                                 (Linear)    (Quad)   (Total)
    r1        2.85701  -0.00157   0.00000  -0.00564  -0.00564   2.85137
    r2        2.64851   0.00102   0.00000   0.00143   0.00143   2.64994
    r3        2.03852  -0.00007   0.00000  -0.00032  -0.00032   2.03820
    r4        2.03903  -0.00027   0.00000  -0.00067  -0.00067   2.03836
    A1        1.90250  -0.00011   0.00000  -0.00013  -0.00013   1.90237
    A2        1.92322  -0.00003   0.00000  -0.00108  -0.00108   1.92214
    A3        1.92514  -0.00209   0.00000  -0.00221  -0.00221   1.92293
    D1        2.10880  -0.00212   0.00000  -0.00662  -0.00662   2.10218
    D2       -2.06318  -0.00092   0.00000  -0.00525  -0.00525  -2.06843
    D3        0.95993   0.01037   0.00000   0.00000   0.00000   0.95993
         Item               Value     Threshold  Converged?
 Maximum Force            0.002121     0.000450     NO 
 RMS     Force            0.001217     0.000300     NO 
 Maximum Displacement     0.006619     0.001800     NO 
 RMS     Displacement     0.003344     0.001200     NO 
 Predicted change in Energy=-1.704812D-05
 GradGradGradGradGradGradGradGradGradGradGradGradGradGradGradGradGradGrad

 ------------------------------------------------------------------------
                         Z-MATRIX (ANGSTROMS AND DEGREES)
 CD Cent Atom  N1     Length/X     N2    Alpha/Y     N3     Beta/Z      J
 ------------------------------------------------------------------------
   1   1  C 
   2   2  C     1   1.508877(  1)
   3   3  F     2   1.402290(  2)   1  108.998(  8)
   4   4  H     2   1.078571(  3)   1  110.130(  9)   3  120.446( 14)   0
   5   5  H     2   1.078654(  4)   1  110.176( 10)   3 -118.512( 15)   0
   6   6  F     1   1.402290(  5)   2  108.998( 11)   3   55.000( 16)   0
   7   7  H     1   1.078571(  6)   2  110.130( 12)   6  120.446( 17)   0
   8   8  H     1   1.078654(  7)   2  110.176( 13)   6 -118.512( 18)   0
 ------------------------------------------------------------------------
                         Z-Matrix orientation:                         
 ---------------------------------------------------------------------
 Center     Atomic     Atomic              Coordinates (Angstroms)
 Number     Number      Type              X           Y           Z
 ---------------------------------------------------------------------
    1          6             0        0.000000    0.000000    0.000000
    2          6             0        0.000000    0.000000    1.508877
    3          9             0        1.325908    0.000000    1.965370
    4          1             0       -0.513158    0.873039    1.880074
    5          1             0       -0.483296   -0.889668    1.880911
    6          9             0        0.760510   -1.086120   -0.456492
    7          1             0       -1.009487   -0.080400   -0.371196
    8          1             0        0.451566    0.906186   -0.372034
 ---------------------------------------------------------------------
                    Distance matrix (angstroms):
                    1          2          3          4          5
     1  C    0.000000
     2  C    1.508877   0.000000
     3  F    2.370804   1.402290   0.000000
     4  H    2.135464   1.078571   2.037557   0.000000
     5  H    2.136097   1.078654   2.017886   1.762960   0.000000
     6  F    1.402290   2.370804   2.713807   3.304554   2.655014
     7  H    1.078571   2.135464   3.304554   2.494715   2.450261
     8  H    1.078654   2.136097   2.655014   2.450261   3.028996
                    6          7          8
     6  F    0.000000
     7  H    2.037557   0.000000
     8  H    2.017886   1.762960   0.000000
                           Interatomic angles:
       C1-C2-F3=108.9979       C1-C2-H4=110.1303       F3-C2-H4=109.7445
       C1-C2-H5=110.176        F3-C2-H5=108.1419       H4-C2-H5=109.618 
       C2-C1-F6=108.9979       C2-C1-H7=110.1303       F6-C1-H7=109.7445
       C2-C1-H8=110.176        F6-C1-H8=108.1419       H7-C1-H8=109.618 
 Symmetry turned off by external request.
 Stoichiometry    C2H4F2
 Framework group  C2[X(C2H4F2)]
 Deg. of freedom    10
 Full point group                 C2
 Rotational constants (GHZ):     15.6502484      5.5305834      4.5378605
 Standard basis: 3-21G (6D, 7F)
 Integral buffers will be    131072 words long.
 Raffenetti 1 integral format.
 Two-electron integral symmetry is turned off.
    44 basis functions,    72 primitive gaussians,    44 cartesian basis functions
    17 alpha electrons       17 beta electrons
       nuclear repulsion energy       128.2872623041 Hartrees.
 NAtoms=    8 NActive=    8 NUniq=    8 SFac= 7.50D-01 NAtFMM=   80 NAOKFM=F Big=F
 One-electron integrals computed using PRISM.
 NBasis=    44 RedAO= T  NBF=    44
 NBsUse=    44 1.00D-06 NBFU=    44
 Initial guess read from the read-write file:
 Requested convergence on RMS density matrix=1.00D-08 within 128 cycles.
 Requested convergence on MAX density matrix=1.00D-06.
 Requested convergence on             energy=1.00D-06.
 No special actions if energy rises.
 Keep R1 integrals in memory in canonical form, NReq=     1360461.
 SCF Done:  E(RHF) =  -275.416708762     A.U. after    9 cycles
             Convg  =    0.1610D-08             -V/T =  2.0027
             S**2   =   0.0000
 -------------------------------------------------------------------
 Center     Atomic                   Forces (Hartrees/Bohr)
 Number     Number              X              Y              Z
 -------------------------------------------------------------------
    1          6           0.004339631    0.004351190    0.000055868
    2          6          -0.001075176   -0.006050558   -0.000055868
    3          9          -0.000085503    0.004049562    0.000081101
    4          1          -0.000127482   -0.000005345    0.000129321
    5          1           0.000209222   -0.000066280    0.000266563
    6          9          -0.003366250   -0.002252694   -0.000081101
    7          1          -0.000068742    0.000107493   -0.000129321
    8          1           0.000174299   -0.000133368   -0.000266563
 -------------------------------------------------------------------
 Cartesian Forces:  Max     0.006050558 RMS     0.002127860
 ------------------------------------------------------------------------
           Internal Coordinate Forces (Hartree/Bohr or radian)
 Cent Atom N1     Length/X     N2     Alpha/Y      N3      Beta/Z       J
 ------------------------------------------------------------------------
   1  C 
   2  C     1   0.000421(   1)
   3  F     2  -0.000054(   2)  1   0.000277(   8)
   4  H     2   0.000101(   3)  1   0.000205(   9)  3   0.000216(  14)  0
   5  H     2   0.000053(   4)  1   0.000539(  10)  3   0.000412(  15)  0
   6  F     1  -0.000054(   5)  2   0.000277(  11)  3   0.010774(  16)  0
   7  H     1   0.000101(   6)  2   0.000205(  12)  6   0.000216(  17)  0
   8  H     1   0.000053(   7)  2   0.000539(  13)  6   0.000412(  18)  0
 ------------------------------------------------------------------------
 Internal  Forces:  Max     0.010774386 RMS     0.002555483

 GradGradGradGradGradGradGradGradGradGradGradGradGradGradGradGradGradGrad
 Berny optimization.
 Search for a local minimum.
 Step number   2 out of a maximum of  20 on scan point     2 out of    27
 All quantities printed in internal units (Hartrees-Bohrs-Radians)
 Update second derivatives using D2CorN and points  1  2
 Trust test= 6.27D-01 RLast= 1.06D-02 DXMaxT set to 3.99D-01
 The second derivative matrix:
                          r1        r2        r3        r4        A1
           r1           0.31513
           r2           0.00760   0.84803
           r3           0.00795   0.02659   0.66158
           r4           0.00936   0.02853   0.01960   0.65226
           A1           0.03352   0.00235   0.00962   0.01682   0.69373
           A2           0.03548  -0.05511   0.01745   0.02486   0.12628
           A3           0.04351  -0.04886   0.00375   0.00928   0.11533
           D1          -0.00329   0.06541  -0.01836  -0.03031  -0.16240
           D2           0.04080  -0.05369   0.00923   0.00992   0.14962
           D3           0.01104  -0.00867   0.00481   0.00654   0.00441
                          A2        A3        D1        D2        D3
           A2           0.49971
           A3           0.10140   0.51991
           D1          -0.00570   0.15866   0.49696
           D2          -0.14185   0.02027  -0.14482   0.45039
           D3           0.00111   0.00186   0.02115   0.01489   0.02298
     Eigenvalues ---    0.19572   0.25445   0.32413   0.53331   0.63624
     Eigenvalues ---    0.66506   0.75080   0.83559   0.942421000.00000
 RFO step:  Lambda=-9.94361183D-07.
 Quartic linear search produced a step of -0.27164.
 Variable       Old X    -DE/DX   Delta X   Delta X   Delta X     New X
                                 (Linear)    (Quad)   (Total)
    r1        2.85137   0.00042   0.00153  -0.00069   0.00084   2.85221
    r2        2.64994  -0.00011  -0.00039   0.00041   0.00003   2.64997
    r3        2.03820   0.00020   0.00009   0.00014   0.00022   2.03843
    r4        2.03836   0.00011   0.00018  -0.00008   0.00010   2.03846
    A1        1.90237   0.00055   0.00004   0.00003   0.00007   1.90244
    A2        1.92214   0.00041   0.00029   0.00085   0.00115   1.92328
    A3        1.92293   0.00108   0.00060   0.00043   0.00103   1.92397
    D1        2.10218   0.00043   0.00180  -0.00042   0.00138   2.10356
    D2       -2.06843   0.00082   0.00143   0.00099   0.00242  -2.06601
    D3        0.95993   0.01077   0.00000   0.00000   0.00000   0.95993
         Item               Value     Threshold  Converged?
 Maximum Force            0.001079     0.000450     NO 
 RMS     Force            0.000552     0.000300     NO 
 Maximum Displacement     0.002416     0.001800     NO 
 RMS     Displacement     0.001044     0.001200     YES
 Predicted change in Energy=-2.391669D-06
 GradGradGradGradGradGradGradGradGradGradGradGradGradGradGradGradGradGrad

 ------------------------------------------------------------------------
                         Z-MATRIX (ANGSTROMS AND DEGREES)
 CD Cent Atom  N1     Length/X     N2    Alpha/Y     N3     Beta/Z      J
 ------------------------------------------------------------------------
   1   1  C 
   2   2  C     1   1.509323(  1)
   3   3  F     2   1.402304(  2)   1  109.002(  8)
   4   4  H     2   1.078689(  3)   1  110.196(  9)   3  120.525( 14)   0
   5   5  H     2   1.078708(  4)   1  110.235( 10)   3 -118.374( 15)   0
   6   6  F     1   1.402304(  5)   2  109.002( 11)   3   55.000( 16)   0
   7   7  H     1   1.078689(  6)   2  110.196( 12)   6  120.525( 17)   0
   8   8  H     1   1.078708(  7)   2  110.235( 13)   6 -118.374( 18)   0
 ------------------------------------------------------------------------
                         Z-Matrix orientation:                         
 ---------------------------------------------------------------------
 Center     Atomic     Atomic              Coordinates (Angstroms)
 Number     Number      Type              X           Y           Z
 ---------------------------------------------------------------------
    1          6             0        0.000000    0.000000    0.000000
    2          6             0        0.000000    0.000000    1.509323
    3          9             0        1.325890    0.000000    1.965909
    4          1             0       -0.514202    0.872058    1.881723
    5          1             0       -0.480987   -0.890540    1.882420
    6          9             0        0.760499   -1.086106   -0.456587
    7          1             0       -1.009282   -0.078983   -0.372400
    8          1             0        0.453605    0.904794   -0.373097
 ---------------------------------------------------------------------
                    Distance matrix (angstroms):
                    1          2          3          4          5
     1  C    0.000000
     2  C    1.509323   0.000000
     3  F    2.371241   1.402304   0.000000
     4  H    2.136766   1.078689   2.038016   0.000000
     5  H    2.137268   1.078708   2.016144   1.762911   0.000000
     6  F    1.402304   2.371241   2.714365   3.305595   2.655275
     7  H    1.078689   2.136766   3.305595   2.496128   2.453963
     8  H    1.078708   2.137268   2.655275   2.453963   3.030518
                    6          7          8
     6  F    0.000000
     7  H    2.038016   0.000000
     8  H    2.016144   1.762911   0.000000
                           Interatomic angles:
       C1-C2-F3=109.0018       C1-C2-H4=110.1961       F3-C2-H4=109.7738
       C1-C2-H5=110.2352       F3-C2-H5=107.9977       H4-C2-H5=109.6005
       C2-C1-F6=109.0018       C2-C1-H7=110.1961       F6-C1-H7=109.7738
       C2-C1-H8=110.2352       F6-C1-H8=107.9977       H7-C1-H8=109.6005
 Symmetry turned off by external request.
 Stoichiometry    C2H4F2
 Framework group  C2[X(C2H4F2)]
 Deg. of freedom    10
 Full point group                 C2
 Rotational constants (GHZ):     15.6521512      5.5278592      4.5362211
 Standard basis: 3-21G (6D, 7F)
 Integral buffers will be    131072 words long.
 Raffenetti 1 integral format.
 Two-electron integral symmetry is turned off.
    44 basis functions,    72 primitive gaussians,    44 cartesian basis functions
    17 alpha electrons       17 beta electrons
       nuclear repulsion energy       128.2719894733 Hartrees.
 NAtoms=    8 NActive=    8 NUniq=    8 SFac= 7.50D-01 NAtFMM=   80 NAOKFM=F Big=F
 One-electron integrals computed using PRISM.
 NBasis=    44 RedAO= T  NBF=    44
 NBsUse=    44 1.00D-06 NBFU=    44
 Initial guess read from the read-write file:
 Requested convergence on RMS density matrix=1.00D-08 within 128 cycles.
 Requested convergence on MAX density matrix=1.00D-06.
 Requested convergence on             energy=1.00D-06.
 No special actions if energy rises.
 Keep R1 integrals in memory in canonical form, NReq=     1360461.
 SCF Done:  E(RHF) =  -275.416710883     A.U. after    8 cycles
             Convg  =    0.4246D-08             -V/T =  2.0027
             S**2   =   0.0000
 -------------------------------------------------------------------
 Center     Atomic                   Forces (Hartrees/Bohr)
 Number     Number              X              Y              Z
 -------------------------------------------------------------------
    1          6           0.004544086    0.004450321   -0.000007512
    2          6          -0.001039109   -0.006274897    0.000007512
    3          9           0.000046085    0.004265315   -0.000000994
    4          1          -0.000018432   -0.000009654   -0.000019549
    5          1          -0.000044908   -0.000010020   -0.000004307
    6          9          -0.003467508   -0.002484235    0.000000994
    7          1          -0.000002664    0.000020636    0.000019549
    8          1          -0.000017550    0.000042534    0.000004307
 -------------------------------------------------------------------
 Cartesian Forces:  Max     0.006274897 RMS     0.002210809
 ------------------------------------------------------------------------
           Internal Coordinate Forces (Hartree/Bohr or radian)
 Cent Atom N1     Length/X     N2     Alpha/Y      N3      Beta/Z       J
 ------------------------------------------------------------------------
   1  C 
   2  C     1  -0.000017(   1)
   3  F     2   0.000043(   2)  1  -0.000042(   8)
   4  H     2  -0.000006(   3)  1  -0.000038(   9)  3   0.000040(  14)  0
   5  H     2   0.000027(   4)  1  -0.000029(  10)  3  -0.000066(  15)  0
   6  F     1   0.000043(   5)  2  -0.000042(  11)  3   0.010660(  16)  0
   7  H     1  -0.000006(   6)  2  -0.000038(  12)  6   0.000040(  17)  0
   8  H     1   0.000027(   7)  2  -0.000029(  13)  6  -0.000066(  18)  0
 ------------------------------------------------------------------------
 Internal  Forces:  Max     0.010660331 RMS     0.002512949

 GradGradGradGradGradGradGradGradGradGradGradGradGradGradGradGradGradGrad
 Berny optimization.
 Search for a local minimum.
 Step number   3 out of a maximum of  20 on scan point     2 out of    27
 All quantities printed in internal units (Hartrees-Bohrs-Radians)
 Update second derivatives using D2CorN and points  1  2  3
 Trust test= 8.87D-01 RLast= 3.30D-03 DXMaxT set to 3.99D-01
 The second derivative matrix:
                          r1        r2        r3        r4        A1
           r1           0.30764
           r2           0.00918   0.84531
           r3           0.01078   0.02516   0.66220
           r4           0.00908   0.02775   0.01938   0.65228
           A1           0.04319   0.00097   0.01126   0.01784   0.69472
           A2           0.04102  -0.06039   0.01998   0.02234   0.13398
           A3           0.05713  -0.05504   0.00703   0.00880   0.12357
           D1          -0.01341   0.06418  -0.01589  -0.03213  -0.14921
           D2           0.04342  -0.06104   0.01499   0.00533   0.16823
           D3           0.01461  -0.00945   0.00511   0.00697   0.00452
                          A2        A3        D1        D2        D3
           A2           0.51140
           A3           0.11386   0.53716
           D1          -0.00367   0.17133   0.47872
           D2          -0.11981   0.04825  -0.15008   0.48613
           D3           0.00234   0.00364   0.02555   0.01911   0.02298
     Eigenvalues ---    0.19232   0.25195   0.32436   0.54109   0.63804
     Eigenvalues ---    0.66538   0.76048   0.83450   0.967451000.00000
 RFO step:  Lambda=-4.14972751D-08.
 Quartic linear search produced a step of -0.07517.
 Variable       Old X    -DE/DX   Delta X   Delta X   Delta X     New X
                                 (Linear)    (Quad)   (Total)
    r1        2.85221  -0.00002  -0.00006   0.00008   0.00002   2.85222
    r2        2.64997   0.00009   0.00000   0.00005   0.00005   2.65002
    r3        2.03843  -0.00001  -0.00002   0.00001  -0.00001   2.03842
    r4        2.03846   0.00005  -0.00001   0.00010   0.00009   2.03855
    A1        1.90244  -0.00008  -0.00001   0.00003   0.00002   1.90246
    A2        1.92328  -0.00008  -0.00009  -0.00012  -0.00020   1.92308
    A3        1.92397  -0.00006  -0.00008   0.00001  -0.00007   1.92390
    D1        2.10356   0.00008  -0.00010   0.00019   0.00009   2.10366
    D2       -2.06601  -0.00013  -0.00018  -0.00011  -0.00029  -2.06630
    D3        0.95993   0.01066   0.00000   0.00000   0.00000   0.95993
         Item               Value     Threshold  Converged?
 Maximum Force            0.000133     0.000450     YES
 RMS     Force            0.000075     0.000300     YES
 Maximum Displacement     0.000288     0.001800     YES
 RMS     Displacement     0.000122     0.001200     YES
 Predicted change in Energy=-3.701124D-08
 Optimization completed.
    -- Stationary point found.
                       ----------------------------
                       !   Optimized Parameters   !
                       ! (Angstroms and Degrees)  !
 ----------------------                            ----------------------
 !      Name          Value   Derivative information (Atomic Units)     !
 ------------------------------------------------------------------------
 !       r1          1.5093   -DE/DX =    0.0                           !
 !       r2          1.4023   -DE/DX =    0.0001                        !
 !       r3          1.0787   -DE/DX =    0.0                           !
 !       r4          1.0787   -DE/DX =    0.0001                        !
 !       A1        109.0018   -DE/DX =   -0.0001                        !
 !       A2        110.1961   -DE/DX =   -0.0001                        !
 !       A3        110.2352   -DE/DX =   -0.0001                        !
 !       D1        120.5254   -DE/DX =    0.0001                        !
 !       D2       -118.3738   -DE/DX =   -0.0001                        !
 !       D3         55.0      -DE/DX =    0.0107                        !
 ------------------------------------------------------------------------
 GradGradGradGradGradGradGradGradGradGradGradGradGradGradGradGradGradGrad

 ------------------------------------------------------------------------
                         Z-MATRIX (ANGSTROMS AND DEGREES)
 CD Cent Atom  N1     Length/X     N2    Alpha/Y     N3     Beta/Z      J
 ------------------------------------------------------------------------
   1   1  C 
   2   2  C     1   1.509323(  1)
   3   3  F     2   1.402304(  2)   1  109.002(  8)
   4   4  H     2   1.078689(  3)   1  110.196(  9)   3  120.525( 14)   0
   5   5  H     2   1.078708(  4)   1  110.235( 10)   3 -118.374( 15)   0
   6   6  F     1   1.402304(  5)   2  109.002( 11)   3   60.000( 16)   0
   7   7  H     1   1.078689(  6)   2  110.196( 12)   6  120.525( 17)   0
   8   8  H     1   1.078708(  7)   2  110.235( 13)   6 -118.374( 18)   0
 ------------------------------------------------------------------------
                         Z-Matrix orientation:                         
 ---------------------------------------------------------------------
 Center     Atomic     Atomic              Coordinates (Angstroms)
 Number     Number      Type              X           Y           Z
 ---------------------------------------------------------------------
    1          6             0        0.000000    0.000000    0.000000
    2          6             0        0.000000    0.000000    1.509323
    3          9             0        1.325890    0.000000    1.965909
    4          1             0       -0.514202    0.872058    1.881723
    5          1             0       -0.480987   -0.890540    1.882420
    6          9             0        0.662945   -1.148255   -0.456587
    7          1             0       -1.012325    0.009283   -0.372400
    8          1             0        0.530737    0.861817   -0.373097
 ---------------------------------------------------------------------
                    Distance matrix (angstroms):
                    1          2          3          4          5
     1  C    0.000000
     2  C    1.509323   0.000000
     3  F    2.371241   1.402304   0.000000
     4  H    2.136766   1.078689   2.038016   0.000000
     5  H    2.137268   1.078708   2.016144   1.762911   0.000000
     6  F    1.402304   2.371241   2.761607   3.306816   2.616476
     7  H    1.078689   2.136766   3.306816   2.464464   2.485199
     8  H    1.078708   2.137268   2.616476   2.485199   3.030131
                    6          7          8
     6  F    0.000000
     7  H    2.038016   0.000000
     8  H    2.016144   1.762911   0.000000
                           Interatomic angles:
       C1-C2-F3=109.0018       C1-C2-H4=110.1961       F3-C2-H4=109.7738
       C1-C2-H5=110.2352       F3-C2-H5=107.9977       H4-C2-H5=109.6005
       C2-C1-F6=109.0018       C2-C1-H7=110.1961       F6-C1-H7=109.7738
       C2-C1-H8=110.2352       F6-C1-H8=107.9977       H7-C1-H8=109.6005
 Symmetry turned off by external request.
 Stoichiometry    C2H4F2
 Framework group  C2[X(C2H4F2)]
 Deg. of freedom    10
 Full point group                 C2
 Rotational constants (GHZ):     15.9659983      5.3877762      4.5013681
 Standard basis: 3-21G (6D, 7F)
 Integral buffers will be    131072 words long.
 Raffenetti 1 integral format.
 Two-electron integral symmetry is turned off.
    44 basis functions,    72 primitive gaussians,    44 cartesian basis functions
    17 alpha electrons       17 beta electrons
       nuclear repulsion energy       128.0513119760 Hartrees.
 NAtoms=    8 NActive=    8 NUniq=    8 SFac= 7.50D-01 NAtFMM=   80 NAOKFM=F Big=F
 One-electron integrals computed using PRISM.
 NBasis=    44 RedAO= T  NBF=    44
 NBsUse=    44 1.00D-06 NBFU=    44
 Initial guess read from the read-write file:
 Harris functional with IExCor=  205 diagonalized for initial guess.
 ExpMin= 1.83D-01 ExpMax= 4.14D+02 ExpMxC= 4.14D+02 IAcc=1 IRadAn=         1 AccDes= 1.00D-06
 HarFok:  IExCor= 205 AccDes= 1.00D-06 IRadAn=         1 IDoV=1
 ScaDFX=  1.000000  1.000000  1.000000  1.000000
 Requested convergence on RMS density matrix=1.00D-08 within 128 cycles.
 Requested convergence on MAX density matrix=1.00D-06.
 Requested convergence on             energy=1.00D-06.
 No special actions if energy rises.
 Keep R1 integrals in memory in canonical form, NReq=     1360461.
 SCF Done:  E(RHF) =  -275.417516404     A.U. after   10 cycles
[...]
    17 alpha electrons       17 beta electrons
       nuclear repulsion energy       125.3754671994 Hartrees.
 NAtoms=    8 NActive=    8 NUniq=    8 SFac= 7.50D-01 NAtFMM=   80 NAOKFM=F Big=F
 One-electron integrals computed using PRISM.
 NBasis=    44 RedAO= T  NBF=    44
 NBsUse=    44 1.00D-06 NBFU=    44
 Initial guess read from the read-write file:
 Requested convergence on RMS density matrix=1.00D-08 within 128 cycles.
 Requested convergence on MAX density matrix=1.00D-06.
 Requested convergence on             energy=1.00D-06.
 No special actions if energy rises.
 Keep R1 integrals in memory in canonical form, NReq=     1360461.
 SCF Done:  E(RHF) =  -275.419888498     A.U. after    9 cycles
             Convg  =    0.1820D-08             -V/T =  2.0027
             S**2   =   0.0000
 -------------------------------------------------------------------
 Center     Atomic                   Forces (Hartrees/Bohr)
 Number     Number              X              Y              Z
 -------------------------------------------------------------------
    1          6          -0.000006004    0.000058929   -0.000030255
    2          6           0.000006004    0.000058929    0.000030255
    3          9          -0.000012489   -0.000058093   -0.000029466
    4          1          -0.000053490    0.000002094   -0.000023340
    5          1           0.000035658   -0.000002930    0.000004557
    6          9           0.000012489   -0.000058093    0.000029466
    7          1           0.000053490    0.000002094    0.000023340
    8          1          -0.000035658   -0.000002930   -0.000004557
 -------------------------------------------------------------------
 Cartesian Forces:  Max     0.000058929 RMS     0.000033584
 ------------------------------------------------------------------------
           Internal Coordinate Forces (Hartree/Bohr or radian)
 Cent Atom N1     Length/X     N2     Alpha/Y      N3      Beta/Z       J
 ------------------------------------------------------------------------
   1  C 
   2  C     1  -0.000018(   1)
   3  F     2  -0.000021(   2)  1  -0.000065(   8)
   4  H     2   0.000018(   3)  1  -0.000064(   9)  3   0.000087(  14)  0
   5  H     2  -0.000012(   4)  1   0.000019(  10)  3   0.000062(  15)  0
   6  F     1  -0.000021(   5)  2  -0.000065(  11)  3   0.000002(  16)  0
   7  H     1   0.000018(   6)  2  -0.000064(  12)  6   0.000087(  17)  0
   8  H     1  -0.000012(   7)  2   0.000019(  13)  6   0.000062(  18)  0
 ------------------------------------------------------------------------
 Internal  Forces:  Max     0.000086994 RMS     0.000048583

 GradGradGradGradGradGradGradGradGradGradGradGradGradGradGradGradGradGrad
 Berny optimization.
 Search for a local minimum.
 Step number   2 out of a maximum of  20 on scan point    27 out of    27
 All quantities printed in internal units (Hartrees-Bohrs-Radians)
 Update second derivatives using D2CorN and points  1  2
 Trust test= 9.99D-01 RLast= 1.48D-02 DXMaxT set to 3.99D-01
 The second derivative matrix:
                          r1        r2        r3        r4        A1
           r1           0.25166
           r2           0.04016   0.85573
           r3           0.01037   0.02443   0.66214
           r4          -0.01664   0.02045   0.02020   0.65595
           A1           0.09543   0.04978   0.00840  -0.00530   0.84693
           A2           0.02717  -0.04841   0.02061   0.00202   0.09758
           A3           0.08435  -0.07096   0.00469   0.03376   0.08866
           D1           0.02861   0.04930  -0.00854  -0.01418  -0.15705
           D2           0.06423  -0.08285   0.02365   0.02566   0.15193
           D3           0.02860  -0.00798   0.00883   0.00843   0.09233
                          A2        A3        D1        D2        D3
           A2           0.52842
           A3           0.13188   0.50784
           D1          -0.01493   0.11666   0.46550
           D2          -0.14262   0.00809  -0.14871   0.50465
           D3          -0.00507  -0.02606   0.02825   0.01570   0.02298
     Eigenvalues ---    0.18420   0.23313   0.34837   0.51933   0.64154
     Eigenvalues ---    0.68364   0.76161   0.89647   1.010531000.00000
 RFO step:  Lambda=-1.68681797D-07.
 Quartic linear search produced a step of -0.00034.
 Variable       Old X    -DE/DX   Delta X   Delta X   Delta X     New X
                                 (Linear)    (Quad)   (Total)
    r1        2.86206  -0.00002   0.00000  -0.00019  -0.00019   2.86187
    r2        2.65463  -0.00004   0.00000  -0.00002  -0.00002   2.65461
    r3        2.03594   0.00004   0.00000   0.00006   0.00006   2.03599
    r4        2.03601  -0.00002   0.00000  -0.00005  -0.00005   2.03595
    A1        1.86842  -0.00013   0.00000  -0.00011  -0.00011   1.86831
    A2        1.92951  -0.00013   0.00000  -0.00011  -0.00011   1.92941
    A3        1.92933   0.00004   0.00000   0.00004   0.00004   1.92938
    D1        2.08177   0.00017   0.00000   0.00046   0.00047   2.08224
    D2       -2.08262   0.00012   0.00000   0.00040   0.00041  -2.08221
    D3        3.14159   0.00000   0.00000   0.00000   0.00000   3.14159
         Item               Value     Threshold  Converged?
 Maximum Force            0.000174     0.000450     YES
 RMS     Force            0.000097     0.000300     YES
 Maximum Displacement     0.000466     0.001800     YES
 RMS     Displacement     0.000212     0.001200     YES
 Predicted change in Energy=-8.437265D-08
 Optimization completed.
    -- Stationary point found.
                       ----------------------------
                       !   Optimized Parameters   !
                       ! (Angstroms and Degrees)  !
 ----------------------                            ----------------------
 !      Name          Value   Derivative information (Atomic Units)     !
 ------------------------------------------------------------------------
 !       r1          1.5145   -DE/DX =    0.0                           !
 !       r2          1.4048   -DE/DX =    0.0                           !
 !       r3          1.0774   -DE/DX =    0.0                           !
 !       r4          1.0774   -DE/DX =    0.0                           !
 !       A1        107.0527   -DE/DX =   -0.0001                        !
 !       A2        110.5528   -DE/DX =   -0.0001                        !
 !       A3        110.5427   -DE/DX =    0.0                           !
 !       D1        119.2766   -DE/DX =    0.0002                        !
 !       D2       -119.3251   -DE/DX =    0.0001                        !
 !       D3        180.0      -DE/DX =    0.0                           !
 ------------------------------------------------------------------------
 GradGradGradGradGradGradGradGradGradGradGradGradGradGradGradGradGradGrad

 Summary of Optimized Potential Surface Scan
                           1         2         3         4         5
     EIGENVALUES --  -275.41568-275.41671-275.41753-275.41812-275.41846
           r1           1.51186   1.50932   1.50770   1.50667   1.50649
           r2           1.40153   1.40230   1.40291   1.40350   1.40402
           r3           1.07874   1.07869   1.07874   1.07877   1.07885
           r4           1.07901   1.07871   1.07848   1.07828   1.07806
           A1         109.00551 109.00178 109.06667 109.17197 109.32475
           A2         110.19225 110.19609 110.15769 110.08938 110.04781
           A3         110.30268 110.23515 110.12290 110.05436 109.93922
           D1         120.82559 120.52537 120.23100 119.87899 119.57121
           D2        -118.21159-118.37377-118.64943-118.99216-119.33110
           D3          50.00000  55.00000  60.00000  65.00000  70.00000
                           6         7         8         9        10
     EIGENVALUES --  -275.41857-275.41847-275.41818-275.41776-275.41724
           r1           1.50699   1.50824   1.50997   1.51226   1.51478
           r2           1.40448   1.40490   1.40526   1.40559   1.40585
           r3           1.07886   1.07888   1.07883   1.07876   1.07863
           r4           1.07792   1.07774   1.07764   1.07752   1.07749
           A1         109.47467 109.63813 109.76757 109.88040 109.93609
           A2         110.01591 110.04021 110.10100 110.24046 110.41784
           A3         109.85646 109.72684 109.61684 109.45426 109.30755
           D1         119.25304 119.00512 118.78453 118.67177 118.60243
           D2        -119.66575-119.95487-120.18914-120.32499-120.38078
           D3          75.00000  80.00000  85.00000  90.00000  95.00000
                          11        12        13        14        15
     EIGENVALUES --  -275.41670-275.41619-275.41576-275.41547-275.41533
           r1           1.51755   1.52040   1.52303   1.52529   1.52688
           r2           1.40609   1.40623   1.40633   1.40636   1.40634
           r3           1.07850   1.07831   1.07814   1.07794   1.07777
           r4           1.07742   1.07744   1.07743   1.07747   1.07749
           A1         109.95681 109.91210 109.82696 109.68619 109.51296
           A2         110.67614 110.96465 111.30473 111.65610 112.00064
           A3         109.10074 108.90109 108.65528 108.41810 108.18013
           D1         118.66503 118.77764 119.00891 119.28310 119.60395
           D2        -120.30528-120.14503-119.86318-119.52062-119.13814
           D3         100.00000 105.00000 110.00000 115.00000 120.00000
                          16        17        18        19        20
     EIGENVALUES --  -275.41537-275.41559-275.41596-275.41644-275.41701
           r1           1.52774   1.52780   1.52716   1.52593   1.52431
           r2           1.40626   1.40614   1.40599   1.40580   1.40560
           r3           1.07762   1.07750   1.07740   1.07734   1.07729
           r4           1.07753   1.07756   1.07760   1.07762   1.07763
           A1         109.29866 109.06096 108.79853 108.52601 108.24924
           A2         112.31743 112.57914 112.77106 112.87518 112.88527
           A3         107.97709 107.82067 107.73690 107.73492 107.82509
           D1         119.91748 120.20178 120.42187 120.56556 120.62269
           D2        -118.76278-118.43141-118.17354-118.00788-117.93976
           D3         125.00000 130.00000 135.00000 140.00000 145.00000
                          21        22        23        24        25
     EIGENVALUES --  -275.41762-275.41822-275.41877-275.41924-275.41959
           r1           1.52242   1.52043   1.51852   1.51690   1.51562
           r2           1.40541   1.40522   1.40507   1.40493   1.40484
           r3           1.07727   1.07726   1.07727   1.07728   1.07730
           r4           1.07763   1.07762   1.07759   1.07755   1.07750
           A1         107.98285 107.72961 107.50491 107.31519 107.17258
           A2         112.79915 112.61309 112.33385 111.97032 111.54172
           A3         108.00166 108.27412 108.62522 109.04792 109.51985
           D1         120.60706 120.51069 120.35318 120.13432 119.87621
           D2        -117.95649-118.05762-118.22494-118.45333-118.71950
           D3         150.00000 155.00000 160.00000 165.00000 170.00000
                          26        27
     EIGENVALUES --  -275.41981-275.41989
           r1           1.51485   1.51454
           r2           1.40478   1.40477
           r3           1.07733   1.07737
           r4           1.07746   1.07741
           A1         107.08245 107.05265
           A2         111.06190 110.55283
           A3         110.02538 110.54274
           D1         119.58348 119.27657
           D2        -119.01744-119.32507
           D3         175.00000 180.00000
 ------------------------------------------------------------------------
                         Z-MATRIX (ANGSTROMS AND DEGREES)
 CD Cent Atom  N1     Length/X     N2    Alpha/Y     N3     Beta/Z      J
 ------------------------------------------------------------------------
   1   1  C 
   2   2  C     1   1.514539(  1)
   3   3  F     2   1.404769(  2)   1  107.053(  8)
   4   4  H     2   1.077371(  3)   1  110.553(  9)   3  119.277( 14)   0
   5   5  H     2   1.077408(  4)   1  110.543( 10)   3 -119.325( 15)   0
   6   6  F     1   1.404769(  5)   2  107.053( 11)   3  180.000( 16)   0
   7   7  H     1   1.077371(  6)   2  110.553( 12)   6  119.277( 17)   0
   8   8  H     1   1.077408(  7)   2  110.543( 13)   6 -119.325( 18)   0
 ------------------------------------------------------------------------
                         Z-Matrix orientation:                         
 ---------------------------------------------------------------------
 Center     Atomic     Atomic              Coordinates (Angstroms)
 Number     Number      Type              X           Y           Z
 ---------------------------------------------------------------------
    1          6             0        0.000000    0.000000    0.000000
    2          6             0        0.000000    0.000000    1.514539
    3          9             0        1.343009    0.000000    1.926488
    4          1             0       -0.493327    0.879941    1.892773
    5          1             0       -0.494121   -0.879612    1.892608
    6          9             0       -1.343009    0.000000   -0.411949
    7          1             0        0.493327    0.879941   -0.378234
    8          1             0        0.494121   -0.879612   -0.378069
 ---------------------------------------------------------------------
                    Distance matrix (angstroms):
                    1          2          3          4          5
     1  C    0.000000
     2  C    1.514539   0.000000
     3  F    2.348410   1.404769   0.000000
     4  H    2.144821   1.077371   2.036557   0.000000
     5  H    2.144723   1.077408   2.037134   1.759553   0.000000
     6  F    1.404769   2.348410   3.561318   2.609214   2.608699
     7  H    1.077371   2.144821   2.609214   2.476077   3.037730
     8  H    1.077408   2.144723   2.608699   3.037730   2.476408
                    6          7          8
     6  F    0.000000
     7  H    2.036557   0.000000
     8  H    2.037134   1.759553   0.000000
                           Interatomic angles:
       C1-C2-F3=107.0527       C1-C2-H4=110.5528       F3-C2-H4=109.5613
       C1-C2-H5=110.5427       F3-C2-H5=109.6062       H4-C2-H5=109.4881
       C2-C1-F6=107.0527       C2-C1-H7=110.5528       F6-C1-H7=109.5613
       C2-C1-H8=110.5427       F6-C1-H8=109.6062       H7-C1-H8=109.4881
 Symmetry turned off by external request.
 Stoichiometry    C2H4F2
 Framework group  C2[X(C2H4F2)]
 Deg. of freedom    10
 Full point group                 C2
 Rotational constants (GHZ):     31.7426780      3.8655162      3.5990277

 **********************************************************************

            Population analysis using the SCF density.

 **********************************************************************

 Alpha  occ. eigenvalues --  -26.14271 -26.14257 -11.26409 -11.26370  -1.57573
 Alpha  occ. eigenvalues --   -1.56893  -1.04734  -0.88225  -0.73426  -0.69631
 Alpha  occ. eigenvalues --   -0.69115  -0.66636  -0.62862  -0.60135  -0.55320
 Alpha  occ. eigenvalues --   -0.50739  -0.50237
 Alpha virt. eigenvalues --    0.25810   0.26938   0.30442   0.33009   0.36824
 Alpha virt. eigenvalues --    0.42684   0.43757   0.89622   0.94440   0.95776
 Alpha virt. eigenvalues --    0.98891   1.00619   1.13716   1.22959   1.30613
 Alpha virt. eigenvalues --    1.33239   1.36808   1.78311   2.15838   2.32204
 Alpha virt. eigenvalues --    2.36047   2.38319   2.47186   2.48148   2.48771
 Alpha virt. eigenvalues --    3.92762   4.04875
          Condensed to atoms (all electrons):
              1          2          3          4          5          6
     1  C    5.110050   0.165696  -0.028505  -0.051398  -0.051433   0.195180
     2  C    0.165696   5.110050   0.195180   0.352454   0.352385  -0.028505
     3  F   -0.028505   0.195180   9.283663  -0.025014  -0.024976   0.000041
     4  H   -0.051398   0.352454  -0.025014   0.537263  -0.038818   0.002232
     5  H   -0.051433   0.352385  -0.024976  -0.038818   0.537345   0.002235
     6  F    0.195180  -0.028505   0.000041   0.002232   0.002235   9.283663
     7  H    0.352454  -0.051398   0.002232  -0.005618   0.004246  -0.025014
     8  H    0.352385  -0.051433   0.002235   0.004246  -0.005614  -0.024976
              7          8
     1  C    0.352454   0.352385
     2  C   -0.051398  -0.051433
     3  F    0.002232   0.002235
     4  H   -0.005618   0.004246
     5  H    0.004246  -0.005614
     6  F   -0.025014  -0.024976
     7  H    0.537263  -0.038818
     8  H   -0.038818   0.537345
 Mulliken atomic charges:
              1
     1  C   -0.044429
     2  C   -0.044429
     3  F   -0.404855
     4  H    0.224654
     5  H    0.224630
     6  F   -0.404855
     7  H    0.224654
     8  H    0.224630
 Sum of Mulliken charges=   0.00000
 Atomic charges with hydrogens summed into heavy atoms:
              1
     1  C    0.404855
     2  C    0.404855
     3  F   -0.404855
     4  H    0.000000
     5  H    0.000000
     6  F   -0.404855
     7  H    0.000000
     8  H    0.000000
 Sum of Mulliken charges=   0.00000
 Electronic spatial extent (au):  <R**2>=   385.5608
 Charge=     0.0000 electrons
 Dipole moment (field-independent basis, Debye):
    X=     0.0000    Y=     0.0000    Z=     0.0000  Tot=     0.0000
 Quadrupole moment (field-independent basis, Debye-Ang):
   XX=   -27.9579   YY=   -21.1975   ZZ=   -24.2747
   XY=     0.0000   XZ=    -5.5161   YZ=     0.0000
 Traceless Quadrupole moment (field-independent basis, Debye-Ang):
   XX=    -3.4812   YY=     3.2792   ZZ=     0.2020
   XY=     0.0000   XZ=    -5.5161   YZ=     0.0000
 Octapole moment (field-independent basis, Debye-Ang**2):
  XXX=     0.0000  YYY=     0.0001  ZZZ=   -55.1476  XYY=     0.0000
  XXY=    -0.0013  XXZ=   -21.1717  XZZ=    -8.3543  YZZ=     0.0007
  YYZ=   -16.0523  XYZ=     0.0008
 Hexadecapole moment (field-independent basis, Debye-Ang**3):
 XXXX=  -130.9810 YYYY=   -28.3461 ZZZZ=  -238.4281 XXXY=     0.0000
 XXXZ=   -48.6559 YYYX=     0.0000 YYYZ=     0.0000 ZZZX=   -56.1566
 ZZZY=     0.0016 XXYY=   -24.4950 XXZZ=   -69.4400 YYZZ=   -40.3891
 XXYZ=    -0.0010 YYXZ=   -14.1508 ZZXY=     0.0012
 N-N= 1.253754671994D+02 E-N=-9.053458433995D+02  KE= 2.746917999486D+02
 1\1\GINC-DCOPT186\Scan\RHF\3-21G\C2H4F2\WSCHNEI1\07-Oct-2007\1\\#N HF/
 3-21G opt=z-matrix NOSYMMETRY\\C2H4F2 Coordinate Drag\\0,1\C\C,1,r1\F,
 2,r2,1,A1\H,2,r3,1,A2,3,D1,0\H,2,r4,1,A3,3,D2,0\F,1,r2,2,A1,3,D3,0\H,1
 ,r3,2,A2,6,D1,0\H,1,r4,2,A3,6,D2,0\\r1=1.51453923\r2=1.40476915\r3=1.0
 7737077\r4=1.07740832\A1=107.05265381\A2=110.55283382\A3=110.54273533\
 D1=119.27657221\D2=-119.32506915\D3=180.,s,26,5.\\Version=AM64L-G03Rev
 D.01\HF=-275.4156791,-275.4167109,-275.4175309,-275.4181171,-275.41846
 16,-275.4185713,-275.4184665,-275.4181803,-275.4177557,-275.4172448,-2
 75.4167039,-275.416192,-275.4157639,-275.4154658,-275.41533,-275.41537
 14,-275.4155865,-275.4159551,-275.4164446,-275.4170143,-275.4176203,-2
 75.4182187,-275.4187693,-275.4192364,-275.4195915,-275.4198131,-275.41
 98885\RMSD=1.399e-09,4.246e-09,1.348e-09,1.694e-09,4.498e-09,1.711e-09
 ,1.689e-09,1.446e-09,1.491e-09,8.382e-09,1.510e-09,7.379e-09,2.207e-09
 ,2.301e-09,2.395e-09,2.380e-09,2.194e-09,2.064e-09,1.966e-09,1.982e-09
 ,1.998e-09,2.290e-09,2.347e-09,2.262e-09,2.085e-09,1.907e-09,1.820e-09
 \Thermal=0.,0.,0.,0.,0.,0.,0.,0.,0.,0.,0.,0.,0.,0.,0.,0.,0.,0.,0.,0.,0
 .,0.,0.,0.,0.,0.,0.\PG=C02 [X(C2H4F2)]\\@


 I WANT TO KNOW HOW GOD CREATED THE WORLD.  I AM NOT INTERESTED IN
 THIS OR THAT PHENOMENON, IN THE SPECTRUM OF THIS OR THAT ELEMENT.
 I WANT TO KNOW HIS THOUGHTS, THE REST ARE DETAILS.
     -- ALBERT EINSTEIN
 Job cpu time:  0 days  0 hours  1 minutes 46.3 seconds.
 File lengths (MBytes):  RWF=     13 Int=      0 D2E=      0 Chk=     10 Scr=      1
 Normal termination of Gaussian 03 at Sun Oct  7 21:12:00 2007.
