 Entering Gaussian System, Link 0=g03
 Input=C2H4F2-tsvib.com
 Output=C2H4F2-tsvib.log
 Initial command:
 /opt/und/gaussian/03D01/linux86-64/g03/l1.exe /scratch/Gau-19110.inp -scrdir=/scratch/
 Entering Link 1 = /opt/und/gaussian/03D01/linux86-64/g03/l1.exe PID=     19111.
  
 Copyright (c) 1988,1990,1992,1993,1995,1998,2003,2004, Gaussian, Inc.
                  All Rights Reserved.
  
 This is the Gaussian(R) 03 program.  It is based on the
 the Gaussian(R) 98 system (copyright 1998, Gaussian, Inc.),
 the Gaussian(R) 94 system (copyright 1995, Gaussian, Inc.),
 the Gaussian 92(TM) system (copyright 1992, Gaussian, Inc.),
 the Gaussian 90(TM) system (copyright 1990, Gaussian, Inc.),
 the Gaussian 88(TM) system (copyright 1988, Gaussian, Inc.),
 the Gaussian 86(TM) system (copyright 1986, Carnegie Mellon
 University), and the Gaussian 82(TM) system (copyright 1983,
 Carnegie Mellon University). Gaussian is a federally registered
 trademark of Gaussian, Inc.
  
 This software contains proprietary and confidential information,
 including trade secrets, belonging to Gaussian, Inc.
  
 This software is provided under written license and may be
 used, copied, transmitted, or stored only in accord with that
 written license.
  
 The following legend is applicable only to US Government
 contracts under FAR:
  
                    RESTRICTED RIGHTS LEGEND
  
 Use, reproduction and disclosure by the US Government is
 subject to restrictions as set forth in subparagraphs (a)
 and (c) of the Commercial Computer Software - Restricted
 Rights clause in FAR 52.227-19.
  
 Gaussian, Inc.
 340 Quinnipiac St., Bldg. 40, Wallingford CT 06492
  
  
 ---------------------------------------------------------------
 Warning -- This program may not be used in any manner that
 competes with the business of Gaussian, Inc. or will provide
 assistance to any competitor of Gaussian, Inc.  The licensee
 of this program is prohibited from giving any competitor of
 Gaussian, Inc. access to this program.  By using this program,
 the user acknowledges that Gaussian, Inc. is engaged in the
 business of creating and licensing software in the field of
 computational chemistry and represents and warrants to the
 licensee that it is not a competitor of Gaussian, Inc. and that
 it will not use this program in any manner prohibited above.
 ---------------------------------------------------------------
  

 Cite this work as:
 Gaussian 03, Revision D.01,
 M. J. Frisch, G. W. Trucks, H. B. Schlegel, G. E. Scuseria, 
 M. A. Robb, J. R. Cheeseman, J. A. Montgomery, Jr., T. Vreven, 
 K. N. Kudin, J. C. Burant, J. M. Millam, S. S. Iyengar, J. Tomasi, 
 V. Barone, B. Mennucci, M. Cossi, G. Scalmani, N. Rega, 
 G. A. Petersson, H. Nakatsuji, M. Hada, M. Ehara, K. Toyota, 
 R. Fukuda, J. Hasegawa, M. Ishida, T. Nakajima, Y. Honda, O. Kitao, 
 H. Nakai, M. Klene, X. Li, J. E. Knox, H. P. Hratchian, J. B. Cross, 
 V. Bakken, C. Adamo, J. Jaramillo, R. Gomperts, R. E. Stratmann, 
 O. Yazyev, A. J. Austin, R. Cammi, C. Pomelli, J. W. Ochterski, 
 P. Y. Ayala, K. Morokuma, G. A. Voth, P. Salvador, J. J. Dannenberg, 
 V. G. Zakrzewski, S. Dapprich, A. D. Daniels, M. C. Strain, 
 O. Farkas, D. K. Malick, A. D. Rabuck, K. Raghavachari, 
 J. B. Foresman, J. V. Ortiz, Q. Cui, A. G. Baboul, S. Clifford, 
 J. Cioslowski, B. B. Stefanov, G. Liu, A. Liashenko, P. Piskorz, 
 I. Komaromi, R. L. Martin, D. J. Fox, T. Keith, M. A. Al-Laham, 
 C. Y. Peng, A. Nanayakkara, M. Challacombe, P. M. W. Gill, 
 B. Johnson, W. Chen, M. W. Wong, C. Gonzalez, and J. A. Pople, 
 Gaussian, Inc., Wallingford CT, 2004.
 
 ******************************************
 Gaussian 03:  AM64L-G03RevD.01 13-Oct-2005
                 8-Oct-2007 
 ******************************************
 %chk=C2H4F2-ts.chk
 %mem=6MW
 %nproc=1
 Will use up to    1 processors via shared memory.
 --------------------------------------
 #P HF/3-21G freq guess=read geom=check
 --------------------------------------
 1/10=4,29=2,30=1,38=1/1,3;
 2/40=1/2;
 3/5=5,11=9,16=1,25=1,30=1/1,2,3;
 4/5=1/1;
 5/5=2,38=6/2;
 8/6=4,10=90,11=11/1;
 10/13=10/2;
 11/6=2,8=1,9=11,15=111,16=1/1,2,10;
 10/6=1/2;
 6/7=2,8=2,9=2,10=2,18=1,28=1/1;
 7/8=1,10=1,25=1/1,2,3,16;
 1/10=4,30=1/3;
 99//99;
 Leave Link    1 at Mon Oct  8 14:57:11 2007, MaxMem=    6291456 cpu:       0.8
 (Enter /opt/und/gaussian/03D01/linux86-64/g03/l101.exe)
 -------------------------------------
 C2H4F2 transition state vib. spectrum
 -------------------------------------
 Redundant internal coordinates taken from checkpoint file:
 C2H4F2-ts.chk
 Charge =  0 Multiplicity = 1
 C,0,0.0002652381,-0.0000833117,-0.0001829807
 C,0,-0.000060469,-0.0002713587,1.5270629807
 F,0,1.3256061406,0.0151303663,1.9962088949
 H,0,-0.5049441196,0.8614094932,1.9321334875
 H,0,-0.4868153729,-0.9013911368,1.8618713543
 F,0,-0.6759063519,-1.14044341,-0.4693288949
 H,0,-0.4935304444,0.8679991817,-0.4052534875
 H,0,1.0240353096,-0.0291010885,-0.3349913543
 Recover connectivity data from disk.
                    Isotopes and Nuclear Properties:
 (Nuclear quadrupole moments (NQMom) in fm**2, nuclear magnetic moments (NMagM)
  in nuclear magnetons)

  Atom         1           2           3           4           5           6           7           8
 IAtWgt=          12          12          19           1           1          19           1           1
 AtmWgt=  12.0000000  12.0000000  18.9984033   1.0078250   1.0078250  18.9984033   1.0078250   1.0078250
 NucSpn=           0           0           1           1           1           1           1           1
 AtZEff=  -3.6000000  -3.6000000  -6.7500000  -1.0000000  -1.0000000  -6.7500000  -1.0000000  -1.0000000
 NQMom=    0.0000000   0.0000000  -9.4200000   0.0000000   0.0000000  -9.4200000   0.0000000   0.0000000
 NMagM=    0.0000000   0.0000000   2.6288670   2.7928460   2.7928460   2.6288670   2.7928460   2.7928460
 Leave Link  101 at Mon Oct  8 14:57:12 2007, MaxMem=    6291456 cpu:       0.5
 (Enter /opt/und/gaussian/03D01/linux86-64/g03/l103.exe)

 GradGradGradGradGradGradGradGradGradGradGradGradGradGradGradGradGradGrad
 Berny optimization.
 Initialization pass.
                           ----------------------------
                           !    Initial Parameters    !
                           ! (Angstroms and Degrees)  !
 --------------------------                            --------------------------
 ! Name  Definition              Value          Derivative Info.                !
 --------------------------------------------------------------------------------
 ! R1    R(1,2)                  1.5272         calculate D2E/DX2 analytically  !
 ! R2    R(1,6)                  1.4063         calculate D2E/DX2 analytically  !
 ! R3    R(1,7)                  1.0777         calculate D2E/DX2 analytically  !
 ! R4    R(1,8)                  1.0775         calculate D2E/DX2 analytically  !
 ! R5    R(2,3)                  1.4063         calculate D2E/DX2 analytically  !
 ! R6    R(2,4)                  1.0777         calculate D2E/DX2 analytically  !
 ! R7    R(2,5)                  1.0775         calculate D2E/DX2 analytically  !
 ! A1    A(2,1,6)              109.4751         calculate D2E/DX2 analytically  !
 ! A2    A(2,1,7)              112.0775         calculate D2E/DX2 analytically  !
 ! A3    A(2,1,8)              108.1148         calculate D2E/DX2 analytically  !
 ! A4    A(6,1,7)              107.9065         calculate D2E/DX2 analytically  !
 ! A5    A(6,1,8)              109.3497         calculate D2E/DX2 analytically  !
 ! A6    A(7,1,8)              109.8912         calculate D2E/DX2 analytically  !
 ! A7    A(1,2,3)              109.4751         calculate D2E/DX2 analytically  !
 ! A8    A(1,2,4)              112.0775         calculate D2E/DX2 analytically  !
 ! A9    A(1,2,5)              108.1148         calculate D2E/DX2 analytically  !
 ! A10   A(3,2,4)              107.9065         calculate D2E/DX2 analytically  !
 ! A11   A(3,2,5)              109.3497         calculate D2E/DX2 analytically  !
 ! A12   A(4,2,5)              109.8912         calculate D2E/DX2 analytically  !
 ! D1    D(6,1,2,3)            121.3362         calculate D2E/DX2 analytically  !
 ! D2    D(6,1,2,4)           -118.9704         calculate D2E/DX2 analytically  !
 ! D3    D(6,1,2,5)              2.2941         calculate D2E/DX2 analytically  !
 ! D4    D(7,1,2,3)           -118.9704         calculate D2E/DX2 analytically  !
 ! D5    D(7,1,2,4)              0.7231         calculate D2E/DX2 analytically  !
 ! D6    D(7,1,2,5)            121.9875         calculate D2E/DX2 analytically  !
 ! D7    D(8,1,2,3)              2.2941         calculate D2E/DX2 analytically  !
 ! D8    D(8,1,2,4)            121.9875         calculate D2E/DX2 analytically  !
 ! D9    D(8,1,2,5)           -116.748          calculate D2E/DX2 analytically  !
 --------------------------------------------------------------------------------
 Trust Radius=3.00D-01 FncErr=1.00D-07 GrdErr=1.00D-07
 Number of steps in this run=   2 maximum allowed number of steps=   2.
 GradGradGradGradGradGradGradGradGradGradGradGradGradGradGradGradGradGrad

 Leave Link  103 at Mon Oct  8 14:57:13 2007, MaxMem=    6291456 cpu:       0.1
 (Enter /opt/und/gaussian/03D01/linux86-64/g03/l202.exe)
                          Input orientation:                          
 ---------------------------------------------------------------------
 Center     Atomic     Atomic              Coordinates (Angstroms)
 Number     Number      Type              X           Y           Z
 ---------------------------------------------------------------------
    1          6             0        0.000265   -0.000083   -0.000183
    2          6             0       -0.000060   -0.000271    1.527063
    3          9             0        1.325606    0.015130    1.996209
    4          1             0       -0.504944    0.861409    1.932133
    5          1             0       -0.486815   -0.901391    1.861871
    6          9             0       -0.675906   -1.140443   -0.469329
    7          1             0       -0.493530    0.867999   -0.405253
    8          1             0        1.024035   -0.029101   -0.334991
 ---------------------------------------------------------------------
                    Distance matrix (angstroms):
                    1          2          3          4          5
     1  C    0.000000
     2  C    1.527246   0.000000
     3  F    2.396318   1.406317   0.000000
     4  H    2.175144   1.077721   2.017724   0.000000
     5  H    2.125288   1.077517   2.035419   1.764293   0.000000
     6  F    1.406317   2.396318   3.379390   3.131080   2.351041
     7  H    1.077721   2.175144   3.131080   2.337424   2.875872
     8  H    1.077517   2.125288   2.351041   2.875872   2.805310
                    6          7          8
     6  F    0.000000
     7  H    2.017724   0.000000
     8  H    2.035419   1.764293   0.000000
 Stoichiometry    C2H4F2
 Framework group  C2[X(C2H4F2)]
 Deg. of freedom    10
 Full point group                 C2
 Largest Abelian subgroup         C2      NOp   2
 Largest concise Abelian subgroup C2      NOp   2
                         Standard orientation:                         
 ---------------------------------------------------------------------
 Center     Atomic     Atomic              Coordinates (Angstroms)
 Number     Number      Type              X           Y           Z
 ---------------------------------------------------------------------
    1          6             0       -0.707623   -0.287035    0.316694
    2          6             0        0.707623    0.287035    0.316694
    3          9             0        0.707623    1.534386   -0.332801
    4          1             0        1.085359    0.433456    1.315373
    5          1             0        1.345858   -0.395105   -0.220322
    6          9             0       -0.707623   -1.534386   -0.332801
    7          1             0       -1.085359   -0.433456    1.315373
    8          1             0       -1.345858    0.395105   -0.220322
 ---------------------------------------------------------------------
 Rotational constants (GHZ):     23.9935227      3.9392916      3.9116856
 Leave Link  202 at Mon Oct  8 14:57:13 2007, MaxMem=    6291456 cpu:       0.2
 (Enter /opt/und/gaussian/03D01/linux86-64/g03/l301.exe)
 Standard basis: 3-21G (6D, 7F)
 There are    22 symmetry adapted basis functions of A   symmetry.
 There are    22 symmetry adapted basis functions of B   symmetry.
 Integral buffers will be    131072 words long.
 Raffenetti 1 integral format.
 Two-electron integral symmetry is turned on.
    44 basis functions,    72 primitive gaussians,    44 cartesian basis functions
    17 alpha electrons       17 beta electrons
       nuclear repulsion energy       125.2156520398 Hartrees.
 IExCor=   0 DFT=F Ex=HF Corr=None ExCW=0 ScaHFX=  1.000000
 ScaDFX=  1.000000  1.000000  1.000000  1.000000
 IRadAn=      0 IRanWt=     -1 IRanGd=            0 ICorTp=0
 NAtoms=    8 NActive=    8 NUniq=    4 SFac= 3.00D+00 NAtFMM=   80 NAOKFM=F Big=F
 Leave Link  301 at Mon Oct  8 14:57:14 2007, MaxMem=    6291456 cpu:       0.1
 (Enter /opt/und/gaussian/03D01/linux86-64/g03/linda-exe/l302.exel)
 NPDir=0 NMtPBC=     1 NCelOv=     1 NCel=       1 NClECP=     1 NCelD=      1
         NCelK=      1 NCelE2=     1 NClLst=     1 CellRange=     0.0.
 One-electron integrals computed using PRISM.
 One-electron integral symmetry used in STVInt
 NBasis=    44 RedAO= T  NBF=    22    22
 NBsUse=    44 1.00D-06 NBFU=    22    22
 Leave Link  302 at Mon Oct  8 14:57:15 2007, MaxMem=    6291456 cpu:       0.1
 (Enter /opt/und/gaussian/03D01/linux86-64/g03/l303.exe)
 DipDrv:  MaxL=1.
 Leave Link  303 at Mon Oct  8 14:57:15 2007, MaxMem=    6291456 cpu:       0.0
 (Enter /opt/und/gaussian/03D01/linux86-64/g03/l401.exe)
 Initial guess read from the checkpoint file:
 C2H4F2-ts.chk
 Guess basis will be translated and rotated to current coordinates.
 Initial guess orbital symmetries:
       Occupied  (B) (A) (B) (A) (A) (B) (A) (B) (A) (B) (A) (B)
                 (A) (B) (A) (B) (A)
       Virtual   (B) (A) (A) (B) (B) (A) (B) (A) (B) (A) (B) (A)
                 (B) (A) (A) (B) (B) (A) (B) (B) (A) (A) (B) (B)
                 (A) (A) (B)
 The electronic state of the initial guess is 1-A.
 Leave Link  401 at Mon Oct  8 14:57:15 2007, MaxMem=    6291456 cpu:       0.1
 (Enter /opt/und/gaussian/03D01/linux86-64/g03/linda-exe/l502.exel)
 Closed shell SCF:
 Requested convergence on RMS density matrix=1.00D-08 within 128 cycles.
 Requested convergence on MAX density matrix=1.00D-06.
 Requested convergence on             energy=1.00D-06.
 No special actions if energy rises.
 Using DIIS extrapolation, IDIIS=  1040.
 Integral symmetry usage will be decided dynamically.
 Keep R1 integrals in memory in canonical form, NReq=     1360589.
 IEnd=     24490 IEndB=     24490 NGot=   6291456 MDV=   5795028
 LenX=   5795028
 Symmetry not used in FoFDir.
 MinBra= 0 MaxBra= 1 Meth= 1.
 IRaf=       0 NMat=   1 IRICut=       1 DoRegI=T DoRafI=F ISym2E= 0 JSym2E=0.

 Cycle   1  Pass 1  IDiag  1:
 E= -275.415323572135    
 DIIS: error= 1.78D-09 at cycle   1 NSaved=   1.
 NSaved= 1 IEnMin= 1 EnMin= -275.415323572135     IErMin= 1 ErrMin= 1.78D-09
 ErrMax= 1.78D-09 EMaxC= 1.00D-01 BMatC= 1.83D-16 BMatP= 1.83D-16
 IDIUse=1 WtCom= 1.00D+00 WtEn= 0.00D+00
 Coeff-Com:  0.100D+01
 Coeff:      0.100D+01
 Gap=     0.754 Goal=   None    Shift=    0.000
 RMSDP=4.48D-10 MaxDP=2.33D-09              OVMax= 5.34D-09

 SCF Done:  E(RHF) =  -275.415323572     A.U. after    1 cycles
             Convg  =    0.4482D-09             -V/T =  2.0027
             S**2   =   0.0000
 KE= 2.746805123302D+02 PE=-9.051060343842D+02 EE= 2.297945464420D+02
 Leave Link  502 at Mon Oct  8 14:57:16 2007, MaxMem=    6291456 cpu:       0.2
 (Enter /opt/und/gaussian/03D01/linux86-64/g03/l801.exe)
 Range of M.O.s used for correlation:     1    44
 NBasis=    44 NAE=    17 NBE=    17 NFC=     0 NFV=     0
 NROrb=     44 NOA=    17 NOB=    17 NVA=    27 NVB=    27
 Leave Link  801 at Mon Oct  8 14:57:17 2007, MaxMem=    6291456 cpu:       0.0
 (Enter /opt/und/gaussian/03D01/linux86-64/g03/linda-exe/l1002.exel)
 Minotr:  Closed-shell wavefunction.
          Direct CPHF calculation.
          Solving linear equations simultaneously.
          Differentiating once with respect to electric field.
                with respect to dipole field.
          Electric field/nuclear overlap derivatives assumed to be zero.
          Using symmetry in CPHF.
          Requested convergence is 1.0D-08 RMS, and 1.0D-07 maximum.
          Secondary convergence is 1.0D-12 RMS, and 1.0D-12 maximum.
          NewPWx=F KeepS1=T KeepF1=T KeepIn=T MapXYZ=F.
          MDV=       6291390 using IRadAn=       2.
          Store integrals in memory, NReq=     1291015.
 Symmetry not used in FoFDir.
 MinBra= 0 MaxBra= 1 Meth= 1.
 IRaf=       0 NMat=   1 IRICut=       1 DoRegI=T DoRafI=F ISym2E= 0 JSym2E=0.
          There are   3 degrees of freedom in the 1st order CPHF.
     3 vectors were produced by pass  0.
 AX will form   3 AO Fock derivatives at one time.
     3 vectors were produced by pass  1.
     3 vectors were produced by pass  2.
     3 vectors were produced by pass  3.
     3 vectors were produced by pass  4.
     3 vectors were produced by pass  5.
     3 vectors were produced by pass  6.
     3 vectors were produced by pass  7.
     3 vectors were produced by pass  8.
     1 vectors were produced by pass  9.
 Inv2:  IOpt= 1 Iter= 1 AM= 3.84D-16 Conv= 1.00D-12.
 Inverted reduced A of dimension   28 with in-core refinement.
 End of Minotr Frequency-dependent properties file   721 does not exist.
 Leave Link 1002 at Mon Oct  8 14:57:18 2007, MaxMem=    6291456 cpu:       0.4
 (Enter /opt/und/gaussian/03D01/linux86-64/g03/linda-exe/l1101.exel)
 Using compressed storage, NAtomX=     8.
 Will process   9 centers per pass.
 Leave Link 1101 at Mon Oct  8 14:57:19 2007, MaxMem=    6291456 cpu:       0.2
 (Enter /opt/und/gaussian/03D01/linux86-64/g03/l1102.exe)
 Use density number 0.
 Symmetrizing basis deriv contribution to polar:
 IMax=3 JMax=2 DiffMx= 0.00D+00
 Leave Link 1102 at Mon Oct  8 14:57:19 2007, MaxMem=    6291456 cpu:       0.0
 (Enter /opt/und/gaussian/03D01/linux86-64/g03/linda-exe/l1110.exel)
 Forming Gx(P) for the SCF density, NAtomX=     8.
 Integral derivatives from FoFDir, PRISM(SPDF).
 Do as many integral derivatives as possible in FoFDir.
 G2DrvN: MDV=       6291390.
 G2DrvN: will do    9 centers at a time, making    1 passes doing MaxLOS=1.
 Petite list used in FoFDir.
 MinBra= 0 MaxBra= 1 Meth= 1.
 IRaf=       0 NMat=   1 IRICut=       1 DoRegI=T DoRafI=F ISym2E= 1 JSym2E=1.
 FoFDir/FoFCou used for L=0 through L=1.
 Leave Link 1110 at Mon Oct  8 14:57:20 2007, MaxMem=    6291456 cpu:       0.5
 (Enter /opt/und/gaussian/03D01/linux86-64/g03/linda-exe/l1002.exel)
 Minotr:  Closed-shell wavefunction.
 DoAtom=TTTTTTTT
          Direct CPHF calculation.
          Solving linear equations simultaneously.
          Differentiating once with respect to electric field.
                with respect to dipole field.
          Differentiating once with respect to nuclear coordinates.
          Using symmetry in CPHF.
          Requested convergence is 1.0D-08 RMS, and 1.0D-07 maximum.
          Secondary convergence is 1.0D-12 RMS, and 1.0D-12 maximum.
          NewPWx=T KeepS1=F KeepF1=F KeepIn=T MapXYZ=F.
          MDV=       6291382 using IRadAn=       2.
          Store integrals in memory, NReq=     1291183.
 Symmetry not used in FoFDir.
 MinBra= 0 MaxBra= 1 Meth= 1.
 IRaf=       0 NMat=   1 IRICut=       1 DoRegI=T DoRafI=F ISym2E= 0 JSym2E=0.
          There are  15 degrees of freedom in the 1st order CPHF.
    15 vectors were produced by pass  0.
 AX will form  15 AO Fock derivatives at one time.
    15 vectors were produced by pass  1.
    15 vectors were produced by pass  2.
    15 vectors were produced by pass  3.
    15 vectors were produced by pass  4.
    15 vectors were produced by pass  5.
     8 vectors were produced by pass  6.
     3 vectors were produced by pass  7.
 Inv2:  IOpt= 1 Iter= 1 AM= 1.48D-15 Conv= 1.00D-12.
 Inverted reduced A of dimension  101 with in-core refinement.
 Isotropic polarizability for W=    0.000000       19.40 Bohr**3.
 End of Minotr Frequency-dependent properties file   721 does not exist.
 Leave Link 1002 at Mon Oct  8 14:57:22 2007, MaxMem=    6291456 cpu:       1.2
 (Enter /opt/und/gaussian/03D01/linux86-64/g03/l601.exe)
 Copying SCF densities to generalized density rwf, ISCF=0 IROHF=0.

 **********************************************************************

            Population analysis using the SCF density.

 **********************************************************************

 Orbital symmetries:
       Occupied  (B) (A) (B) (A) (A) (B) (A) (B) (A) (B) (A) (B)
                 (A) (B) (A) (B) (A)
       Virtual   (B) (A) (A) (B) (B) (A) (B) (A) (B) (A) (B) (A)
                 (B) (A) (A) (B) (B) (A) (B) (B) (A) (A) (B) (B)
                 (A) (A) (B)
 The electronic state is 1-A.
 Alpha  occ. eigenvalues --  -26.13728 -26.13722 -11.26439 -11.26398  -1.57094
 Alpha  occ. eigenvalues --   -1.56348  -1.04595  -0.88108  -0.72731  -0.70489
 Alpha  occ. eigenvalues --   -0.68113  -0.65501  -0.63396  -0.59772  -0.54037
 Alpha  occ. eigenvalues --   -0.51402  -0.49948
 Alpha virt. eigenvalues --    0.25501   0.25898   0.30903   0.33865   0.37716
 Alpha virt. eigenvalues --    0.41353   0.43784   0.91685   0.94529   0.95791
 Alpha virt. eigenvalues --    0.99736   1.02960   1.16224   1.22693   1.29028
 Alpha virt. eigenvalues --    1.30063   1.35144   1.78471   2.20554   2.30409
 Alpha virt. eigenvalues --    2.31546   2.42603   2.44435   2.49102   2.49334
 Alpha virt. eigenvalues --    3.96550   4.05189
          Condensed to atoms (all electrons):
              1          2          3          4          5          6
     1  C    5.134888   0.165202  -0.034016  -0.046223  -0.057219   0.205569
     2  C    0.165202   5.134888   0.205569   0.343774   0.342885  -0.034016
     3  F   -0.034016   0.205569   9.280944  -0.027638  -0.023908   0.000062
     4  H   -0.046223   0.343774  -0.027638   0.540522  -0.030950   0.001376
     5  H   -0.057219   0.342885  -0.023908  -0.030950   0.514938   0.003631
     6  F    0.205569  -0.034016   0.000062   0.001376   0.003631   9.280944
     7  H    0.343774  -0.046223   0.001376  -0.000835   0.003407  -0.027638
     8  H    0.342885  -0.057219   0.003631   0.003407   0.002902  -0.023908
              7          8
     1  C    0.343774   0.342885
     2  C   -0.046223  -0.057219
     3  F    0.001376   0.003631
     4  H   -0.000835   0.003407
     5  H    0.003407   0.002902
     6  F   -0.027638  -0.023908
     7  H    0.540522  -0.030950
     8  H   -0.030950   0.514938
 Mulliken atomic charges:
              1
     1  C   -0.054860
     2  C   -0.054860
     3  F   -0.406021
     4  H    0.216567
     5  H    0.244315
     6  F   -0.406021
     7  H    0.216567
     8  H    0.244315
 Sum of Mulliken charges=   0.00000
 Atomic charges with hydrogens summed into heavy atoms:
              1
     1  C    0.406021
     2  C    0.406021
     3  F   -0.406021
     4  H    0.000000
     5  H    0.000000
     6  F   -0.406021
     7  H    0.000000
     8  H    0.000000
 Sum of Mulliken charges=   0.00000
 APT atomic charges:
              1
     1  C    0.509267
     2  C    0.509267
     3  F   -0.467481
     4  H   -0.033375
     5  H   -0.008411
     6  F   -0.467481
     7  H   -0.033375
     8  H   -0.008411
 Sum of APT charges=   0.00000
 APT Atomic charges with hydrogens summed into heavy atoms:
              1
     1  C    0.467481
     2  C    0.467481
     3  F   -0.467481
     4  H    0.000000
     5  H    0.000000
     6  F   -0.467481
     7  H    0.000000
     8  H    0.000000
 Sum of APT charges=   0.00000
 Electronic spatial extent (au):  <R**2>=   310.2796
 Charge=     0.0000 electrons
 Dipole moment (field-independent basis, Debye):
    X=     0.0000    Y=     0.0000    Z=     2.0156  Tot=     2.0156
 Quadrupole moment (field-independent basis, Debye-Ang):
   XX=   -21.4005   YY=   -29.4885   ZZ=   -21.5296
   XY=    -3.1430   XZ=     0.0000   YZ=     0.0000
 Traceless Quadrupole moment (field-independent basis, Debye-Ang):
   XX=     2.7391   YY=    -5.3490   ZZ=     2.6099
   XY=    -3.1430   XZ=     0.0000   YZ=     0.0000
 Octapole moment (field-independent basis, Debye-Ang**2):
  XXX=     0.0000  YYY=     0.0000  ZZZ=    -3.1999  XYY=     0.0000
  XXY=     0.0000  XXZ=    -0.6419  XZZ=     0.0000  YZZ=     0.0000
  YYZ=     1.2142  XYZ=     2.0796
 Hexadecapole moment (field-independent basis, Debye-Ang**3):
 XXXX=   -99.4774 YYYY=  -174.0385 ZZZZ=   -41.0014 XXXY=   -38.6245
 XXXZ=     0.0000 YYYX=   -45.3798 YYYZ=     0.0000 ZZZX=     0.0000
 ZZZY=     0.0000 XXYY=   -45.9183 XXZZ=   -22.6857 YYZZ=   -33.7709
 XXYZ=     0.0000 YYXZ=     0.0000 ZZXY=   -11.9316
 N-N= 1.252156520398D+02 E-N=-9.051060344138D+02  KE= 2.746805123302D+02
 Symmetry A    KE= 1.387672287938D+02
 Symmetry B    KE= 1.359132835365D+02
  Exact polarizability:  19.312   0.288  19.829   0.000   0.000  19.066
 Approx polarizability:  14.494  -0.324  17.022   0.000   0.000  15.731
 No NMR shielding tensors so no spin-rotation constants.
 Leave Link  601 at Mon Oct  8 14:57:23 2007, MaxMem=    6291456 cpu:       0.2
 (Enter /opt/und/gaussian/03D01/linux86-64/g03/linda-exe/l701.exel)
 Compute integral second derivatives.
 ... and contract with generalized density number  0.
 Leave Link  701 at Mon Oct  8 14:57:24 2007, MaxMem=    6291456 cpu:       0.3
 (Enter /opt/und/gaussian/03D01/linux86-64/g03/l702.exe)
 L702 exits ... SP integral derivatives will be done elsewhere.
 Leave Link  702 at Mon Oct  8 14:57:24 2007, MaxMem=    6291456 cpu:       0.0
 (Enter /opt/und/gaussian/03D01/linux86-64/g03/linda-exe/l703.exel)
 Compute integral second derivatives, UseDBF=F.
 Integral derivatives from FoFDir, PRISM(SPD) Scalar Rys(F).
 Petite list used in FoFDir.
 MinBra= 0 MaxBra= 2 Meth= 1.
 IRaf=       0 NMat=   1 IRICut=       1 DoRegI=T DoRafI=F ISym2E= 1 JSym2E=1.
 Leave Link  703 at Mon Oct  8 14:57:26 2007, MaxMem=    6291456 cpu:       1.0
 (Enter /opt/und/gaussian/03D01/linux86-64/g03/l716.exe)
 Dipole        =-5.31394590D-16-5.17538486D-15 7.93006541D-01
 Polarizability= 1.93115127D+01 2.88213825D-01 1.98290596D+01
                 7.07462391D-09 2.32867446D-08 1.90655843D+01
 HyperPolar    = 2.04718251D-07 1.75846930D-06 2.18955799D-07
                 1.62518770D-07 2.55071505D-01 1.63736331D+01
                 3.63006662D+00-7.89640648D-07 1.12711306D-06
                 4.82971046D+01
 Full mass-weighted force constant matrix:
 Low frequencies --- -136.8332   -1.9047   -0.0068   -0.0010    0.0116    1.9786
 Low frequencies ---    2.2434  410.0153  430.5866
 ******    1 imaginary frequencies (negative Signs) ****** 
 Diagonal vibrational polarizability:
        3.8250688       2.5226541      22.5290641
 Diagonal vibrational hyperpolarizability:
       -0.0000046       0.0000000       6.5000352
 Harmonic frequencies (cm**-1), IR intensities (KM/Mole), Raman scattering
 activities (A**4/AMU), depolarization ratios for plane and unpolarized
 incident light, reduced masses (AMU), force constants (mDyne/A),
 and normal coordinates:
                     1                      2                      3
                     A                      B                      A
 Frequencies --  -136.8332               410.0153               430.5866
 Red. masses --     3.0107                 3.1799                 4.8560
 Frc consts  --     0.0332                 0.3150                 0.5305
 IR Inten    --    15.0810                23.3890                 0.2603
 Raman Activ --     0.0120                 0.1301                 1.5773
 Depolar (P) --     0.7046                 0.7500                 0.4911
 Depolar (U) --     0.8267                 0.8571                 0.6587
 Atom AN      X      Y      Z        X      Y      Z        X      Y      Z
   1   6    -0.03   0.06  -0.18     0.21   0.01  -0.12     0.03  -0.19   0.00
   2   6     0.03  -0.06  -0.18     0.21   0.01   0.12    -0.03   0.19   0.00
   3   9     0.02   0.11   0.15    -0.16  -0.03   0.00     0.19   0.22  -0.02
   4   1     0.19  -0.36  -0.19    -0.02   0.23   0.17    -0.31   0.31   0.09
   5   1    -0.11   0.04  -0.46     0.48   0.14   0.28     0.24   0.24   0.25
   6   9    -0.02  -0.11   0.15    -0.16  -0.03   0.00    -0.19  -0.22  -0.02
   7   1    -0.19   0.36  -0.19    -0.02   0.23  -0.17     0.31  -0.31   0.09
   8   1     0.11  -0.04  -0.46     0.48   0.14  -0.28    -0.24  -0.24   0.25
                     4                      5                      6
                     A                      A                      B
 Frequencies --   896.1997              1089.1491              1105.7665
 Red. masses --     1.8206                 3.2241                 4.1501
 Frc consts  --     0.8615                 2.2534                 2.9898
 IR Inten    --     8.5588                 0.4018                90.1535
 Raman Activ --     6.4921                 9.3093                 3.6549
 Depolar (P) --     0.2092                 0.2429                 0.7500
 Depolar (U) --     0.3461                 0.3909                 0.8571
 Atom AN      X      Y      Z        X      Y      Z        X      Y      Z
   1   6    -0.10  -0.03   0.12     0.31  -0.01   0.05     0.02   0.28  -0.02
   2   6     0.10   0.03   0.12    -0.31   0.01   0.05     0.02   0.28   0.02
   3   9     0.01   0.06  -0.06     0.03   0.01  -0.02    -0.01  -0.18   0.07
   4   1     0.57  -0.07  -0.05     0.04  -0.18  -0.06     0.39  -0.02  -0.07
   5   1    -0.26   0.00  -0.26    -0.57  -0.03  -0.20    -0.40   0.09  -0.24
   6   9    -0.01  -0.06  -0.06    -0.03  -0.01  -0.02    -0.01  -0.18  -0.07
   7   1    -0.57   0.07  -0.05    -0.04   0.18  -0.06     0.39  -0.02   0.07
   8   1     0.26   0.00  -0.26     0.57   0.03  -0.20    -0.40   0.09   0.24
                     7                      8                      9
                     A                      B                      B
 Frequencies --  1178.5476              1220.5589              1377.5363
 Red. masses --     3.6645                 1.9810                 1.0613
 Frc consts  --     2.9989                 1.7388                 1.1865
 IR Inten    --    17.2816                17.9790                 1.9755
 Raman Activ --     8.8116                 4.2786                10.0075
 Depolar (P) --     0.6593                 0.7500                 0.7500
 Depolar (U) --     0.7947                 0.8571                 0.8571
 Atom AN      X      Y      Z        X      Y      Z        X      Y      Z
   1   6     0.00   0.27   0.06     0.01  -0.03  -0.18    -0.03   0.01   0.01
   2   6     0.00  -0.27   0.06     0.01  -0.03   0.18    -0.03   0.01  -0.01
   3   9    -0.03   0.16  -0.06    -0.01   0.04  -0.06     0.01  -0.02  -0.01
   4   1    -0.24  -0.05   0.11     0.29  -0.47   0.14    -0.18  -0.23   0.08
   5   1     0.00  -0.47   0.32    -0.28   0.01  -0.23     0.30   0.51  -0.24
   6   9     0.03  -0.16  -0.06    -0.01   0.04   0.06     0.01  -0.02   0.01
   7   1     0.24   0.05   0.11     0.29  -0.47  -0.14    -0.18  -0.23  -0.08
   8   1     0.00   0.47   0.32    -0.28   0.01   0.23     0.30   0.51   0.24
                    10                     11                     12
                     A                      B                      A
 Frequencies --  1386.8312              1535.4914              1565.9102
 Red. masses --     1.0952                 1.2396                 1.2921
 Frc consts  --     1.2411                 1.7219                 1.8667
 IR Inten    --     2.8100                11.5605                 2.5168
 Raman Activ --    12.4135                 3.8221                 2.7077
 Depolar (P) --     0.7457                 0.7500                 0.7304
 Depolar (U) --     0.8544                 0.8571                 0.8442
 Atom AN      X      Y      Z        X      Y      Z        X      Y      Z
   1   6     0.00  -0.02  -0.05    -0.06  -0.05  -0.06     0.06   0.10   0.02
   2   6     0.00   0.02  -0.05    -0.06  -0.05   0.06    -0.06  -0.10   0.02
   3   9     0.00   0.00   0.03     0.01   0.00   0.01     0.01   0.00   0.00
   4   1     0.18   0.47  -0.19     0.42   0.44  -0.20     0.27   0.37  -0.17
   5   1    -0.22  -0.37   0.16     0.12   0.24  -0.10     0.33   0.36  -0.10
   6   9     0.00   0.00   0.03     0.01   0.00  -0.01    -0.01   0.00   0.00
   7   1    -0.18  -0.47  -0.19     0.42   0.44   0.20    -0.27  -0.37  -0.17
   8   1     0.22   0.37   0.16     0.12   0.24   0.10    -0.33  -0.36  -0.10
                    13                     14                     15
                     A                      B                      B
 Frequencies --  1669.1965              1686.1119              3265.2650
 Red. masses --     1.0752                 1.0925                 1.0585
 Frc consts  --     1.7650                 1.8300                 6.6494
 IR Inten    --     0.0613                 4.8847                24.3828
 Raman Activ --    15.0865                11.5986                20.5554
 Depolar (P) --     0.7482                 0.7500                 0.7500
 Depolar (U) --     0.8559                 0.8571                 0.8571
 Atom AN      X      Y      Z        X      Y      Z        X      Y      Z
   1   6    -0.04   0.03   0.02    -0.05   0.03   0.03     0.04  -0.01  -0.03
   2   6     0.04  -0.03   0.02    -0.05   0.03  -0.03     0.04  -0.01   0.03
   3   9     0.00   0.00   0.00     0.00   0.00   0.00     0.00   0.00   0.00
   4   1    -0.37   0.32   0.11     0.34  -0.34  -0.10    -0.20  -0.09  -0.56
   5   1    -0.24   0.08  -0.42     0.28  -0.03   0.42    -0.22   0.23   0.20
   6   9     0.00   0.00   0.00     0.00   0.00   0.00     0.00   0.00   0.00
   7   1     0.37  -0.32   0.11     0.34  -0.34   0.10    -0.20  -0.09   0.56
   8   1     0.24  -0.08  -0.42     0.28  -0.03  -0.42    -0.22   0.23  -0.20
                    16                     17                     18
                     A                      B                      A
 Frequencies --  3272.6812              3316.7497              3328.8445
 Red. masses --     1.0560                 1.1070                 1.1101
 Frc consts  --     6.6637                 7.1748                 7.2474
 IR Inten    --     9.3857                10.9988                38.4286
 Raman Activ --   147.1169                54.8812                45.4082
 Depolar (P) --     0.0588                 0.7500                 0.7493
 Depolar (U) --     0.1110                 0.8571                 0.8567
 Atom AN      X      Y      Z        X      Y      Z        X      Y      Z
   1   6     0.04  -0.02  -0.02     0.02  -0.04   0.05     0.01  -0.03   0.06
   2   6    -0.04   0.02  -0.02     0.02  -0.04  -0.05    -0.01   0.03   0.06
   3   9     0.00   0.00   0.00     0.00   0.00   0.00     0.00   0.00   0.00
   4   1     0.16   0.08   0.46     0.13   0.05   0.34    -0.18  -0.07  -0.46
   5   1     0.29  -0.32  -0.26    -0.36   0.37   0.30     0.30  -0.30  -0.25
   6   9     0.00   0.00   0.00     0.00   0.00   0.00     0.00   0.00   0.00
   7   1    -0.16  -0.08   0.46     0.13   0.05  -0.34     0.18   0.07  -0.46
   8   1    -0.29   0.32  -0.26    -0.36   0.37  -0.30    -0.30   0.30  -0.25

 -------------------
 - Thermochemistry -
 -------------------
 Temperature   298.150 Kelvin.  Pressure   1.00000 Atm.
 Atom  1 has atomic number  6 and mass  12.00000
 Atom  2 has atomic number  6 and mass  12.00000
 Atom  3 has atomic number  9 and mass  18.99840
 Atom  4 has atomic number  1 and mass   1.00783
 Atom  5 has atomic number  1 and mass   1.00783
 Atom  6 has atomic number  9 and mass  18.99840
 Atom  7 has atomic number  1 and mass   1.00783
 Atom  8 has atomic number  1 and mass   1.00783
 Molecular mass:    66.02811 amu.
 Principal axes and moments of inertia in atomic units:
                           1         2         3
     EIGENVALUES --    75.21785 458.13852 461.37175
           X            0.49322   0.86991   0.00000
           Y            0.86991  -0.49322   0.00000
           Z            0.00000   0.00000   1.00000
 This molecule is an asymmetric top.
 Rotational symmetry number  2.
 Rotational temperatures (Kelvin)      1.15151     0.18906     0.18773
 Rotational constants (GHZ):          23.99352     3.93929     3.91169
    1 imaginary frequencies ignored.
 Zero-point vibrational energy     171876.1 (Joules/Mol)
                                   41.07938 (Kcal/Mol)
 Warning -- explicit consideration of   2 degrees of freedom as
           vibrations may cause significant error
 Vibrational temperatures:    589.92   619.52  1289.43  1567.04  1590.95
          (Kelvin)           1695.67  1756.11  1981.97  1995.34  2209.23
                             2252.99  2401.60  2425.94  4697.98  4708.65
                             4772.06  4789.46
 
 Zero-point correction=                           0.065464 (Hartree/Particle)
 Thermal correction to Energy=                    0.069045
 Thermal correction to Enthalpy=                  0.069989
 Thermal correction to Gibbs Free Energy=         0.039778
 Sum of electronic and zero-point Energies=           -275.349859
 Sum of electronic and thermal Energies=              -275.346279
 Sum of electronic and thermal Enthalpies=            -275.345335
 Sum of electronic and thermal Free Energies=         -275.375546
 
                     E (Thermal)             CV                S
                      KCal/Mol        Cal/Mol-Kelvin    Cal/Mol-Kelvin
 Total                   43.326             10.725             63.585
 Electronic               0.000              0.000              0.000
 Translational            0.889              2.981             38.481
 Rotational               0.889              2.981             22.901
 Vibrational             41.549              4.763              2.203
 Vibration  1             0.774              1.448              0.927
 Vibration  2             0.792              1.404              0.857
                       Q            Log10(Q)             Ln(Q)
 Total Bot       0.505355D-18        -18.296403        -42.129026
 Total V=0       0.653061D+12         11.814954         27.204936
 Vib (Bot)       0.106181D-29        -29.973953        -69.017576
 Vib (Bot)  1    0.431497D+00         -0.365023         -0.840496
 Vib (Bot)  2    0.404469D+00         -0.393115         -0.905180
 Vib (V=0)       0.137216D+01          0.137405          0.316386
 Vib (V=0)  1    0.116045D+01          0.064625          0.148805
 Vib (V=0)  2    0.114311D+01          0.058089          0.133756
 Electronic      0.100000D+01          0.000000          0.000000
 Translational   0.210886D+08          7.324048         16.864245
 Rotational      0.225684D+05          4.353501         10.024306
 
                                                C2H4F2 transition state vib. spec
 trum
                                                             IR Spectrum
 
     3333                                                           11   11    11     1 1 11                                         
     3322                                                           66   55    33     2 1 10      8                 44               
     2176                                                           86   63    87     2 7 08      9                 31               
     9735                                                           69   65    78     1 9 69      6                 10               
 
     XXXX                                                           XX   XX    XX     X X XX      X                 XX               
     XXXX                                                                 X           X X X       X                  X               
     X  X                                                                 X           X X X                          X               
     X  X                                                                             X X X                          X               
     X  X                                                                                 X                          X               
     X                                                                                    X                                          
     X                                                                                    X                                          
     X                                                                                    X                                          
     X                                                                                    X                                          
                                                                                          X                                          
                                                                                          X                                          
                                                                                          X                                          
                                                                                          X                                          
                                                                                          X                                          
                                                                                          X                                          
                                                                                          X                                          
                                                                                          X                                          
                                                                                          X                                          
                                                                                          X                                          
                                                                                          X                                          
 
 
                                                C2H4F2 transition state vib. spec
 trum
                                                            Raman Spectrum
 
     3333                                                           11   11    11     1 1 11                                         
     3322                                                           66   55    33     2 1 10      8                 44               
     2176                                                           86   63    87     2 7 08      9                 31               
     9735                                                           69   65    78     1 9 69      6                 10               
 
     XXXX                                                           XX   XX    XX     X X XX      X                 XX               
     XXXX                                                           XX         X                                                     
     XXXX                                                                                                                            
     XXX                                                                                                                             
     XXX                                                                                                                             
     XXX                                                                                                                             
      XX                                                                                                                             
       X                                                                                                                             
       X                                                                                                                             
       X                                                                                                                             
       X                                                                                                                             
       X                                                                                                                             
       X                                                                                                                             
       X                                                                                                                             
       X                                                                                                                             
       X                                                                                                                             
       X                                                                                                                             
       X                                                                                                                             
       X                                                                                                                             
       X                                                                                                                             
 
 ***** Axes restored to original set *****
 -------------------------------------------------------------------
 Center     Atomic                   Forces (Hartrees/Bohr)
 Number     Number              X              Y              Z
 -------------------------------------------------------------------
    1          6           0.000004603    0.000000711    0.000008193
    2          6          -0.000002917   -0.000003631   -0.000008193
    3          9          -0.000001107   -0.000001107   -0.000005932
    4          1          -0.000001930    0.000000729   -0.000003612
    5          1          -0.000000878    0.000000064    0.000000775
    6          9           0.000001512    0.000000405    0.000005932
    7          1           0.000000333    0.000002036    0.000003612
    8          1           0.000000383    0.000000793   -0.000000775
 -------------------------------------------------------------------
 Cartesian Forces:  Max     0.000008193 RMS     0.000003478
 Force constants in Cartesian coordinates: 
                1             2             3             4             5
      1  0.680106D+00
      2 -0.476840D-01  0.621654D+00
      3 -0.772200D-02 -0.386377D-01  0.519512D+00
      4 -0.846964D-01  0.865257D-02  0.115226D-01  0.594971D+00
      5  0.107036D-01 -0.958717D-01  0.989538D-02  0.146818D-02  0.706788D+00
      6  0.143310D-01  0.503120D-02 -0.182628D+00 -0.373222D-01  0.126314D-01
      7 -0.178495D-01  0.810559D-03 -0.625931D-02 -0.282474D+00 -0.345429D-02
      8 -0.152320D-02  0.380800D-02  0.121270D-02 -0.191047D-03 -0.694117D-01
      9 -0.451129D-01  0.194801D-02 -0.164798D-01 -0.740761D-01 -0.317568D-02
     10  0.367175D-02  0.761505D-03 -0.184669D-02 -0.114982D+00  0.992355D-01
     11 -0.260396D-02  0.306718D-02  0.500042D-02  0.106535D+00 -0.260586D+00
     12  0.187404D-01 -0.310070D-01 -0.129057D-01  0.533961D-01 -0.885453D-01
     13  0.235394D-02 -0.482496D-02  0.216501D-02 -0.111051D+00 -0.978208D-01
     14 -0.199490D-03 -0.915471D-03 -0.211424D-02 -0.107406D+00 -0.276823D+00
     15  0.174701D-01  0.358963D-01 -0.180626D-01  0.450096D-01  0.803225D-01
     16 -0.124256D+00 -0.915384D-01 -0.373456D-01 -0.191495D-02 -0.107230D-01
     17 -0.948017D-01 -0.227630D+00 -0.601642D-01 -0.838924D-02 -0.121265D-01
     18 -0.397883D-01 -0.625640D-01 -0.899724D-01 -0.208694D-01 -0.400429D-01
     19 -0.135084D+00  0.118141D+00 -0.510088D-01  0.242052D-02 -0.188156D-02
     20  0.110841D+00 -0.240484D+00  0.893341D-01  0.148391D-02  0.431842D-02
     21 -0.499844D-01  0.905150D-01 -0.107592D+00 -0.174827D-01  0.317332D-01
     22 -0.324246D+00  0.156823D-01  0.904948D-01 -0.227377D-02  0.247232D-02
     23  0.252673D-01 -0.636283D-01 -0.452644D-02 -0.215315D-02  0.371224D-02
     24  0.920661D-01 -0.118177D-02 -0.918709D-01  0.398222D-01 -0.281859D-02
                6             7             8             9            10
      6  0.519512D+00
      7 -0.707765D-01  0.371917D+00
      8 -0.226018D-02  0.313542D-02  0.482187D-01
      9 -0.899724D-01  0.114653D+00  0.379632D-02  0.997203D-01
     10  0.518612D-01 -0.389642D-01  0.316598D-01  0.603920D-02  0.137272D+00
     11 -0.888419D-01 -0.348898D-03  0.866286D-02  0.278201D-02 -0.117729D+00
     12 -0.107592D+00 -0.158498D-01  0.123921D-01  0.654930D-02 -0.485148D-01
     13  0.413274D-01 -0.348151D-01 -0.327656D-01  0.523266D-02  0.126466D-01
     14  0.806340D-01  0.132347D-02  0.922408D-02 -0.227356D-02 -0.127971D-01
     15 -0.918709D-01 -0.147716D-01 -0.134295D-01  0.598574D-02 -0.651887D-02
     16 -0.207943D-02 -0.515841D-03  0.756708D-03 -0.311019D-02 -0.451461D-03
     17 -0.602707D-02 -0.124410D-02 -0.234444D-03 -0.250301D-02  0.431187D-03
     18 -0.164798D-01 -0.372276D-02 -0.144200D-02 -0.709129D-02 -0.213939D-04
     19  0.340714D-02  0.518683D-03 -0.773924D-03 -0.957687D-03  0.876920D-03
     20 -0.409949D-02 -0.128925D-03 -0.253582D-03  0.528217D-03 -0.119870D-02
     21 -0.129057D-01 -0.258150D-02 -0.118328D-03 -0.516037D-02 -0.410365D-03
     22 -0.748478D-03  0.218301D-02 -0.298184D-03 -0.266770D-02 -0.702710D-04
     23  0.293208D-02 -0.932348D-04 -0.139468D-04 -0.110230D-02 -0.362757D-03
     24 -0.180626D-01 -0.691250D-03 -0.151118D-03  0.644858D-02 -0.588205D-03
               11            12            13            14            15
     11  0.271215D+00
     12  0.968406D-01  0.114158D+00
     13  0.152700D-01 -0.607041D-02  0.131338D+00
     14 -0.244895D-01  0.115887D-01  0.118657D+00  0.291336D+00
     15 -0.142857D-01  0.765158D-02 -0.406509D-01 -0.864625D-01  0.972819D-01
     16 -0.213811D-03 -0.139322D-02  0.365802D-03  0.750979D-03 -0.476497D-03
     17  0.716562D-03 -0.217648D-02  0.955928D-03  0.180326D-02 -0.523081D-03
     18 -0.109349D-02 -0.516037D-02 -0.228847D-02 -0.175914D-02  0.644858D-02
     19 -0.146601D-03 -0.940377D-03 -0.684016D-03 -0.407534D-03  0.930264D-04
     20  0.165363D-02  0.690786D-04 -0.841114D-05  0.374457D-03 -0.732909D-03
     21 -0.848930D-03  0.155335D-02  0.104211D-02  0.128343D-03 -0.425450D-02
     22 -0.761880D-03  0.632205D-03 -0.154042D-03  0.787899D-04 -0.154924D-03
     23 -0.239288D-03  0.838327D-03  0.537110D-03 -0.509631D-03 -0.785140D-03
     24  0.447018D-03 -0.425450D-02 -0.757413D-03  0.258402D-03 -0.317978D-02
               16            17            18            19            20
     16  0.131859D+00
     17  0.141733D+00  0.288277D+00
     18  0.606141D-01  0.973941D-01  0.997203D-01
     19  0.103141D-01 -0.287997D-01  0.542889D-02  0.135772D+00
     20  0.320898D-02 -0.406155D-01  0.383909D-02 -0.116863D+00  0.272715D+00
     21  0.280699D-02 -0.199224D-01  0.654930D-02  0.596090D-01 -0.904354D-01
     22 -0.154006D-01 -0.988553D-02  0.647369D-03 -0.141347D-01  0.266509D-02
     23 -0.439746D-01 -0.101905D-01  0.566839D-02  0.307322D-01  0.229180D-02
     24 -0.190161D-01 -0.607782D-02  0.598574D-02 -0.156312D-01  0.149734D-02
               21            22            23            24
     21  0.114158D+00
     22  0.700090D-02  0.354096D+00
     23 -0.110515D-01 -0.995286D-02  0.685776D-01
     24  0.765158D-02 -0.952041D-01  0.802656D-02  0.972819D-01
 Force constants in internal coordinates: 
                1             2             3             4             5
      1  0.292173D+00
      2  0.199267D-01  0.413787D+00
      3  0.365953D-02  0.119121D-01  0.383114D+00
      4  0.307802D-02  0.995350D-02  0.420386D-02  0.385951D+00
      5  0.199267D-01  0.432396D-02  0.153021D-02  0.653335D-03  0.413787D+00
      6  0.365953D-02  0.153021D-02  0.190549D-02 -0.294385D-04  0.119121D-01
      7  0.307802D-02  0.653335D-03 -0.294385D-04  0.227232D-03  0.995350D-02
      8  0.229373D-01  0.234315D-01 -0.405346D-02 -0.398681D-02  0.865579D-02
      9  0.206517D-01 -0.287468D-01  0.279894D-02 -0.968099D-02  0.470847D-02
     10  0.181551D-01 -0.242700D-01 -0.983664D-02  0.542816D-02 -0.507792D-02
     11 -0.224878D-01  0.142691D-01  0.221980D-02  0.205706D-02 -0.543624D-02
     12 -0.192448D-01  0.134750D-01  0.154101D-02  0.714100D-03 -0.207963D-02
     13 -0.208823D-01  0.307474D-02  0.738419D-02  0.555187D-02 -0.782658D-03
     14  0.229373D-01  0.865579D-02  0.486183D-02 -0.105942D-01  0.234315D-01
     15  0.206517D-01  0.470847D-02 -0.251917D-02  0.470411D-02 -0.287468D-01
     16  0.181551D-01 -0.507792D-02  0.104983D-02  0.210054D-02 -0.242700D-01
     17 -0.224878D-01 -0.543624D-02 -0.127223D-02  0.268944D-02  0.142691D-01
     18 -0.192448D-01 -0.207963D-02 -0.195218D-02  0.273612D-02  0.134750D-01
     19 -0.208823D-01 -0.782658D-03 -0.166007D-03 -0.171885D-02  0.307474D-02
     20 -0.287040D-03 -0.580970D-03 -0.233517D-02  0.241572D-02 -0.580970D-03
     21  0.360788D-04  0.139574D-02 -0.228802D-02  0.170782D-02  0.146240D-01
     22 -0.836750D-03 -0.384264D-04 -0.337320D-02  0.393360D-02 -0.159534D-01
     23  0.360788D-04  0.146240D-01 -0.475205D-03 -0.385064D-02  0.139574D-02
     24  0.359198D-03  0.166007D-01 -0.428054D-03 -0.455854D-02  0.166007D-01
     25 -0.513631D-03  0.151666D-01 -0.151323D-02 -0.233276D-02 -0.139767D-01
     26 -0.836750D-03 -0.159534D-01  0.388713D-02  0.648661D-03 -0.384264D-04
     27 -0.513631D-03 -0.139767D-01  0.393428D-02 -0.592379D-04  0.151666D-01
     28 -0.138646D-02 -0.154109D-01  0.284910D-02  0.216655D-02 -0.154109D-01
                6             7             8             9            10
      6  0.383114D+00
      7  0.420386D-02  0.385951D+00
      8  0.486183D-02 -0.105942D-01  0.195024D+00
      9 -0.251917D-02  0.470411D-02 -0.274646D-01  0.139416D+00
     10  0.104983D-02  0.210054D-02 -0.183229D-01 -0.190414D-01  0.124693D+00
     11 -0.127223D-02  0.268944D-02 -0.833057D-01 -0.535910D-01  0.102590D-01
     12 -0.195218D-02  0.273612D-02 -0.745822D-01  0.107323D-01 -0.499705D-01
     13 -0.166007D-03 -0.171885D-02  0.840695D-02 -0.515686D-01 -0.503292D-01
     14 -0.405346D-02 -0.398681D-02  0.165499D-01  0.936857D-02 -0.209236D-01
     15  0.279894D-02 -0.968099D-02  0.936857D-02 -0.103374D-01  0.980122D-02
     16 -0.983664D-02  0.542816D-02 -0.209236D-01  0.980122D-02  0.892467D-02
     17  0.221980D-02  0.205706D-02 -0.102622D-01 -0.116897D-02  0.399457D-02
     18  0.154101D-02  0.714100D-03  0.112097D-02 -0.619328D-02  0.315514D-02
     19  0.738419D-02  0.555187D-02  0.439120D-02 -0.154122D-02 -0.523757D-02
     20 -0.233517D-02  0.241572D-02 -0.126937D-03 -0.469487D-02  0.477754D-02
     21 -0.475205D-03 -0.385064D-02  0.405150D-02 -0.649618D-02  0.205403D-02
     22  0.388713D-02  0.648661D-03  0.134462D-02 -0.832574D-02  0.768425D-02
     23 -0.228802D-02  0.170782D-02  0.827721D-02 -0.125025D-02 -0.676515D-02
     24 -0.428054D-03 -0.455854D-02  0.124556D-01 -0.305156D-02 -0.948866D-02
     25  0.393428D-02 -0.592379D-04  0.974876D-02 -0.488112D-02 -0.385844D-02
     26 -0.337320D-02  0.393360D-02 -0.108304D-01  0.920984D-02  0.232906D-02
     27 -0.151323D-02 -0.233276D-02 -0.665193D-02  0.740853D-02 -0.394456D-03
     28  0.284910D-02  0.216655D-02 -0.935881D-02  0.557897D-02  0.523576D-02
               11            12            13            14            15
     11  0.883551D-01
     12  0.227234D-01  0.785666D-01
     13  0.160731D-01  0.149105D-01  0.642132D-01
     14 -0.102622D-01  0.112097D-02  0.439120D-02  0.195024D+00
     15 -0.116897D-02 -0.619328D-02 -0.154122D-02 -0.274646D-01  0.139416D+00
     16  0.399457D-02  0.315514D-02 -0.523757D-02 -0.183229D-01 -0.190414D-01
     17  0.539471D-02  0.247325D-02 -0.460694D-03 -0.833057D-01 -0.535910D-01
     18  0.247325D-02 -0.121719D-02  0.682022D-03 -0.745822D-01  0.107323D-01
     19 -0.460694D-03  0.682022D-03  0.229278D-02  0.840695D-02 -0.515686D-01
     20 -0.117049D-01  0.123433D-01 -0.795982D-04 -0.126937D-03 -0.469487D-02
     21 -0.125482D-01  0.122401D-01  0.129470D-02  0.827721D-02 -0.125025D-02
     22 -0.111700D-01  0.113204D-01 -0.336464D-03 -0.108304D-01  0.920984D-02
     23  0.916908D-02 -0.217772D-02 -0.722640D-02  0.405150D-02 -0.649618D-02
     24  0.832582D-02 -0.228092D-02 -0.585210D-02  0.124556D-01 -0.305156D-02
     25  0.970400D-02 -0.320064D-02 -0.748327D-02 -0.665193D-02  0.740853D-02
     26  0.244343D-02 -0.104401D-01  0.666544D-02  0.134462D-02 -0.832574D-02
     27  0.160017D-02 -0.105433D-01  0.803974D-02  0.974876D-02 -0.488112D-02
     28  0.297834D-02 -0.114630D-01  0.640857D-02 -0.935881D-02  0.557897D-02
               16            17            18            19            20
     16  0.124693D+00
     17  0.102590D-01  0.883551D-01
     18 -0.499705D-01  0.227234D-01  0.785666D-01
     19 -0.503292D-01  0.160731D-01  0.149105D-01  0.642132D-01
     20  0.477754D-02 -0.117049D-01  0.123433D-01 -0.795982D-04  0.233704D-01
     21 -0.676515D-02  0.916908D-02 -0.217772D-02 -0.722640D-02  0.561276D-02
     22  0.232906D-02  0.244343D-02 -0.104401D-01  0.666544D-02  0.577628D-02
     23  0.205403D-02 -0.125482D-01  0.122401D-01  0.129470D-02  0.561276D-02
     24 -0.948866D-02  0.832582D-02 -0.228092D-02 -0.585210D-02 -0.121449D-01
     25 -0.394456D-03  0.160017D-02 -0.105433D-01  0.803974D-02 -0.119814D-01
     26  0.768425D-02 -0.111700D-01  0.113204D-01 -0.336464D-03  0.577628D-02
     27 -0.385844D-02  0.970400D-02 -0.320064D-02 -0.748327D-02 -0.119814D-01
     28  0.523576D-02  0.297834D-02 -0.114630D-01  0.640857D-02 -0.118178D-01
               21            22            23            24            25
     21  0.218447D-01
     22  0.747839D-02  0.231644D-01
     23 -0.115585D-01 -0.126447D-01  0.218447D-01
     24  0.467342D-02 -0.109426D-01  0.467342D-02  0.214917D-01
     25 -0.969291D-02  0.474339D-02  0.358726D-02  0.587572D-02  0.203120D-01
     26 -0.126447D-01 -0.131292D-01  0.747839D-02 -0.109426D-01 -0.114271D-01
     27  0.358726D-02 -0.114271D-01 -0.969291D-02  0.587572D-02 -0.913859D-02
     28 -0.107791D-01  0.425894D-02 -0.107791D-01 -0.974031D-02  0.529771D-02
               26            27            28
     26  0.231644D-01
     27  0.474339D-02  0.203120D-01
     28  0.425894D-02  0.529771D-02  0.203357D-01
 Leave Link  716 at Mon Oct  8 14:57:26 2007, MaxMem=    6291456 cpu:       0.0
 (Enter /opt/und/gaussian/03D01/linux86-64/g03/l103.exe)

 GradGradGradGradGradGradGradGradGradGradGradGradGradGradGradGradGradGrad
 Berny optimization.
 Internal  Forces:  Max     0.000016959 RMS     0.000004750
 Search for a local minimum.
 Step number   1 out of a maximum of   2
 All quantities printed in internal units (Hartrees-Bohrs-Radians)
 Second derivative matrix not updated -- analytic derivatives used.
     Eigenvalues ---   -0.00237   0.05928   0.06008   0.08027   0.08366
     Eigenvalues ---    0.15347   0.16130   0.16872   0.19459   0.25946
     Eigenvalues ---    0.26260   0.34211   0.38121   0.38145   0.38425
     Eigenvalues ---    0.39077   0.42804   0.445361000.000001000.00000
     Eigenvalues --- 1000.000001000.000001000.000001000.000001000.00000
     Eigenvalues --- 1000.000001000.000001000.00000
 Eigenvalue   1 out of range, new value =    0.002370 Eigenvector:
                           1
           R1           0.00610
           R2          -0.00020
           R3          -0.00047
           R4          -0.00038
           R5          -0.00020
           R6          -0.00047
           R7          -0.00038
           A1          -0.01210
           A2           0.01266
           A3          -0.00598
           A4           0.00014
           A5           0.00533
           A6          -0.00009
           A7          -0.01210
           A8           0.01266
           A9          -0.00598
           A10          0.00014
           A11          0.00533
           A12         -0.00009
           D1           0.33042
           D2           0.33059
           D3           0.33441
           D4           0.33059
           D5           0.33076
           D6           0.33458
           D7           0.33441
           D8           0.33458
           D9           0.33840
 Angle between quadratic step and forces=  72.34 degrees.
 Linear search not attempted -- first point.
 Iteration  1 RMS(Cart)=  0.00004971 RMS(Int)=  0.00000000
 Iteration  2 RMS(Cart)=  0.00000000 RMS(Int)=  0.00000000
 Variable       Old X    -DE/DX   Delta X   Delta X   Delta X     New X
                                 (Linear)    (Quad)   (Total)
    R1        2.88608  -0.00002   0.00000  -0.00005  -0.00005   2.88603
    R2        2.65755   0.00000   0.00000   0.00000   0.00000   2.65755
    R3        2.03660   0.00000   0.00000   0.00000   0.00000   2.03660
    R4        2.03621   0.00000   0.00000   0.00000   0.00000   2.03621
    R5        2.65755   0.00000   0.00000   0.00000   0.00000   2.65755
    R6        2.03660   0.00000   0.00000   0.00000   0.00000   2.03660
    R7        2.03621   0.00000   0.00000   0.00000   0.00000   2.03621
    A1        1.91070  -0.00001   0.00000  -0.00002  -0.00002   1.91068
    A2        1.95612   0.00000   0.00000  -0.00002  -0.00002   1.95610
    A3        1.88696   0.00000   0.00000   0.00002   0.00002   1.88698
    A4        1.88332   0.00001   0.00000   0.00002   0.00002   1.88334
    A5        1.90851   0.00000   0.00000   0.00000   0.00000   1.90852
    A6        1.91796   0.00000   0.00000   0.00000   0.00000   1.91796
    A7        1.91070  -0.00001   0.00000  -0.00002  -0.00002   1.91068
    A8        1.95612   0.00000   0.00000  -0.00002  -0.00002   1.95610
    A9        1.88696   0.00000   0.00000   0.00002   0.00002   1.88698
   A10        1.88332   0.00001   0.00000   0.00002   0.00002   1.88334
   A11        1.90851   0.00000   0.00000   0.00000   0.00000   1.90852
   A12        1.91796   0.00000   0.00000   0.00000   0.00000   1.91796
    D1        2.11772   0.00000   0.00000  -0.00008  -0.00008   2.11764
    D2       -2.07642   0.00000   0.00000  -0.00008  -0.00008  -2.07651
    D3        0.04004   0.00000   0.00000  -0.00008  -0.00008   0.03995
    D4       -2.07642   0.00000   0.00000  -0.00008  -0.00008  -2.07651
    D5        0.01262   0.00000   0.00000  -0.00009  -0.00009   0.01253
    D6        2.12908   0.00000   0.00000  -0.00009  -0.00009   2.12899
    D7        0.04004   0.00000   0.00000  -0.00008  -0.00008   0.03995
    D8        2.12908   0.00000   0.00000  -0.00009  -0.00009   2.12899
    D9       -2.03764   0.00000   0.00000  -0.00009  -0.00009  -2.03773
         Item               Value     Threshold  Converged?
 Maximum Force            0.000017     0.000450     YES
 RMS     Force            0.000005     0.000300     YES
 Maximum Displacement     0.000110     0.001800     YES
 RMS     Displacement     0.000050     0.001200     YES
 Predicted change in Energy=-1.180132D-09
 Optimization completed.
    -- Stationary point found.
                           ----------------------------
                           !   Optimized Parameters   !
                           ! (Angstroms and Degrees)  !
 --------------------------                            --------------------------
 ! Name  Definition              Value          Derivative Info.                !
 --------------------------------------------------------------------------------
 ! R1    R(1,2)                  1.5272         -DE/DX =    0.0                 !
 ! R2    R(1,6)                  1.4063         -DE/DX =    0.0                 !
 ! R3    R(1,7)                  1.0777         -DE/DX =    0.0                 !
 ! R4    R(1,8)                  1.0775         -DE/DX =    0.0                 !
 ! R5    R(2,3)                  1.4063         -DE/DX =    0.0                 !
 ! R6    R(2,4)                  1.0777         -DE/DX =    0.0                 !
 ! R7    R(2,5)                  1.0775         -DE/DX =    0.0                 !
 ! A1    A(2,1,6)              109.4751         -DE/DX =    0.0                 !
 ! A2    A(2,1,7)              112.0775         -DE/DX =    0.0                 !
 ! A3    A(2,1,8)              108.1148         -DE/DX =    0.0                 !
 ! A4    A(6,1,7)              107.9065         -DE/DX =    0.0                 !
 ! A5    A(6,1,8)              109.3497         -DE/DX =    0.0                 !
 ! A6    A(7,1,8)              109.8912         -DE/DX =    0.0                 !
 ! A7    A(1,2,3)              109.4751         -DE/DX =    0.0                 !
 ! A8    A(1,2,4)              112.0775         -DE/DX =    0.0                 !
 ! A9    A(1,2,5)              108.1148         -DE/DX =    0.0                 !
 ! A10   A(3,2,4)              107.9065         -DE/DX =    0.0                 !
 ! A11   A(3,2,5)              109.3497         -DE/DX =    0.0                 !
 ! A12   A(4,2,5)              109.8912         -DE/DX =    0.0                 !
 ! D1    D(6,1,2,3)            121.3362         -DE/DX =    0.0                 !
 ! D2    D(6,1,2,4)           -118.9704         -DE/DX =    0.0                 !
 ! D3    D(6,1,2,5)              2.2941         -DE/DX =    0.0                 !
 ! D4    D(7,1,2,3)           -118.9704         -DE/DX =    0.0                 !
 ! D5    D(7,1,2,4)              0.7231         -DE/DX =    0.0                 !
 ! D6    D(7,1,2,5)            121.9875         -DE/DX =    0.0                 !
 ! D7    D(8,1,2,3)              2.2941         -DE/DX =    0.0                 !
 ! D8    D(8,1,2,4)            121.9875         -DE/DX =    0.0                 !
 ! D9    D(8,1,2,5)           -116.748          -DE/DX =    0.0                 !
 --------------------------------------------------------------------------------
 GradGradGradGradGradGradGradGradGradGradGradGradGradGradGradGradGradGrad

 Leave Link  103 at Mon Oct  8 14:57:27 2007, MaxMem=    6291456 cpu:       0.1
 (Enter /opt/und/gaussian/03D01/linux86-64/g03/l9999.exe)
 1\1\GINC-DCOPT190\Freq\RHF\3-21G\C2H4F2\WSCHNEI1\08-Oct-2007\0\\#P HF/
 3-21G freq guess=read geom=check\\C2H4F2 transition state vib. spectru
 m\\0,1\C,0.0002652381,-0.0000833117,-0.0001829807\C,-0.000060469,-0.00
 02713587,1.5270629807\F,1.3256061406,0.0151303663,1.9962088949\H,-0.50
 49441196,0.8614094932,1.9321334875\H,-0.4868153729,-0.9013911368,1.861
 8713543\F,-0.6759063519,-1.14044341,-0.4693288949\H,-0.4935304444,0.86
 79991817,-0.4052534875\H,1.0240353096,-0.0291010885,-0.3349913543\\Ver
 sion=AM64L-G03RevD.01\State=1-A\HF=-275.4153236\RMSD=4.482e-10\RMSF=3.
 478e-06\ZeroPoint=0.0654642\Thermal=0.0690447\Dipole=-0.3965033,0.6867
 638,0.\DipoleDeriv=0.4588561,0.1133351,0.1457055,0.1240765,0.6488248,0
 .0977612,0.0945344,0.1092399,0.4201196,0.7041349,-0.0175352,0.1575164,
 -0.0282767,0.4035461,0.0773041,0.1418718,0.0272493,0.4201196,-0.661205
 5,-0.0003828,-0.1881605,-0.0050203,-0.3056644,-0.0117885,-0.1272688,-0
 .0045434,-0.4355741,-0.0211222,0.0543137,0.0074088,0.0689008,-0.072070
 4,-0.0862261,-0.0042107,-0.0479257,-0.0069323,-0.0023802,-0.0454851,0.
 0030142,-0.0489468,-0.0452381,0.0557345,-0.0112221,0.0266572,0.0223868
 ,-0.3968893,-0.1576233,-0.1042894,-0.1529858,-0.5699806,-0.1570575,-0.
 0675691,-0.1079463,-0.4355741,-0.0059799,0.0601584,-0.0709696,0.045571
 3,-0.0872128,0.0495292,-0.0436102,0.0203162,-0.0069323,-0.0754139,-0.0
 067808,0.0497746,-0.0033191,0.0277956,-0.0252569,0.0174747,-0.0230472,
 0.0223868\Polar=19.4326184,0.2119072,19.187929,0.3351822,0.1935175,19.
 5856092\PolarDeriv=-3.1256986,0.1080604,2.1151663,2.3530939,-0.1619313
 ,-1.0181789,-0.6080262,1.8929363,-1.0060621,-0.0846084,3.0741152,-0.56
 48247,1.0450702,-0.0424339,0.816345,0.2685996,-0.1537007,-4.9036506,-1
 .0838708,0.1387364,2.9869783,-2.7871043,0.3351843,0.9982415,-0.4117635
 ,2.4779444,0.4798657,0.4125073,-2.6401045,0.5993567,-0.8367777,-0.0778
 235,-1.0246364,-0.0011907,-0.309466,4.9036506,6.4174271,0.1336145,-0.9
 333717,2.9543709,0.0891658,0.7688497,0.0260422,1.8462591,-0.0249778,-0
 .0318898,1.1196709,-0.0352204,1.182479,0.1416129,-0.3131277,2.9467677,
 0.1640479,1.8769098,-2.6548258,2.3551856,-1.2715883,1.5934109,-0.52581
 63,-0.4908097,0.9000579,-2.0567412,4.9044195,-0.3950361,2.2817811,1.40
 38065,0.391235,-0.0945318,1.2143083,-1.4047084,2.4020895,2.4649331,-2.
 4471594,-2.4049378,-1.2776683,1.4529212,0.3655861,-0.5317859,-0.787832
 4,-1.9038525,-5.2382771,0.2785385,2.1472711,-1.5381081,0.4768919,0.118
 3455,1.2361303,-1.2869271,-2.1100594,1.4741514,-1.8841295,-2.4434846,-
 0.8588196,-1.6031474,-0.7482394,-0.353923,-0.0900398,-2.3417953,-4.658
 7594,-0.8692951,-2.4708947,-0.6834539,-0.1834144,-0.7184231,-0.6859371
 ,-1.6154535,-2.4699514,-1.8769096,-2.0489526,2.1029138,-1.014665,-1.71
 09477,0.4628959,-0.9703272,0.6953879,-1.8822666,5.6072253,0.5936763,-2
 .1642445,1.1269573,-0.9266731,0.4036673,-0.6788705,-1.3779163,2.417557
 7,-2.464933,6.8272098,0.0099124,0.2539676,-2.2525976,0.183155,1.597933
 6,0.2761734,1.9675143,-0.063433,0.0961074,-1.3475947,-0.3085136,-1.148
 8114,0.2695869,-0.5642113,2.4708291,0.059482,-1.4741517\HyperPolar=3.2
 55021,8.6683526,-23.2737237,26.0050614,-11.1867328,6.4586625,11.186731
 6,-6.0724161,10.5177353,0.000002\PG=C02 [X(C2H4F2)]\NImag=1\\0.6801055
 9,-0.04768405,0.62165418,-0.00772200,-0.03863770,0.51951181,-0.0846963
 9,0.00865257,0.01152263,0.59497143,0.01070363,-0.09587170,0.00989538,0
 .00146818,0.70678833,0.01433096,0.00503120,-0.18262829,-0.03732223,0.0
 1263140,0.51951181,-0.01784947,0.00081056,-0.00625931,-0.28247404,-0.0
 0345429,-0.07077653,0.37191698,-0.00152320,0.00380800,0.00121270,-0.00
 019105,-0.06941165,-0.00226018,0.00313542,0.04821869,-0.04511293,0.001
 94801,-0.01647982,-0.07407613,-0.00317568,-0.08997244,0.11465277,0.003
 79632,0.09972029,0.00367175,0.00076150,-0.00184669,-0.11498179,0.09923
 552,0.05186119,-0.03896418,0.03165983,0.00603920,0.13727239,-0.0026039
 6,0.00306718,0.00500042,0.10653460,-0.26058605,-0.08884192,-0.00034890
 ,0.00866286,0.00278201,-0.11772946,0.27121463,0.01874039,-0.03100705,-
 0.01290566,0.05339606,-0.08854527,-0.10759203,-0.01584980,0.01239212,0
 .00654930,-0.04851485,0.09684058,0.11415834,0.00235394,-0.00482496,0.0
 0216501,-0.11105101,-0.09782079,0.04132737,-0.03481512,-0.03276561,0.0
 0523266,0.01264664,0.01527002,-0.00607041,0.13133781,-0.00019949,-0.00
 091547,-0.00211424,-0.10740581,-0.27682309,0.08063399,0.00132347,0.009
 22408,-0.00227356,-0.01279712,-0.02448952,0.01158869,0.11865671,0.2913
 3592,0.01747011,0.03589630,-0.01806263,0.04500962,0.08032250,-0.091870
 94,-0.01477160,-0.01342951,0.00598574,-0.00651887,-0.01428570,0.007651
 58,-0.04065086,-0.08646247,0.09728193,-0.12425573,-0.09153843,-0.03734
 564,-0.00191495,-0.01072300,-0.00207943,-0.00051584,0.00075671,-0.0031
 1019,-0.00045146,-0.00021381,-0.00139322,0.00036580,0.00075098,-0.0004
 7650,0.13185862,-0.09480167,-0.22762997,-0.06016419,-0.00838924,-0.012
 12652,-0.00602707,-0.00124410,-0.00023444,-0.00250301,0.00043119,0.000
 71656,-0.00217648,0.00095593,0.00180326,-0.00052308,0.14173318,0.28827
 706,-0.03978829,-0.06256397,-0.08997244,-0.02086944,-0.04004294,-0.016
 47982,-0.00372276,-0.00144200,-0.00709129,-0.00002139,-0.00109349,-0.0
 0516037,-0.00228847,-0.00175914,0.00644858,0.06061409,0.09739405,0.099
 72029,-0.13508391,0.11814057,-0.05100877,0.00242052,-0.00188156,0.0034
 0714,0.00051868,-0.00077392,-0.00095769,0.00087692,-0.00014660,-0.0009
 4038,-0.00068402,-0.00040753,0.00009303,0.01031413,-0.02879975,0.00542
 889,0.13577237,0.11084148,-0.24048393,0.08933406,0.00148391,0.00431842
 ,-0.00409949,-0.00012893,-0.00025358,0.00052822,-0.00119870,0.00165363
 ,0.00006908,-0.00000841,0.00037446,-0.00073291,0.00320898,-0.04061545,
 0.00383909,-0.11686343,0.27271466,-0.04998442,0.09051498,-0.10759203,-
 0.01748270,0.03173318,-0.01290566,-0.00258150,-0.00011833,-0.00516037,
 -0.00041036,-0.00084893,0.00155335,0.00104211,0.00012834,-0.00425450,0
 .00280699,-0.01992239,0.00654930,0.05960898,-0.09043538,0.11415834,-0.
 32424579,0.01568225,0.09049477,-0.00227377,0.00247232,-0.00074848,0.00
 218301,-0.00029818,-0.00266770,-0.00007027,-0.00076188,0.00063221,-0.0
 0015404,0.00007879,-0.00015492,-0.01540057,-0.00988553,0.00064737,-0.0
 1413468,0.00266509,0.00700090,0.35409612,0.02526727,-0.06362831,-0.004
 52644,-0.00215315,0.00371224,0.00293208,-0.00009323,-0.00001395,-0.001
 10230,-0.00036276,-0.00023929,0.00083833,0.00053711,-0.00050963,-0.000
 78514,-0.04397461,-0.01019048,0.00566839,0.03073222,0.00229180,-0.0110
 5147,-0.00995286,0.06857761,0.09206614,-0.00118177,-0.09187094,0.03982
 217,-0.00281859,-0.01806263,-0.00069125,-0.00015112,0.00644858,-0.0005
 8820,0.00044702,-0.00425450,-0.00075741,0.00025840,-0.00317978,-0.0190
 1610,-0.00607782,0.00598574,-0.01563121,0.00149734,0.00765158,-0.09520
 413,0.00802656,0.09728193\\-0.00000460,-0.00000071,-0.00000819,0.00000
 292,0.00000363,0.00000819,0.00000111,0.00000111,0.00000593,0.00000193,
 -0.00000073,0.00000361,0.00000088,-0.00000006,-0.00000078,-0.00000151,
 -0.00000041,-0.00000593,-0.00000033,-0.00000204,-0.00000361,-0.0000003
 8,-0.00000079,0.00000078\\\@


 IF YOU GIVE EVERYONE A PIECE OF YOUR MIND,
 PRETTY SOON IT WILL BE ALL GONE.
 Job cpu time:  0 days  0 hours  0 minutes  4.4 seconds.
 File lengths (MBytes):  RWF=     13 Int=      0 D2E=      0 Chk=     10 Scr=      1
 Normal termination of Gaussian 03 at Mon Oct  8 14:57:27 2007.
