 Entering Gaussian System, Link 0=g03
 Input=C2H4F2-gdiiscart.com
 Output=C2H4F2-gdiiscart.log
 Initial command:
 /opt/und/gaussian/03D01/linux86-64/g03/l1.exe /scratch/Gau-13819.inp -scrdir=/scratch/
 Entering Link 1 = /opt/und/gaussian/03D01/linux86-64/g03/l1.exe PID=     13820.
  
 Copyright (c) 1988,1990,1992,1993,1995,1998,2003,2004, Gaussian, Inc.
                  All Rights Reserved.
  
 This is the Gaussian(R) 03 program.  It is based on the
 the Gaussian(R) 98 system (copyright 1998, Gaussian, Inc.),
 the Gaussian(R) 94 system (copyright 1995, Gaussian, Inc.),
 the Gaussian 92(TM) system (copyright 1992, Gaussian, Inc.),
 the Gaussian 90(TM) system (copyright 1990, Gaussian, Inc.),
 the Gaussian 88(TM) system (copyright 1988, Gaussian, Inc.),
 the Gaussian 86(TM) system (copyright 1986, Carnegie Mellon
 University), and the Gaussian 82(TM) system (copyright 1983,
 Carnegie Mellon University). Gaussian is a federally registered
 trademark of Gaussian, Inc.
  
 This software contains proprietary and confidential information,
 including trade secrets, belonging to Gaussian, Inc.
  
 This software is provided under written license and may be
 used, copied, transmitted, or stored only in accord with that
 written license.
  
 The following legend is applicable only to US Government
 contracts under FAR:
  
                    RESTRICTED RIGHTS LEGEND
  
 Use, reproduction and disclosure by the US Government is
 subject to restrictions as set forth in subparagraphs (a)
 and (c) of the Commercial Computer Software - Restricted
 Rights clause in FAR 52.227-19.
  
 Gaussian, Inc.
 340 Quinnipiac St., Bldg. 40, Wallingford CT 06492
  
  
 ---------------------------------------------------------------
 Warning -- This program may not be used in any manner that
 competes with the business of Gaussian, Inc. or will provide
 assistance to any competitor of Gaussian, Inc.  The licensee
 of this program is prohibited from giving any competitor of
 Gaussian, Inc. access to this program.  By using this program,
 the user acknowledges that Gaussian, Inc. is engaged in the
 business of creating and licensing software in the field of
 computational chemistry and represents and warrants to the
 licensee that it is not a competitor of Gaussian, Inc. and that
 it will not use this program in any manner prohibited above.
 ---------------------------------------------------------------
  

 Cite this work as:
 Gaussian 03, Revision D.01,
 M. J. Frisch, G. W. Trucks, H. B. Schlegel, G. E. Scuseria, 
 M. A. Robb, J. R. Cheeseman, J. A. Montgomery, Jr., T. Vreven, 
 K. N. Kudin, J. C. Burant, J. M. Millam, S. S. Iyengar, J. Tomasi, 
 V. Barone, B. Mennucci, M. Cossi, G. Scalmani, N. Rega, 
 G. A. Petersson, H. Nakatsuji, M. Hada, M. Ehara, K. Toyota, 
 R. Fukuda, J. Hasegawa, M. Ishida, T. Nakajima, Y. Honda, O. Kitao, 
 H. Nakai, M. Klene, X. Li, J. E. Knox, H. P. Hratchian, J. B. Cross, 
 V. Bakken, C. Adamo, J. Jaramillo, R. Gomperts, R. E. Stratmann, 
 O. Yazyev, A. J. Austin, R. Cammi, C. Pomelli, J. W. Ochterski, 
 P. Y. Ayala, K. Morokuma, G. A. Voth, P. Salvador, J. J. Dannenberg, 
 V. G. Zakrzewski, S. Dapprich, A. D. Daniels, M. C. Strain, 
 O. Farkas, D. K. Malick, A. D. Rabuck, K. Raghavachari, 
 J. B. Foresman, J. V. Ortiz, Q. Cui, A. G. Baboul, S. Clifford, 
 J. Cioslowski, B. B. Stefanov, G. Liu, A. Liashenko, P. Piskorz, 
 I. Komaromi, R. L. Martin, D. J. Fox, T. Keith, M. A. Al-Laham, 
 C. Y. Peng, A. Nanayakkara, M. Challacombe, P. M. W. Gill, 
 B. Johnson, W. Chen, M. W. Wong, C. Gonzalez, and J. A. Pople, 
 Gaussian, Inc., Wallingford CT, 2004.
 
 ******************************************
 Gaussian 03:  AM64L-G03RevD.01 13-Oct-2005
                 3-Oct-2007 
 ******************************************
 %chk=C2H4F2-gdiis.chk
 %mem=6MW
 %nproc=1
 Will use up to    1 processors via shared memory.
 ---------------------------------
 #P HF/3-21G opt=(cartesian,gdiis)
 ---------------------------------
 1/18=20,19=11,38=1/1,3;
 2/9=110,17=6,18=5,40=1/2;
 3/5=5,11=9,16=1,25=1,30=1/1,2,3;
 4//1;
 5/5=2,38=5/2;
 6/7=2,8=2,9=2,10=2,28=1/1;
 7//1,2,3,16;
 1/18=20,19=11/3(3);
 2/9=110/2;
 6/7=2,8=2,9=2,10=2,19=2,28=1/1;
 99//99;
 2/9=110/2;
 3/5=5,11=9,16=1,25=1,30=1/1,2,3;
 4/5=5,16=3/1;
 5/5=2,38=5/2;
 7//1,2,3,16;
 1/18=20,19=11/3(-5);
 2/9=110/2;
 6/7=2,8=2,9=2,10=2,19=2,28=1/1;
 99/9=1/99;
 Leave Link    1 at Wed Oct  3 23:23:29 2007, MaxMem=    6291456 cpu:       0.5
 (Enter /opt/und/gaussian/03D01/linux86-64/g03/l101.exe)
 -----------
 C2H4F2 Scan
 -----------
 Symbolic Z-matrix:
 Charge =  0 Multiplicity = 1
 C
 C                    1    r1
 F                    2    r2       1    A1
 H                    2    r3       1    A2       3    D1       0
 H                    2    r3       1    A2       3    D2       0
 F                    1    r2       2    A1       3    D3       0
 H                    1    r3       2    A2       6    D1       0
 H                    1    r3       2    A2       6    D2       0
       Variables:
  r1                    1.5386                   
  r2                    1.39462                  
  r3                    1.11456                  
  D1                  120.47127                  
  D2                 -120.48305                  
  A1                  109.54214                  
  D3                   60.                       
  A2                  110.09239                  
 
                    Isotopes and Nuclear Properties:
 (Nuclear quadrupole moments (NQMom) in fm**2, nuclear magnetic moments (NMagM)
  in nuclear magnetons)

  Atom         1           2           3           4           5           6           7           8
 IAtWgt=          12          12          19           1           1          19           1           1
 AtmWgt=  12.0000000  12.0000000  18.9984033   1.0078250   1.0078250  18.9984033   1.0078250   1.0078250
 NucSpn=           0           0           1           1           1           1           1           1
 AtZEff=   0.0000000   0.0000000   0.0000000   0.0000000   0.0000000   0.0000000   0.0000000   0.0000000
 NQMom=    0.0000000   0.0000000  -9.4200000   0.0000000   0.0000000  -9.4200000   0.0000000   0.0000000
 NMagM=    0.0000000   0.0000000   2.6288670   2.7928460   2.7928460   2.6288670   2.7928460   2.7928460
 Leave Link  101 at Wed Oct  3 23:23:29 2007, MaxMem=    6291456 cpu:       0.3
 (Enter /opt/und/gaussian/03D01/linux86-64/g03/l103.exe)

 GradGradGradGradGradGradGradGradGradGradGradGradGradGradGradGradGradGrad
 Berny optimization.
 Initialization pass.
                           ----------------------------
                           !    Initial Parameters    !
                           ! (Angstroms and Degrees)  !
 --------------------------                            --------------------------
 ! Name  Definition              Value          Derivative Info.                !
 --------------------------------------------------------------------------------
 ! R1    R(1,2)                  1.5386         estimate D2E/DX2                !
 ! R2    R(1,6)                  1.3946         estimate D2E/DX2                !
 ! R3    R(1,7)                  1.1146         estimate D2E/DX2                !
 ! R4    R(1,8)                  1.1146         estimate D2E/DX2                !
 ! R5    R(2,3)                  1.3946         estimate D2E/DX2                !
 ! R6    R(2,4)                  1.1146         estimate D2E/DX2                !
 ! R7    R(2,5)                  1.1146         estimate D2E/DX2                !
 ! A1    A(2,1,6)              109.5421         estimate D2E/DX2                !
 ! A2    A(2,1,7)              110.0924         estimate D2E/DX2                !
 ! A3    A(2,1,8)              110.0924         estimate D2E/DX2                !
 ! A4    A(6,1,7)              109.5055         estimate D2E/DX2                !
 ! A5    A(6,1,8)              109.515          estimate D2E/DX2                !
 ! A6    A(7,1,8)              108.0709         estimate D2E/DX2                !
 ! A7    A(1,2,3)              109.5421         estimate D2E/DX2                !
 ! A8    A(1,2,4)              110.0924         estimate D2E/DX2                !
 ! A9    A(1,2,5)              110.0924         estimate D2E/DX2                !
 ! A10   A(3,2,4)              109.5055         estimate D2E/DX2                !
 ! A11   A(3,2,5)              109.515          estimate D2E/DX2                !
 ! A12   A(4,2,5)              108.0709         estimate D2E/DX2                !
 ! D1    D(6,1,2,3)             60.0            estimate D2E/DX2                !
 ! D2    D(6,1,2,4)           -179.5287         estimate D2E/DX2                !
 ! D3    D(6,1,2,5)            -60.4831         estimate D2E/DX2                !
 ! D4    D(7,1,2,3)           -179.5287         estimate D2E/DX2                !
 ! D5    D(7,1,2,4)            -59.0575         estimate D2E/DX2                !
 ! D6    D(7,1,2,5)             59.9882         estimate D2E/DX2                !
 ! D7    D(8,1,2,3)            -60.4831         estimate D2E/DX2                !
 ! D8    D(8,1,2,4)             59.9882         estimate D2E/DX2                !
 ! D9    D(8,1,2,5)            179.0339         estimate D2E/DX2                !
 --------------------------------------------------------------------------------
 Trust Radius=3.00D-01 FncErr=1.00D-07 GrdErr=1.00D-07
 Number of steps in this run=  38 maximum allowed number of steps= 100.
 GradGradGradGradGradGradGradGradGradGradGradGradGradGradGradGradGradGrad

 Leave Link  103 at Wed Oct  3 23:23:29 2007, MaxMem=    6291456 cpu:       0.0
 (Enter /opt/und/gaussian/03D01/linux86-64/g03/l202.exe)
                          Input orientation:                          
 ---------------------------------------------------------------------
 Center     Atomic     Atomic              Coordinates (Angstroms)
 Number     Number      Type              X           Y           Z
 ---------------------------------------------------------------------
    1          6             0        0.000000    0.000000    0.000000
    2          6             0        0.000000    0.000000    1.538600
    3          9             0        1.314284    0.000000    2.005100
    4          1             0       -0.530802    0.902157    1.921490
    5          1             0       -0.530988   -0.902048    1.921490
    6          9             0        0.657142   -1.138203   -0.466500
    7          1             0       -1.046692    0.008609   -0.382890
    8          1             0        0.515703    0.910873   -0.382890
 ---------------------------------------------------------------------
                    Distance matrix (angstroms):
                    1          2          3          4          5
     1  C    0.000000
     2  C    1.538600   0.000000
     3  F    2.397451   1.394620   0.000000
     4  H    2.188096   1.114560   2.055534   0.000000
     5  H    2.188096   1.114560   2.055653   1.804206   0.000000
     6  F    1.394620   2.397451   2.799313   3.358092   2.677671
     7  H    1.114560   2.188096   3.358092   2.524825   2.530893
     8  H    1.114560   2.188096   2.677671   2.530893   3.113264
                    6          7          8
     6  F    0.000000
     7  H    2.055534   0.000000
     8  H    2.055653   1.804206   0.000000
 Stoichiometry    C2H4F2
 Framework group  C2[X(C2H4F2)]
 Deg. of freedom    10
 Full point group                 C2
 Largest Abelian subgroup         C2      NOp   2
 Largest concise Abelian subgroup C2      NOp   2
                         Standard orientation:                         
 ---------------------------------------------------------------------
 Center     Atomic     Atomic              Coordinates (Angstroms)
 Number     Number      Type              X           Y           Z
 ---------------------------------------------------------------------
    1          6             0        0.239588    0.731041    0.548485
    2          6             0       -0.239588   -0.731041    0.548485
    3          9             0        0.239588   -1.378998   -0.589719
    4          1             0        0.131400   -1.255555    1.459251
    5          1             0       -1.353469   -0.768912    0.557309
    6          9             0       -0.239588    1.378998   -0.589719
    7          1             0       -0.131400    1.255555    1.459251
    8          1             0        1.353469    0.768912    0.557309
 ---------------------------------------------------------------------
 Rotational constants (GHZ):     15.9387024      5.2242369      4.3975866
 Leave Link  202 at Wed Oct  3 23:23:30 2007, MaxMem=    6291456 cpu:       0.4
 (Enter /opt/und/gaussian/03D01/linux86-64/g03/l301.exe)
 Standard basis: 3-21G (6D, 7F)
 There are    22 symmetry adapted basis functions of A   symmetry.
 There are    22 symmetry adapted basis functions of B   symmetry.
 Integral buffers will be    131072 words long.
 Raffenetti 1 integral format.
 Two-electron integral symmetry is turned on.
    44 basis functions,    72 primitive gaussians,    44 cartesian basis functions
    17 alpha electrons       17 beta electrons
       nuclear repulsion energy       126.7565310592 Hartrees.
 IExCor=   0 DFT=F Ex=HF Corr=None ExCW=0 ScaHFX=  1.000000
 ScaDFX=  1.000000  1.000000  1.000000  1.000000
 IRadAn=      0 IRanWt=     -1 IRanGd=            0 ICorTp=0
 NAtoms=    8 NActive=    8 NUniq=    4 SFac= 3.00D+00 NAtFMM=   80 NAOKFM=F Big=F
 Leave Link  301 at Wed Oct  3 23:23:30 2007, MaxMem=    6291456 cpu:       0.0
 (Enter /opt/und/gaussian/03D01/linux86-64/g03/linda-exe/l302.exel)
 NPDir=0 NMtPBC=     1 NCelOv=     1 NCel=       1 NClECP=     1 NCelD=      1
         NCelK=      1 NCelE2=     1 NClLst=     1 CellRange=     0.0.
 One-electron integrals computed using PRISM.
 One-electron integral symmetry used in STVInt
 NBasis=    44 RedAO= T  NBF=    22    22
 NBsUse=    44 1.00D-06 NBFU=    22    22
 Leave Link  302 at Wed Oct  3 23:23:30 2007, MaxMem=    6291456 cpu:       0.1
 (Enter /opt/und/gaussian/03D01/linux86-64/g03/l303.exe)
 DipDrv:  MaxL=1.
 Leave Link  303 at Wed Oct  3 23:23:31 2007, MaxMem=    6291456 cpu:       0.0
 (Enter /opt/und/gaussian/03D01/linux86-64/g03/l401.exe)
 Harris functional with IExCor=  205 diagonalized for initial guess.
 ExpMin= 1.83D-01 ExpMax= 4.14D+02 ExpMxC= 4.14D+02 IAcc=1 IRadAn=         1 AccDes= 1.00D-06
 HarFok:  IExCor= 205 AccDes= 1.00D-06 IRadAn=         1 IDoV=1
 ScaDFX=  1.000000  1.000000  1.000000  1.000000
 Harris En= -275.511465740434    
 Initial guess orbital symmetries:
       Occupied  (B) (A) (B) (A) (A) (B) (A) (B) (B) (A) (A) (B)
                 (A) (B) (B) (A) (A)
       Virtual   (A) (B) (A) (B) (B) (A) (B) (A) (B) (B) (A) (B)
                 (A) (A) (B) (A) (B) (A) (B) (A) (B) (B) (A) (B)
                 (A) (A) (B)
 The electronic state of the initial guess is 1-A.
 Leave Link  401 at Wed Oct  3 23:23:31 2007, MaxMem=    6291456 cpu:       0.1
 (Enter /opt/und/gaussian/03D01/linux86-64/g03/linda-exe/l502.exel)
 Closed shell SCF:
 Requested convergence on RMS density matrix=1.00D-08 within 128 cycles.
 Requested convergence on MAX density matrix=1.00D-06.
 Requested convergence on             energy=1.00D-06.
 No special actions if energy rises.
 Using DIIS extrapolation, IDIIS=  1040.
 Integral symmetry usage will be decided dynamically.
 Keep R1 integrals in memory in canonical form, NReq=     1360589.
 IEnd=     24490 IEndB=     24490 NGot=   6291456 MDV=   5795028
 LenX=   5795028
 Symmetry not used in FoFDir.
 MinBra= 0 MaxBra= 1 Meth= 1.
 IRaf=       0 NMat=   1 IRICut=       1 DoRegI=T DoRafI=F ISym2E= 0 JSym2E=0.

 Cycle   1  Pass 1  IDiag  1:
 E= -275.338412712590    
 DIIS: error= 4.18D-02 at cycle   1 NSaved=   1.
 NSaved= 1 IEnMin= 1 EnMin= -275.338412712590     IErMin= 1 ErrMin= 4.18D-02
 ErrMax= 4.18D-02 EMaxC= 1.00D-01 BMatC= 1.61D-01 BMatP= 1.61D-01
 IDIUse=3 WtCom= 5.82D-01 WtEn= 4.18D-01
 Coeff-Com:  0.100D+01
 Coeff-En:   0.100D+01
 Coeff:      0.100D+01
 Gap=     0.809 Goal=   None    Shift=    0.000
 GapD=    0.809 DampG=2.000 DampE=0.500 DampFc=1.0000 IDamp=-1.
 RMSDP=6.22D-03 MaxDP=4.55D-02              OVMax= 5.03D-02

 Cycle   2  Pass 1  IDiag  1:
 E= -275.407931427554     Delta-E=       -0.069518714964 Rises=F Damp=F
 DIIS: error= 8.94D-03 at cycle   2 NSaved=   2.
 NSaved= 2 IEnMin= 2 EnMin= -275.407931427554     IErMin= 2 ErrMin= 8.94D-03
 ErrMax= 8.94D-03 EMaxC= 1.00D-01 BMatC= 7.56D-03 BMatP= 1.61D-01
 IDIUse=3 WtCom= 9.11D-01 WtEn= 8.94D-02
 Coeff-Com:  0.807D-01 0.919D+00
 Coeff-En:   0.000D+00 0.100D+01
 Coeff:      0.735D-01 0.926D+00
 Gap=     0.761 Goal=   None    Shift=    0.000
 RMSDP=1.79D-03 MaxDP=1.29D-02 DE=-6.95D-02 OVMax= 1.62D-02

 Cycle   3  Pass 1  IDiag  1:
 E= -275.413196282842     Delta-E=       -0.005264855289 Rises=F Damp=F
 DIIS: error= 2.69D-03 at cycle   3 NSaved=   3.
 NSaved= 3 IEnMin= 3 EnMin= -275.413196282842     IErMin= 3 ErrMin= 2.69D-03
 ErrMax= 2.69D-03 EMaxC= 1.00D-01 BMatC= 3.09D-04 BMatP= 7.56D-03
 IDIUse=3 WtCom= 9.73D-01 WtEn= 2.69D-02
 Coeff-Com: -0.184D-01 0.126D+00 0.893D+00
 Coeff-En:   0.000D+00 0.000D+00 0.100D+01
 Coeff:     -0.179D-01 0.122D+00 0.896D+00
 Gap=     0.748 Goal=   None    Shift=    0.000
 RMSDP=3.45D-04 MaxDP=2.50D-03 DE=-5.26D-03 OVMax= 3.28D-03

 Cycle   4  Pass 1  IDiag  1:
 E= -275.413496979785     Delta-E=       -0.000300696943 Rises=F Damp=F
 DIIS: error= 3.19D-04 at cycle   4 NSaved=   4.
 NSaved= 4 IEnMin= 4 EnMin= -275.413496979785     IErMin= 4 ErrMin= 3.19D-04
 ErrMax= 3.19D-04 EMaxC= 1.00D-01 BMatC= 4.35D-06 BMatP= 3.09D-04
 IDIUse=3 WtCom= 9.97D-01 WtEn= 3.19D-03
 Coeff-Com:  0.398D-02-0.430D-01-0.227D+00 0.127D+01
 Coeff-En:   0.000D+00 0.000D+00 0.000D+00 0.100D+01
 Coeff:      0.396D-02-0.429D-01-0.226D+00 0.127D+01
 Gap=     0.749 Goal=   None    Shift=    0.000
 RMSDP=9.27D-05 MaxDP=5.39D-04 DE=-3.01D-04 OVMax= 8.30D-04

 Cycle   5  Pass 1  IDiag  1:
 E= -275.413505197805     Delta-E=       -0.000008218020 Rises=F Damp=F
 DIIS: error= 1.24D-04 at cycle   5 NSaved=   5.
 NSaved= 5 IEnMin= 5 EnMin= -275.413505197805     IErMin= 5 ErrMin= 1.24D-04
 ErrMax= 1.24D-04 EMaxC= 1.00D-01 BMatC= 5.76D-07 BMatP= 4.35D-06
 IDIUse=3 WtCom= 9.99D-01 WtEn= 1.24D-03
 Coeff-Com:  0.187D-02-0.180D-01-0.975D-01 0.388D+00 0.726D+00
 Coeff-En:   0.000D+00 0.000D+00 0.000D+00 0.000D+00 0.100D+01
 Coeff:      0.187D-02-0.180D-01-0.974D-01 0.387D+00 0.726D+00
 Gap=     0.749 Goal=   None    Shift=    0.000
 RMSDP=1.69D-05 MaxDP=8.95D-05 DE=-8.22D-06 OVMax= 1.13D-04

 Cycle   6  Pass 1  IDiag  1:
 E= -275.413505675388     Delta-E=       -0.000000477583 Rises=F Damp=F
 DIIS: error= 2.95D-05 at cycle   6 NSaved=   6.
 NSaved= 6 IEnMin= 6 EnMin= -275.413505675388     IErMin= 6 ErrMin= 2.95D-05
 ErrMax= 2.95D-05 EMaxC= 1.00D-01 BMatC= 3.49D-08 BMatP= 5.76D-07
 IDIUse=1 WtCom= 1.00D+00 WtEn= 0.00D+00
 Coeff-Com: -0.724D-03 0.794D-02 0.422D-01-0.221D+00-0.174D+00 0.134D+01
 Coeff:     -0.724D-03 0.794D-02 0.422D-01-0.221D+00-0.174D+00 0.134D+01
 Gap=     0.749 Goal=   None    Shift=    0.000
 RMSDP=9.58D-06 MaxDP=4.44D-05 DE=-4.78D-07 OVMax= 1.02D-04

 Cycle   7  Pass 1  IDiag  1:
 E= -275.413505761457     Delta-E=       -0.000000086070 Rises=F Damp=F
 DIIS: error= 2.80D-06 at cycle   7 NSaved=   7.
 NSaved= 7 IEnMin= 7 EnMin= -275.413505761457     IErMin= 7 ErrMin= 2.80D-06
 ErrMax= 2.80D-06 EMaxC= 1.00D-01 BMatC= 7.77D-10 BMatP= 3.49D-08
 IDIUse=1 WtCom= 1.00D+00 WtEn= 0.00D+00
 Coeff-Com:  0.152D-03-0.176D-02-0.929D-02 0.530D-01 0.251D-01-0.381D+00
 Coeff-Com:  0.131D+01
 Coeff:      0.152D-03-0.176D-02-0.929D-02 0.530D-01 0.251D-01-0.381D+00
 Coeff:      0.131D+01
 Gap=     0.749 Goal=   None    Shift=    0.000
 RMSDP=1.59D-06 MaxDP=1.55D-05 DE=-8.61D-08 OVMax= 1.47D-05

 Cycle   8  Pass 1  IDiag  1:
 E= -275.413505763246     Delta-E=       -0.000000001789 Rises=F Damp=F
 DIIS: error= 7.24D-07 at cycle   8 NSaved=   8.
 NSaved= 8 IEnMin= 8 EnMin= -275.413505763246     IErMin= 8 ErrMin= 7.24D-07
 ErrMax= 7.24D-07 EMaxC= 1.00D-01 BMatC= 2.12D-11 BMatP= 7.77D-10
 IDIUse=1 WtCom= 1.00D+00 WtEn= 0.00D+00
 Coeff-Com: -0.357D-04 0.420D-03 0.218D-02-0.127D-01-0.732D-02 0.101D+00
 Coeff-Com: -0.420D+00 0.134D+01
 Coeff:     -0.357D-04 0.420D-03 0.218D-02-0.127D-01-0.732D-02 0.101D+00
 Coeff:     -0.420D+00 0.134D+01
 Gap=     0.749 Goal=   None    Shift=    0.000
 RMSDP=2.45D-07 MaxDP=1.89D-06 DE=-1.79D-09 OVMax= 2.97D-06

 Cycle   9  Pass 1  IDiag  1:
 E= -275.413505763302     Delta-E=       -0.000000000056 Rises=F Damp=F
 DIIS: error= 2.26D-07 at cycle   9 NSaved=   9.
 NSaved= 9 IEnMin= 9 EnMin= -275.413505763302     IErMin= 9 ErrMin= 2.26D-07
 ErrMax= 2.26D-07 EMaxC= 1.00D-01 BMatC= 1.37D-12 BMatP= 2.12D-11
 IDIUse=1 WtCom= 1.00D+00 WtEn= 0.00D+00
 Coeff-Com:  0.111D-04-0.131D-03-0.672D-03 0.395D-02 0.285D-02-0.343D-01
 Coeff-Com:  0.153D+00-0.684D+00 0.156D+01
 Coeff:      0.111D-04-0.131D-03-0.672D-03 0.395D-02 0.285D-02-0.343D-01
 Coeff:      0.153D+00-0.684D+00 0.156D+01
 Gap=     0.749 Goal=   None    Shift=    0.000
 RMSDP=7.03D-08 MaxDP=4.00D-07 DE=-5.55D-11 OVMax= 1.02D-06

 Cycle  10  Pass 1  IDiag  1:
 E= -275.413505763307     Delta-E=       -0.000000000005 Rises=F Damp=F
 DIIS: error= 3.24D-08 at cycle  10 NSaved=  10.
 NSaved=10 IEnMin=10 EnMin= -275.413505763307     IErMin=10 ErrMin= 3.24D-08
 ErrMax= 3.24D-08 EMaxC= 1.00D-01 BMatC= 3.32D-14 BMatP= 1.37D-12
 IDIUse=1 WtCom= 1.00D+00 WtEn= 0.00D+00
 Coeff-Com: -0.318D-05 0.376D-04 0.193D-03-0.114D-02-0.816D-03 0.101D-01
 Coeff-Com: -0.461D-01 0.226D+00-0.616D+00 0.143D+01
 Coeff:     -0.318D-05 0.376D-04 0.193D-03-0.114D-02-0.816D-03 0.101D-01
 Coeff:     -0.461D-01 0.226D+00-0.616D+00 0.143D+01
 Gap=     0.749 Goal=   None    Shift=    0.000
 RMSDP=1.26D-08 MaxDP=6.80D-08 DE=-5.23D-12 OVMax= 1.98D-07

 Cycle  11  Pass 1  IDiag  1:
 E= -275.413505763306     Delta-E=        0.000000000001 Rises=F Damp=F
 DIIS: error= 3.89D-09 at cycle  11 NSaved=  11.
 NSaved=11 IEnMin=10 EnMin= -275.413505763307     IErMin=11 ErrMin= 3.89D-09
 ErrMax= 3.89D-09 EMaxC= 1.00D-01 BMatC= 6.80D-16 BMatP= 3.32D-14
 IDIUse=1 WtCom= 1.00D+00 WtEn= 0.00D+00
 Coeff-Com:  0.443D-06-0.527D-05-0.273D-04 0.161D-03 0.122D-03-0.149D-02
 Coeff-Com:  0.680D-02-0.355D-01 0.104D+00-0.349D+00 0.127D+01
 Coeff:      0.443D-06-0.527D-05-0.273D-04 0.161D-03 0.122D-03-0.149D-02
 Coeff:      0.680D-02-0.355D-01 0.104D+00-0.349D+00 0.127D+01
 Gap=     0.749 Goal=   None    Shift=    0.000
 RMSDP=1.75D-09 MaxDP=9.69D-09 DE= 1.19D-12 OVMax= 2.87D-08

 SCF Done:  E(RHF) =  -275.413505763     A.U. after   11 cycles
             Convg  =    0.1753D-08             -V/T =  2.0036
             S**2   =   0.0000
 KE= 2.744342398508D+02 PE=-9.079460524073D+02 EE= 2.313417757340D+02
 Leave Link  502 at Wed Oct  3 23:23:31 2007, MaxMem=    6291456 cpu:       0.1
 (Enter /opt/und/gaussian/03D01/linux86-64/g03/l601.exe)
 Copying SCF densities to generalized density rwf, ISCF=0 IROHF=0.

 **********************************************************************

            Population analysis using the SCF density.

 **********************************************************************

 Orbital symmetries:
       Occupied  (B) (A) (B) (A) (A) (B) (A) (B) (B) (A) (A) (A)
                 (B) (B) (B) (A) (A)
       Virtual   (A) (B) (A) (B) (A) (B) (B) (B) (A) (A) (B) (B)
                 (A) (A) (B) (A) (B) (A) (B) (B) (A) (B) (A) (A)
                 (B) (A) (B)
 The electronic state is 1-A.
 Alpha  occ. eigenvalues --  -26.13982 -26.13977 -11.27626 -11.27587  -1.57713
 Alpha  occ. eigenvalues --   -1.56433  -1.03966  -0.86858  -0.71693  -0.71581
 Alpha  occ. eigenvalues --   -0.67762  -0.65069  -0.63946  -0.59906  -0.53221
 Alpha  occ. eigenvalues --   -0.50872  -0.49221
 Alpha virt. eigenvalues --    0.25666   0.28566   0.30070   0.30859   0.35343
 Alpha virt. eigenvalues --    0.38750   0.42620   0.92792   0.93880   0.98342
 Alpha virt. eigenvalues --    0.98526   1.03759   1.10378   1.18886   1.27331
 Alpha virt. eigenvalues --    1.28948   1.32990   1.76890   2.17488   2.31499
 Alpha virt. eigenvalues --    2.34808   2.40332   2.45962   2.49060   2.49177
 Alpha virt. eigenvalues --    3.97344   4.00063
          Condensed to atoms (all electrons):
              1          2          3          4          5          6
     1  C    5.083825   0.176951  -0.029546  -0.045781  -0.050040   0.208180
     2  C    0.176951   5.083825   0.208180   0.324967   0.349038  -0.029546
     3  F   -0.029546   0.208180   9.266673  -0.025988  -0.026259   0.000016
     4  H   -0.045781   0.324967  -0.025988   0.581770  -0.035466   0.001049
     5  H   -0.050040   0.349038  -0.026259  -0.035466   0.543132   0.000315
     6  F    0.208180  -0.029546   0.000016   0.001049   0.000315   9.266673
     7  H    0.324967  -0.045781   0.001049   0.004444  -0.000588  -0.025988
     8  H    0.349038  -0.050040   0.000315  -0.000588   0.003424  -0.026259
              7          8
     1  C    0.324967   0.349038
     2  C   -0.045781  -0.050040
     3  F    0.001049   0.000315
     4  H    0.004444  -0.000588
     5  H   -0.000588   0.003424
     6  F   -0.025988  -0.026259
     7  H    0.581770  -0.035466
     8  H   -0.035466   0.543132
 Mulliken atomic charges:
              1
     1  C   -0.017595
     2  C   -0.017595
     3  F   -0.394441
     4  H    0.195592
     5  H    0.216444
     6  F   -0.394441
     7  H    0.195592
     8  H    0.216444
 Sum of Mulliken charges=   0.00000
 Atomic charges with hydrogens summed into heavy atoms:
              1
     1  C    0.394441
     2  C    0.394441
     3  F   -0.394441
     4  H    0.000000
     5  H    0.000000
     6  F   -0.394441
     7  H    0.000000
     8  H    0.000000
 Sum of Mulliken charges=   0.00000
 Electronic spatial extent (au):  <R**2>=   284.8312
 Charge=     0.0000 electrons
 Dipole moment (field-independent basis, Debye):
    X=     0.0000    Y=     0.0000    Z=     3.4829  Tot=     3.4829
 Quadrupole moment (field-independent basis, Debye-Ang):
   XX=   -21.5030   YY=   -26.3127   ZZ=   -22.3729
   XY=     1.7288   XZ=     0.0000   YZ=     0.0000
 Traceless Quadrupole moment (field-independent basis, Debye-Ang):
   XX=     1.8932   YY=    -2.9165   ZZ=     1.0233
   XY=     1.7288   XZ=     0.0000   YZ=     0.0000
 Octapole moment (field-independent basis, Debye-Ang**2):
  XXX=     0.0000  YYY=     0.0000  ZZZ=    -7.0514  XYY=     0.0000
  XXY=     0.0000  XXZ=    -2.4609  XZZ=     0.0000  YZZ=     0.0000
  YYZ=     2.3090  XYZ=    -0.6344
 Hexadecapole moment (field-independent basis, Debye-Ang**3):
 XXXX=   -36.0449 YYYY=  -185.5935 ZZZZ=   -73.0717 XXXY=     1.5107
 XXXZ=     0.0000 YYYX=     1.7625 YYYZ=     0.0000 ZZZX=     0.0000
 ZZZY=     0.0000 XXYY=   -35.8573 XXZZ=   -19.2618 YYZZ=   -41.8797
 XXYZ=     0.0000 YYXZ=     0.0000 ZZXY=    -0.3714
 N-N= 1.267565310592D+02 E-N=-9.079460523845D+02  KE= 2.744342398508D+02
 Symmetry A    KE= 1.384525320611D+02
 Symmetry B    KE= 1.359817077897D+02
 No NMR shielding tensors so no spin-rotation constants.
 Leave Link  601 at Wed Oct  3 23:23:32 2007, MaxMem=    6291456 cpu:       0.1
 (Enter /opt/und/gaussian/03D01/linux86-64/g03/linda-exe/l701.exel)
 Compute integral first derivatives.
 ... and contract with generalized density number  0.
 Leave Link  701 at Wed Oct  3 23:23:32 2007, MaxMem=    6291456 cpu:       0.1
 (Enter /opt/und/gaussian/03D01/linux86-64/g03/l702.exe)
 L702 exits ... SP integral derivatives will be done elsewhere.
 Leave Link  702 at Wed Oct  3 23:23:32 2007, MaxMem=    6291456 cpu:       0.0
 (Enter /opt/und/gaussian/03D01/linux86-64/g03/linda-exe/l703.exel)
 Compute integral first derivatives, UseDBF=F.
 Integral derivatives from FoFDir, PRISM(SPDF).
 Petite list used in FoFDir.
 MinBra= 0 MaxBra= 1 Meth= 1.
 IRaf=       0 NMat=   1 IRICut=       1 DoRegI=T DoRafI=F ISym2E= 1 JSym2E=1.
 Leave Link  703 at Wed Oct  3 23:23:32 2007, MaxMem=    6291456 cpu:       0.1
 (Enter /opt/und/gaussian/03D01/linux86-64/g03/l716.exe)
 Dipole        = 7.54951657D-15 4.28546088D-14 1.37028042D+00
 ***** Axes restored to original set *****
 -------------------------------------------------------------------
 Center     Atomic                   Forces (Hartrees/Bohr)
 Number     Number              X              Y              Z
 -------------------------------------------------------------------
    1          6          -0.012035280    0.025099171   -0.000735136
    2          6          -0.027754159   -0.002126727    0.000735136
    3          9           0.002173505    0.001331182    0.000586702
    4          1           0.011273444   -0.017859758   -0.009861443
    5          1           0.013529368    0.017308042   -0.008708677
    6          9          -0.000066085   -0.002547902   -0.000586702
    7          1           0.021103727   -0.000833210    0.009861443
    8          1          -0.008224520   -0.020370797    0.008708677
 -------------------------------------------------------------------
 Cartesian Forces:  Max     0.027754159 RMS     0.012529831
 Leave Link  716 at Wed Oct  3 23:23:33 2007, MaxMem=    6291456 cpu:       0.0
 (Enter /opt/und/gaussian/03D01/linux86-64/g03/l103.exe)

 GradGradGradGradGradGradGradGradGradGradGradGradGradGradGradGradGradGrad
 Berny optimization.
 Internal  Forces:  Max     0.023445202 RMS     0.009494574
 Search for a local minimum.
 Step number   1 out of a maximum of  38
 All quantities printed in internal units (Hartrees-Bohrs-Radians)
 Swaping is turned off.
 Second derivative matrix not updated -- first step.
     Eigenvalues ---    0.00255   0.05647   0.05647   0.05916   0.05916
     Eigenvalues ---    0.16000   0.16000   0.16000   0.16000   0.22374
     Eigenvalues ---    0.22374   0.28643   0.32122   0.32122   0.32122
     Eigenvalues ---    0.32122   0.46524   0.465241000.000001000.00000
     Eigenvalues --- 1000.000001000.000001000.000001000.000001000.00000
     Eigenvalues --- 1000.000001000.000001000.00000
 Quadratic step=1.019D+00 exceeds max=3.000D-01 adjusted using Lamda=-7.587D-03.
 Angle between NR and scaled steps=  23.24 degrees.
 Angle between quadratic step and forces=  55.41 degrees.
 Linear search not attempted -- option 19 set.
 Iteration  1 RMS(Cart)=  0.05476355 RMS(Int)=  0.00146374
 Iteration  2 RMS(Cart)=  0.00140536 RMS(Int)=  0.00005213
 Iteration  3 RMS(Cart)=  0.00000126 RMS(Int)=  0.00005211
 Iteration  4 RMS(Cart)=  0.00000000 RMS(Int)=  0.00005211
 Variable       Old X    -DE/DX   Delta X   Delta X   Delta X     New X
                                 (Linear)    (Quad)   (Total)
    R1        2.90753  -0.01725   0.00000  -0.05866  -0.05866   2.84887
    R2        2.63545   0.00224   0.00000   0.00475   0.00475   2.64020
    R3        2.10621  -0.02321   0.00000  -0.07060  -0.07060   2.03562
    R4        2.10621  -0.02345   0.00000  -0.07130  -0.07130   2.03491
    R5        2.63545   0.00224   0.00000   0.00475   0.00475   2.64020
    R6        2.10621  -0.02321   0.00000  -0.07060  -0.07060   2.03562
    R7        2.10621  -0.02345   0.00000  -0.07130  -0.07130   2.03491
    A1        1.91187  -0.00013   0.00000  -0.00314  -0.00321   1.90866
    A2        1.92147  -0.00273   0.00000  -0.01641  -0.01646   1.90501
    A3        1.92147  -0.00018   0.00000   0.00221   0.00223   1.92371
    A4        1.91123   0.00053   0.00000  -0.00414  -0.00428   1.90695
    A5        1.91140   0.00011   0.00000   0.00006   0.00006   1.91146
    A6        1.88619   0.00244   0.00000   0.02170   0.02174   1.90793
    A7        1.91187  -0.00013   0.00000  -0.00314  -0.00321   1.90866
    A8        1.92147  -0.00273   0.00000  -0.01641  -0.01646   1.90501
    A9        1.92147  -0.00018   0.00000   0.00221   0.00223   1.92371
   A10        1.91123   0.00053   0.00000  -0.00414  -0.00428   1.90695
   A11        1.91140   0.00011   0.00000   0.00006   0.00006   1.91146
   A12        1.88619   0.00244   0.00000   0.02170   0.02174   1.90793
    D1        1.04720   0.00158   0.00000   0.09558   0.09550   1.14270
    D2       -3.13337   0.00044   0.00000   0.07818   0.07818  -3.05518
    D3       -1.05563   0.00163   0.00000   0.09611   0.09606  -0.95957
    D4       -3.13337   0.00044   0.00000   0.07818   0.07818  -3.05518
    D5       -1.03075  -0.00070   0.00000   0.06077   0.06087  -0.96988
    D6        1.04699   0.00050   0.00000   0.07871   0.07875   1.12574
    D7       -1.05563   0.00163   0.00000   0.09611   0.09606  -0.95957
    D8        1.04699   0.00050   0.00000   0.07871   0.07875   1.12574
    D9        3.12473   0.00169   0.00000   0.09664   0.09662  -3.06183
         Item               Value     Threshold  Converged?
 Maximum Force            0.023445     0.000450     NO 
 RMS     Force            0.009495     0.000300     NO 
 Maximum Displacement     0.103721     0.001800     NO 
 RMS     Displacement     0.055022     0.001200     NO 
 Predicted change in Energy=-4.630507D-03
 GradGradGradGradGradGradGradGradGradGradGradGradGradGradGradGradGradGrad

 Leave Link  103 at Wed Oct  3 23:23:33 2007, MaxMem=    6291456 cpu:       0.1
 (Enter /opt/und/gaussian/03D01/linux86-64/g03/l202.exe)
                          Input orientation:                          
 ---------------------------------------------------------------------
 Center     Atomic     Atomic              Coordinates (Angstroms)
 Number     Number      Type              X           Y           Z
 ---------------------------------------------------------------------
    1          6             0       -0.002329    0.011062    0.015569
    2          6             0       -0.010745   -0.003515    1.523031
    3          9             0        1.303290    0.054887    1.994074
    4          1             0       -0.555211    0.853985    1.881659
    5          1             0       -0.482730   -0.901594    1.883920
    6          9             0        0.604111   -1.156125   -0.455474
    7          1             0       -1.017178    0.053834   -0.343059
    8          1             0        0.539438    0.868854   -0.345320
 ---------------------------------------------------------------------
                    Distance matrix (angstroms):
                    1          2          3          4          5
     1  C    0.000000
     2  C    1.507557   0.000000
     3  F    2.370874   1.397132   0.000000
     4  H    2.120965   1.077202   2.026134   0.000000
     5  H    2.134119   1.076828   2.029004   1.757076   0.000000
     6  F    1.397132   2.370874   2.820583   3.293443   2.592060
     7  H    1.077202   2.120965   3.293443   2.408947   2.481514
     8  H    1.076828   2.134119   2.592060   2.481514   3.024702
                    6          7          8
     6  F    0.000000
     7  H    2.026134   0.000000
     8  H    2.029004   1.757076   0.000000
 Stoichiometry    C2H4F2
 Framework group  C2[X(C2H4F2)]
 Deg. of freedom    10
 Full point group                 C2
 Largest Abelian subgroup         C2      NOp   2
 Largest concise Abelian subgroup C2      NOp   2
                         Standard orientation:                         
 ---------------------------------------------------------------------
 Center     Atomic     Atomic              Coordinates (Angstroms)
 Number     Number      Type              X           Y           Z
 ---------------------------------------------------------------------
    1          6             0       -0.632087   -0.410668    0.536417
    2          6             0        0.632087    0.410668    0.536417
    3          9             0        0.632087    1.260710   -0.572369
    4          1             0        0.669958    1.000956    1.436689
    5          1             0        1.494260   -0.233220    0.496129
    6          9             0       -0.632087   -1.260710   -0.572369
    7          1             0       -0.669958   -1.000956    1.436689
    8          1             0       -1.494260    0.233220    0.496129
 ---------------------------------------------------------------------
 Rotational constants (GHZ):     16.4981008      5.2239075      4.4573483
 Leave Link  202 at Wed Oct  3 23:23:33 2007, MaxMem=    6291456 cpu:       0.1
 (Enter /opt/und/gaussian/03D01/linux86-64/g03/l301.exe)
 Standard basis: 3-21G (6D, 7F)
 There are    22 symmetry adapted basis functions of A   symmetry.
 There are    22 symmetry adapted basis functions of B   symmetry.
 Integral buffers will be    131072 words long.
 Raffenetti 1 integral format.
 Two-electron integral symmetry is turned on.
    44 basis functions,    72 primitive gaussians,    44 cartesian basis functions
    17 alpha electrons       17 beta electrons
       nuclear repulsion energy       127.9924327913 Hartrees.
 IExCor=   0 DFT=F Ex=HF Corr=None ExCW=0 ScaHFX=  1.000000
 ScaDFX=  1.000000  1.000000  1.000000  1.000000
 IRadAn=      0 IRanWt=     -1 IRanGd=            0 ICorTp=0
 NAtoms=    8 NActive=    8 NUniq=    4 SFac= 3.00D+00 NAtFMM=   80 NAOKFM=F Big=F
 Leave Link  301 at Wed Oct  3 23:23:34 2007, MaxMem=    6291456 cpu:       0.0
 (Enter /opt/und/gaussian/03D01/linux86-64/g03/linda-exe/l302.exel)
 NPDir=0 NMtPBC=     1 NCelOv=     1 NCel=       1 NClECP=     1 NCelD=      1
         NCelK=      1 NCelE2=     1 NClLst=     1 CellRange=     0.0.
 One-electron integrals computed using PRISM.
 One-electron integral symmetry used in STVInt
 NBasis=    44 RedAO= T  NBF=    22    22
 NBsUse=    44 1.00D-06 NBFU=    22    22
 Leave Link  302 at Wed Oct  3 23:23:34 2007, MaxMem=    6291456 cpu:       0.1
 (Enter /opt/und/gaussian/03D01/linux86-64/g03/l303.exe)
 DipDrv:  MaxL=1.
 Leave Link  303 at Wed Oct  3 23:23:34 2007, MaxMem=    6291456 cpu:       0.0
 (Enter /opt/und/gaussian/03D01/linux86-64/g03/l401.exe)
 Initial guess read from the read-write file:
 Guess basis will be translated and rotated to current coordinates.
 Initial guess orbital symmetries:
       Occupied  (B) (A) (B) (A) (A) (B) (A) (B) (B) (A) (A) (A)
                 (B) (B) (B) (A) (A)
       Virtual   (A) (B) (A) (B) (A) (B) (B) (B) (A) (A) (B) (B)
                 (A) (A) (B) (A) (B) (A) (B) (B) (A) (B) (A) (A)
                 (B) (A) (B)
 The electronic state of the initial guess is 1-A.
 Generating alternative initial guess.
 Harris functional with IExCor=  205 diagonalized for initial guess.
 ExpMin= 1.83D-01 ExpMax= 4.14D+02 ExpMxC= 4.14D+02 IAcc=1 IRadAn=         1 AccDes= 1.00D-06
 HarFok:  IExCor= 205 AccDes= 1.00D-06 IRadAn=         1 IDoV=1
 ScaDFX=  1.000000  1.000000  1.000000  1.000000
 Harris En= -275.520117858624    
 Leave Link  401 at Wed Oct  3 23:23:34 2007, MaxMem=    6291456 cpu:       0.1
 (Enter /opt/und/gaussian/03D01/linux86-64/g03/linda-exe/l502.exel)
 Closed shell SCF:
 Requested convergence on RMS density matrix=1.00D-08 within 128 cycles.
 Requested convergence on MAX density matrix=1.00D-06.
 Requested convergence on             energy=1.00D-06.
 No special actions if energy rises.
 Using DIIS extrapolation, IDIIS=  1040.
 Integral symmetry usage will be decided dynamically.
 Keep R1 integrals in memory in canonical form, NReq=     1360589.
 IEnd=     24490 IEndB=     24490 NGot=   6291456 MDV=   5795028
 LenX=   5795028
 Symmetry not used in FoFDir.
 MinBra= 0 MaxBra= 1 Meth= 1.
 IRaf=       0 NMat=   1 IRICut=       1 DoRegI=T DoRafI=F ISym2E= 0 JSym2E=0.

 Cycle   1  Pass 1  IDiag  1:
 E= -271.011658177394    
 DIIS: error= 1.10D-01 at cycle   1 NSaved=   1.
 NSaved= 1 IEnMin= 1 EnMin= -271.011658177394     IErMin= 1 ErrMin= 1.10D-01
 ErrMax= 1.10D-01 EMaxC= 1.00D-01 BMatC= 9.45D-01 BMatP= 9.45D-01
 IDIUse=3 WtCom= 0.00D+00 WtEn= 1.00D+00
 Coeff-Com:  0.100D+01
 Coeff-En:   0.100D+01
 Coeff:      0.100D+01
 Recover alternate guess density for next cycle.
 RMSDP=6.69D-02 MaxDP=3.93D-01              OVMax= 0.00D+00

 Cycle   2  Pass 1  IDiag  1:
 E= -275.336319215912     Delta-E=       -4.324661038518 Rises=F Damp=F
 DIIS: error= 4.30D-02 at cycle   2 NSaved=   2.
 NSaved= 2 IEnMin= 2 EnMin= -275.336319215912     IErMin= 2 ErrMin= 4.30D-02
 ErrMax= 4.30D-02 EMaxC= 1.00D-01 BMatC= 1.67D-01 BMatP= 9.45D-01
 IDIUse=3 WtCom= 5.70D-01 WtEn= 4.30D-01
 Coeff-Com:  0.143D+00 0.857D+00
 Coeff-En:   0.000D+00 0.100D+01
 Coeff:      0.813D-01 0.919D+00
 Gap=     0.048 Goal=   None    Shift=    0.000
 RMSDP=6.88D-03 MaxDP=4.90D-02 DE=-4.32D+00 OVMax= 7.83D-01

 Cycle   3  Pass 1  IDiag  1:
 E= -275.408252513202     Delta-E=       -0.071933297289 Rises=F Damp=F
 DIIS: error= 1.37D-02 at cycle   3 NSaved=   3.
 NSaved= 3 IEnMin= 3 EnMin= -275.408252513202     IErMin= 3 ErrMin= 1.37D-02
 ErrMax= 1.37D-02 EMaxC= 1.00D-01 BMatC= 1.26D-02 BMatP= 1.67D-01
 IDIUse=3 WtCom= 8.63D-01 WtEn= 1.37D-01
 Coeff-Com:  0.113D-01 0.125D+00 0.864D+00
 Coeff-En:   0.000D+00 0.000D+00 0.100D+01
 Coeff:      0.976D-02 0.108D+00 0.883D+00
 Gap=     0.775 Goal=   None    Shift=    0.000
 RMSDP=2.19D-03 MaxDP=1.49D-02 DE=-7.19D-02 OVMax= 1.93D-02

 Cycle   4  Pass 1  IDiag  1:
 E= -275.417613432273     Delta-E=       -0.009360919071 Rises=F Damp=F
 DIIS: error= 2.22D-03 at cycle   4 NSaved=   4.
 NSaved= 4 IEnMin= 4 EnMin= -275.417613432273     IErMin= 4 ErrMin= 2.22D-03
 ErrMax= 2.22D-03 EMaxC= 1.00D-01 BMatC= 3.18D-04 BMatP= 1.26D-02
 IDIUse=3 WtCom= 9.78D-01 WtEn= 2.22D-02
 Coeff-Com: -0.253D-02-0.181D-01 0.850D-01 0.936D+00
 Coeff-En:   0.000D+00 0.000D+00 0.000D+00 0.100D+01
 Coeff:     -0.248D-02-0.177D-01 0.831D-01 0.937D+00
 Gap=     0.763 Goal=   None    Shift=    0.000
 RMSDP=4.35D-04 MaxDP=2.74D-03 DE=-9.36D-03 OVMax= 3.75D-03

 Cycle   5  Pass 1  IDiag  1:
 E= -275.417963067320     Delta-E=       -0.000349635047 Rises=F Damp=F
 DIIS: error= 3.94D-04 at cycle   5 NSaved=   5.
 NSaved= 5 IEnMin= 5 EnMin= -275.417963067320     IErMin= 5 ErrMin= 3.94D-04
 ErrMax= 3.94D-04 EMaxC= 1.00D-01 BMatC= 8.08D-06 BMatP= 3.18D-04
 IDIUse=3 WtCom= 9.96D-01 WtEn= 3.94D-03
 Coeff-Com: -0.422D-03 0.300D-02-0.203D-01-0.217D+00 0.123D+01
 Coeff-En:   0.000D+00 0.000D+00 0.000D+00 0.000D+00 0.100D+01
 Coeff:     -0.420D-03 0.299D-02-0.202D-01-0.216D+00 0.123D+01
 Gap=     0.762 Goal=   None    Shift=    0.000
 RMSDP=1.40D-04 MaxDP=5.49D-04 DE=-3.50D-04 OVMax= 1.58D-03

 Cycle   6  Pass 1  IDiag  1:
 E= -275.417981181487     Delta-E=       -0.000018114167 Rises=F Damp=F
 DIIS: error= 1.25D-04 at cycle   6 NSaved=   6.
 NSaved= 6 IEnMin= 6 EnMin= -275.417981181487     IErMin= 6 ErrMin= 1.25D-04
 ErrMax= 1.25D-04 EMaxC= 1.00D-01 BMatC= 9.81D-07 BMatP= 8.08D-06
 IDIUse=3 WtCom= 9.99D-01 WtEn= 1.25D-03
 Coeff-Com:  0.140D-03 0.101D-02-0.585D-02-0.634D-01 0.172D+00 0.896D+00
 Coeff-En:   0.000D+00 0.000D+00 0.000D+00 0.000D+00 0.000D+00 0.100D+01
 Coeff:      0.140D-03 0.101D-02-0.584D-02-0.633D-01 0.172D+00 0.896D+00
 Gap=     0.762 Goal=   None    Shift=    0.000
 RMSDP=3.10D-05 MaxDP=1.37D-04 DE=-1.81D-05 OVMax= 3.37D-04

 Cycle   7  Pass 1  IDiag  1:
 E= -275.417982521770     Delta-E=       -0.000001340283 Rises=F Damp=F
 DIIS: error= 6.56D-05 at cycle   7 NSaved=   7.
 NSaved= 7 IEnMin= 7 EnMin= -275.417982521770     IErMin= 7 ErrMin= 6.56D-05
 ErrMax= 6.56D-05 EMaxC= 1.00D-01 BMatC= 1.43D-07 BMatP= 9.81D-07
 IDIUse=1 WtCom= 1.00D+00 WtEn= 0.00D+00
 Coeff-Com: -0.213D-04-0.393D-03 0.275D-02 0.335D-01-0.205D+00 0.509D-01
 Coeff-Com:  0.112D+01
 Coeff:     -0.213D-04-0.393D-03 0.275D-02 0.335D-01-0.205D+00 0.509D-01
 Coeff:      0.112D+01
 Gap=     0.763 Goal=   None    Shift=    0.000
 RMSDP=1.71D-05 MaxDP=9.32D-05 DE=-1.34D-06 OVMax= 2.60D-04

 Cycle   8  Pass 1  IDiag  1:
 E= -275.417982851510     Delta-E=       -0.000000329740 Rises=F Damp=F
 DIIS: error= 1.61D-05 at cycle   8 NSaved=   8.
 NSaved= 8 IEnMin= 8 EnMin= -275.417982851510     IErMin= 8 ErrMin= 1.61D-05
 ErrMax= 1.61D-05 EMaxC= 1.00D-01 BMatC= 6.73D-09 BMatP= 1.43D-07
 IDIUse=1 WtCom= 1.00D+00 WtEn= 0.00D+00
 Coeff-Com: -0.603D-05 0.836D-04-0.544D-03-0.821D-02 0.627D-01-0.741D-01
 Coeff-Com: -0.412D+00 0.143D+01
 Coeff:     -0.603D-05 0.836D-04-0.544D-03-0.821D-02 0.627D-01-0.741D-01
 Coeff:     -0.412D+00 0.143D+01
 Gap=     0.763 Goal=   None    Shift=    0.000
 RMSDP=5.27D-06 MaxDP=2.87D-05 DE=-3.30D-07 OVMax= 7.48D-05

 Cycle   9  Pass 1  IDiag  1:
 E= -275.417982872458     Delta-E=       -0.000000020948 Rises=F Damp=F
 DIIS: error= 1.81D-06 at cycle   9 NSaved=   9.
 NSaved= 9 IEnMin= 9 EnMin= -275.417982872458     IErMin= 9 ErrMin= 1.81D-06
 ErrMax= 1.81D-06 EMaxC= 1.00D-01 BMatC= 1.50D-10 BMatP= 6.73D-09
 IDIUse=1 WtCom= 1.00D+00 WtEn= 0.00D+00
 Coeff-Com:  0.133D-06-0.239D-04 0.166D-03 0.202D-02-0.155D-01 0.219D-01
 Coeff-Com:  0.103D+00-0.457D+00 0.134D+01
 Coeff:      0.133D-06-0.239D-04 0.166D-03 0.202D-02-0.155D-01 0.219D-01
 Coeff:      0.103D+00-0.457D+00 0.134D+01
 Gap=     0.763 Goal=   None    Shift=    0.000
 RMSDP=7.27D-07 MaxDP=3.46D-06 DE=-2.09D-08 OVMax= 9.60D-06

 Cycle  10  Pass 1  IDiag  1:
 E= -275.417982872858     Delta-E=       -0.000000000400 Rises=F Damp=F
 DIIS: error= 2.80D-07 at cycle  10 NSaved=  10.
 NSaved=10 IEnMin=10 EnMin= -275.417982872858     IErMin=10 ErrMin= 2.80D-07
 ErrMax= 2.80D-07 EMaxC= 1.00D-01 BMatC= 4.59D-12 BMatP= 1.50D-10
 IDIUse=1 WtCom= 1.00D+00 WtEn= 0.00D+00
 Coeff-Com: -0.133D-06 0.692D-05-0.503D-04-0.580D-03 0.461D-02-0.664D-02
 Coeff-Com: -0.327D-01 0.150D+00-0.538D+00 0.142D+01
 Coeff:     -0.133D-06 0.692D-05-0.503D-04-0.580D-03 0.461D-02-0.664D-02
 Coeff:     -0.327D-01 0.150D+00-0.538D+00 0.142D+01
 Gap=     0.763 Goal=   None    Shift=    0.000
 RMSDP=1.14D-07 MaxDP=5.19D-07 DE=-4.00D-10 OVMax= 1.31D-06

 Cycle  11  Pass 1  IDiag  1:
 E= -275.417982872867     Delta-E=       -0.000000000009 Rises=F Damp=F
 DIIS: error= 5.56D-08 at cycle  11 NSaved=  11.
 NSaved=11 IEnMin=11 EnMin= -275.417982872867     IErMin=11 ErrMin= 5.56D-08
 ErrMax= 5.56D-08 EMaxC= 1.00D-01 BMatC= 1.06D-13 BMatP= 4.59D-12
 IDIUse=1 WtCom= 1.00D+00 WtEn= 0.00D+00
 Coeff-Com: -0.582D-08-0.166D-05 0.125D-04 0.131D-03-0.102D-02 0.154D-02
 Coeff-Com:  0.692D-02-0.328D-01 0.128D+00-0.431D+00 0.133D+01
 Coeff:     -0.582D-08-0.166D-05 0.125D-04 0.131D-03-0.102D-02 0.154D-02
 Coeff:      0.692D-02-0.328D-01 0.128D+00-0.431D+00 0.133D+01
 Gap=     0.763 Goal=   None    Shift=    0.000
 RMSDP=1.79D-08 MaxDP=1.29D-07 DE=-8.87D-12 OVMax= 1.58D-07

 Cycle  12  Pass 1  IDiag  1:
 E= -275.417982872868     Delta-E=       -0.000000000001 Rises=F Damp=F
 DIIS: error= 5.39D-09 at cycle  12 NSaved=  12.
 NSaved=12 IEnMin=12 EnMin= -275.417982872868     IErMin=12 ErrMin= 5.39D-09
 ErrMax= 5.39D-09 EMaxC= 1.00D-01 BMatC= 1.86D-15 BMatP= 1.06D-13
 IDIUse=1 WtCom= 1.00D+00 WtEn= 0.00D+00
 Coeff-Com:  0.695D-10 0.262D-06-0.200D-05-0.205D-04 0.161D-03-0.242D-03
 Coeff-Com: -0.106D-02 0.501D-02-0.203D-01 0.771D-01-0.354D+00 0.129D+01
 Coeff:      0.695D-10 0.262D-06-0.200D-05-0.205D-04 0.161D-03-0.242D-03
 Coeff:     -0.106D-02 0.501D-02-0.203D-01 0.771D-01-0.354D+00 0.129D+01
 Gap=     0.763 Goal=   None    Shift=    0.000
 RMSDP=2.84D-09 MaxDP=1.87D-08 DE=-1.19D-12 OVMax= 2.30D-08

 SCF Done:  E(RHF) =  -275.417982873     A.U. after   12 cycles
             Convg  =    0.2845D-08             -V/T =  2.0025
             S**2   =   0.0000
 KE= 2.747174567595D+02 PE=-9.106766483604D+02 EE= 2.325487759367D+02
 Leave Link  502 at Wed Oct  3 23:23:35 2007, MaxMem=    6291456 cpu:       0.1
 (Enter /opt/und/gaussian/03D01/linux86-64/g03/linda-exe/l701.exel)
 Compute integral first derivatives.
 ... and contract with generalized density number  0.
 Leave Link  701 at Wed Oct  3 23:23:35 2007, MaxMem=    6291456 cpu:       0.1
 (Enter /opt/und/gaussian/03D01/linux86-64/g03/l702.exe)
 L702 exits ... SP integral derivatives will be done elsewhere.
 Leave Link  702 at Wed Oct  3 23:23:35 2007, MaxMem=    6291456 cpu:       0.0
 (Enter /opt/und/gaussian/03D01/linux86-64/g03/linda-exe/l703.exel)
 Compute integral first derivatives, UseDBF=F.
 Integral derivatives from FoFDir, PRISM(SPDF).
 Petite list used in FoFDir.
 MinBra= 0 MaxBra= 1 Meth= 1.
 IRaf=       0 NMat=   1 IRICut=       1 DoRegI=T DoRafI=F ISym2E= 1 JSym2E=1.
 Leave Link  703 at Wed Oct  3 23:23:35 2007, MaxMem=    6291456 cpu:       0.1
 (Enter /opt/und/gaussian/03D01/linux86-64/g03/l716.exe)
 Dipole        =-1.02140518D-14 1.70974346D-14 1.35524073D+00
 ***** Axes restored to original set *****
 -------------------------------------------------------------------
 Center     Atomic                   Forces (Hartrees/Bohr)
 Number     Number              X              Y              Z
 -------------------------------------------------------------------
    1          6          -0.002361353    0.003031907    0.003724539
    2          6          -0.003806385    0.000529039   -0.003724539
    3          9           0.003489231    0.000844554    0.002178851
    4          1          -0.000628055    0.001235147    0.001499722
    5          1           0.001384424   -0.001847997    0.000465605
    6          9           0.001013211   -0.003444040   -0.002178851
    7          1          -0.001383697   -0.000073662   -0.001499722
    8          1           0.002292625   -0.000274948   -0.000465605
 -------------------------------------------------------------------
 Cartesian Forces:  Max     0.003806385 RMS     0.002160126
 Leave Link  716 at Wed Oct  3 23:23:36 2007, MaxMem=    6291456 cpu:       0.0
 (Enter /opt/und/gaussian/03D01/linux86-64/g03/l103.exe)

 GradGradGradGradGradGradGradGradGradGradGradGradGradGradGradGradGradGrad
 Berny optimization.
 Use GDIIS/GDPIS optimizer.
 Internal  Forces:  Max     0.004051603 RMS     0.001445487
 Search for a local minimum.
 Step number   2 out of a maximum of  38
 All quantities printed in internal units (Hartrees-Bohrs-Radians)
 Swaping is turned off.
 Update second derivatives using D2CorX and points  1  2
 Trust test= 9.67D-01 RLast= 3.01D-01 DXMaxT set to 4.24D-01
     Eigenvalues ---    0.00256   0.05716   0.05727   0.05875   0.05966
     Eigenvalues ---    0.15996   0.16000   0.16000   0.16191   0.22340
     Eigenvalues ---    0.22442   0.28654   0.32046   0.32122   0.32122
     Eigenvalues ---    0.34124   0.46524   0.474481000.000001000.00000
     Eigenvalues --- 1000.000001000.000001000.000001000.000001000.00000
     Eigenvalues --- 1000.000001000.000001000.00000
 DIIS coeff's:      1.00710     -0.00710
 Cosine:  1.000 >  0.970
 Length:  1.000
 GDIIS step was calculated using  2 of the last  2 vectors.
 Maximum step size (   0.424) exceeded in Quadratic search.
    -- Step size scaled by   0.592
 Iteration  1 RMS(Cart)=  0.06918688 RMS(Int)=  0.00236920
 Iteration  2 RMS(Cart)=  0.00246410 RMS(Int)=  0.00000681
 Iteration  3 RMS(Cart)=  0.00000237 RMS(Int)=  0.00000663
 Iteration  4 RMS(Cart)=  0.00000000 RMS(Int)=  0.00000663
 Variable       Old X    -DE/DX   Delta X   Delta X   Delta X     New X
                                  (DIIS)     (GDIIS)  (Total)
    R1        2.84887   0.00041  -0.00025   0.00049   0.00025   2.84912
    R2        2.64020   0.00405   0.00002   0.00522   0.00524   2.64544
    R3        2.03562   0.00180  -0.00030   0.00291   0.00261   2.03823
    R4        2.03491   0.00109  -0.00030   0.00159   0.00129   2.03620
    R5        2.64020   0.00405   0.00002   0.00522   0.00524   2.64544
    R6        2.03562   0.00180  -0.00030   0.00291   0.00261   2.03823
    R7        2.03491   0.00109  -0.00030   0.00159   0.00129   2.03620
    A1        1.90866   0.00112  -0.00001   0.00168   0.00166   1.91032
    A2        1.90501   0.00131  -0.00007   0.00629   0.00621   1.91122
    A3        1.92371  -0.00023   0.00001  -0.00032  -0.00032   1.92339
    A4        1.90695  -0.00134  -0.00002  -0.00560  -0.00562   1.90133
    A5        1.91146  -0.00094   0.00000  -0.00593  -0.00593   1.90553
    A6        1.90793   0.00006   0.00009   0.00386   0.00394   1.91187
    A7        1.90866   0.00112  -0.00001   0.00168   0.00166   1.91032
    A8        1.90501   0.00131  -0.00007   0.00629   0.00621   1.91122
    A9        1.92371  -0.00023   0.00001  -0.00032  -0.00032   1.92339
   A10        1.90695  -0.00134  -0.00002  -0.00560  -0.00562   1.90133
   A11        1.91146  -0.00094   0.00000  -0.00593  -0.00593   1.90553
   A12        1.90793   0.00006   0.00009   0.00386   0.00394   1.91187
    D1        1.14270   0.00033   0.00040   0.13790   0.13830   1.28100
    D2       -3.05518   0.00015   0.00033   0.13586   0.13618  -2.91900
    D3       -0.95957   0.00092   0.00040   0.14436   0.14477  -0.81480
    D4       -3.05518   0.00015   0.00033   0.13586   0.13618  -2.91900
    D5       -0.96988  -0.00002   0.00026   0.13382   0.13407  -0.83581
    D6        1.12574   0.00074   0.00033   0.14232   0.14265   1.26839
    D7       -0.95957   0.00092   0.00040   0.14436   0.14477  -0.81480
    D8        1.12574   0.00074   0.00033   0.14232   0.14265   1.26839
    D9       -3.06183   0.00151   0.00041   0.15082   0.15124  -2.91059
         Item               Value     Threshold  Converged?
 Maximum Force            0.004052     0.000450     NO 
 RMS     Force            0.001445     0.000300     NO 
 Maximum Displacement     0.163481     0.001800     NO 
 RMS     Displacement     0.069191     0.001200     NO 
 Predicted change in Energy=-6.279627D-04
 GradGradGradGradGradGradGradGradGradGradGradGradGradGradGradGradGradGrad

 Leave Link  103 at Wed Oct  3 23:23:36 2007, MaxMem=    6291456 cpu:       0.0
 (Enter /opt/und/gaussian/03D01/linux86-64/g03/l202.exe)
                          Input orientation:                          
 ---------------------------------------------------------------------
 Center     Atomic     Atomic              Coordinates (Angstroms)
 Number     Number      Type              X           Y           Z
 ---------------------------------------------------------------------
    1          6             0       -0.000207    0.013191    0.015541
    2          6             0       -0.011527   -0.006416    1.523059
    3          9             0        1.295909    0.141398    2.001077
    4          1             0       -0.612649    0.810793    1.889342
    5          1             0       -0.415583   -0.939334    1.880030
    6          9             0        0.525501   -1.192989   -0.462477
    7          1             0       -1.008492    0.125173   -0.350742
    8          1             0        0.605696    0.829573   -0.341430
 ---------------------------------------------------------------------
                    Distance matrix (angstroms):
                    1          2          3          4          5
     1  C    0.000000
     2  C    1.507687   0.000000
     3  F    2.374596   1.399907   0.000000
     4  H    2.126590   1.078584   2.025628   0.000000
     5  H    2.134516   1.077509   2.027767   1.761212   0.000000
     6  F    1.399907   2.374596   2.905722   3.292656   2.537187
     7  H    1.078584   2.126590   3.292656   2.375867   2.541862
     8  H    1.077509   2.134516   2.537187   2.541862   3.017768
                    6          7          8
     6  F    0.000000
     7  H    2.025628   0.000000
     8  H    2.027767   1.761212   0.000000
 Stoichiometry    C2H4F2
 Framework group  C2[X(C2H4F2)]
 Deg. of freedom    10
 Full point group                 C2
 Largest Abelian subgroup         C2      NOp   2
 Largest concise Abelian subgroup C2      NOp   2
                         Standard orientation:                         
 ---------------------------------------------------------------------
 Center     Atomic     Atomic              Coordinates (Angstroms)
 Number     Number      Type              X           Y           Z
 ---------------------------------------------------------------------
    1          6             0       -0.648966   -0.383567    0.512508
    2          6             0        0.648966    0.383567    0.512508
    3          9             0        0.648966    1.299865   -0.545858
    4          1             0        0.749046    0.922018    1.441700
    5          1             0        1.480392   -0.291841    0.395972
    6          9             0       -0.648966   -1.299865   -0.545858
    7          1             0       -0.749046   -0.922018    1.441700
    8          1             0       -1.480392    0.291841    0.395972
 ---------------------------------------------------------------------
 Rotational constants (GHZ):     17.1535102      4.9901104      4.3794970
 Leave Link  202 at Wed Oct  3 23:23:36 2007, MaxMem=    6291456 cpu:       0.1
 (Enter /opt/und/gaussian/03D01/linux86-64/g03/l301.exe)
 Standard basis: 3-21G (6D, 7F)
 There are    22 symmetry adapted basis functions of A   symmetry.
 There are    22 symmetry adapted basis functions of B   symmetry.
 Integral buffers will be    131072 words long.
 Raffenetti 1 integral format.
 Two-electron integral symmetry is turned on.
    44 basis functions,    72 primitive gaussians,    44 cartesian basis functions
    17 alpha electrons       17 beta electrons
       nuclear repulsion energy       127.4835589360 Hartrees.
 IExCor=   0 DFT=F Ex=HF Corr=None ExCW=0 ScaHFX=  1.000000
 ScaDFX=  1.000000  1.000000  1.000000  1.000000
 IRadAn=      0 IRanWt=     -1 IRanGd=            0 ICorTp=0
 NAtoms=    8 NActive=    8 NUniq=    4 SFac= 3.00D+00 NAtFMM=   80 NAOKFM=F Big=F
 Leave Link  301 at Wed Oct  3 23:23:36 2007, MaxMem=    6291456 cpu:       0.0
 (Enter /opt/und/gaussian/03D01/linux86-64/g03/linda-exe/l302.exel)
 NPDir=0 NMtPBC=     1 NCelOv=     1 NCel=       1 NClECP=     1 NCelD=      1
         NCelK=      1 NCelE2=     1 NClLst=     1 CellRange=     0.0.
 One-electron integrals computed using PRISM.
 One-electron integral symmetry used in STVInt
 NBasis=    44 RedAO= T  NBF=    22    22
 NBsUse=    44 1.00D-06 NBFU=    22    22
 Leave Link  302 at Wed Oct  3 23:23:36 2007, MaxMem=    6291456 cpu:       0.1
 (Enter /opt/und/gaussian/03D01/linux86-64/g03/l303.exe)
 DipDrv:  MaxL=1.
 Leave Link  303 at Wed Oct  3 23:23:37 2007, MaxMem=    6291456 cpu:       0.0
 (Enter /opt/und/gaussian/03D01/linux86-64/g03/l401.exe)
 Initial guess read from the read-write file:
 Guess basis will be translated and rotated to current coordinates.
 Initial guess orbital symmetries:
       Occupied  (B) (A) (B) (A) (A) (B) (A) (B) (B) (A) (A) (A)
                 (B) (B) (B) (A) (A)
       Virtual   (A) (B) (A) (B) (A) (B) (B) (B) (A) (A) (B) (B)
                 (A) (A) (B) (A) (B) (A) (B) (B) (A) (B) (A) (B)
                 (A) (A) (B)
 The electronic state of the initial guess is 1-A.
 Generating alternative initial guess.
 Harris functional with IExCor=  205 diagonalized for initial guess.
 ExpMin= 1.83D-01 ExpMax= 4.14D+02 ExpMxC= 4.14D+02 IAcc=1 IRadAn=         1 AccDes= 1.00D-06
 HarFok:  IExCor= 205 AccDes= 1.00D-06 IRadAn=         1 IDoV=1
 ScaDFX=  1.000000  1.000000  1.000000  1.000000
 Harris En= -275.521197087242    
 Leave Link  401 at Wed Oct  3 23:23:37 2007, MaxMem=    6291456 cpu:       0.1
 (Enter /opt/und/gaussian/03D01/linux86-64/g03/linda-exe/l502.exel)
 Closed shell SCF:
 Requested convergence on RMS density matrix=1.00D-08 within 128 cycles.
 Requested convergence on MAX density matrix=1.00D-06.
 Requested convergence on             energy=1.00D-06.
 No special actions if energy rises.
 Using DIIS extrapolation, IDIIS=  1040.
 Integral symmetry usage will be decided dynamically.
 Keep R1 integrals in memory in canonical form, NReq=     1360589.
 IEnd=     24490 IEndB=     24490 NGot=   6291456 MDV=   5795028
 LenX=   5795028
 Symmetry not used in FoFDir.
 MinBra= 0 MaxBra= 1 Meth= 1.
 IRaf=       0 NMat=   1 IRICut=       1 DoRegI=T DoRafI=F ISym2E= 0 JSym2E=0.

 Cycle   1  Pass 1  IDiag  1:
 E= -275.413344573162    
 DIIS: error= 7.87D-03 at cycle   1 NSaved=   1.
 NSaved= 1 IEnMin= 1 EnMin= -275.413344573162     IErMin= 1 ErrMin= 7.87D-03
 ErrMax= 7.87D-03 EMaxC= 1.00D-01 BMatC= 2.82D-03 BMatP= 2.82D-03
 IDIUse=3 WtCom= 9.21D-01 WtEn= 7.87D-02
 Coeff-Com:  0.100D+01
 Coeff-En:   0.100D+01
 Coeff:      0.100D+01
 Gap=     0.766 Goal=   None    Shift=    0.000
 GapD=    0.766 DampG=2.000 DampE=1.000 DampFc=2.0000 IDamp=-1.
 RMSDP=1.20D-03 MaxDP=5.18D-03              OVMax= 1.52D-02

 Cycle   2  Pass 1  IDiag  1:
 E= -275.417918977374     Delta-E=       -0.004574404213 Rises=F Damp=F
 DIIS: error= 2.09D-03 at cycle   2 NSaved=   2.
 NSaved= 2 IEnMin= 2 EnMin= -275.417918977374     IErMin= 2 ErrMin= 2.09D-03
 ErrMax= 2.09D-03 EMaxC= 1.00D-01 BMatC= 2.32D-04 BMatP= 2.82D-03
 IDIUse=3 WtCom= 9.79D-01 WtEn= 2.09D-02
 Coeff-Com: -0.309D+00 0.131D+01
 Coeff-En:   0.000D+00 0.100D+01
 Coeff:     -0.303D+00 0.130D+01
 Gap=     0.764 Goal=   None    Shift=    0.000
 RMSDP=5.77D-04 MaxDP=2.52D-03 DE=-4.57D-03 OVMax= 7.29D-03

 Cycle   3  Pass 1  IDiag  1:
 E= -275.418479839303     Delta-E=       -0.000560861928 Rises=F Damp=F
 DIIS: error= 4.65D-04 at cycle   3 NSaved=   3.
 NSaved= 3 IEnMin= 3 EnMin= -275.418479839303     IErMin= 3 ErrMin= 4.65D-04
 ErrMax= 4.65D-04 EMaxC= 1.00D-01 BMatC= 9.16D-06 BMatP= 2.32D-04
 IDIUse=3 WtCom= 9.95D-01 WtEn= 4.65D-03
 Coeff-Com:  0.284D-01-0.254D+00 0.123D+01
 Coeff-En:   0.000D+00 0.000D+00 0.100D+01
 Coeff:      0.283D-01-0.253D+00 0.122D+01
 Gap=     0.764 Goal=   None    Shift=    0.000
 RMSDP=1.46D-04 MaxDP=8.56D-04 DE=-5.61D-04 OVMax= 1.78D-03

 Cycle   4  Pass 1  IDiag  1:
 E= -275.418503510301     Delta-E=       -0.000023670998 Rises=F Damp=F
 DIIS: error= 1.37D-04 at cycle   4 NSaved=   4.
 NSaved= 4 IEnMin= 4 EnMin= -275.418503510301     IErMin= 4 ErrMin= 1.37D-04
 ErrMax= 1.37D-04 EMaxC= 1.00D-01 BMatC= 1.21D-06 BMatP= 9.16D-06
 IDIUse=3 WtCom= 9.99D-01 WtEn= 1.37D-03
 Coeff-Com:  0.223D-01-0.118D+00 0.214D+00 0.881D+00
 Coeff-En:   0.000D+00 0.000D+00 0.000D+00 0.100D+01
 Coeff:      0.223D-01-0.118D+00 0.214D+00 0.882D+00
 Gap=     0.764 Goal=   None    Shift=    0.000
 RMSDP=3.33D-05 MaxDP=2.39D-04 DE=-2.37D-05 OVMax= 3.82D-04

 Cycle   5  Pass 1  IDiag  1:
 E= -275.418505304380     Delta-E=       -0.000001794079 Rises=F Damp=F
 DIIS: error= 6.36D-05 at cycle   5 NSaved=   5.
 NSaved= 5 IEnMin= 5 EnMin= -275.418505304380     IErMin= 5 ErrMin= 6.36D-05
 ErrMax= 6.36D-05 EMaxC= 1.00D-01 BMatC= 1.71D-07 BMatP= 1.21D-06
 IDIUse=1 WtCom= 1.00D+00 WtEn= 0.00D+00
 Coeff-Com: -0.753D-02 0.591D-01-0.256D+00-0.304D-01 0.124D+01
 Coeff:     -0.753D-02 0.591D-01-0.256D+00-0.304D-01 0.124D+01
 Gap=     0.764 Goal=   None    Shift=    0.000
 RMSDP=2.13D-05 MaxDP=1.32D-04 DE=-1.79D-06 OVMax= 2.63D-04

 Cycle   6  Pass 1  IDiag  1:
 E= -275.418505717925     Delta-E=       -0.000000413545 Rises=F Damp=F
 DIIS: error= 1.03D-05 at cycle   6 NSaved=   6.
 NSaved= 6 IEnMin= 6 EnMin= -275.418505717925     IErMin= 6 ErrMin= 1.03D-05
 ErrMax= 1.03D-05 EMaxC= 1.00D-01 BMatC= 4.80D-09 BMatP= 1.71D-07
 IDIUse=1 WtCom= 1.00D+00 WtEn= 0.00D+00
 Coeff-Com:  0.111D-02-0.116D-01 0.663D-01-0.366D-01-0.378D+00 0.136D+01
 Coeff:      0.111D-02-0.116D-01 0.663D-01-0.366D-01-0.378D+00 0.136D+01
 Gap=     0.764 Goal=   None    Shift=    0.000
 RMSDP=4.89D-06 MaxDP=2.65D-05 DE=-4.14D-07 OVMax= 7.14D-05

 Cycle   7  Pass 1  IDiag  1:
 E= -275.418505734368     Delta-E=       -0.000000016444 Rises=F Damp=F
 DIIS: error= 1.78D-06 at cycle   7 NSaved=   7.
 NSaved= 7 IEnMin= 7 EnMin= -275.418505734368     IErMin= 7 ErrMin= 1.78D-06
 ErrMax= 1.78D-06 EMaxC= 1.00D-01 BMatC= 1.29D-10 BMatP= 4.80D-09
 IDIUse=1 WtCom= 1.00D+00 WtEn= 0.00D+00
 Coeff-Com:  0.383D-04 0.515D-04-0.246D-02 0.510D-02 0.215D-01-0.201D+00
 Coeff-Com:  0.118D+01
 Coeff:      0.383D-04 0.515D-04-0.246D-02 0.510D-02 0.215D-01-0.201D+00
 Coeff:      0.118D+01
 Gap=     0.764 Goal=   None    Shift=    0.000
 RMSDP=6.02D-07 MaxDP=2.95D-06 DE=-1.64D-08 OVMax= 9.29D-06

 Cycle   8  Pass 1  IDiag  1:
 E= -275.418505734718     Delta-E=       -0.000000000349 Rises=F Damp=F
 DIIS: error= 4.10D-07 at cycle   8 NSaved=   8.
 NSaved= 8 IEnMin= 8 EnMin= -275.418505734718     IErMin= 8 ErrMin= 4.10D-07
 ErrMax= 4.10D-07 EMaxC= 1.00D-01 BMatC= 8.93D-12 BMatP= 1.29D-10
 IDIUse=1 WtCom= 1.00D+00 WtEn= 0.00D+00
 Coeff-Com: -0.880D-04 0.913D-03-0.531D-02 0.347D-02 0.293D-01-0.115D+00
 Coeff-Com:  0.896D-01 0.997D+00
 Coeff:     -0.880D-04 0.913D-03-0.531D-02 0.347D-02 0.293D-01-0.115D+00
 Coeff:      0.896D-01 0.997D+00
 Gap=     0.764 Goal=   None    Shift=    0.000
 RMSDP=1.31D-07 MaxDP=9.59D-07 DE=-3.49D-10 OVMax= 1.72D-06

 Cycle   9  Pass 1  IDiag  1:
 E= -275.418505734735     Delta-E=       -0.000000000017 Rises=F Damp=F
 DIIS: error= 4.31D-08 at cycle   9 NSaved=   9.
 NSaved= 9 IEnMin= 9 EnMin= -275.418505734735     IErMin= 9 ErrMin= 4.31D-08
 ErrMax= 4.31D-08 EMaxC= 1.00D-01 BMatC= 1.79D-13 BMatP= 8.93D-12
 IDIUse=1 WtCom= 1.00D+00 WtEn= 0.00D+00
 Coeff-Com:  0.122D-04-0.142D-03 0.894D-03-0.699D-03-0.513D-02 0.244D-01
 Coeff-Com: -0.527D-01-0.153D+00 0.119D+01
 Coeff:      0.122D-04-0.142D-03 0.894D-03-0.699D-03-0.513D-02 0.244D-01
 Coeff:     -0.527D-01-0.153D+00 0.119D+01
 Gap=     0.764 Goal=   None    Shift=    0.000
 RMSDP=2.52D-08 MaxDP=9.95D-08 DE=-1.73D-11 OVMax= 2.54D-07

 Cycle  10  Pass 1  IDiag  1:
 E= -275.418505734736     Delta-E=       -0.000000000001 Rises=F Damp=F
 DIIS: error= 9.56D-09 at cycle  10 NSaved=  10.
 NSaved=10 IEnMin=10 EnMin= -275.418505734736     IErMin=10 ErrMin= 9.56D-09
 ErrMax= 9.56D-09 EMaxC= 1.00D-01 BMatC= 4.56D-15 BMatP= 1.79D-13
 IDIUse=1 WtCom= 1.00D+00 WtEn= 0.00D+00
 Coeff-Com: -0.241D-05 0.297D-04-0.196D-03 0.172D-03 0.112D-02-0.584D-02
 Coeff-Com:  0.147D-01 0.327D-01-0.365D+00 0.132D+01
 Coeff:     -0.241D-05 0.297D-04-0.196D-03 0.172D-03 0.112D-02-0.584D-02
 Coeff:      0.147D-01 0.327D-01-0.365D+00 0.132D+01
 Gap=     0.764 Goal=   None    Shift=    0.000
 RMSDP=3.94D-09 MaxDP=1.99D-08 DE=-9.66D-13 OVMax= 3.99D-08

 SCF Done:  E(RHF) =  -275.418505735     A.U. after   10 cycles
             Convg  =    0.3939D-08             -V/T =  2.0026
             S**2   =   0.0000
 KE= 2.747066672262D+02 PE=-9.096621928923D+02 EE= 2.320534609954D+02
 Leave Link  502 at Wed Oct  3 23:23:37 2007, MaxMem=    6291456 cpu:       0.1
 (Enter /opt/und/gaussian/03D01/linux86-64/g03/linda-exe/l701.exel)
 Compute integral first derivatives.
 ... and contract with generalized density number  0.
 Leave Link  701 at Wed Oct  3 23:23:38 2007, MaxMem=    6291456 cpu:       0.1
 (Enter /opt/und/gaussian/03D01/linux86-64/g03/l702.exe)
 L702 exits ... SP integral derivatives will be done elsewhere.
 Leave Link  702 at Wed Oct  3 23:23:38 2007, MaxMem=    6291456 cpu:       0.0
 (Enter /opt/und/gaussian/03D01/linux86-64/g03/linda-exe/l703.exel)
 Compute integral first derivatives, UseDBF=F.
 Integral derivatives from FoFDir, PRISM(SPDF).
 Petite list used in FoFDir.
 MinBra= 0 MaxBra= 1 Meth= 1.
 IRaf=       0 NMat=   1 IRICut=       1 DoRegI=T DoRafI=F ISym2E= 1 JSym2E=1.
 Leave Link  703 at Wed Oct  3 23:23:38 2007, MaxMem=    6291456 cpu:       0.1
 (Enter /opt/und/gaussian/03D01/linux86-64/g03/l716.exe)
 Dipole        =-1.37667655D-14-2.48689958D-14 1.29715456D+00
 ***** Axes restored to original set *****
 -------------------------------------------------------------------
 Center     Atomic                   Forces (Hartrees/Bohr)
 Number     Number              X              Y              Z
 -------------------------------------------------------------------
    1          6          -0.002203379    0.001508620    0.002002125
    2          6          -0.002408193    0.001153872   -0.002002125
    3          9           0.002667476    0.000463420    0.001534992
    4          1           0.000203464    0.000565873    0.000780432
    5          1           0.000340563   -0.000791792   -0.000547355
    6          9           0.000932404   -0.002541812   -0.001534992
    7          1          -0.000388328   -0.000459141   -0.000780432
    8          1           0.000855994    0.000100960    0.000547355
 -------------------------------------------------------------------
 Cartesian Forces:  Max     0.002667476 RMS     0.001379580
 Leave Link  716 at Wed Oct  3 23:23:38 2007, MaxMem=    6291456 cpu:       0.0
 (Enter /opt/und/gaussian/03D01/linux86-64/g03/l103.exe)

 GradGradGradGradGradGradGradGradGradGradGradGradGradGradGradGradGradGrad
 Berny optimization.
 Use GDIIS/GDPIS optimizer.
 Internal  Forces:  Max     0.003064352 RMS     0.001019635
 Search for a local minimum.
 Step number   3 out of a maximum of  38
 All quantities printed in internal units (Hartrees-Bohrs-Radians)
 Swaping is turned off.
 Update second derivatives using D2CorX and points  2  3
 Trust test= 8.33D-01 RLast= 4.24D-01 DXMaxT set to 6.00D-01
     Eigenvalues ---    0.00372   0.05633   0.05713   0.05828   0.05918
     Eigenvalues ---    0.15895   0.16000   0.16000   0.16514   0.22097
     Eigenvalues ---    0.22434   0.28683   0.32044   0.32122   0.32122
     Eigenvalues ---    0.34321   0.45309   0.465241000.000001000.00000
     Eigenvalues --- 1000.000001000.000001000.000001000.000001000.00000
     Eigenvalues --- 1000.000001000.000001000.00000
 DIIS coeff's:      1.22708     -0.23570      0.00862
 Cosine:  1.000 >  0.840
 Length:  0.999
 GDIIS step was calculated using  3 of the last  3 vectors.
 Iteration  1 RMS(Cart)=  0.01613359 RMS(Int)=  0.00014556
 Iteration  2 RMS(Cart)=  0.00014054 RMS(Int)=  0.00001175
 Iteration  3 RMS(Cart)=  0.00000001 RMS(Int)=  0.00001175
 Variable       Old X    -DE/DX   Delta X   Delta X   Delta X     New X
                                  (DIIS)     (GDIIS)  (Total)
    R1        2.84912  -0.00026   0.00056  -0.00267  -0.00211   2.84701
    R2        2.64544   0.00306   0.00115   0.00675   0.00790   2.65334
    R3        2.03823   0.00058   0.00120  -0.00030   0.00090   2.03913
    R4        2.03620   0.00038   0.00091  -0.00073   0.00018   2.03637
    R5        2.64544   0.00306   0.00115   0.00675   0.00790   2.65334
    R6        2.03823   0.00058   0.00120  -0.00030   0.00090   2.03913
    R7        2.03620   0.00038   0.00091  -0.00073   0.00018   2.03637
    A1        1.91032   0.00090   0.00040   0.00329   0.00368   1.91400
    A2        1.91122   0.00101   0.00155   0.00755   0.00910   1.92032
    A3        1.92339  -0.00131  -0.00009  -0.00993  -0.01001   1.91337
    A4        1.90133  -0.00087  -0.00124  -0.00409  -0.00536   1.89598
    A5        1.90553  -0.00008  -0.00135  -0.00182  -0.00317   1.90235
    A6        1.91187   0.00036   0.00071   0.00503   0.00575   1.91762
    A7        1.91032   0.00090   0.00040   0.00329   0.00368   1.91400
    A8        1.91122   0.00101   0.00155   0.00755   0.00910   1.92032
    A9        1.92339  -0.00131  -0.00009  -0.00993  -0.01001   1.91337
   A10        1.90133  -0.00087  -0.00124  -0.00409  -0.00536   1.89598
   A11        1.90553  -0.00008  -0.00135  -0.00182  -0.00317   1.90235
   A12        1.91187   0.00036   0.00071   0.00503   0.00575   1.91762
    D1        1.28100  -0.00022   0.03058  -0.00636   0.02421   1.30520
    D2       -2.91900  -0.00014   0.03025  -0.00481   0.02545  -2.89355
    D3       -0.81480   0.00013   0.03205  -0.00003   0.03201  -0.78279
    D4       -2.91900  -0.00014   0.03025  -0.00481   0.02545  -2.89355
    D5       -0.83581  -0.00005   0.02992  -0.00325   0.02669  -0.80911
    D6        1.26839   0.00022   0.03171   0.00153   0.03325   1.30164
    D7       -0.81480   0.00013   0.03205  -0.00003   0.03201  -0.78279
    D8        1.26839   0.00022   0.03171   0.00153   0.03325   1.30164
    D9       -2.91059   0.00048   0.03351   0.00631   0.03981  -2.87079
         Item               Value     Threshold  Converged?
 Maximum Force            0.003064     0.000450     NO 
 RMS     Force            0.001020     0.000300     NO 
 Maximum Displacement     0.038438     0.001800     NO 
 RMS     Displacement     0.016148     0.001200     NO 
 Predicted change in Energy=-7.195603D-05
 GradGradGradGradGradGradGradGradGradGradGradGradGradGradGradGradGradGrad

 Leave Link  103 at Wed Oct  3 23:23:38 2007, MaxMem=    6291456 cpu:       0.0
 (Enter /opt/und/gaussian/03D01/linux86-64/g03/l202.exe)
                          Input orientation:                          
 ---------------------------------------------------------------------
 Center     Atomic     Atomic              Coordinates (Angstroms)
 Number     Number      Type              X           Y           Z
 ---------------------------------------------------------------------
    1          6             0       -0.003410    0.012556    0.016069
    2          6             0       -0.012578   -0.003325    1.522531
    3          9             0        1.295731    0.161738    2.004756
    4          1             0       -0.622432    0.804329    1.896887
    5          1             0       -0.398935   -0.946539    1.872246
    6          9             0        0.507797   -1.203005   -0.466156
    7          1             0       -1.007786    0.136878   -0.358287
    8          1             0        0.620260    0.818757   -0.333646
 ---------------------------------------------------------------------
                    Distance matrix (angstroms):
                    1          2          3          4          5
     1  C    0.000000
     2  C    1.506573   0.000000
     3  F    2.380104   1.404087   0.000000
     4  H    2.132503   1.079060   2.025811   0.000000
     5  H    2.126428   1.077601   2.029219   1.765247   0.000000
     6  F    1.404087   2.380104   2.930660   3.300118   2.521123
     7  H    1.079060   2.132503   3.300118   2.383234   2.553384
     8  H    1.077601   2.126428   2.521123   2.553384   3.003496
                    6          7          8
     6  F    0.000000
     7  H    2.025811   0.000000
     8  H    2.029219   1.765247   0.000000
 Stoichiometry    C2H4F2
 Framework group  C2[X(C2H4F2)]
 Deg. of freedom    10
 Full point group                 C2
 Largest Abelian subgroup         C2      NOp   2
 Largest concise Abelian subgroup C2      NOp   2
                         Standard orientation:                         
 ---------------------------------------------------------------------
 Center     Atomic     Atomic              Coordinates (Angstroms)
 Number     Number      Type              X           Y           Z
 ---------------------------------------------------------------------
    1          6             0       -0.649218   -0.382042    0.509384
    2          6             0        0.649218    0.382042    0.509384
    3          9             0        0.649218    1.313662   -0.541115
    4          1             0        0.765309    0.913374    1.441360
    5          1             0        1.471248   -0.301127    0.372371
    6          9             0       -0.649218   -1.313662   -0.541115
    7          1             0       -0.765309   -0.913374    1.441360
    8          1             0       -1.471248    0.301127    0.372371
 ---------------------------------------------------------------------
 Rotational constants (GHZ):     17.2812240      4.9251010      4.3437876
 Leave Link  202 at Wed Oct  3 23:23:39 2007, MaxMem=    6291456 cpu:       0.1
 (Enter /opt/und/gaussian/03D01/linux86-64/g03/l301.exe)
 Standard basis: 3-21G (6D, 7F)
 There are    22 symmetry adapted basis functions of A   symmetry.
 There are    22 symmetry adapted basis functions of B   symmetry.
 Integral buffers will be    131072 words long.
 Raffenetti 1 integral format.
 Two-electron integral symmetry is turned on.
    44 basis functions,    72 primitive gaussians,    44 cartesian basis functions
    17 alpha electrons       17 beta electrons
       nuclear repulsion energy       127.2005600885 Hartrees.
 IExCor=   0 DFT=F Ex=HF Corr=None ExCW=0 ScaHFX=  1.000000
 ScaDFX=  1.000000  1.000000  1.000000  1.000000
 IRadAn=      0 IRanWt=     -1 IRanGd=            0 ICorTp=0
 NAtoms=    8 NActive=    8 NUniq=    4 SFac= 3.00D+00 NAtFMM=   80 NAOKFM=F Big=F
 Leave Link  301 at Wed Oct  3 23:23:39 2007, MaxMem=    6291456 cpu:       0.0
 (Enter /opt/und/gaussian/03D01/linux86-64/g03/linda-exe/l302.exel)
 NPDir=0 NMtPBC=     1 NCelOv=     1 NCel=       1 NClECP=     1 NCelD=      1
         NCelK=      1 NCelE2=     1 NClLst=     1 CellRange=     0.0.
 One-electron integrals computed using PRISM.
 One-electron integral symmetry used in STVInt
 NBasis=    44 RedAO= T  NBF=    22    22
 NBsUse=    44 1.00D-06 NBFU=    22    22
 Leave Link  302 at Wed Oct  3 23:23:39 2007, MaxMem=    6291456 cpu:       0.1
 (Enter /opt/und/gaussian/03D01/linux86-64/g03/l303.exe)
 DipDrv:  MaxL=1.
 Leave Link  303 at Wed Oct  3 23:23:39 2007, MaxMem=    6291456 cpu:       0.0
 (Enter /opt/und/gaussian/03D01/linux86-64/g03/l401.exe)
 Initial guess read from the read-write file:
 Guess basis will be translated and rotated to current coordinates.
 Initial guess orbital symmetries:
       Occupied  (B) (A) (B) (A) (A) (B) (A) (B) (B) (A) (A) (A)
                 (B) (B) (B) (A) (A)
       Virtual   (A) (B) (A) (B) (A) (B) (B) (B) (A) (A) (B) (B)
                 (A) (A) (B) (A) (B) (A) (B) (B) (A) (B) (A) (B)
                 (A) (A) (B)
 The electronic state of the initial guess is 1-A.
 Generating alternative initial guess.
 Harris functional with IExCor=  205 diagonalized for initial guess.
 ExpMin= 1.83D-01 ExpMax= 4.14D+02 ExpMxC= 4.14D+02 IAcc=1 IRadAn=         1 AccDes= 1.00D-06
 HarFok:  IExCor= 205 AccDes= 1.00D-06 IRadAn=         1 IDoV=1
 ScaDFX=  1.000000  1.000000  1.000000  1.000000
 Harris En= -275.521274468273    
 Leave Link  401 at Wed Oct  3 23:23:39 2007, MaxMem=    6291456 cpu:       0.1
 (Enter /opt/und/gaussian/03D01/linux86-64/g03/linda-exe/l502.exel)
 Closed shell SCF:
 Requested convergence on RMS density matrix=1.00D-08 within 128 cycles.
 Requested convergence on MAX density matrix=1.00D-06.
 Requested convergence on             energy=1.00D-06.
 No special actions if energy rises.
 Using DIIS extrapolation, IDIIS=  1040.
 Integral symmetry usage will be decided dynamically.
 Keep R1 integrals in memory in canonical form, NReq=     1360589.
 IEnd=     24490 IEndB=     24490 NGot=   6291456 MDV=   5795028
 LenX=   5795028
 Symmetry not used in FoFDir.
 MinBra= 0 MaxBra= 1 Meth= 1.
 IRaf=       0 NMat=   1 IRICut=       1 DoRegI=T DoRafI=F ISym2E= 0 JSym2E=0.

 Cycle   1  Pass 1  IDiag  1:
 E= -275.418326661159    
 DIIS: error= 1.26D-03 at cycle   1 NSaved=   1.
 NSaved= 1 IEnMin= 1 EnMin= -275.418326661159     IErMin= 1 ErrMin= 1.26D-03
 ErrMax= 1.26D-03 EMaxC= 1.00D-01 BMatC= 1.46D-04 BMatP= 1.46D-04
 IDIUse=3 WtCom= 9.87D-01 WtEn= 1.26D-02
 Coeff-Com:  0.100D+01
 Coeff-En:   0.100D+01
 Coeff:      0.100D+01
 Gap=     0.765 Goal=   None    Shift=    0.000
 GapD=    0.765 DampG=2.000 DampE=1.000 DampFc=2.0000 IDamp=-1.
 RMSDP=3.09D-04 MaxDP=1.31D-03              OVMax= 3.06D-03

 Cycle   2  Pass 1  IDiag  1:
 E= -275.418537640957     Delta-E=       -0.000210979797 Rises=F Damp=F
 DIIS: error= 3.73D-04 at cycle   2 NSaved=   2.
 NSaved= 2 IEnMin= 2 EnMin= -275.418537640957     IErMin= 2 ErrMin= 3.73D-04
 ErrMax= 3.73D-04 EMaxC= 1.00D-01 BMatC= 1.07D-05 BMatP= 1.46D-04
 IDIUse=3 WtCom= 9.96D-01 WtEn= 3.73D-03
 Coeff-Com: -0.233D+00 0.123D+01
 Coeff-En:   0.000D+00 0.100D+01
 Coeff:     -0.232D+00 0.123D+01
 Gap=     0.764 Goal=   None    Shift=    0.000
 RMSDP=1.21D-04 MaxDP=5.89D-04 DE=-2.11D-04 OVMax= 1.38D-03

 Cycle   3  Pass 1  IDiag  1:
 E= -275.418561536547     Delta-E=       -0.000023895591 Rises=F Damp=F
 DIIS: error= 1.07D-04 at cycle   3 NSaved=   3.
 NSaved= 3 IEnMin= 3 EnMin= -275.418561536547     IErMin= 3 ErrMin= 1.07D-04
 ErrMax= 1.07D-04 EMaxC= 1.00D-01 BMatC= 9.24D-07 BMatP= 1.07D-05
 IDIUse=3 WtCom= 9.99D-01 WtEn= 1.07D-03
 Coeff-Com: -0.528D-01 0.890D-01 0.964D+00
 Coeff-En:   0.000D+00 0.000D+00 0.100D+01
 Coeff:     -0.527D-01 0.889D-01 0.964D+00
 Gap=     0.764 Goal=   None    Shift=    0.000
 RMSDP=3.11D-05 MaxDP=1.90D-04 DE=-2.39D-05 OVMax= 4.39D-04

 Cycle   4  Pass 1  IDiag  1:
 E= -275.418563073952     Delta-E=       -0.000001537405 Rises=F Damp=F
 DIIS: error= 4.57D-05 at cycle   4 NSaved=   4.
 NSaved= 4 IEnMin= 4 EnMin= -275.418563073952     IErMin= 4 ErrMin= 4.57D-05
 ErrMax= 4.57D-05 EMaxC= 1.00D-01 BMatC= 1.72D-07 BMatP= 9.24D-07
 IDIUse=1 WtCom= 1.00D+00 WtEn= 0.00D+00
[...]
 DIIS: error= 1.50D-06 at cycle   5 NSaved=   5.
 NSaved= 5 IEnMin= 5 EnMin= -275.418571366858     IErMin= 5 ErrMin= 1.50D-06
 ErrMax= 1.50D-06 EMaxC= 1.00D-01 BMatC= 8.26D-11 BMatP= 1.34D-09
 IDIUse=1 WtCom= 1.00D+00 WtEn= 0.00D+00
 Coeff-Com: -0.514D-02 0.783D-01-0.219D+00-0.310D+00 0.146D+01
 Coeff:     -0.514D-02 0.783D-01-0.219D+00-0.310D+00 0.146D+01
 Gap=     0.765 Goal=   None    Shift=    0.000
 RMSDP=5.62D-07 MaxDP=3.23D-06 DE=-1.93D-09 OVMax= 8.05D-06

 Cycle   6  Pass 1  IDiag  1:
 E= -275.418571367109     Delta-E=       -0.000000000251 Rises=F Damp=F
 DIIS: error= 1.87D-07 at cycle   6 NSaved=   6.
 NSaved= 6 IEnMin= 6 EnMin= -275.418571367109     IErMin= 6 ErrMin= 1.87D-07
 ErrMax= 1.87D-07 EMaxC= 1.00D-01 BMatC= 1.90D-12 BMatP= 8.26D-11
 IDIUse=1 WtCom= 1.00D+00 WtEn= 0.00D+00
 Coeff-Com:  0.575D-03-0.138D-01 0.467D-01 0.455D-01-0.374D+00 0.130D+01
 Coeff:      0.575D-03-0.138D-01 0.467D-01 0.455D-01-0.374D+00 0.130D+01
 Gap=     0.765 Goal=   None    Shift=    0.000
 RMSDP=8.70D-08 MaxDP=4.89D-07 DE=-2.51D-10 OVMax= 1.39D-06

 Cycle   7  Pass 1  IDiag  1:
 E= -275.418571367115     Delta-E=       -0.000000000006 Rises=F Damp=F
 DIIS: error= 3.27D-08 at cycle   7 NSaved=   7.
 NSaved= 7 IEnMin= 7 EnMin= -275.418571367115     IErMin= 7 ErrMin= 3.27D-08
 ErrMax= 3.27D-08 EMaxC= 1.00D-01 BMatC= 7.86D-14 BMatP= 1.90D-12
 IDIUse=1 WtCom= 1.00D+00 WtEn= 0.00D+00
 Coeff-Com:  0.221D-03-0.375D-02 0.106D-01 0.160D-01-0.789D-01 0.569D-01
 Coeff-Com:  0.999D+00
 Coeff:      0.221D-03-0.375D-02 0.106D-01 0.160D-01-0.789D-01 0.569D-01
 Coeff:      0.999D+00
 Gap=     0.765 Goal=   None    Shift=    0.000
 RMSDP=1.25D-08 MaxDP=7.41D-08 DE=-5.85D-12 OVMax= 1.84D-07

 Cycle   8  Pass 1  IDiag  1:
 E= -275.418571367116     Delta-E=       -0.000000000001 Rises=F Damp=F
 DIIS: error= 8.60D-09 at cycle   8 NSaved=   8.
 NSaved= 8 IEnMin= 8 EnMin= -275.418571367116     IErMin= 8 ErrMin= 8.60D-09
 ErrMax= 8.60D-09 EMaxC= 1.00D-01 BMatC= 4.46D-15 BMatP= 7.86D-14
 IDIUse=1 WtCom= 1.00D+00 WtEn= 0.00D+00
 Coeff-Com: -0.598D-04 0.127D-02-0.415D-02-0.442D-02 0.326D-01-0.987D-01
 Coeff-Com: -0.626D-01 0.114D+01
 Coeff:     -0.598D-04 0.127D-02-0.415D-02-0.442D-02 0.326D-01-0.987D-01
 Coeff:     -0.626D-01 0.114D+01
 Gap=     0.765 Goal=   None    Shift=    0.000
 RMSDP=3.43D-09 MaxDP=2.45D-08 DE=-1.25D-12 OVMax= 4.34D-08

 SCF Done:  E(RHF) =  -275.418571367     A.U. after    8 cycles
             Convg  =    0.3432D-08             -V/T =  2.0027
             S**2   =   0.0000
 KE= 2.746900880608D+02 PE=-9.091448726748D+02 EE= 2.318136362617D+02
 Leave Link  502 at Wed Oct  3 23:23:45 2007, MaxMem=    6291456 cpu:       0.1
 (Enter /opt/und/gaussian/03D01/linux86-64/g03/linda-exe/l701.exel)
 Compute integral first derivatives.
 ... and contract with generalized density number  0.
 Leave Link  701 at Wed Oct  3 23:23:45 2007, MaxMem=    6291456 cpu:       0.1
 (Enter /opt/und/gaussian/03D01/linux86-64/g03/l702.exe)
 L702 exits ... SP integral derivatives will be done elsewhere.
 Leave Link  702 at Wed Oct  3 23:23:46 2007, MaxMem=    6291456 cpu:       0.0
 (Enter /opt/und/gaussian/03D01/linux86-64/g03/linda-exe/l703.exel)
 Compute integral first derivatives, UseDBF=F.
 Integral derivatives from FoFDir, PRISM(SPDF).
 Petite list used in FoFDir.
 MinBra= 0 MaxBra= 1 Meth= 1.
 IRaf=       0 NMat=   1 IRICut=       1 DoRegI=T DoRafI=F ISym2E= 1 JSym2E=1.
 Leave Link  703 at Wed Oct  3 23:23:46 2007, MaxMem=    6291456 cpu:       0.1
 (Enter /opt/und/gaussian/03D01/linux86-64/g03/l716.exe)
 Dipole        =-3.55271368D-15 1.28785871D-14 1.29272304D+00
 ***** Axes restored to original set *****
 -------------------------------------------------------------------
 Center     Atomic                   Forces (Hartrees/Bohr)
 Number     Number              X              Y              Z
 -------------------------------------------------------------------
    1          6           0.000000532    0.000019164    0.000014034
    2          6          -0.000016331   -0.000010042   -0.000014034
    3          9           0.000016455    0.000018882   -0.000005107
    4          1           0.000021084    0.000003050    0.000008857
    5          1          -0.000017716   -0.000005840   -0.000017221
    6          9          -0.000008125   -0.000023691    0.000005107
    7          1           0.000007901   -0.000019785   -0.000008857
    8          1          -0.000003800    0.000018263    0.000017221
 -------------------------------------------------------------------
 Cartesian Forces:  Max     0.000023691 RMS     0.000014127
 Leave Link  716 at Wed Oct  3 23:23:46 2007, MaxMem=    6291456 cpu:       0.0
 (Enter /opt/und/gaussian/03D01/linux86-64/g03/l103.exe)

 GradGradGradGradGradGradGradGradGradGradGradGradGradGradGradGradGradGrad
 Berny optimization.
 Use GDIIS/GDPIS optimizer.
 Internal  Forces:  Max     0.000028005 RMS     0.000015457
 Search for a local minimum.
 Step number   6 out of a maximum of  38
 All quantities printed in internal units (Hartrees-Bohrs-Radians)
 Swaping is turned off.
 Update second derivatives using D2CorX and points  2  3  4  5  6

 Trust test= 1.07D+00 RLast= 4.99D-03 DXMaxT set to 6.00D-01
     Eigenvalues ---    0.00346   0.05178   0.05726   0.05885   0.07698
     Eigenvalues ---    0.15153   0.16000   0.16000   0.17907   0.22437
     Eigenvalues ---    0.23434   0.29251   0.32122   0.32122   0.33447
     Eigenvalues ---    0.35316   0.42708   0.465241000.000001000.00000
     Eigenvalues --- 1000.000001000.000001000.000001000.000001000.00000
     Eigenvalues --- 1000.000001000.000001000.00000
 DIIS coeff's:      0.96223      0.08138     -0.02489     -0.02833      0.00996
 DIIS coeff's:     -0.00034
 Cosine:  0.993 >  0.500
 Length:  0.929
 GDIIS step was calculated using  6 of the last  6 vectors.
 Iteration  1 RMS(Cart)=  0.00028692 RMS(Int)=  0.00000014
 Iteration  2 RMS(Cart)=  0.00000005 RMS(Int)=  0.00000013
 Variable       Old X    -DE/DX   Delta X   Delta X   Delta X     New X
                                  (DIIS)     (GDIIS)  (Total)
    R1        2.84760  -0.00003  -0.00005  -0.00003  -0.00008   2.84752
    R2        2.65395   0.00002   0.00010  -0.00003   0.00007   2.65401
    R3        2.03885  -0.00001  -0.00005   0.00003  -0.00002   2.03883
    R4        2.03702   0.00001   0.00002  -0.00002   0.00000   2.03702
    R5        2.65395   0.00002   0.00010  -0.00003   0.00007   2.65401
    R6        2.03885  -0.00001  -0.00005   0.00003  -0.00002   2.03883
    R7        2.03702   0.00001   0.00002  -0.00002   0.00000   2.03702
    A1        1.91080  -0.00002  -0.00004  -0.00011  -0.00015   1.91065
    A2        1.91956   0.00002   0.00003   0.00010   0.00013   1.91970
    A3        1.91746  -0.00002  -0.00001  -0.00006  -0.00007   1.91739
    A4        1.89550  -0.00001  -0.00012  -0.00001  -0.00013   1.89537
    A5        1.90242   0.00003   0.00004   0.00011   0.00016   1.90258
    A6        1.91784   0.00001   0.00009  -0.00003   0.00006   1.91791
    A7        1.91080  -0.00002  -0.00004  -0.00011  -0.00015   1.91065
    A8        1.91956   0.00002   0.00003   0.00010   0.00013   1.91970
    A9        1.91746  -0.00002  -0.00001  -0.00006  -0.00007   1.91739
   A10        1.89550  -0.00001  -0.00012  -0.00001  -0.00013   1.89537
   A11        1.90242   0.00003   0.00004   0.00011   0.00016   1.90258
   A12        1.91784   0.00001   0.00009  -0.00003   0.00006   1.91791
    D1        1.30870   0.00001  -0.00048   0.00011  -0.00038   1.30832
    D2       -2.89308   0.00000  -0.00064   0.00009  -0.00055  -2.89362
    D3       -0.77991   0.00000  -0.00050   0.00007  -0.00043  -0.78034
    D4       -2.89308   0.00000  -0.00064   0.00009  -0.00055  -2.89362
    D5       -0.81167  -0.00001  -0.00079   0.00007  -0.00071  -0.81239
    D6        1.30149  -0.00001  -0.00066   0.00006  -0.00060   1.30090
    D7       -0.77991   0.00000  -0.00050   0.00007  -0.00043  -0.78034
    D8        1.30149  -0.00001  -0.00066   0.00006  -0.00060   1.30090
    D9       -2.86853   0.00000  -0.00052   0.00004  -0.00048  -2.86901
         Item               Value     Threshold  Converged?
 Maximum Force            0.000028     0.000450     YES
 RMS     Force            0.000015     0.000300     YES
 Maximum Displacement     0.000603     0.001800     YES
 RMS     Displacement     0.000287     0.001200     YES
 Predicted change in Energy=-2.644974D-08
 Optimization completed.
    -- Stationary point found.
                           ----------------------------
                           !   Optimized Parameters   !
                           ! (Angstroms and Degrees)  !
 --------------------------                            --------------------------
 ! Name  Definition              Value          Derivative Info.                !
 --------------------------------------------------------------------------------
 ! R1    R(1,2)                  1.5069         -DE/DX =    0.0                 !
 ! R2    R(1,6)                  1.4044         -DE/DX =    0.0                 !
 ! R3    R(1,7)                  1.0789         -DE/DX =    0.0                 !
 ! R4    R(1,8)                  1.0779         -DE/DX =    0.0                 !
 ! R5    R(2,3)                  1.4044         -DE/DX =    0.0                 !
 ! R6    R(2,4)                  1.0789         -DE/DX =    0.0                 !
 ! R7    R(2,5)                  1.0779         -DE/DX =    0.0                 !
 ! A1    A(2,1,6)              109.4808         -DE/DX =    0.0                 !
 ! A2    A(2,1,7)              109.9828         -DE/DX =    0.0                 !
 ! A3    A(2,1,8)              109.8625         -DE/DX =    0.0                 !
 ! A4    A(6,1,7)              108.6041         -DE/DX =    0.0                 !
 ! A5    A(6,1,8)              109.0007         -DE/DX =    0.0                 !
 ! A6    A(7,1,8)              109.8844         -DE/DX =    0.0                 !
 ! A7    A(1,2,3)              109.4808         -DE/DX =    0.0                 !
 ! A8    A(1,2,4)              109.9828         -DE/DX =    0.0                 !
 ! A9    A(1,2,5)              109.8625         -DE/DX =    0.0                 !
 ! A10   A(3,2,4)              108.6041         -DE/DX =    0.0                 !
 ! A11   A(3,2,5)              109.0007         -DE/DX =    0.0                 !
 ! A12   A(4,2,5)              109.8844         -DE/DX =    0.0                 !
 ! D1    D(6,1,2,3)             74.9831         -DE/DX =    0.0                 !
 ! D2    D(6,1,2,4)           -165.7611         -DE/DX =    0.0                 !
 ! D3    D(6,1,2,5)            -44.6856         -DE/DX =    0.0                 !
 ! D4    D(7,1,2,3)           -165.7611         -DE/DX =    0.0                 !
 ! D5    D(7,1,2,4)            -46.5054         -DE/DX =    0.0                 !
 ! D6    D(7,1,2,5)             74.5701         -DE/DX =    0.0                 !
 ! D7    D(8,1,2,3)            -44.6856         -DE/DX =    0.0                 !
 ! D8    D(8,1,2,4)             74.5701         -DE/DX =    0.0                 !
 ! D9    D(8,1,2,5)           -164.3544         -DE/DX =    0.0                 !
 --------------------------------------------------------------------------------
 GradGradGradGradGradGradGradGradGradGradGradGradGradGradGradGradGradGrad

 Largest change from initial coordinates is atom    8       2.870 Angstoms.
 Leave Link  103 at Wed Oct  3 23:23:46 2007, MaxMem=    6291456 cpu:       0.0
 (Enter /opt/und/gaussian/03D01/linux86-64/g03/l202.exe)
                          Input orientation:                          
 ---------------------------------------------------------------------
 Center     Atomic     Atomic              Coordinates (Angstroms)
 Number     Number      Type              X           Y           Z
 ---------------------------------------------------------------------
    1          6             0       -0.002862    0.014198    0.015937
    2          6             0       -0.013727   -0.004620    1.522663
    3          9             0        1.295564    0.162083    2.002592
    4          1             0       -0.623043    0.803205    1.897103
    5          1             0       -0.399003   -0.947920    1.874389
    6          9             0        0.507414   -1.203033   -0.463992
    7          1             0       -1.007117    0.137969   -0.358503
    8          1             0        0.621421    0.819507   -0.335789
 ---------------------------------------------------------------------
                    Distance matrix (angstroms):
                    1          2          3          4          5
     1  C    0.000000
     2  C    1.506883   0.000000
     3  F    2.377936   1.404409   0.000000
     4  H    2.132121   1.078913   2.025640   0.000000
     5  H    2.129892   1.077944   2.029803   1.765545   0.000000
     6  F    1.404409   2.377936   2.927245   3.298135   2.520853
     7  H    1.078913   2.132121   3.298135   2.382815   2.556318
     8  H    1.077944   2.129892   2.520853   2.556318   3.008313
                    6          7          8
     6  F    0.000000
     7  H    2.025640   0.000000
     8  H    2.029803   1.765545   0.000000
 Stoichiometry    C2H4F2
 Framework group  C2[X(C2H4F2)]
 Deg. of freedom    10
 Full point group                 C2
 Largest Abelian subgroup         C2      NOp   2
 Largest concise Abelian subgroup C2      NOp   2
                         Standard orientation:                         
 ---------------------------------------------------------------------
 Center     Atomic     Atomic              Coordinates (Angstroms)
 Number     Number      Type              X           Y           Z
 ---------------------------------------------------------------------
    1          6             0       -0.651412   -0.378598    0.509479
    2          6             0        0.651412    0.378598    0.509479
    3          9             0        0.651412    1.310669   -0.541048
    4          1             0        0.769043    0.909959    1.441075
    5          1             0        1.472756   -0.305738    0.371488
    6          9             0       -0.651412   -1.310669   -0.541048
    7          1             0       -0.769043   -0.909959    1.441075
    8          1             0       -1.472756    0.305738    0.371488
 ---------------------------------------------------------------------
 Rotational constants (GHZ):     17.2526378      4.9333139      4.3522170
 Leave Link  202 at Wed Oct  3 23:23:47 2007, MaxMem=    6291456 cpu:       0.1
 (Enter /opt/und/gaussian/03D01/linux86-64/g03/l601.exe)
 Copying SCF densities to generalized density rwf, ISCF=0 IROHF=0.

 **********************************************************************

            Population analysis using the SCF density.

 **********************************************************************

 Orbital symmetries:
       Occupied  (B) (A) (B) (A) (A) (B) (A) (B) (B) (A) (A) (A)
                 (B) (B) (B) (A) (A)
       Virtual   (A) (B) (A) (B) (A) (B) (B) (B) (A) (A) (B) (B)
                 (A) (A) (B) (A) (B) (A) (B) (B) (A) (B) (A) (B)
                 (A) (A) (B)
 The electronic state is 1-A.
 Alpha  occ. eigenvalues --  -26.13509 -26.13507 -11.26490 -11.26451  -1.57075
 Alpha  occ. eigenvalues --   -1.55911  -1.05475  -0.87713  -0.72079  -0.72013
 Alpha  occ. eigenvalues --   -0.67813  -0.64367  -0.63877  -0.59696  -0.53164
 Alpha  occ. eigenvalues --   -0.52382  -0.49854
 Alpha virt. eigenvalues --    0.26619   0.28603   0.30223   0.33037   0.36320
 Alpha virt. eigenvalues --    0.38502   0.42908   0.93229   0.93601   0.95723
 Alpha virt. eigenvalues --    1.00229   1.05451   1.08081   1.21216   1.30349
 Alpha virt. eigenvalues --    1.31025   1.36555   1.79219   2.18985   2.29676
 Alpha virt. eigenvalues --    2.33976   2.42707   2.46680   2.49242   2.50921
 Alpha virt. eigenvalues --    3.98751   4.00372
          Condensed to atoms (all electrons):
              1          2          3          4          5          6
     1  C    5.117033   0.170087  -0.030516  -0.049482  -0.053729   0.209355
     2  C    0.170087   5.117033   0.209355   0.324990   0.348703  -0.030516
     3  F   -0.030516   0.209355   9.272990  -0.026755  -0.026544   0.000042
     4  H   -0.049482   0.324990  -0.026755   0.574236  -0.033811   0.001308
     5  H   -0.053729   0.348703  -0.026544  -0.033811   0.527874   0.000623
     6  F    0.209355  -0.030516   0.000042   0.001308   0.000623   9.272990
     7  H    0.324990  -0.049482   0.001308   0.004603   0.000230  -0.026755
     8  H    0.348703  -0.053729   0.000623   0.000230   0.004393  -0.026544
              7          8
     1  C    0.324990   0.348703
     2  C   -0.049482  -0.053729
     3  F    0.001308   0.000623
     4  H    0.004603   0.000230
     5  H    0.000230   0.004393
     6  F   -0.026755  -0.026544
     7  H    0.574236  -0.033811
     8  H   -0.033811   0.527874
 Mulliken atomic charges:
              1
     1  C   -0.036440
     2  C   -0.036440
     3  F   -0.400502
     4  H    0.204681
     5  H    0.232262
     6  F   -0.400502
     7  H    0.204681
     8  H    0.232262
 Sum of Mulliken charges=   0.00000
 Atomic charges with hydrogens summed into heavy atoms:
              1
     1  C    0.400502
     2  C    0.400502
     3  F   -0.400502
     4  H    0.000000
     5  H    0.000000
     6  F   -0.400502
     7  H    0.000000
     8  H    0.000000
 Sum of Mulliken charges=   0.00000
 Electronic spatial extent (au):  <R**2>=   286.4044
 Charge=     0.0000 electrons
 Dipole moment (field-independent basis, Debye):
    X=     0.0000    Y=     0.0000    Z=     3.2858  Tot=     3.2858
 Quadrupole moment (field-independent basis, Debye-Ang):
   XX=   -21.3846   YY=   -26.9164   ZZ=   -22.0783
   XY=    -2.2290   XZ=     0.0000   YZ=     0.0000
 Traceless Quadrupole moment (field-independent basis, Debye-Ang):
   XX=     2.0752   YY=    -3.4567   ZZ=     1.3815
   XY=    -2.2290   XZ=     0.0000   YZ=     0.0000
 Octapole moment (field-independent basis, Debye-Ang**2):
  XXX=     0.0000  YYY=     0.0000  ZZZ=    -5.9526  XYY=     0.0000
  XXY=     0.0000  XXZ=    -1.2112  XZZ=     0.0000  YZZ=     0.0000
  YYZ=     1.4166  XYZ=     2.2334
 Hexadecapole moment (field-independent basis, Debye-Ang**3):
 XXXX=   -87.2148 YYYY=  -138.5507 ZZZZ=   -64.4518 XXXY=   -35.0321
 XXXZ=     0.0000 YYYX=   -37.2122 YYYZ=     0.0000 ZZZX=     0.0000
 ZZZY=     0.0000 XXYY=   -38.0386 XXZZ=   -26.4959 YYZZ=   -32.8652
 XXYZ=     0.0000 YYXZ=     0.0000 ZZXY=   -10.7390
 N-N= 1.272225769851D+02 E-N=-9.091448723997D+02  KE= 2.746900880608D+02
 Symmetry A    KE= 1.386434770618D+02
 Symmetry B    KE= 1.360466109991D+02
 No NMR shielding tensors so no spin-rotation constants.
 Leave Link  601 at Wed Oct  3 23:23:47 2007, MaxMem=    6291456 cpu:       0.1
 (Enter /opt/und/gaussian/03D01/linux86-64/g03/l9999.exe)
 Atom   5 needs variable   3=   1.0779444307 but is    1.0789125489
 Input z-matrix variables are not compatible with final structure.
 1\1\GINC-DDCOPT086\FOpt\RHF\3-21G\C2H4F2\WSCHNEI1\03-Oct-2007\0\\#P HF
 /3-21G opt=(cartesian,gdiis)\\C2H4F2 Scan\\0,1\C,-0.0028622242,0.01419
 75064,0.0159367708\C,-0.0137265133,-0.0046199944,1.5226632292\F,1.2955
 638742,0.1620833052,2.0025924078\H,-0.6230429648,0.8032047751,1.897102
 6661\H,-0.3990033136,-0.947920164,1.8743886514\F,0.5074136772,-1.20303
 28799,-0.4639924078\H,-1.0071172221,0.1379686476,-0.3585026661\H,0.621
 421286,0.8195070878,-0.3357886514\\Version=AM64L-G03RevD.01\State=1-A\
 HF=-275.4185714\RMSD=3.432e-09\RMSF=1.413e-05\Thermal=0.\Dipole=-1.119
 531,0.6463615,0.\PG=C02 [X(C2H4F2)]\\@


 One man practicing sportsmanship is far better than 50 preaching it.
 -- Knute K. Rockne
 Job cpu time:  0 days  0 hours  0 minutes  6.9 seconds.
 File lengths (MBytes):  RWF=     18 Int=      0 D2E=      0 Chk=     10 Scr=      1
 Normal termination of Gaussian 03 at Wed Oct  3 23:23:47 2007.
