 Entering Gaussian System, Link 0=g03
 Input=C2H4F2-scan.com
 Output=C2H4F2-scan.log
 Initial command:
 /opt/und/gaussian/03D01/linux86-64/g03/l1.exe /scratch/Gau-7871.inp -scrdir=/scratch/
 Entering Link 1 = /opt/und/gaussian/03D01/linux86-64/g03/l1.exe PID=      7872.
  
 Copyright (c) 1988,1990,1992,1993,1995,1998,2003,2004, Gaussian, Inc.
                  All Rights Reserved.
  
 This is the Gaussian(R) 03 program.  It is based on the
 the Gaussian(R) 98 system (copyright 1998, Gaussian, Inc.),
 the Gaussian(R) 94 system (copyright 1995, Gaussian, Inc.),
 the Gaussian 92(TM) system (copyright 1992, Gaussian, Inc.),
 the Gaussian 90(TM) system (copyright 1990, Gaussian, Inc.),
 the Gaussian 88(TM) system (copyright 1988, Gaussian, Inc.),
 the Gaussian 86(TM) system (copyright 1986, Carnegie Mellon
 University), and the Gaussian 82(TM) system (copyright 1983,
 Carnegie Mellon University). Gaussian is a federally registered
 trademark of Gaussian, Inc.
  
 This software contains proprietary and confidential information,
 including trade secrets, belonging to Gaussian, Inc.
  
 This software is provided under written license and may be
 used, copied, transmitted, or stored only in accord with that
 written license.
  
 The following legend is applicable only to US Government
 contracts under FAR:
  
                    RESTRICTED RIGHTS LEGEND
  
 Use, reproduction and disclosure by the US Government is
 subject to restrictions as set forth in subparagraphs (a)
 and (c) of the Commercial Computer Software - Restricted
 Rights clause in FAR 52.227-19.
  
 Gaussian, Inc.
 340 Quinnipiac St., Bldg. 40, Wallingford CT 06492
  
  
 ---------------------------------------------------------------
 Warning -- This program may not be used in any manner that
 competes with the business of Gaussian, Inc. or will provide
 assistance to any competitor of Gaussian, Inc.  The licensee
 of this program is prohibited from giving any competitor of
 Gaussian, Inc. access to this program.  By using this program,
 the user acknowledges that Gaussian, Inc. is engaged in the
 business of creating and licensing software in the field of
 computational chemistry and represents and warrants to the
 licensee that it is not a competitor of Gaussian, Inc. and that
 it will not use this program in any manner prohibited above.
 ---------------------------------------------------------------
  

 Cite this work as:
 Gaussian 03, Revision D.01,
 M. J. Frisch, G. W. Trucks, H. B. Schlegel, G. E. Scuseria, 
 M. A. Robb, J. R. Cheeseman, J. A. Montgomery, Jr., T. Vreven, 
 K. N. Kudin, J. C. Burant, J. M. Millam, S. S. Iyengar, J. Tomasi, 
 V. Barone, B. Mennucci, M. Cossi, G. Scalmani, N. Rega, 
 G. A. Petersson, H. Nakatsuji, M. Hada, M. Ehara, K. Toyota, 
 R. Fukuda, J. Hasegawa, M. Ishida, T. Nakajima, Y. Honda, O. Kitao, 
 H. Nakai, M. Klene, X. Li, J. E. Knox, H. P. Hratchian, J. B. Cross, 
 V. Bakken, C. Adamo, J. Jaramillo, R. Gomperts, R. E. Stratmann, 
 O. Yazyev, A. J. Austin, R. Cammi, C. Pomelli, J. W. Ochterski, 
 P. Y. Ayala, K. Morokuma, G. A. Voth, P. Salvador, J. J. Dannenberg, 
 V. G. Zakrzewski, S. Dapprich, A. D. Daniels, M. C. Strain, 
 O. Farkas, D. K. Malick, A. D. Rabuck, K. Raghavachari, 
 J. B. Foresman, J. V. Ortiz, Q. Cui, A. G. Baboul, S. Clifford, 
 J. Cioslowski, B. B. Stefanov, G. Liu, A. Liashenko, P. Piskorz, 
 I. Komaromi, R. L. Martin, D. J. Fox, T. Keith, M. A. Al-Laham, 
 C. Y. Peng, A. Nanayakkara, M. Challacombe, P. M. W. Gill, 
 B. Johnson, W. Chen, M. W. Wong, C. Gonzalez, and J. A. Pople, 
 Gaussian, Inc., Wallingford CT, 2004.
 
 ******************************************
 Gaussian 03:  AM64L-G03RevD.01 13-Oct-2005
                 2-Oct-2007 
 ******************************************
 %chk=C2H4F2-scan.chk
 %mem=6MW
 %nproc=1
 Will use up to    1 processors via shared memory.
 ----------------------------
 #P HF/STO-3G SCAN NOSYMMETRY
 ----------------------------
 1/38=1,60=1/1,8;
 2/15=1,17=6,18=5,29=3,40=1/2;
 3/6=3,11=9,16=1,25=1,30=1/1,2,3;
 4//1;
 5/5=2,38=5/2;
 6/7=2,8=2,9=2,10=2,18=1,28=1/1;
 1/60=1/8(1);
 99/9=1/99;
 2/15=1,29=3/2;
 3/6=3,11=9,16=1,25=1,30=1/1,2,3;
 4/5=5,16=3/1;
 5/5=2,38=5/2;
 1/60=1/8(-4);
 99/9=1/99;
 Leave Link    1 at Tue Oct  2 02:28:30 2007, MaxMem=    6291456 cpu:       0.5
 (Enter /opt/und/gaussian/03D01/linux86-64/g03/l101.exe)
 -----------
 C2H4F2 Scan
 -----------
 Symbolic Z-matrix:
 Charge =  0 Multiplicity = 1
 C
 C                    1    r1
 F                    2    r2       1    A1
 H                    2    r3       1    A2       3    D1       0
 H                    2    r3       1    A2       3    D2       0
 F                    1    r2       2    A1       3    D3       0
 H                    1    r3       2    A2       6    D1       0
 H                    1    r3       2    A2       6    D2       0
       Variables:
  r1                    1.5386                   
  r2                    1.39462                  
  r3                    1.11456                  
  D1                  120.47127                  
  D2                 -120.48305                  
  A1                  109.54214                  
  D3                    7.5    Scan 23   15.     
  A2                  110.09239                  
 
                    Isotopes and Nuclear Properties:
 (Nuclear quadrupole moments (NQMom) in fm**2, nuclear magnetic moments (NMagM)
  in nuclear magnetons)

  Atom         1           2           3           4           5           6           7           8
 IAtWgt=          12          12          19           1           1          19           1           1
 AtmWgt=  12.0000000  12.0000000  18.9984033   1.0078250   1.0078250  18.9984033   1.0078250   1.0078250
 NucSpn=           0           0           1           1           1           1           1           1
 AtZEff=   0.0000000   0.0000000   0.0000000   0.0000000   0.0000000   0.0000000   0.0000000   0.0000000
 NQMom=    0.0000000   0.0000000  -9.4200000   0.0000000   0.0000000  -9.4200000   0.0000000   0.0000000
 NMagM=    0.0000000   0.0000000   2.6288670   2.7928460   2.7928460   2.6288670   2.7928460   2.7928460
 Leave Link  101 at Tue Oct  2 02:28:30 2007, MaxMem=    6291456 cpu:       0.3
 (Enter /opt/und/gaussian/03D01/linux86-64/g03/l108.exe)
 Scan the potential surface.
 Variable   Value     No. Steps Step-Size
 -------- ----------- --------- ---------
     7       7.500000      23     15.0000
 A total of     24 points will be computed.
 Leave Link  108 at Tue Oct  2 02:28:31 2007, MaxMem=    6291456 cpu:       0.0
 (Enter /opt/und/gaussian/03D01/linux86-64/g03/l202.exe)
 ------------------------------------------------------------------------
                         Z-MATRIX (ANGSTROMS AND DEGREES)
 CD Cent Atom  N1     Length/X     N2    Alpha/Y     N3     Beta/Z      J
 ------------------------------------------------------------------------
   1   1  C 
   2   2  C     1   1.538600(  1)
   3   3  F     2   1.394620(  2)   1  109.542(  8)
   4   4  H     2   1.114560(  3)   1  110.092(  9)   3  120.471( 14)   0
   5   5  H     2   1.114560(  4)   1  110.092( 10)   3 -120.483( 15)   0
   6   6  F     1   1.394620(  5)   2  109.542( 11)   3    7.500( 16)   0
   7   7  H     1   1.114560(  6)   2  110.092( 12)   6  120.471( 17)   0
   8   8  H     1   1.114560(  7)   2  110.092( 13)   6 -120.483( 18)   0
 ------------------------------------------------------------------------
                         Z-Matrix orientation:                         
 ---------------------------------------------------------------------
 Center     Atomic     Atomic              Coordinates (Angstroms)
 Number     Number      Type              X           Y           Z
 ---------------------------------------------------------------------
    1          6             0        0.000000    0.000000    0.000000
    2          6             0        0.000000    0.000000    1.538600
    3          9             0        1.314284    0.000000    2.005100
    4          1             0       -0.530802    0.902157    1.921490
    5          1             0       -0.530988   -0.902048    1.921490
    6          9             0        1.303040   -0.171548   -0.466500
    7          1             0       -0.644016   -0.825156   -0.382890
    8          1             0       -0.408704    0.963639   -0.382890
 ---------------------------------------------------------------------
                    Distance matrix (angstroms):
                    1          2          3          4          5
     1  C    0.000000
     2  C    1.538600   0.000000
     3  F    2.397451   1.394620   0.000000
     4  H    2.188096   1.114560   2.055534   0.000000
     5  H    2.188096   1.114560   2.055653   1.804206   0.000000
     6  F    1.394620   2.397451   2.477573   3.196611   3.098352
     7  H    1.114560   2.188096   3.196611   2.882117   2.308432
     8  H    1.114560   2.188096   3.098352   2.308432   2.967476
                    6          7          8
     6  F    0.000000
     7  H    2.055534   0.000000
     8  H    2.055653   1.804206   0.000000
                           Interatomic angles:
       C1-C2-F3=109.5421       C1-C2-H4=110.0924       F3-C2-H4=109.5055
       C1-C2-H5=110.0924       F3-C2-H5=109.515        H4-C2-H5=108.0709
       C2-C1-F6=109.5421       C2-C1-H7=110.0924       F6-C1-H7=109.5055
       C2-C1-H8=110.0924       F6-C1-H8=109.515        H7-C1-H8=108.0709
 Symmetry turned off by external request.
 Stoichiometry    C2H4F2
 Framework group  C2[X(C2H4F2)]
 Deg. of freedom    10
 Full point group                 C2
 Rotational constants (GHZ):     14.2785257      6.2287481      4.6014241
 Leave Link  202 at Tue Oct  2 02:28:31 2007, MaxMem=    6291456 cpu:       0.1
 (Enter /opt/und/gaussian/03D01/linux86-64/g03/l301.exe)
 Standard basis: STO-3G (5D, 7F)
 Integral buffers will be    131072 words long.
 Raffenetti 1 integral format.
 Two-electron integral symmetry is turned off.
    24 basis functions,    72 primitive gaussians,    24 cartesian basis functions
    17 alpha electrons       17 beta electrons
       nuclear repulsion energy       128.4279420691 Hartrees.
 IExCor=   0 DFT=F Ex=HF Corr=None ExCW=0 ScaHFX=  1.000000
 ScaDFX=  1.000000  1.000000  1.000000  1.000000
 IRadAn=      0 IRanWt=     -1 IRanGd=            0 ICorTp=0
 NAtoms=    8 NActive=    8 NUniq=    8 SFac= 7.50D-01 NAtFMM=   80 NAOKFM=F Big=F
 Leave Link  301 at Tue Oct  2 02:28:31 2007, MaxMem=    6291456 cpu:       0.0
 (Enter /opt/und/gaussian/03D01/linux86-64/g03/linda-exe/l302.exel)
 NPDir=0 NMtPBC=     1 NCelOv=     1 NCel=       1 NClECP=     1 NCelD=      1
         NCelK=      1 NCelE2=     1 NClLst=     1 CellRange=     0.0.
 One-electron integrals computed using PRISM.
 NBasis=    24 RedAO= T  NBF=    24
 NBsUse=    24 1.00D-06 NBFU=    24
 Leave Link  302 at Tue Oct  2 02:28:31 2007, MaxMem=    6291456 cpu:       0.0
 (Enter /opt/und/gaussian/03D01/linux86-64/g03/l303.exe)
 DipDrv:  MaxL=1.
 Leave Link  303 at Tue Oct  2 02:28:31 2007, MaxMem=    6291456 cpu:       0.0
 (Enter /opt/und/gaussian/03D01/linux86-64/g03/l401.exe)
 Harris functional with IExCor=  205 diagonalized for initial guess.
 ExpMin= 1.69D-01 ExpMax= 1.67D+02 ExpMxC= 1.67D+02 IAcc=1 IRadAn=         1 AccDes= 1.00D-06
 HarFok:  IExCor= 205 AccDes= 1.00D-06 IRadAn=         1 IDoV=1
 ScaDFX=  1.000000  1.000000  1.000000  1.000000
 Harris En= -273.189559762056    
 Leave Link  401 at Tue Oct  2 02:28:32 2007, MaxMem=    6291456 cpu:       0.1
 (Enter /opt/und/gaussian/03D01/linux86-64/g03/linda-exe/l502.exel)
 Closed shell SCF:
 Requested convergence on RMS density matrix=1.00D-08 within 128 cycles.
 Requested convergence on MAX density matrix=1.00D-06.
 Requested convergence on             energy=1.00D-06.
 No special actions if energy rises.
 Using DIIS extrapolation, IDIIS=  1040.
 Two-electron integral symmetry not used.
 Keep R1 integrals in memory in canonical form, NReq=      872356.
 IEnd=     19392 IEndB=     19392 NGot=   6291456 MDV=   6244141
 LenX=   6244141
 Symmetry not used in FoFDir.
 MinBra= 0 MaxBra= 1 Meth= 1.
 IRaf=       0 NMat=   1 IRICut=       1 DoRegI=T DoRafI=F ISym2E= 0 JSym2E=0.

 Cycle   1  Pass 1  IDiag  1:
 E= -273.153490581568    
 DIIS: error= 3.73D-02 at cycle   1 NSaved=   1.
 NSaved= 1 IEnMin= 1 EnMin= -273.153490581568     IErMin= 1 ErrMin= 3.73D-02
 ErrMax= 3.73D-02 EMaxC= 1.00D-01 BMatC= 4.18D-02 BMatP= 4.18D-02
 IDIUse=3 WtCom= 6.27D-01 WtEn= 3.73D-01
 Coeff-Com:  0.100D+01
 Coeff-En:   0.100D+01
 Coeff:      0.100D+01
 Gap=     0.930 Goal=   None    Shift=    0.000
 GapD=    0.930 DampG=2.000 DampE=0.500 DampFc=1.0000 IDamp=-1.
 RMSDP=1.00D-02 MaxDP=7.60D-02              OVMax= 0.00D+00

 Cycle   2  Pass 1  IDiag  1:
 E= -273.189198700549     Delta-E=       -0.035708118981 Rises=F Damp=F
 DIIS: error= 6.22D-03 at cycle   2 NSaved=   2.
 NSaved= 2 IEnMin= 2 EnMin= -273.189198700549     IErMin= 2 ErrMin= 6.22D-03
 ErrMax= 6.22D-03 EMaxC= 1.00D-01 BMatC= 1.36D-03 BMatP= 4.18D-02
 IDIUse=3 WtCom= 9.38D-01 WtEn= 6.22D-02
 Coeff-Com:  0.305D-01 0.970D+00
 Coeff-En:   0.000D+00 0.100D+01
 Coeff:      0.286D-01 0.971D+00
 Gap=     0.887 Goal=   None    Shift=    0.000
 RMSDP=2.41D-03 MaxDP=1.91D-02 DE=-3.57D-02 OVMax= 0.00D+00

 Cycle   3  Pass 1  IDiag  1:
 E= -273.191139538518     Delta-E=       -0.001940837969 Rises=F Damp=F
 DIIS: error= 1.79D-03 at cycle   3 NSaved=   3.
 NSaved= 3 IEnMin= 3 EnMin= -273.191139538518     IErMin= 3 ErrMin= 1.79D-03
 ErrMax= 1.79D-03 EMaxC= 1.00D-01 BMatC= 9.52D-05 BMatP= 1.36D-03
 IDIUse=3 WtCom= 9.82D-01 WtEn= 1.79D-02
 Coeff-Com: -0.262D-01 0.628D-01 0.963D+00
 Coeff-En:   0.000D+00 0.000D+00 0.100D+01
 Coeff:     -0.258D-01 0.617D-01 0.964D+00
 Gap=     0.892 Goal=   None    Shift=    0.000
 RMSDP=6.84D-04 MaxDP=3.10D-03 DE=-1.94D-03 OVMax= 0.00D+00

 Cycle   4  Pass 1  IDiag  1:
 E= -273.191312964259     Delta-E=       -0.000173425741 Rises=F Damp=F
 DIIS: error= 4.45D-04 at cycle   4 NSaved=   4.
 NSaved= 4 IEnMin= 4 EnMin= -273.191312964259     IErMin= 4 ErrMin= 4.45D-04
 ErrMax= 4.45D-04 EMaxC= 1.00D-01 BMatC= 5.85D-06 BMatP= 9.52D-05
 IDIUse=3 WtCom= 9.96D-01 WtEn= 4.45D-03
 Coeff-Com:  0.622D-02-0.588D-01-0.329D+00 0.138D+01
 Coeff-En:   0.000D+00 0.000D+00 0.000D+00 0.100D+01
 Coeff:      0.619D-02-0.585D-01-0.328D+00 0.138D+01
 Gap=     0.892 Goal=   None    Shift=    0.000
 RMSDP=2.86D-04 MaxDP=1.57D-03 DE=-1.73D-04 OVMax= 0.00D+00

 Cycle   5  Pass 1  IDiag  1:
 E= -273.191328425377     Delta-E=       -0.000015461119 Rises=F Damp=F
 DIIS: error= 2.94D-05 at cycle   5 NSaved=   5.
 NSaved= 5 IEnMin= 5 EnMin= -273.191328425377     IErMin= 5 ErrMin= 2.94D-05
 ErrMax= 2.94D-05 EMaxC= 1.00D-01 BMatC= 2.42D-08 BMatP= 5.85D-06
 IDIUse=1 WtCom= 1.00D+00 WtEn= 0.00D+00
 Coeff-Com: -0.197D-02 0.199D-01 0.104D+00-0.460D+00 0.134D+01
 Coeff:     -0.197D-02 0.199D-01 0.104D+00-0.460D+00 0.134D+01
 Gap=     0.893 Goal=   None    Shift=    0.000
 RMSDP=1.63D-05 MaxDP=7.97D-05 DE=-1.55D-05 OVMax= 0.00D+00

 Cycle   6  Pass 1  IDiag  1:
 E= -273.191328490038     Delta-E=       -0.000000064661 Rises=F Damp=F
 DIIS: error= 7.72D-06 at cycle   6 NSaved=   6.
 NSaved= 6 IEnMin= 6 EnMin= -273.191328490038     IErMin= 6 ErrMin= 7.72D-06
 ErrMax= 7.72D-06 EMaxC= 1.00D-01 BMatC= 1.27D-09 BMatP= 2.42D-08
 IDIUse=1 WtCom= 1.00D+00 WtEn= 0.00D+00
 Coeff-Com:  0.854D-03-0.883D-02-0.449D-01 0.199D+00-0.671D+00 0.152D+01
 Coeff:      0.854D-03-0.883D-02-0.449D-01 0.199D+00-0.671D+00 0.152D+01
 Gap=     0.893 Goal=   None    Shift=    0.000
 RMSDP=4.77D-06 MaxDP=2.80D-05 DE=-6.47D-08 OVMax= 0.00D+00

 Cycle   7  Pass 1  IDiag  1:
 E= -273.191328494854     Delta-E=       -0.000000004816 Rises=F Damp=F
 DIIS: error= 2.05D-06 at cycle   7 NSaved=   7.
 NSaved= 7 IEnMin= 7 EnMin= -273.191328494854     IErMin= 7 ErrMin= 2.05D-06
 ErrMax= 2.05D-06 EMaxC= 1.00D-01 BMatC= 8.32D-11 BMatP= 1.27D-09
 IDIUse=1 WtCom= 1.00D+00 WtEn= 0.00D+00
 Coeff-Com: -0.888D-04 0.975D-03 0.446D-02-0.195D-01 0.856D-01-0.490D+00
 Coeff-Com:  0.142D+01
 Coeff:     -0.888D-04 0.975D-03 0.446D-02-0.195D-01 0.856D-01-0.490D+00
 Coeff:      0.142D+01
 Gap=     0.893 Goal=   None    Shift=    0.000
 RMSDP=1.48D-06 MaxDP=8.70D-06 DE=-4.82D-09 OVMax= 0.00D+00

 Cycle   8  Pass 1  IDiag  1:
 E= -273.191328495179     Delta-E=       -0.000000000325 Rises=F Damp=F
 DIIS: error= 1.39D-07 at cycle   8 NSaved=   8.
 NSaved= 8 IEnMin= 8 EnMin= -273.191328495179     IErMin= 8 ErrMin= 1.39D-07
 ErrMax= 1.39D-07 EMaxC= 1.00D-01 BMatC= 4.30D-13 BMatP= 8.32D-11
 IDIUse=1 WtCom= 1.00D+00 WtEn= 0.00D+00
 Coeff-Com:  0.798D-05-0.959D-04-0.355D-03 0.152D-02-0.892D-02 0.721D-01
 Coeff-Com: -0.260D+00 0.120D+01
 Coeff:      0.798D-05-0.959D-04-0.355D-03 0.152D-02-0.892D-02 0.721D-01
 Coeff:     -0.260D+00 0.120D+01
 Gap=     0.893 Goal=   None    Shift=    0.000
 RMSDP=7.45D-08 MaxDP=4.85D-07 DE=-3.25D-10 OVMax= 0.00D+00

 Cycle   9  Pass 1  IDiag  1:
 E= -273.191328495181     Delta-E=       -0.000000000001 Rises=F Damp=F
 DIIS: error= 1.13D-08 at cycle   9 NSaved=   9.
 NSaved= 9 IEnMin= 9 EnMin= -273.191328495181     IErMin= 9 ErrMin= 1.13D-08
 ErrMax= 1.13D-08 EMaxC= 1.00D-01 BMatC= 2.26D-15 BMatP= 4.30D-13
 IDIUse=1 WtCom= 1.00D+00 WtEn= 0.00D+00
 Coeff-Com: -0.552D-07 0.134D-05-0.300D-05 0.194D-04 0.166D-03-0.269D-02
 Coeff-Com:  0.127D-01-0.127D+00 0.112D+01
 Coeff:     -0.552D-07 0.134D-05-0.300D-05 0.194D-04 0.166D-03-0.269D-02
 Coeff:      0.127D-01-0.127D+00 0.112D+01
 Gap=     0.893 Goal=   None    Shift=    0.000
 RMSDP=4.37D-09 MaxDP=3.13D-08 DE=-1.36D-12 OVMax= 0.00D+00

 SCF Done:  E(RHF) =  -273.191328495     A.U. after    9 cycles
             Convg  =    0.4372D-08             -V/T =  2.0110
             S**2   =   0.0000
 KE= 2.702091826044D+02 PE=-9.066143155194D+02 EE= 2.347858623506D+02
 Leave Link  502 at Tue Oct  2 02:28:32 2007, MaxMem=    6291456 cpu:       0.1
 (Enter /opt/und/gaussian/03D01/linux86-64/g03/l601.exe)
 Copying SCF densities to generalized density rwf, ISCF=0 IROHF=0.

 **********************************************************************

            Population analysis using the SCF density.

 **********************************************************************

 Alpha  occ. eigenvalues --  -25.92974 -25.92971 -11.12172 -11.12136  -1.49271
 Alpha  occ. eigenvalues --   -1.47240  -0.97118  -0.79670  -0.64753  -0.62246
 Alpha  occ. eigenvalues --   -0.56283  -0.55119  -0.50763  -0.46243  -0.43520
 Alpha  occ. eigenvalues --   -0.40079  -0.39114
 Alpha virt. eigenvalues --    0.50137   0.57592   0.63549   0.65321   0.67448
 Alpha virt. eigenvalues --    0.72383   0.75241
          Condensed to atoms (all electrons):
              1          2          3          4          5          6
     1  C    4.745544   0.339628  -0.013803  -0.022645  -0.023222   0.212882
     2  C    0.339628   4.745544   0.212882   0.369906   0.370195  -0.013803
     3  F   -0.013803   0.212882   8.968347  -0.012892  -0.012996  -0.000154
     4  H   -0.022645   0.369906  -0.012892   0.633320  -0.024254   0.000319
     5  H   -0.023222   0.370195  -0.012996  -0.024254   0.633959   0.000278
     6  F    0.212882  -0.013803  -0.000154   0.000319   0.000278   8.968347
     7  H    0.369906  -0.022645   0.000319   0.001545  -0.005710  -0.012892
     8  H    0.370195  -0.023222   0.000278  -0.005710   0.001692  -0.012996
              7          8
     1  C    0.369906   0.370195
     2  C   -0.022645  -0.023222
     3  F    0.000319   0.000278
     4  H    0.001545  -0.005710
     5  H   -0.005710   0.001692
     6  F   -0.012892  -0.012996
     7  H    0.633320  -0.024254
     8  H   -0.024254   0.633959
 Mulliken atomic charges:
              1
     1  C    0.021513
     2  C    0.021513
     3  F   -0.141981
     4  H    0.060410
     5  H    0.060058
     6  F   -0.141981
     7  H    0.060410
     8  H    0.060058
 Sum of Mulliken charges=   0.00000
 Atomic charges with hydrogens summed into heavy atoms:
              1
     1  C    0.141981
     2  C    0.141981
     3  F   -0.141981
     4  H    0.000000
     5  H    0.000000
     6  F   -0.141981
     7  H    0.000000
     8  H    0.000000
 Sum of Mulliken charges=   0.00000
 Electronic spatial extent (au):  <R**2>=   389.5425
 Charge=     0.0000 electrons
 Dipole moment (field-independent basis, Debye):
    X=    -2.0825    Y=     0.1365    Z=     0.0000  Tot=     2.0870
 Quadrupole moment (field-independent basis, Debye-Ang):
   XX=   -23.3492   YY=   -19.9129   ZZ=   -21.9877
   XY=     0.2262   XZ=    -1.6136   YZ=    -0.0714
 Traceless Quadrupole moment (field-independent basis, Debye-Ang):
   XX=    -1.5993   YY=     1.8371   ZZ=    -0.2378
   XY=     0.2262   XZ=    -1.6136   YZ=    -0.0714
 Octapole moment (field-independent basis, Debye-Ang**2):
  XXX=   -29.5427  YYY=     1.8436  ZZZ=   -50.7454  XYY=    -9.3802
  XXY=     0.7075  XXZ=   -18.0008  XZZ=   -13.4789  YZZ=     0.6109
  YYZ=   -15.2807  XYZ=    -0.1164
 Hexadecapole moment (field-independent basis, Debye-Ang**3):
 XXXX=  -102.0962 YYYY=   -27.5565 ZZZZ=  -226.2727 XXXY=     2.6301
 XXXZ=   -22.8911 YYYX=     2.2766 YYYZ=    -0.8954 ZZZX=   -29.3475
 ZZZY=    -0.7866 XXYY=   -20.7291 XXZZ=   -58.3937 YYZZ=   -39.3068
 XXYZ=    -0.2888 YYXZ=    -7.2586 ZZXY=     0.8018
 N-N= 1.284279420691D+02 E-N=-9.066143154766D+02  KE= 2.702091826044D+02
 No NMR shielding tensors so no spin-rotation constants.
 Leave Link  601 at Tue Oct  2 02:28:32 2007, MaxMem=    6291456 cpu:       0.1
 (Enter /opt/und/gaussian/03D01/linux86-64/g03/l108.exe)
 Variable Step   Value    
 -------- ---- -----------
     7       1    0.392699
 Leave Link  108 at Tue Oct  2 02:28:33 2007, MaxMem=    6291456 cpu:       0.6
 (Enter /opt/und/gaussian/03D01/linux86-64/g03/l202.exe)
 ------------------------------------------------------------------------
                         Z-MATRIX (ANGSTROMS AND DEGREES)
 CD Cent Atom  N1     Length/X     N2    Alpha/Y     N3     Beta/Z      J
 ------------------------------------------------------------------------
   1   1  C 
   2   2  C     1   1.538600(  1)
   3   3  F     2   1.394620(  2)   1  109.542(  8)
   4   4  H     2   1.114560(  3)   1  110.092(  9)   3  120.471( 14)   0
   5   5  H     2   1.114560(  4)   1  110.092( 10)   3 -120.483( 15)   0
   6   6  F     1   1.394620(  5)   2  109.542( 11)   3   22.500( 16)   0
   7   7  H     1   1.114560(  6)   2  110.092( 12)   6  120.471( 17)   0
   8   8  H     1   1.114560(  7)   2  110.092( 13)   6 -120.483( 18)   0
 ------------------------------------------------------------------------
                         Z-Matrix orientation:                         
 ---------------------------------------------------------------------
 Center     Atomic     Atomic              Coordinates (Angstroms)
 Number     Number      Type              X           Y           Z
 ---------------------------------------------------------------------
    1          6             0        0.000000    0.000000    0.000000
    2          6             0        0.000000    0.000000    1.538600
    3          9             0        1.314284    0.000000    2.005100
    4          1             0       -0.530802    0.902157    1.921490
    5          1             0       -0.530988   -0.902048    1.921490
    6          9             0        1.214240   -0.502955   -0.466500
    7          1             0       -0.835638   -0.630356   -0.382890
    8          1             0       -0.145370    1.036584   -0.382890
 ---------------------------------------------------------------------
                    Distance matrix (angstroms):
                    1          2          3          4          5
     1  C    0.000000
     2  C    1.538600   0.000000
     3  F    2.397451   1.394620   0.000000
     4  H    2.188096   1.114560   2.055534   0.000000
     5  H    2.188096   1.114560   2.055653   1.804206   0.000000
     6  F    1.394620   2.397451   2.524239   3.274448   2.984560
     7  H    1.114560   2.188096   3.274448   2.784186   2.340256
     8  H    1.114560   2.188096   2.984560   2.340256   3.035979
                    6          7          8
     6  F    0.000000
     7  H    2.055534   0.000000
     8  H    2.055653   1.804206   0.000000
                           Interatomic angles:
       C1-C2-F3=109.5421       C1-C2-H4=110.0924       F3-C2-H4=109.5055
       C1-C2-H5=110.0924       F3-C2-H5=109.515        H4-C2-H5=108.0709
       C2-C1-F6=109.5421       C2-C1-H7=110.0924       F6-C1-H7=109.5055
       C2-C1-H8=110.0924       F6-C1-H8=109.515        H7-C1-H8=108.0709
 Symmetry turned off by external request.
 Stoichiometry    C2H4F2
 Framework group  C2[X(C2H4F2)]
 Deg. of freedom    10
 Full point group                 C2
 Rotational constants (GHZ):     14.4589299      6.0683287      4.5749863
 Leave Link  202 at Tue Oct  2 02:28:34 2007, MaxMem=    6291456 cpu:       0.1
 (Enter /opt/und/gaussian/03D01/linux86-64/g03/l301.exe)
 Standard basis: STO-3G (5D, 7F)
 Integral buffers will be    131072 words long.
 Raffenetti 1 integral format.
 Two-electron integral symmetry is turned off.
    24 basis functions,    72 primitive gaussians,    24 cartesian basis functions
    17 alpha electrons       17 beta electrons
       nuclear repulsion energy       128.1506817400 Hartrees.
 IExCor=   0 DFT=F Ex=HF Corr=None ExCW=0 ScaHFX=  1.000000
 ScaDFX=  1.000000  1.000000  1.000000  1.000000
 IRadAn=      0 IRanWt=     -1 IRanGd=            0 ICorTp=0
 NAtoms=    8 NActive=    8 NUniq=    8 SFac= 7.50D-01 NAtFMM=   80 NAOKFM=F Big=F
 Leave Link  301 at Tue Oct  2 02:28:34 2007, MaxMem=    6291456 cpu:       0.0
 (Enter /opt/und/gaussian/03D01/linux86-64/g03/linda-exe/l302.exel)
 NPDir=0 NMtPBC=     1 NCelOv=     1 NCel=       1 NClECP=     1 NCelD=      1
         NCelK=      1 NCelE2=     1 NClLst=     1 CellRange=     0.0.
 One-electron integrals computed using PRISM.
 NBasis=    24 RedAO= T  NBF=    24
 NBsUse=    24 1.00D-06 NBFU=    24
 Leave Link  302 at Tue Oct  2 02:28:34 2007, MaxMem=    6291456 cpu:       0.1
 (Enter /opt/und/gaussian/03D01/linux86-64/g03/l303.exe)
 DipDrv:  MaxL=1.
 Leave Link  303 at Tue Oct  2 02:28:34 2007, MaxMem=    6291456 cpu:       0.0
 (Enter /opt/und/gaussian/03D01/linux86-64/g03/l401.exe)
 Initial guess read from the read-write file:
 Guess basis will be translated and rotated to current coordinates.
 Generating alternative initial guess.
 Harris functional with IExCor=  205 diagonalized for initial guess.
 ExpMin= 1.69D-01 ExpMax= 1.67D+02 ExpMxC= 1.67D+02 IAcc=1 IRadAn=         1 AccDes= 1.00D-06
 HarFok:  IExCor= 205 AccDes= 1.00D-06 IRadAn=         1 IDoV=1
 ScaDFX=  1.000000  1.000000  1.000000  1.000000
 Harris En= -273.189418671997    
 Leave Link  401 at Tue Oct  2 02:28:34 2007, MaxMem=    6291456 cpu:       0.1
 (Enter /opt/und/gaussian/03D01/linux86-64/g03/linda-exe/l502.exel)
 Closed shell SCF:
 Requested convergence on RMS density matrix=1.00D-08 within 128 cycles.
 Requested convergence on MAX density matrix=1.00D-06.
 Requested convergence on             energy=1.00D-06.
 No special actions if energy rises.
 Using DIIS extrapolation, IDIIS=  1040.
 Two-electron integral symmetry not used.
 Keep R1 integrals in memory in canonical form, NReq=      872356.
 IEnd=     19392 IEndB=     19392 NGot=   6291456 MDV=   6244141
 LenX=   6244141
 Symmetry not used in FoFDir.
 MinBra= 0 MaxBra= 1 Meth= 1.
 IRaf=       0 NMat=   1 IRICut=       1 DoRegI=T DoRafI=F ISym2E= 0 JSym2E=0.

 Cycle   1  Pass 1  IDiag  1:
 E= -273.153737022870    
 DIIS: error= 1.92D-02 at cycle   1 NSaved=   1.
 NSaved= 1 IEnMin= 1 EnMin= -273.153737022870     IErMin= 1 ErrMin= 1.92D-02
 ErrMax= 1.92D-02 EMaxC= 1.00D-01 BMatC= 1.44D-02 BMatP= 1.44D-02
 IDIUse=3 WtCom= 8.08D-01 WtEn= 1.92D-01
 Coeff-Com:  0.100D+01
 Coeff-En:   0.100D+01
 Coeff:      0.100D+01
 Recover alternate guess density for next cycle.
 RMSDP=1.69D-02 MaxDP=8.77D-02              OVMax= 0.00D+00

 Cycle   2  Pass 1  IDiag  1:
 E= -273.154760892653     Delta-E=       -0.001023869783 Rises=F Damp=F
 DIIS: error= 3.73D-02 at cycle   2 NSaved=   2.
 NSaved= 2 IEnMin= 2 EnMin= -273.154760892653     IErMin= 1 ErrMin= 1.92D-02
 ErrMax= 3.73D-02 EMaxC= 1.00D-01 BMatC= 4.18D-02 BMatP= 1.44D-02
 IDIUse=2 WtCom= 0.00D+00 WtEn= 1.00D+00
 Coeff-En:   0.000D+00 0.100D+01
 Coeff:      0.000D+00 0.100D+01
 Gap=     0.919 Goal=   None    Shift=    0.000
 RMSDP=1.00D-02 MaxDP=7.57D-02 DE=-1.02D-03 OVMax= 0.00D+00

 Cycle   3  Pass 1  IDiag  1:
 E= -273.190577814251     Delta-E=       -0.035816921598 Rises=F Damp=F
 DIIS: error= 6.17D-03 at cycle   3 NSaved=   3.
 NSaved= 3 IEnMin= 3 EnMin= -273.190577814251     IErMin= 3 ErrMin= 6.17D-03
 ErrMax= 6.17D-03 EMaxC= 1.00D-01 BMatC= 1.34D-03 BMatP= 1.44D-02
 IDIUse=3 WtCom= 9.38D-01 WtEn= 6.17D-02
 Coeff-Com:  0.739D-01 0.274D-01 0.899D+00
 Coeff-En:   0.000D+00 0.000D+00 0.100D+01
 Coeff:      0.693D-01 0.257D-01 0.905D+00
 Gap=     0.890 Goal=   None    Shift=    0.000
 RMSDP=2.44D-03 MaxDP=1.93D-02 DE=-3.58D-02 OVMax= 0.00D+00

 Cycle   4  Pass 1  IDiag  1:
 E= -273.192498928128     Delta-E=       -0.001921113877 Rises=F Damp=F
 DIIS: error= 1.53D-03 at cycle   4 NSaved=   4.
 NSaved= 4 IEnMin= 4 EnMin= -273.192498928128     IErMin= 4 ErrMin= 1.53D-03
 ErrMax= 1.53D-03 EMaxC= 1.00D-01 BMatC= 8.89D-05 BMatP= 1.34D-03
 IDIUse=3 WtCom= 9.85D-01 WtEn= 1.53D-02
 Coeff-Com: -0.206D-01-0.248D-01 0.533D-01 0.992D+00
 Coeff-En:   0.000D+00 0.000D+00 0.000D+00 0.100D+01
 Coeff:     -0.203D-01-0.244D-01 0.525D-01 0.992D+00
 Gap=     0.895 Goal=   None    Shift=    0.000
 RMSDP=7.07D-04 MaxDP=3.34D-03 DE=-1.92D-03 OVMax= 0.00D+00

 Cycle   5  Pass 1  IDiag  1:
 E= -273.192673808171     Delta-E=       -0.000174880043 Rises=F Damp=F
 DIIS: error= 3.59D-04 at cycle   5 NSaved=   5.
 NSaved= 5 IEnMin= 5 EnMin= -273.192673808171     IErMin= 5 ErrMin= 3.59D-04
 ErrMax= 3.59D-04 EMaxC= 1.00D-01 BMatC= 5.38D-06 BMatP= 8.89D-05
 IDIUse=3 WtCom= 9.96D-01 WtEn= 3.59D-03
 Coeff-Com:  0.563D-02 0.578D-02-0.507D-01-0.344D+00 0.138D+01
 Coeff-En:   0.000D+00 0.000D+00 0.000D+00 0.000D+00 0.100D+01
 Coeff:      0.561D-02 0.576D-02-0.506D-01-0.343D+00 0.138D+01
 Gap=     0.895 Goal=   None    Shift=    0.000
 RMSDP=2.75D-04 MaxDP=1.48D-03 DE=-1.75D-04 OVMax= 0.00D+00

 Cycle   6  Pass 1  IDiag  1:
 E= -273.192688266701     Delta-E=       -0.000014458530 Rises=F Damp=F
 DIIS: error= 3.28D-05 at cycle   6 NSaved=   6.
 NSaved= 6 IEnMin= 6 EnMin= -273.192688266701     IErMin= 6 ErrMin= 3.28D-05
 ErrMax= 3.28D-05 EMaxC= 1.00D-01 BMatC= 4.94D-08 BMatP= 5.38D-06
 IDIUse=1 WtCom= 1.00D+00 WtEn= 0.00D+00
 Coeff-Com: -0.137D-02-0.105D-02 0.103D-01 0.672D-01-0.292D+00 0.122D+01
 Coeff:     -0.137D-02-0.105D-02 0.103D-01 0.672D-01-0.292D+00 0.122D+01
 Gap=     0.895 Goal=   None    Shift=    0.000
 RMSDP=2.23D-05 MaxDP=1.39D-04 DE=-1.45D-05 OVMax= 0.00D+00

 Cycle   7  Pass 1  IDiag  1:
 E= -273.192688408136     Delta-E=       -0.000000141435 Rises=F Damp=F
 DIIS: error= 1.29D-05 at cycle   7 NSaved=   7.
 NSaved= 7 IEnMin= 7 EnMin= -273.192688408136     IErMin= 7 ErrMin= 1.29D-05
 ErrMax= 1.29D-05 EMaxC= 1.00D-01 BMatC= 5.93D-09 BMatP= 4.94D-08
 IDIUse=1 WtCom= 1.00D+00 WtEn= 0.00D+00
 Coeff-Com: -0.545D-03-0.509D-03 0.473D-02 0.299D-01-0.124D+00 0.162D-01
 Coeff-Com:  0.107D+01
 Coeff:     -0.545D-03-0.509D-03 0.473D-02 0.299D-01-0.124D+00 0.162D-01
 Coeff:      0.107D+01
 Gap=     0.895 Goal=   None    Shift=    0.000
 RMSDP=8.27D-06 MaxDP=5.13D-05 DE=-1.41D-07 OVMax= 0.00D+00

 Cycle   8  Pass 1  IDiag  1:
 E= -273.192688426205     Delta-E=       -0.000000018069 Rises=F Damp=F
 DIIS: error= 4.50D-06 at cycle   8 NSaved=   8.
 NSaved= 8 IEnMin= 8 EnMin= -273.192688426205     IErMin= 8 ErrMin= 4.50D-06
 ErrMax= 4.50D-06 EMaxC= 1.00D-01 BMatC= 5.64D-10 BMatP= 5.93D-09
 IDIUse=1 WtCom= 1.00D+00 WtEn= 0.00D+00
 Coeff-Com:  0.255D-03 0.247D-03-0.231D-02-0.152D-01 0.636D-01-0.102D+00
 Coeff-Com: -0.416D+00 0.147D+01
 Coeff:      0.255D-03 0.247D-03-0.231D-02-0.152D-01 0.636D-01-0.102D+00
 Coeff:     -0.416D+00 0.147D+01
 Gap=     0.895 Goal=   None    Shift=    0.000
 RMSDP=3.66D-06 MaxDP=2.41D-05 DE=-1.81D-08 OVMax= 0.00D+00

 Cycle   9  Pass 1  IDiag  1:
 E= -273.192688428382     Delta-E=       -0.000000002177 Rises=F Damp=F
 DIIS: error= 5.23D-07 at cycle   9 NSaved=   9.
 NSaved= 9 IEnMin= 9 EnMin= -273.192688428382     IErMin= 9 ErrMin= 5.23D-07
 ErrMax= 5.23D-07 EMaxC= 1.00D-01 BMatC= 8.74D-12 BMatP= 5.64D-10
 IDIUse=1 WtCom= 1.00D+00 WtEn= 0.00D+00
 Coeff-Com: -0.113D-04-0.860D-05 0.633D-04 0.679D-03-0.248D-02 0.497D-02
 Coeff-Com:  0.304D-01-0.193D+00 0.116D+01
 Coeff:     -0.113D-04-0.860D-05 0.633D-04 0.679D-03-0.248D-02 0.497D-02
 Coeff:      0.304D-01-0.193D+00 0.116D+01
 Gap=     0.895 Goal=   None    Shift=    0.000
 RMSDP=3.68D-07 MaxDP=1.69D-06 DE=-2.18D-09 OVMax= 0.00D+00

 Cycle  10  Pass 1  IDiag  1:
 E= -273.192688428408     Delta-E=       -0.000000000026 Rises=F Damp=F
 DIIS: error= 1.28D-07 at cycle  10 NSaved=  10.
 NSaved=10 IEnMin=10 EnMin= -273.192688428408     IErMin=10 ErrMin= 1.28D-07
 ErrMax= 1.28D-07 EMaxC= 1.00D-01 BMatC= 4.60D-13 BMatP= 8.74D-12
 IDIUse=1 WtCom= 1.00D+00 WtEn= 0.00D+00
 Coeff-Com:  0.851D-06-0.109D-05 0.177D-04-0.747D-05-0.147D-03 0.648D-05
 Coeff-Com: -0.716D-02 0.629D-01-0.544D+00 0.149D+01
 Coeff:      0.851D-06-0.109D-05 0.177D-04-0.747D-05-0.147D-03 0.648D-05
 Coeff:     -0.716D-02 0.629D-01-0.544D+00 0.149D+01
 Gap=     0.895 Goal=   None    Shift=    0.000
 RMSDP=8.71D-08 MaxDP=4.99D-07 DE=-2.61D-11 OVMax= 0.00D+00

 Cycle  11  Pass 1  IDiag  1:
 E= -273.192688428410     Delta-E=       -0.000000000003 Rises=F Damp=F
 DIIS: error= 2.94D-08 at cycle  11 NSaved=  11.
 NSaved=11 IEnMin=11 EnMin= -273.192688428410     IErMin=11 ErrMin= 2.94D-08
 ErrMax= 2.94D-08 EMaxC= 1.00D-01 BMatC= 3.06D-14 BMatP= 4.60D-13
 IDIUse=1 WtCom= 1.00D+00 WtEn= 0.00D+00
 Coeff-Com:  0.630D-07 0.571D-06-0.775D-05-0.134D-04 0.109D-03-0.212D-03
 Coeff-Com:  0.186D-02-0.160D-01 0.154D+00-0.648D+00 0.151D+01
 Coeff:      0.630D-07 0.571D-06-0.775D-05-0.134D-04 0.109D-03-0.212D-03
 Coeff:      0.186D-02-0.160D-01 0.154D+00-0.648D+00 0.151D+01
 Gap=     0.895 Goal=   None    Shift=    0.000
 RMSDP=2.81D-08 MaxDP=1.81D-07 DE=-2.50D-12 OVMax= 0.00D+00

 Cycle  12  Pass 1  IDiag  1:
 E= -273.192688428410     Delta-E=        0.000000000000 Rises=F Damp=F
 DIIS: error= 2.61D-09 at cycle  12 NSaved=  12.
 NSaved=12 IEnMin=12 EnMin= -273.192688428410     IErMin=12 ErrMin= 2.61D-09
 ErrMax= 2.61D-09 EMaxC= 1.00D-01 BMatC= 2.59D-16 BMatP= 3.06D-14
 IDIUse=1 WtCom= 1.00D+00 WtEn= 0.00D+00
 Coeff-Com:  0.308D-07-0.426D-07 0.732D-06-0.166D-06-0.544D-05 0.230D-04
 Coeff-Com: -0.272D-03 0.189D-02-0.173D-01 0.875D-01-0.287D+00 0.122D+01
 Coeff:      0.308D-07-0.426D-07 0.732D-06-0.166D-06-0.544D-05 0.230D-04
 Coeff:     -0.272D-03 0.189D-02-0.173D-01 0.875D-01-0.287D+00 0.122D+01
 Gap=     0.895 Goal=   None    Shift=    0.000
 RMSDP=2.15D-09 MaxDP=1.20D-08 DE=-5.68D-14 OVMax= 0.00D+00

 SCF Done:  E(RHF) =  -273.192688428     A.U. after   12 cycles
             Convg  =    0.2145D-08             -V/T =  2.0110
             S**2   =   0.0000
 KE= 2.702094272067D+02 PE=-9.060588652549D+02 EE= 2.345060678797D+02
 Leave Link  502 at Tue Oct  2 02:28:35 2007, MaxMem=    6291456 cpu:       0.1
 (Enter /opt/und/gaussian/03D01/linux86-64/g03/l108.exe)
 Variable Step   Value    
 -------- ---- -----------
     7       2    0.654498
 Leave Link  108 at Tue Oct  2 02:28:35 2007, MaxMem=    6291456 cpu:       0.1
 (Enter /opt/und/gaussian/03D01/linux86-64/g03/l202.exe)
 ------------------------------------------------------------------------
                         Z-MATRIX (ANGSTROMS AND DEGREES)
 CD Cent Atom  N1     Length/X     N2    Alpha/Y     N3     Beta/Z      J
 ------------------------------------------------------------------------
   1   1  C 
   2   2  C     1   1.538600(  1)
   3   3  F     2   1.394620(  2)   1  109.542(  8)
   4   4  H     2   1.114560(  3)   1  110.092(  9)   3  120.471( 14)   0
   5   5  H     2   1.114560(  4)   1  110.092( 10)   3 -120.483( 15)   0
   6   6  F     1   1.394620(  5)   2  109.542( 11)   3   37.500( 16)   0
   7   7  H     1   1.114560(  6)   2  110.092( 12)   6  120.471( 17)   0
   8   8  H     1   1.114560(  7)   2  110.092( 13)   6 -120.483( 18)   0
 ------------------------------------------------------------------------
                         Z-Matrix orientation:                         
 ---------------------------------------------------------------------
 Center     Atomic     Atomic              Coordinates (Angstroms)
 Number     Number      Type              X           Y           Z
 ---------------------------------------------------------------------
    1          6             0        0.000000    0.000000    0.000000
    2          6             0        0.000000    0.000000    1.538600
    3          9             0        1.314284    0.000000    2.005100
    4          1             0       -0.530802    0.902157    1.921490
    5          1             0       -0.530988   -0.902048    1.921490
    6          9             0        1.042692   -0.800085   -0.466500
    7          1             0       -0.970312   -0.392598   -0.382890
    8          1             0        0.127871    1.038888   -0.382890
 ---------------------------------------------------------------------
                    Distance matrix (angstroms):
                    1          2          3          4          5
     1  C    0.000000
     2  C    1.538600   0.000000
     3  F    2.397451   1.394620   0.000000
     4  H    2.188096   1.114560   2.055534   0.000000
     5  H    2.188096   1.114560   2.055653   1.804206   0.000000
     6  F    1.394620   2.397451   2.612032   3.328064   2.861706
     7  H    1.114560   2.188096   3.328064   2.679502   2.400566
     8  H    1.114560   2.188096   2.861706   2.400566   3.084072
                    6          7          8
     6  F    0.000000
     7  H    2.055534   0.000000
     8  H    2.055653   1.804206   0.000000
                           Interatomic angles:
       C1-C2-F3=109.5421       C1-C2-H4=110.0924       F3-C2-H4=109.5055
       C1-C2-H5=110.0924       F3-C2-H5=109.515        H4-C2-H5=108.0709
       C2-C1-F6=109.5421       C2-C1-H7=110.0924       F6-C1-H7=109.5055
       C2-C1-H8=110.0924       F6-C1-H8=109.515        H7-C1-H8=108.0709
 Symmetry turned off by external request.
 Stoichiometry    C2H4F2
 Framework group  C2[X(C2H4F2)]
 Deg. of freedom    10
 Full point group                 C2
 Rotational constants (GHZ):     14.8480011      5.7807176      4.5222237
 Leave Link  202 at Tue Oct  2 02:28:35 2007, MaxMem=    6291456 cpu:       0.1
 (Enter /opt/und/gaussian/03D01/linux86-64/g03/l301.exe)
 Standard basis: STO-3G (5D, 7F)
 Integral buffers will be    131072 words long.
 Raffenetti 1 integral format.
 Two-electron integral symmetry is turned off.
    24 basis functions,    72 primitive gaussians,    24 cartesian basis functions
    17 alpha electrons       17 beta electrons
       nuclear repulsion energy       127.6634384802 Hartrees.
 IExCor=   0 DFT=F Ex=HF Corr=None ExCW=0 ScaHFX=  1.000000
 ScaDFX=  1.000000  1.000000  1.000000  1.000000
 IRadAn=      0 IRanWt=     -1 IRanGd=            0 ICorTp=0
 NAtoms=    8 NActive=    8 NUniq=    8 SFac= 7.50D-01 NAtFMM=   80 NAOKFM=F Big=F
 Leave Link  301 at Tue Oct  2 02:28:36 2007, MaxMem=    6291456 cpu:       0.0
 (Enter /opt/und/gaussian/03D01/linux86-64/g03/linda-exe/l302.exel)
 NPDir=0 NMtPBC=     1 NCelOv=     1 NCel=       1 NClECP=     1 NCelD=      1
         NCelK=      1 NCelE2=     1 NClLst=     1 CellRange=     0.0.
 One-electron integrals computed using PRISM.
 NBasis=    24 RedAO= T  NBF=    24
 NBsUse=    24 1.00D-06 NBFU=    24
 Leave Link  302 at Tue Oct  2 02:28:36 2007, MaxMem=    6291456 cpu:       0.1
 (Enter /opt/und/gaussian/03D01/linux86-64/g03/l303.exe)
 DipDrv:  MaxL=1.
 Leave Link  303 at Tue Oct  2 02:28:36 2007, MaxMem=    6291456 cpu:       0.0
 (Enter /opt/und/gaussian/03D01/linux86-64/g03/l401.exe)
 Initial guess read from the read-write file:
 Guess basis will be translated and rotated to current coordinates.
 Generating alternative initial guess.
 Harris functional with IExCor=  205 diagonalized for initial guess.
 ExpMin= 1.69D-01 ExpMax= 1.67D+02 ExpMxC= 1.67D+02 IAcc=1 IRadAn=         1 AccDes= 1.00D-06
 HarFok:  IExCor= 205 AccDes= 1.00D-06 IRadAn=         1 IDoV=1
 ScaDFX=  1.000000  1.000000  1.000000  1.000000
 Harris En= -273.193133015256    
 Leave Link  401 at Tue Oct  2 02:28:36 2007, MaxMem=    6291456 cpu:       0.1
 (Enter /opt/und/gaussian/03D01/linux86-64/g03/linda-exe/l502.exel)
 Closed shell SCF:
 Requested convergence on RMS density matrix=1.00D-08 within 128 cycles.
 Requested convergence on MAX density matrix=1.00D-06.
 Requested convergence on             energy=1.00D-06.
 No special actions if energy rises.
 Using DIIS extrapolation, IDIIS=  1040.
 Two-electron integral symmetry not used.
 Keep R1 integrals in memory in canonical form, NReq=      872356.
 IEnd=     19392 IEndB=     19392 NGot=   6291456 MDV=   6244141
 LenX=   6244141
 Symmetry not used in FoFDir.
 MinBra= 0 MaxBra= 1 Meth= 1.
 IRaf=       0 NMat=   1 IRICut=       1 DoRegI=T DoRafI=F ISym2E= 0 JSym2E=0.

 Cycle   1  Pass 1  IDiag  1:
 E= -273.155903959588    
 DIIS: error= 1.85D-02 at cycle   1 NSaved=   1.
 NSaved= 1 IEnMin= 1 EnMin= -273.155903959588     IErMin= 1 ErrMin= 1.85D-02
 ErrMax= 1.85D-02 EMaxC= 1.00D-01 BMatC= 1.43D-02 BMatP= 1.43D-02
 IDIUse=3 WtCom= 8.15D-01 WtEn= 1.85D-01
 Coeff-Com:  0.100D+01
 Coeff-En:   0.100D+01
 Coeff:      0.100D+01
 Recover alternate guess density for next cycle.
 RMSDP=1.69D-02 MaxDP=8.49D-02              OVMax= 0.00D+00

 Cycle   2  Pass 1  IDiag  1:
 E= -273.156658870713     Delta-E=       -0.000754911125 Rises=F Damp=F
 DIIS: error= 3.72D-02 at cycle   2 NSaved=   2.
 NSaved= 2 IEnMin= 2 EnMin= -273.156658870713     IErMin= 1 ErrMin= 1.85D-02
 ErrMax= 3.72D-02 EMaxC= 1.00D-01 BMatC= 4.17D-02 BMatP= 1.43D-02
 IDIUse=2 WtCom= 0.00D+00 WtEn= 1.00D+00
 Coeff-En:   0.000D+00 0.100D+01
 Coeff:      0.000D+00 0.100D+01
 Gap=     0.923 Goal=   None    Shift=    0.000
 RMSDP=1.00D-02 MaxDP=7.52D-02 DE=-7.55D-04 OVMax= 0.00D+00

 Cycle   3  Pass 1  IDiag  1:
 E= -273.192616459649     Delta-E=       -0.035957588935 Rises=F Damp=F
 DIIS: error= 6.11D-03 at cycle   3 NSaved=   3.
 NSaved= 3 IEnMin= 3 EnMin= -273.192616459649     IErMin= 3 ErrMin= 6.11D-03
 ErrMax= 6.11D-03 EMaxC= 1.00D-01 BMatC= 1.31D-03 BMatP= 1.43D-02
 IDIUse=3 WtCom= 9.39D-01 WtEn= 6.11D-02
 Coeff-Com:  0.736D-01 0.253D-01 0.901D+00
 Coeff-En:   0.000D+00 0.000D+00 0.100D+01
 Coeff:      0.691D-01 0.237D-01 0.907D+00
 Gap=     0.895 Goal=   None    Shift=    0.000
 RMSDP=2.42D-03 MaxDP=1.92D-02 DE=-3.60D-02 OVMax= 0.00D+00

 Cycle   4  Pass 1  IDiag  1:
 E= -273.194512342969     Delta-E=       -0.001895883321 Rises=F Damp=F
 DIIS: error= 1.49D-03 at cycle   4 NSaved=   4.
 NSaved= 4 IEnMin= 4 EnMin= -273.194512342969     IErMin= 4 ErrMin= 1.49D-03
 ErrMax= 1.49D-03 EMaxC= 1.00D-01 BMatC= 8.76D-05 BMatP= 1.31D-03
 IDIUse=3 WtCom= 9.85D-01 WtEn= 1.49D-02
 Coeff-Com: -0.205D-01-0.246D-01 0.521D-01 0.993D+00
 Coeff-En:   0.000D+00 0.000D+00 0.000D+00 0.100D+01
 Coeff:     -0.202D-01-0.242D-01 0.513D-01 0.993D+00
 Gap=     0.901 Goal=   None    Shift=    0.000
 RMSDP=7.02D-04 MaxDP=3.54D-03 DE=-1.90D-03 OVMax= 0.00D+00

 Cycle   5  Pass 1  IDiag  1:
 E= -273.194684728198     Delta-E=       -0.000172385229 Rises=F Damp=F
 DIIS: error= 3.66D-04 at cycle   5 NSaved=   5.
 NSaved= 5 IEnMin= 5 EnMin= -273.194684728198     IErMin= 5 ErrMin= 3.66D-04
 ErrMax= 3.66D-04 EMaxC= 1.00D-01 BMatC= 5.30D-06 BMatP= 8.76D-05
 IDIUse=3 WtCom= 9.96D-01 WtEn= 3.66D-03
 Coeff-Com:  0.549D-02 0.573D-02-0.503D-01-0.341D+00 0.138D+01
 Coeff-En:   0.000D+00 0.000D+00 0.000D+00 0.000D+00 0.100D+01
 Coeff:      0.547D-02 0.570D-02-0.501D-01-0.340D+00 0.138D+01
 Gap=     0.901 Goal=   None    Shift=    0.000
 RMSDP=2.72D-04 MaxDP=1.46D-03 DE=-1.72D-04 OVMax= 0.00D+00

 Cycle   6  Pass 1  IDiag  1:
 E= -273.194698944093     Delta-E=       -0.000014215895 Rises=F Damp=F
 DIIS: error= 3.72D-05 at cycle   6 NSaved=   6.
 NSaved= 6 IEnMin= 6 EnMin= -273.194698944093     IErMin= 6 ErrMin= 3.72D-05
 ErrMax= 3.72D-05 EMaxC= 1.00D-01 BMatC= 4.89D-08 BMatP= 5.30D-06
 IDIUse=1 WtCom= 1.00D+00 WtEn= 0.00D+00
 Coeff-Com: -0.132D-02-0.102D-02 0.999D-02 0.653D-01-0.287D+00 0.121D+01
 Coeff:     -0.132D-02-0.102D-02 0.999D-02 0.653D-01-0.287D+00 0.121D+01
 Gap=     0.901 Goal=   None    Shift=    0.000
 RMSDP=2.22D-05 MaxDP=1.68D-04 DE=-1.42D-05 OVMax= 0.00D+00

 Cycle   7  Pass 1  IDiag  1:
 E= -273.194699083309     Delta-E=       -0.000000139216 Rises=F Damp=F
 DIIS: error= 1.26D-05 at cycle   7 NSaved=   7.
 NSaved= 7 IEnMin= 7 EnMin= -273.194699083309     IErMin= 7 ErrMin= 1.26D-05
 ErrMax= 1.26D-05 EMaxC= 1.00D-01 BMatC= 5.76D-09 BMatP= 4.89D-08
 IDIUse=1 WtCom= 1.00D+00 WtEn= 0.00D+00
 Coeff-Com: -0.520D-03-0.489D-03 0.456D-02 0.289D-01-0.120D+00 0.181D-01
 Coeff-Com:  0.107D+01
 Coeff:     -0.520D-03-0.489D-03 0.456D-02 0.289D-01-0.120D+00 0.181D-01
 Coeff:      0.107D+01
 Gap=     0.901 Goal=   None    Shift=    0.000
 RMSDP=8.07D-06 MaxDP=5.56D-05 DE=-1.39D-07 OVMax= 0.00D+00

 Cycle   8  Pass 1  IDiag  1:
 E= -273.194699100653     Delta-E=       -0.000000017345 Rises=F Damp=F
 DIIS: error= 4.63D-06 at cycle   8 NSaved=   8.
 NSaved= 8 IEnMin= 8 EnMin= -273.194699100653     IErMin= 8 ErrMin= 4.63D-06
 ErrMax= 4.63D-06 EMaxC= 1.00D-01 BMatC= 5.49D-10 BMatP= 5.76D-09
 IDIUse=1 WtCom= 1.00D+00 WtEn= 0.00D+00
 Coeff-Com:  0.239D-03 0.235D-03-0.220D-02-0.145D-01 0.614D-01-0.102D+00
 Coeff-Com: -0.406D+00 0.146D+01
 Coeff:      0.239D-03 0.235D-03-0.220D-02-0.145D-01 0.614D-01-0.102D+00
 Coeff:     -0.406D+00 0.146D+01
 Gap=     0.901 Goal=   None    Shift=    0.000
 RMSDP=3.58D-06 MaxDP=2.61D-05 DE=-1.73D-08 OVMax= 0.00D+00

 Cycle   9  Pass 1  IDiag  1:
 E= -273.194699102757     Delta-E=       -0.000000002104 Rises=F Damp=F
 DIIS: error= 5.02D-07 at cycle   9 NSaved=   9.
 NSaved= 9 IEnMin= 9 EnMin= -273.194699102757     IErMin= 9 ErrMin= 5.02D-07
 ErrMax= 5.02D-07 EMaxC= 1.00D-01 BMatC= 8.45D-12 BMatP= 5.49D-10
 IDIUse=1 WtCom= 1.00D+00 WtEn= 0.00D+00
 Coeff-Com: -0.107D-04-0.802D-05 0.593D-04 0.644D-03-0.238D-02 0.544D-02
 Coeff-Com:  0.282D-01-0.193D+00 0.116D+01
 Coeff:     -0.107D-04-0.802D-05 0.593D-04 0.644D-03-0.238D-02 0.544D-02
 Coeff:      0.282D-01-0.193D+00 0.116D+01
 Gap=     0.901 Goal=   None    Shift=    0.000
 RMSDP=3.68D-07 MaxDP=2.03D-06 DE=-2.10D-09 OVMax= 0.00D+00

 Cycle  10  Pass 1  IDiag  1:
 E= -273.194699102783     Delta-E=       -0.000000000026 Rises=F Damp=F
 DIIS: error= 1.20D-07 at cycle  10 NSaved=  10.
 NSaved=10 IEnMin=10 EnMin= -273.194699102783     IErMin=10 ErrMin= 1.20D-07
 ErrMax= 1.20D-07 EMaxC= 1.00D-01 BMatC= 4.20D-13 BMatP= 8.45D-12
 IDIUse=1 WtCom= 1.00D+00 WtEn= 0.00D+00
 Coeff-Com:  0.932D-06-0.950D-06 0.156D-04-0.129D-04-0.107D-03-0.278D-03
 Coeff-Com: -0.632D-02 0.618D-01-0.526D+00 0.147D+01
 Coeff:      0.932D-06-0.950D-06 0.156D-04-0.129D-04-0.107D-03-0.278D-03
 Coeff:     -0.632D-02 0.618D-01-0.526D+00 0.147D+01
 Gap=     0.901 Goal=   None    Shift=    0.000
 RMSDP=8.20D-08 MaxDP=4.78D-07 DE=-2.60D-11 OVMax= 0.00D+00

 Cycle  11  Pass 1  IDiag  1:
 E= -273.194699102785     Delta-E=       -0.000000000002 Rises=F Damp=F
 DIIS: error= 3.10D-08 at cycle  11 NSaved=  11.
 NSaved=11 IEnMin=11 EnMin= -273.194699102785     IErMin=11 ErrMin= 3.10D-08
 ErrMax= 3.10D-08 EMaxC= 1.00D-01 BMatC= 2.98D-14 BMatP= 4.20D-13
 IDIUse=1 WtCom= 1.00D+00 WtEn= 0.00D+00
 Coeff-Com:  0.685D-07 0.567D-06-0.751D-05-0.142D-04 0.109D-03-0.153D-03
 Coeff-Com:  0.155D-02-0.154D-01 0.148D+00-0.652D+00 0.152D+01
 Coeff:      0.685D-07 0.567D-06-0.751D-05-0.142D-04 0.109D-03-0.153D-03
 Coeff:      0.155D-02-0.154D-01 0.148D+00-0.652D+00 0.152D+01
 Gap=     0.901 Goal=   None    Shift=    0.000
 RMSDP=2.76D-08 MaxDP=1.87D-07 DE=-1.71D-12 OVMax= 0.00D+00

 Cycle  12  Pass 1  IDiag  1:
 E= -273.194699102786     Delta-E=       -0.000000000001 Rises=F Damp=F
 DIIS: error= 2.69D-09 at cycle  12 NSaved=  12.
 NSaved=12 IEnMin=12 EnMin= -273.194699102786     IErMin=12 ErrMin= 2.69D-09
 ErrMax= 2.69D-09 EMaxC= 1.00D-01 BMatC= 2.68D-16 BMatP= 2.98D-14
 IDIUse=1 WtCom= 1.00D+00 WtEn= 0.00D+00
 Coeff-Com:  0.242D-07-0.484D-07 0.776D-06 0.253D-06-0.697D-05 0.187D-04
 Coeff-Com: -0.236D-03 0.184D-02-0.171D-01 0.918D-01-0.301D+00 0.122D+01
 Coeff:      0.242D-07-0.484D-07 0.776D-06 0.253D-06-0.697D-05 0.187D-04
 Coeff:     -0.236D-03 0.184D-02-0.171D-01 0.918D-01-0.301D+00 0.122D+01
 Gap=     0.901 Goal=   None    Shift=    0.000
 RMSDP=2.21D-09 MaxDP=1.37D-08 DE=-7.96D-13 OVMax= 0.00D+00

 SCF Done:  E(RHF) =  -273.194699103     A.U. after   12 cycles
             Convg  =    0.2213D-08             -V/T =  2.0110
             S**2   =   0.0000
 KE= 2.702112006390D+02 PE=-9.050852579280D+02 EE= 2.340159197060D+02
 Leave Link  502 at Tue Oct  2 02:28:37 2007, MaxMem=    6291456 cpu:       0.1
 (Enter /opt/und/gaussian/03D01/linux86-64/g03/l108.exe)
 Variable Step   Value    
 -------- ---- -----------
     7       3    0.916298
 Leave Link  108 at Tue Oct  2 02:28:37 2007, MaxMem=    6291456 cpu:       0.1
 (Enter /opt/und/gaussian/03D01/linux86-64/g03/l202.exe)
 ------------------------------------------------------------------------
                         Z-MATRIX (ANGSTROMS AND DEGREES)
 CD Cent Atom  N1     Length/X     N2    Alpha/Y     N3     Beta/Z      J
 ------------------------------------------------------------------------
   1   1  C 
   2   2  C     1   1.538600(  1)
   3   3  F     2   1.394620(  2)   1  109.542(  8)
   4   4  H     2   1.114560(  3)   1  110.092(  9)   3  120.471( 14)   0
   5   5  H     2   1.114560(  4)   1  110.092( 10)   3 -120.483( 15)   0
   6   6  F     1   1.394620(  5)   2  109.542( 11)   3   52.500( 16)   0
   7   7  H     1   1.114560(  6)   2  110.092( 12)   6  120.471( 17)   0
   8   8  H     1   1.114560(  7)   2  110.092( 13)   6 -120.483( 18)   0
 ------------------------------------------------------------------------
                         Z-Matrix orientation:                         
 ---------------------------------------------------------------------
 Center     Atomic     Atomic              Coordinates (Angstroms)
 Number     Number      Type              X           Y           Z
 ---------------------------------------------------------------------
    1          6             0        0.000000    0.000000    0.000000
    2          6             0        0.000000    0.000000    1.538600
    3          9             0        1.314284    0.000000    2.005100
    4          1             0       -0.530802    0.902157    1.921490
    5          1             0       -0.530988   -0.902048    1.921490
    6          9             0        0.800085   -1.042692   -0.466500
    7          1             0       -1.038862   -0.128085   -0.382890
    8          1             0        0.392398    0.970393   -0.382890
 ---------------------------------------------------------------------
                    Distance matrix (angstroms):
                    1          2          3          4          5
     1  C    0.000000
     2  C    1.538600   0.000000
     3  F    2.397451   1.394620   0.000000
     4  H    2.188096   1.114560   2.055534   0.000000
     5  H    2.188096   1.114560   2.055653   1.804206   0.000000
     6  F    1.394620   2.397451   2.731376   3.355026   2.737524
     7  H    1.114560   2.188096   3.355026   2.574819   2.483370
     8  H    1.114560   2.188096   2.737524   2.483370   3.109477
                    6          7          8
     6  F    0.000000
     7  H    2.055534   0.000000
     8  H    2.055653   1.804206   0.000000
                           Interatomic angles:
       C1-C2-F3=109.5421       C1-C2-H4=110.0924       F3-C2-H4=109.5055
       C1-C2-H5=110.0924       F3-C2-H5=109.515        H4-C2-H5=108.0709
       C2-C1-F6=109.5421       C2-C1-H7=110.0924       F6-C1-H7=109.5055
       C2-C1-H8=110.0924       F6-C1-H8=109.515        H7-C1-H8=108.0709
 Symmetry turned off by external request.
 Stoichiometry    C2H4F2
 Framework group  C2[X(C2H4F2)]
 Deg. of freedom    10
 Full point group                 C2
 Rotational constants (GHZ):     15.4967999      5.4175930      4.4445735
 Leave Link  202 at Tue Oct  2 02:28:37 2007, MaxMem=    6291456 cpu:       0.1
 (Enter /opt/und/gaussian/03D01/linux86-64/g03/l301.exe)
 Standard basis: STO-3G (5D, 7F)
 Integral buffers will be    131072 words long.
 Raffenetti 1 integral format.
 Two-electron integral symmetry is turned off.
    24 basis functions,    72 primitive gaussians,    24 cartesian basis functions
    17 alpha electrons       17 beta electrons
       nuclear repulsion energy       127.0663405127 Hartrees.
 IExCor=   0 DFT=F Ex=HF Corr=None ExCW=0 ScaHFX=  1.000000
 ScaDFX=  1.000000  1.000000  1.000000  1.000000
 IRadAn=      0 IRanWt=     -1 IRanGd=            0 ICorTp=0
 NAtoms=    8 NActive=    8 NUniq=    8 SFac= 7.50D-01 NAtFMM=   80 NAOKFM=F Big=F
 Leave Link  301 at Tue Oct  2 02:28:37 2007, MaxMem=    6291456 cpu:       0.0
 (Enter /opt/und/gaussian/03D01/linux86-64/g03/linda-exe/l302.exel)
 NPDir=0 NMtPBC=     1 NCelOv=     1 NCel=       1 NClECP=     1 NCelD=      1
         NCelK=      1 NCelE2=     1 NClLst=     1 CellRange=     0.0.
 One-electron integrals computed using PRISM.
 NBasis=    24 RedAO= T  NBF=    24
 NBsUse=    24 1.00D-06 NBFU=    24
 Leave Link  302 at Tue Oct  2 02:28:38 2007, MaxMem=    6291456 cpu:       0.1
 (Enter /opt/und/gaussian/03D01/linux86-64/g03/l303.exe)
 DipDrv:  MaxL=1.
 Leave Link  303 at Tue Oct  2 02:28:38 2007, MaxMem=    6291456 cpu:       0.0
 (Enter /opt/und/gaussian/03D01/linux86-64/g03/l401.exe)
 Initial guess read from the read-write file:
 Guess basis will be translated and rotated to current coordinates.
 Generating alternative initial guess.
 Harris functional with IExCor=  205 diagonalized for initial guess.
 ExpMin= 1.69D-01 ExpMax= 1.67D+02 ExpMxC= 1.67D+02 IAcc=1 IRadAn=         1 AccDes= 1.00D-06
 HarFok:  IExCor= 205 AccDes= 1.00D-06 IRadAn=         1 IDoV=1
 ScaDFX=  1.000000  1.000000  1.000000  1.000000
 Harris En= -273.193804681175    
 Leave Link  401 at Tue Oct  2 02:28:38 2007, MaxMem=    6291456 cpu:       0.1
 (Enter /opt/und/gaussian/03D01/linux86-64/g03/linda-exe/l502.exel)
 Closed shell SCF:
 Requested convergence on RMS density matrix=1.00D-08 within 128 cycles.
 Requested convergence on MAX density matrix=1.00D-06.
 Requested convergence on             energy=1.00D-06.
 No special actions if energy rises.
 Using DIIS extrapolation, IDIIS=  1040.
 Two-electron integral symmetry not used.
 Keep R1 integrals in memory in canonical form, NReq=      872356.
 IEnd=     19392 IEndB=     19392 NGot=   6291456 MDV=   6244141
 LenX=   6244141
 Symmetry not used in FoFDir.
 MinBra= 0 MaxBra= 1 Meth= 1.
 IRaf=       0 NMat=   1 IRICut=       1 DoRegI=T DoRafI=F ISym2E= 0 JSym2E=0.

 Cycle   1  Pass 1  IDiag  1:
 E= -273.157766875517    
 DIIS: error= 1.74D-02 at cycle   1 NSaved=   1.
 NSaved= 1 IEnMin= 1 EnMin= -273.157766875517     IErMin= 1 ErrMin= 1.74D-02
 ErrMax= 1.74D-02 EMaxC= 1.00D-01 BMatC= 1.43D-02 BMatP= 1.43D-02
 IDIUse=3 WtCom= 8.26D-01 WtEn= 1.74D-01
 Coeff-Com:  0.100D+01
 Coeff-En:   0.100D+01
 Coeff:      0.100D+01
 Recover alternate guess density for next cycle.
 RMSDP=1.69D-02 MaxDP=9.66D-02              OVMax= 0.00D+00

 Cycle   2  Pass 1  IDiag  1:
 E= -273.158336397669     Delta-E=       -0.000569522152 Rises=F Damp=F
 DIIS: error= 3.72D-02 at cycle   2 NSaved=   2.
 NSaved= 2 IEnMin= 2 EnMin= -273.158336397669     IErMin= 1 ErrMin= 1.74D-02
 ErrMax= 3.72D-02 EMaxC= 1.00D-01 BMatC= 4.16D-02 BMatP= 1.43D-02
 IDIUse=2 WtCom= 0.00D+00 WtEn= 1.00D+00
 Coeff-En:   0.000D+00 0.100D+01
 Coeff:      0.000D+00 0.100D+01
 Gap=     0.931 Goal=   None    Shift=    0.000
 RMSDP=9.99D-03 MaxDP=7.46D-02 DE=-5.70D-04 OVMax= 0.00D+00

 Cycle   3  Pass 1  IDiag  1:
 E= -273.194342813587     Delta-E=       -0.036006415918 Rises=F Damp=F
 DIIS: error= 6.03D-03 at cycle   3 NSaved=   3.
 NSaved= 3 IEnMin= 3 EnMin= -273.194342813587     IErMin= 3 ErrMin= 6.03D-03
 ErrMax= 6.03D-03 EMaxC= 1.00D-01 BMatC= 1.29D-03 BMatP= 1.43D-02
 IDIUse=3 WtCom= 9.40D-01 WtEn= 6.03D-02
 Coeff-Com:  0.729D-01 0.235D-01 0.904D+00
 Coeff-En:   0.000D+00 0.000D+00 0.100D+01
 Coeff:      0.685D-01 0.220D-01 0.909D+00
 Gap=     0.902 Goal=   None    Shift=    0.000
 RMSDP=2.41D-03 MaxDP=1.90D-02 DE=-3.60D-02 OVMax= 0.00D+00

 Cycle   4  Pass 1  IDiag  1:
 E= -273.196218851663     Delta-E=       -0.001876038076 Rises=F Damp=F
 DIIS: error= 1.63D-03 at cycle   4 NSaved=   4.
 NSaved= 4 IEnMin= 4 EnMin= -273.196218851663     IErMin= 4 ErrMin= 1.63D-03
 ErrMax= 1.63D-03 EMaxC= 1.00D-01 BMatC= 8.64D-05 BMatP= 1.29D-03
 IDIUse=3 WtCom= 9.84D-01 WtEn= 1.63D-02
 Coeff-Com: -0.203D-01-0.245D-01 0.512D-01 0.994D+00
 Coeff-En:   0.000D+00 0.000D+00 0.000D+00 0.100D+01
 Coeff:     -0.200D-01-0.241D-01 0.504D-01 0.994D+00
 Gap=     0.908 Goal=   None    Shift=    0.000
 RMSDP=6.97D-04 MaxDP=3.11D-03 DE=-1.88D-03 OVMax= 0.00D+00

 Cycle   5  Pass 1  IDiag  1:
 E= -273.196388639818     Delta-E=       -0.000169788155 Rises=F Damp=F
 DIIS: error= 4.02D-04 at cycle   5 NSaved=   5.
 NSaved= 5 IEnMin= 5 EnMin= -273.196388639818     IErMin= 5 ErrMin= 4.02D-04
 ErrMax= 4.02D-04 EMaxC= 1.00D-01 BMatC= 5.22D-06 BMatP= 8.64D-05
 IDIUse=3 WtCom= 9.96D-01 WtEn= 4.02D-03
 Coeff-Com:  0.539D-02 0.569D-02-0.500D-01-0.339D+00 0.138D+01
 Coeff-En:   0.000D+00 0.000D+00 0.000D+00 0.000D+00 0.100D+01
 Coeff:      0.537D-02 0.567D-02-0.498D-01-0.338D+00 0.138D+01
 Gap=     0.908 Goal=   None    Shift=    0.000
 RMSDP=2.70D-04 MaxDP=1.44D-03 DE=-1.70D-04 OVMax= 0.00D+00

 Cycle   6  Pass 1  IDiag  1:
 E= -273.196402557856     Delta-E=       -0.000013918038 Rises=F Damp=F
 DIIS: error= 3.79D-05 at cycle   6 NSaved=   6.
 NSaved= 6 IEnMin= 6 EnMin= -273.196402557856     IErMin= 6 ErrMin= 3.79D-05
 ErrMax= 3.79D-05 EMaxC= 1.00D-01 BMatC= 4.47D-08 BMatP= 5.22D-06
 IDIUse=1 WtCom= 1.00D+00 WtEn= 0.00D+00
 Coeff-Com: -0.122D-02-0.936D-03 0.926D-02 0.603D-01-0.268D+00 0.120D+01
 Coeff:     -0.122D-02-0.936D-03 0.926D-02 0.603D-01-0.268D+00 0.120D+01
 Gap=     0.909 Goal=   None    Shift=    0.000
 RMSDP=2.10D-05 MaxDP=1.85D-04 DE=-1.39D-05 OVMax= 0.00D+00

 Cycle   7  Pass 1  IDiag  1:
 E= -273.196402682490     Delta-E=       -0.000000124633 Rises=F Damp=F
 DIIS: error= 1.15D-05 at cycle   7 NSaved=   7.
 NSaved= 7 IEnMin= 7 EnMin= -273.196402682490     IErMin= 7 ErrMin= 1.15D-05
 ErrMax= 1.15D-05 EMaxC= 1.00D-01 BMatC= 5.10D-09 BMatP= 4.47D-08
 IDIUse=1 WtCom= 1.00D+00 WtEn= 0.00D+00
 Coeff-Com: -0.485D-03-0.458D-03 0.428D-02 0.270D-01-0.113D+00 0.231D-01
 Coeff-Com:  0.106D+01
 Coeff:     -0.485D-03-0.458D-03 0.428D-02 0.270D-01-0.113D+00 0.231D-01
 Coeff:      0.106D+01
 Gap=     0.909 Goal=   None    Shift=    0.000
 RMSDP=7.40D-06 MaxDP=5.44D-05 DE=-1.25D-07 OVMax= 0.00D+00

 Cycle   8  Pass 1  IDiag  1:
 E= -273.196402697479     Delta-E=       -0.000000014990 Rises=F Damp=F
 DIIS: error= 3.71D-06 at cycle   8 NSaved=   8.
 NSaved= 8 IEnMin= 8 EnMin= -273.196402697479     IErMin= 8 ErrMin= 3.71D-06
 ErrMax= 3.71D-06 EMaxC= 1.00D-01 BMatC= 4.99D-10 BMatP= 5.10D-09
 IDIUse=1 WtCom= 1.00D+00 WtEn= 0.00D+00
 Coeff-Com:  0.218D-03 0.218D-03-0.204D-02-0.135D-01 0.574D-01-0.101D+00
 Coeff-Com: -0.402D+00 0.146D+01
 Coeff:      0.218D-03 0.218D-03-0.204D-02-0.135D-01 0.574D-01-0.101D+00
 Coeff:     -0.402D+00 0.146D+01
 Gap=     0.909 Goal=   None    Shift=    0.000
 RMSDP=3.38D-06 MaxDP=2.69D-05 DE=-1.50D-08 OVMax= 0.00D+00

 Cycle   9  Pass 1  IDiag  1:
 E= -273.196402699379     Delta-E=       -0.000000001900 Rises=F Damp=F
 DIIS: error= 4.90D-07 at cycle   9 NSaved=   9.
 NSaved= 9 IEnMin= 9 EnMin= -273.196402699379     IErMin= 9 ErrMin= 4.90D-07
 ErrMax= 4.90D-07 EMaxC= 1.00D-01 BMatC= 8.09D-12 BMatP= 4.99D-10
 IDIUse=1 WtCom= 1.00D+00 WtEn= 0.00D+00
 Coeff-Com: -0.949D-05-0.669D-05 0.487D-04 0.562D-03-0.208D-02 0.586D-02
 Coeff-Com:  0.256D-01-0.200D+00 0.117D+01
 Coeff:     -0.949D-05-0.669D-05 0.487D-04 0.562D-03-0.208D-02 0.586D-02
 Coeff:      0.256D-01-0.200D+00 0.117D+01
 Gap=     0.909 Goal=   None    Shift=    0.000
 RMSDP=3.75D-07 MaxDP=2.61D-06 DE=-1.90D-09 OVMax= 0.00D+00

 Cycle  10  Pass 1  IDiag  1:
 E= -273.196402699404     Delta-E=       -0.000000000025 Rises=F Damp=F
 DIIS: error= 9.73D-08 at cycle  10 NSaved=  10.
 NSaved=10 IEnMin=10 EnMin= -273.196402699404     IErMin=10 ErrMin= 9.73D-08
 ErrMax= 9.73D-08 EMaxC= 1.00D-01 BMatC= 3.03D-13 BMatP= 8.09D-12
 IDIUse=1 WtCom= 1.00D+00 WtEn= 0.00D+00
 Coeff-Com:  0.830D-06-0.811D-06 0.128D-04-0.113D-04-0.797D-04-0.533D-03
 Coeff-Com: -0.499D-02 0.572D-01-0.456D+00 0.140D+01
 Coeff:      0.830D-06-0.811D-06 0.128D-04-0.113D-04-0.797D-04-0.533D-03
 Coeff:     -0.499D-02 0.572D-01-0.456D+00 0.140D+01
 Gap=     0.909 Goal=   None    Shift=    0.000
 RMSDP=6.59D-08 MaxDP=3.95D-07 DE=-2.51D-11 OVMax= 0.00D+00

 Cycle  11  Pass 1  IDiag  1:
 E= -273.196402699406     Delta-E=       -0.000000000002 Rises=F Damp=F
 DIIS: error= 3.22D-08 at cycle  11 NSaved=  11.
 NSaved=11 IEnMin=11 EnMin= -273.196402699406     IErMin=11 ErrMin= 3.22D-08
 ErrMax= 3.22D-08 EMaxC= 1.00D-01 BMatC= 2.64D-14 BMatP= 3.03D-13
 IDIUse=1 WtCom= 1.00D+00 WtEn= 0.00D+00
 Coeff-Com:  0.741D-07 0.548D-06-0.706D-05-0.146D-04 0.105D-03-0.763D-04
 Coeff-Com:  0.124D-02-0.151D-01 0.138D+00-0.688D+00 0.156D+01
 Coeff:      0.741D-07 0.548D-06-0.706D-05-0.146D-04 0.105D-03-0.763D-04
 Coeff:      0.124D-02-0.151D-01 0.138D+00-0.688D+00 0.156D+01
 Gap=     0.909 Goal=   None    Shift=    0.000
 RMSDP=2.57D-08 MaxDP=1.40D-07 DE=-1.93D-12 OVMax= 0.00D+00

 Cycle  12  Pass 1  IDiag  1:
 E= -273.196402699407     Delta-E=       -0.000000000001 Rises=F Damp=F
 DIIS: error= 2.71D-09 at cycle  12 NSaved=  12.
 NSaved=12 IEnMin=12 EnMin= -273.196402699407     IErMin=12 ErrMin= 2.71D-09
 ErrMax= 2.71D-09 EMaxC= 1.00D-01 BMatC= 3.07D-16 BMatP= 2.64D-14
 IDIUse=1 WtCom= 1.00D+00 WtEn= 0.00D+00
 Coeff-Com:  0.159D-07-0.562D-07 0.838D-06 0.806D-06-0.902D-05 0.137D-04
 Coeff-Com: -0.201D-03 0.189D-02-0.169D-01 0.106D+00-0.342D+00 0.125D+01
 Coeff:      0.159D-07-0.562D-07 0.838D-06 0.806D-06-0.902D-05 0.137D-04
 Coeff:     -0.201D-03 0.189D-02-0.169D-01 0.106D+00-0.342D+00 0.125D+01
 Gap=     0.909 Goal=   None    Shift=    0.000
 RMSDP=2.49D-09 MaxDP=1.32D-08 DE=-7.96D-13 OVMax= 0.00D+00

 SCF Done:  E(RHF) =  -273.196402699     A.U. after   12 cycles
             Convg  =    0.2490D-08             -V/T =  2.0110
             S**2   =   0.0000
 KE= 2.702161274043D+02 PE=-9.038971127818D+02 EE= 2.334182421654D+02
 Leave Link  502 at Tue Oct  2 02:28:38 2007, MaxMem=    6291456 cpu:       0.1
 (Enter /opt/und/gaussian/03D01/linux86-64/g03/l108.exe)
 Variable Step   Value    
 -------- ---- -----------
     7       4    1.178097
 Leave Link  108 at Tue Oct  2 02:28:39 2007, MaxMem=    6291456 cpu:       0.1
 (Enter /opt/und/gaussian/03D01/linux86-64/g03/l202.exe)
 ------------------------------------------------------------------------
                         Z-MATRIX (ANGSTROMS AND DEGREES)
 CD Cent Atom  N1     Length/X     N2    Alpha/Y     N3     Beta/Z      J
 ------------------------------------------------------------------------
   1   1  C 
   2   2  C     1   1.538600(  1)
   3   3  F     2   1.394620(  2)   1  109.542(  8)
   4   4  H     2   1.114560(  3)   1  110.092(  9)   3  120.471( 14)   0
   5   5  H     2   1.114560(  4)   1  110.092( 10)   3 -120.483( 15)   0
   6   6  F     1   1.394620(  5)   2  109.542( 11)   3   67.500( 16)   0
   7   7  H     1   1.114560(  6)   2  110.092( 12)   6  120.471( 17)   0
   8   8  H     1   1.114560(  7)   2  110.092( 13)   6 -120.483( 18)   0
 ------------------------------------------------------------------------
                         Z-Matrix orientation:                         
 ---------------------------------------------------------------------
 Center     Atomic     Atomic              Coordinates (Angstroms)
 Number     Number      Type              X           Y           Z
 ---------------------------------------------------------------------
    1          6             0        0.000000    0.000000    0.000000
    2          6             0        0.000000    0.000000    1.538600
    3          9             0        1.314284    0.000000    2.005100
    4          1             0       -0.530802    0.902157    1.921490
    5          1             0       -0.530988   -0.902048    1.921490
    6          9             0        0.502955   -1.214240   -0.466500
    7          1             0       -1.036614    0.145157   -0.382890
    8          1             0        0.630184    0.835768   -0.382890
 ---------------------------------------------------------------------
                    Distance matrix (angstroms):
                    1          2          3          4          5
     1  C    0.000000
     2  C    1.538600   0.000000
     3  F    2.397451   1.394620   0.000000
     4  H    2.188096   1.114560   2.055534   0.000000
     5  H    2.188096   1.114560   2.055653   1.804206   0.000000
     6  F    1.394620   2.397451   2.870792   3.354145   2.620878
     7  H    1.114560   2.188096   3.354145   2.477714   2.581175
     8  H    1.114560   2.188096   2.620878   2.581175   3.111028
                    6          7          8
     6  F    0.000000
     7  H    2.055534   0.000000
     8  H    2.055653   1.804206   0.000000
                           Interatomic angles:
       C1-C2-F3=109.5421       C1-C2-H4=110.0924       F3-C2-H4=109.5055
       C1-C2-H5=110.0924       F3-C2-H5=109.515        H4-C2-H5=108.0709
       C2-C1-F6=109.5421       C2-C1-H7=110.0924       F6-C1-H7=109.5055
       C2-C1-H8=110.0924       F6-C1-H8=109.515        H7-C1-H8=108.0709
 Symmetry turned off by external request.
 Stoichiometry    C2H4F2
 Framework group  C2[X(C2H4F2)]
 Deg. of freedom    10
 Full point group                 C2
 Rotational constants (GHZ):     16.4706056      5.0305711      4.3461846
 Leave Link  202 at Tue Oct  2 02:28:39 2007, MaxMem=    6291456 cpu:       0.1
 (Enter /opt/und/gaussian/03D01/linux86-64/g03/l301.exe)
 Standard basis: STO-3G (5D, 7F)
 Integral buffers will be    131072 words long.
 Raffenetti 1 integral format.
 Two-electron integral symmetry is turned off.
    24 basis functions,    72 primitive gaussians,    24 cartesian basis functions
    17 alpha electrons       17 beta electrons
       nuclear repulsion energy       126.4516641020 Hartrees.
 IExCor=   0 DFT=F Ex=HF Corr=None ExCW=0 ScaHFX=  1.000000
 ScaDFX=  1.000000  1.000000  1.000000  1.000000
 IRadAn=      0 IRanWt=     -1 IRanGd=            0 ICorTp=0
 NAtoms=    8 NActive=    8 NUniq=    8 SFac= 7.50D-01 NAtFMM=   80 NAOKFM=F Big=F
 Leave Link  301 at Tue Oct  2 02:28:39 2007, MaxMem=    6291456 cpu:       0.0
 (Enter /opt/und/gaussian/03D01/linux86-64/g03/linda-exe/l302.exel)
 NPDir=0 NMtPBC=     1 NCelOv=     1 NCel=       1 NClECP=     1 NCelD=      1
         NCelK=      1 NCelE2=     1 NClLst=     1 CellRange=     0.0.
 One-electron integrals computed using PRISM.
 NBasis=    24 RedAO= T  NBF=    24
 NBsUse=    24 1.00D-06 NBFU=    24
 Leave Link  302 at Tue Oct  2 02:28:40 2007, MaxMem=    6291456 cpu:       0.1
 (Enter /opt/und/gaussian/03D01/linux86-64/g03/l303.exe)
 DipDrv:  MaxL=1.
 Leave Link  303 at Tue Oct  2 02:28:40 2007, MaxMem=    6291456 cpu:       0.0
 (Enter /opt/und/gaussian/03D01/linux86-64/g03/l401.exe)
 Initial guess read from the read-write file:
 Guess basis will be translated and rotated to current coordinates.
 Generating alternative initial guess.
 Harris functional with IExCor=  205 diagonalized for initial guess.
 ExpMin= 1.69D-01 ExpMax= 1.67D+02 ExpMxC= 1.67D+02 IAcc=1 IRadAn=         1 AccDes= 1.00D-06
 HarFok:  IExCor= 205 AccDes= 1.00D-06 IRadAn=         1 IDoV=1
 ScaDFX=  1.000000  1.000000  1.000000  1.000000
 Harris En= -273.194750727033    
 Leave Link  401 at Tue Oct  2 02:28:40 2007, MaxMem=    6291456 cpu:       0.1
 (Enter /opt/und/gaussian/03D01/linux86-64/g03/linda-exe/l502.exel)
 Closed shell SCF:
 Requested convergence on RMS density matrix=1.00D-08 within 128 cycles.
 Requested convergence on MAX density matrix=1.00D-06.
 Requested convergence on             energy=1.00D-06.
 No special actions if energy rises.
 Using DIIS extrapolation, IDIIS=  1040.
 Two-electron integral symmetry not used.
 Keep R1 integrals in memory in canonical form, NReq=      872356.
 IEnd=     19392 IEndB=     19392 NGot=   6291456 MDV=   6244141
 LenX=   6244141
 Symmetry not used in FoFDir.
 MinBra= 0 MaxBra= 1 Meth= 1.
 IRaf=       0 NMat=   1 IRICut=       1 DoRegI=T DoRafI=F ISym2E= 0 JSym2E=0.

 Cycle   1  Pass 1  IDiag  1:
 E= -273.158548620950    
 DIIS: error= 1.63D-02 at cycle   1 NSaved=   1.
 NSaved= 1 IEnMin= 1 EnMin= -273.158548620950     IErMin= 1 ErrMin= 1.63D-02
 ErrMax= 1.63D-02 EMaxC= 1.00D-01 BMatC= 1.42D-02 BMatP= 1.42D-02
 IDIUse=3 WtCom= 8.37D-01 WtEn= 1.63D-01
 Coeff-Com:  0.100D+01
 Coeff-En:   0.100D+01
 Coeff:      0.100D+01
 Recover alternate guess density for next cycle.
 RMSDP=1.69D-02 MaxDP=8.31D-02              OVMax= 0.00D+00

 Cycle   2  Pass 1  IDiag  1:
 E= -273.159177956150     Delta-E=       -0.000629335200 Rises=F Damp=F
 DIIS: error= 3.72D-02 at cycle   2 NSaved=   2.
 NSaved= 2 IEnMin= 2 EnMin= -273.159177956150     IErMin= 1 ErrMin= 1.63D-02
 ErrMax= 3.72D-02 EMaxC= 1.00D-01 BMatC= 4.15D-02 BMatP= 1.42D-02
 IDIUse=2 WtCom= 0.00D+00 WtEn= 1.00D+00
 Coeff-En:   0.000D+00 0.100D+01
 Coeff:      0.000D+00 0.100D+01
 Gap=     0.940 Goal=   None    Shift=    0.000
 RMSDP=9.97D-03 MaxDP=7.40D-02 DE=-6.29D-04 OVMax= 0.00D+00

 Cycle   3  Pass 1  IDiag  1:
 E= -273.195057716174     Delta-E=       -0.035879760023 Rises=F Damp=F
 DIIS: error= 5.94D-03 at cycle   3 NSaved=   3.
 NSaved= 3 IEnMin= 3 EnMin= -273.195057716174     IErMin= 3 ErrMin= 5.94D-03
 ErrMax= 5.94D-03 EMaxC= 1.00D-01 BMatC= 1.28D-03 BMatP= 1.42D-02
 IDIUse=3 WtCom= 9.41D-01 WtEn= 5.94D-02
 Coeff-Com:  0.721D-01 0.228D-01 0.905D+00
 Coeff-En:   0.000D+00 0.000D+00 0.100D+01
 Coeff:      0.678D-01 0.214D-01 0.911D+00
 Gap=     0.910 Goal=   None    Shift=    0.000
 RMSDP=2.40D-03 MaxDP=1.90D-02 DE=-3.59D-02 OVMax= 0.00D+00

 Cycle   4  Pass 1  IDiag  1:
 E= -273.196926088196     Delta-E=       -0.001868372022 Rises=F Damp=F
 DIIS: error= 1.68D-03 at cycle   4 NSaved=   4.
 NSaved= 4 IEnMin= 4 EnMin= -273.196926088196     IErMin= 4 ErrMin= 1.68D-03
 ErrMax= 1.68D-03 EMaxC= 1.00D-01 BMatC= 8.58D-05 BMatP= 1.28D-03
 IDIUse=3 WtCom= 9.83D-01 WtEn= 1.68D-02
 Coeff-Com: -0.201D-01-0.245D-01 0.508D-01 0.994D+00
 Coeff-En:   0.000D+00 0.000D+00 0.000D+00 0.100D+01
 Coeff:     -0.197D-01-0.241D-01 0.500D-01 0.994D+00
 Gap=     0.916 Goal=   None    Shift=    0.000
 RMSDP=6.94D-04 MaxDP=2.86D-03 DE=-1.87D-03 OVMax= 0.00D+00

 Cycle   5  Pass 1  IDiag  1:
 E= -273.197094245963     Delta-E=       -0.000168157767 Rises=F Damp=F
 DIIS: error= 4.11D-04 at cycle   5 NSaved=   5.
 NSaved= 5 IEnMin= 5 EnMin= -273.197094245963     IErMin= 5 ErrMin= 4.11D-04
 ErrMax= 4.11D-04 EMaxC= 1.00D-01 BMatC= 5.17D-06 BMatP= 8.58D-05
 IDIUse=3 WtCom= 9.96D-01 WtEn= 4.11D-03
 Coeff-Com:  0.540D-02 0.570D-02-0.498D-01-0.338D+00 0.138D+01
 Coeff-En:   0.000D+00 0.000D+00 0.000D+00 0.000D+00 0.100D+01
 Coeff:      0.538D-02 0.568D-02-0.496D-01-0.337D+00 0.138D+01
 Gap=     0.916 Goal=   None    Shift=    0.000
 RMSDP=2.68D-04 MaxDP=1.43D-03 DE=-1.68D-04 OVMax= 0.00D+00

 Cycle   6  Pass 1  IDiag  1:
 E= -273.197107940222     Delta-E=       -0.000013694259 Rises=F Damp=F
 DIIS: error= 3.55D-05 at cycle   6 NSaved=   6.
 NSaved= 6 IEnMin= 6 EnMin= -273.197107940222     IErMin= 6 ErrMin= 3.55D-05
 ErrMax= 3.55D-05 EMaxC= 1.00D-01 BMatC= 3.90D-08 BMatP= 5.17D-06
 IDIUse=1 WtCom= 1.00D+00 WtEn= 0.00D+00
 Coeff-Com: -0.111D-02-0.834D-03 0.827D-02 0.539D-01-0.242D+00 0.118D+01
 Coeff:     -0.111D-02-0.834D-03 0.827D-02 0.539D-01-0.242D+00 0.118D+01
 Gap=     0.916 Goal=   None    Shift=    0.000
 RMSDP=1.92D-05 MaxDP=1.55D-04 DE=-1.37D-05 OVMax= 0.00D+00

 Cycle   7  Pass 1  IDiag  1:
 E= -273.197108045821     Delta-E=       -0.000000105599 Rises=F Damp=F
 DIIS: error= 1.07D-05 at cycle   7 NSaved=   7.
 NSaved= 7 IEnMin= 7 EnMin= -273.197108045821     IErMin= 7 ErrMin= 1.07D-05
 ErrMax= 1.07D-05 EMaxC= 1.00D-01 BMatC= 4.27D-09 BMatP= 3.90D-08
 IDIUse=1 WtCom= 1.00D+00 WtEn= 0.00D+00
 Coeff-Com: -0.451D-03-0.425D-03 0.396D-02 0.249D-01-0.105D+00 0.292D-01
 Coeff-Com:  0.105D+01
 Coeff:     -0.451D-03-0.425D-03 0.396D-02 0.249D-01-0.105D+00 0.292D-01
 Coeff:      0.105D+01
 Gap=     0.916 Goal=   None    Shift=    0.000
 RMSDP=6.56D-06 MaxDP=4.54D-05 DE=-1.06D-07 OVMax= 0.00D+00

 Cycle   8  Pass 1  IDiag  1:
 E= -273.197108057993     Delta-E=       -0.000000012172 Rises=F Damp=F
 DIIS: error= 4.08D-06 at cycle   8 NSaved=   8.
 NSaved= 8 IEnMin= 8 EnMin= -273.197108057993     IErMin= 8 ErrMin= 4.08D-06
 ErrMax= 4.08D-06 EMaxC= 1.00D-01 BMatC= 4.28D-10 BMatP= 4.27D-09
 IDIUse=1 WtCom= 1.00D+00 WtEn= 0.00D+00
 Coeff-Com:  0.194D-03 0.196D-03-0.182D-02-0.121D-01 0.517D-01-0.965D-01
 Coeff-Com: -0.394D+00 0.145D+01
 Coeff:      0.194D-03 0.196D-03-0.182D-02-0.121D-01 0.517D-01-0.965D-01
 Coeff:     -0.394D+00 0.145D+01
 Gap=     0.916 Goal=   None    Shift=    0.000
 RMSDP=3.07D-06 MaxDP=2.09D-05 DE=-1.22D-08 OVMax= 0.00D+00

 Cycle   9  Pass 1  IDiag  1:
 E= -273.197108059611     Delta-E=       -0.000000001618 Rises=F Damp=F
 DIIS: error= 5.55D-07 at cycle   9 NSaved=   9.
 NSaved= 9 IEnMin= 9 EnMin= -273.197108059611     IErMin= 9 ErrMin= 5.55D-07
 ErrMax= 5.55D-07 EMaxC= 1.00D-01 BMatC= 8.10D-12 BMatP= 4.28D-10
 IDIUse=1 WtCom= 1.00D+00 WtEn= 0.00D+00
 Coeff-Com: -0.864D-05-0.541D-05 0.384D-04 0.487D-03-0.180D-02 0.660D-02
 Coeff-Com:  0.236D-01-0.219D+00 0.119D+01
 Coeff:     -0.864D-05-0.541D-05 0.384D-04 0.487D-03-0.180D-02 0.660D-02
 Coeff:      0.236D-01-0.219D+00 0.119D+01
 Gap=     0.916 Goal=   None    Shift=    0.000
 RMSDP=3.95D-07 MaxDP=2.59D-06 DE=-1.62D-09 OVMax= 0.00D+00

 Cycle  10  Pass 1  IDiag  1:
 E= -273.197108059637     Delta-E=       -0.000000000026 Rises=F Damp=F
 DIIS: error= 7.12D-08 at cycle  10 NSaved=  10.
 NSaved=10 IEnMin=10 EnMin= -273.197108059637     IErMin=10 ErrMin= 7.12D-08
 ErrMax= 7.12D-08 EMaxC= 1.00D-01 BMatC= 1.58D-13 BMatP= 8.10D-12
 IDIUse=1 WtCom= 1.00D+00 WtEn= 0.00D+00
 Coeff-Com:  0.525D-06-0.683D-06 0.974D-05-0.285D-05-0.712D-04-0.595D-03
 Coeff-Com: -0.329D-02 0.464D-01-0.333D+00 0.129D+01
 Coeff:      0.525D-06-0.683D-06 0.974D-05-0.285D-05-0.712D-04-0.595D-03
 Coeff:     -0.329D-02 0.464D-01-0.333D+00 0.129D+01
 Gap=     0.916 Goal=   None    Shift=    0.000
 RMSDP=4.33D-08 MaxDP=2.63D-07 DE=-2.59D-11 OVMax= 0.00D+00

 Cycle  11  Pass 1  IDiag  1:
 E= -273.197108059638     Delta-E=       -0.000000000001 Rises=F Damp=F
 DIIS: error= 2.88D-08 at cycle  11 NSaved=  11.
 NSaved=11 IEnMin=11 EnMin= -273.197108059638     IErMin=11 ErrMin= 2.88D-08
 ErrMax= 2.88D-08 EMaxC= 1.00D-01 BMatC= 1.72D-14 BMatP= 1.58D-13
 IDIUse=1 WtCom= 1.00D+00 WtEn= 0.00D+00
 Coeff-Com:  0.706D-07 0.474D-06-0.596D-05-0.131D-04 0.888D-04 0.402D-05
 Coeff-Com:  0.916D-03-0.143D-01 0.116D+00-0.714D+00 0.161D+01
 Coeff:      0.706D-07 0.474D-06-0.596D-05-0.131D-04 0.888D-04 0.402D-05
 Coeff:      0.916D-03-0.143D-01 0.116D+00-0.714D+00 0.161D+01
 Gap=     0.916 Goal=   None    Shift=    0.000
 RMSDP=1.98D-08 MaxDP=1.11D-07 DE=-1.19D-12 OVMax= 0.00D+00

 Cycle  12  Pass 1  IDiag  1:
 E= -273.197108059639     Delta-E=        0.000000000000 Rises=F Damp=F
 DIIS: error= 3.70D-09 at cycle  12 NSaved=  12.
 NSaved=12 IEnMin=12 EnMin= -273.197108059639     IErMin=12 ErrMin= 3.70D-09
 ErrMax= 3.70D-09 EMaxC= 1.00D-01 BMatC= 3.98D-16 BMatP= 1.72D-14
 IDIUse=1 WtCom= 1.00D+00 WtEn= 0.00D+00
 Coeff-Com:  0.553D-08-0.650D-07 0.910D-06 0.145D-05-0.114D-04 0.927D-05
 Coeff-Com: -0.167D-03 0.200D-02-0.166D-01 0.133D+00-0.446D+00 0.133D+01
 Coeff:      0.553D-08-0.650D-07 0.910D-06 0.145D-05-0.114D-04 0.927D-05
 Coeff:     -0.167D-03 0.200D-02-0.166D-01 0.133D+00-0.446D+00 0.133D+01
 Gap=     0.916 Goal=   None    Shift=    0.000
 RMSDP=3.08D-09 MaxDP=1.51D-08 DE=-2.84D-13 OVMax= 0.00D+00

 SCF Done:  E(RHF) =  -273.197108060     A.U. after   12 cycles
             Convg  =    0.3083D-08             -V/T =  2.0110
             S**2   =   0.0000
 KE= 2.702248707609D+02 PE=-9.026799636792D+02 EE= 2.328063207568D+02
 Leave Link  502 at Tue Oct  2 02:28:40 2007, MaxMem=    6291456 cpu:       0.1
 (Enter /opt/und/gaussian/03D01/linux86-64/g03/l108.exe)
 Variable Step   Value    
 -------- ---- -----------
     7       5    1.439897
 Leave Link  108 at Tue Oct  2 02:28:41 2007, MaxMem=    6291456 cpu:       0.1
 (Enter /opt/und/gaussian/03D01/linux86-64/g03/l202.exe)
 ------------------------------------------------------------------------
                         Z-MATRIX (ANGSTROMS AND DEGREES)
 CD Cent Atom  N1     Length/X     N2    Alpha/Y     N3     Beta/Z      J
 ------------------------------------------------------------------------
   1   1  C 
   2   2  C     1   1.538600(  1)
   3   3  F     2   1.394620(  2)   1  109.542(  8)
   4   4  H     2   1.114560(  3)   1  110.092(  9)   3  120.471( 14)   0
   5   5  H     2   1.114560(  4)   1  110.092( 10)   3 -120.483( 15)   0
   6   6  F     1   1.394620(  5)   2  109.542( 11)   3   82.500( 16)   0
   7   7  H     1   1.114560(  6)   2  110.092( 12)   6  120.471( 17)   0
   8   8  H     1   1.114560(  7)   2  110.092( 13)   6 -120.483( 18)   0
 ------------------------------------------------------------------------
                         Z-Matrix orientation:                         
 ---------------------------------------------------------------------
 Center     Atomic     Atomic              Coordinates (Angstroms)
 Number     Number      Type              X           Y           Z
 ---------------------------------------------------------------------
    1          6             0        0.000000    0.000000    0.000000
    2          6             0        0.000000    0.000000    1.538600
    3          9             0        1.314284    0.000000    2.005100
    4          1             0       -0.530802    0.902157    1.921490
    5          1             0       -0.530988   -0.902048    1.921490
    6          9             0        0.171548   -1.303040   -0.466500
    7          1             0       -0.963723    0.408506   -0.382890
    8          1             0        0.825023    0.644186   -0.382890
 ---------------------------------------------------------------------
                    Distance matrix (angstroms):
                    1          2          3          4          5
     1  C    0.000000
     2  C    1.538600   0.000000
     3  F    2.397451   1.394620   0.000000
     4  H    2.188096   1.114560   2.055534   0.000000
     5  H    2.188096   1.114560   2.055653   1.804206   0.000000
     6  F    1.394620   2.397451   3.018703   3.325461   2.521280
     7  H    1.114560   2.188096   3.325461   2.396097   2.686072
     8  H    1.114560   2.188096   2.521280   2.686072   3.088653
                    6          7          8
     6  F    0.000000
     7  H    2.055534   0.000000
     8  H    2.055653   1.804206   0.000000
                           Interatomic angles:
       C1-C2-F3=109.5421       C1-C2-H4=110.0924       F3-C2-H4=109.5055
       C1-C2-H5=110.0924       F3-C2-H5=109.515        H4-C2-H5=108.0709
       C2-C1-F6=109.5421       C2-C1-H7=110.0924       F6-C1-H7=109.5055
       C2-C1-H8=110.0924       F6-C1-H8=109.515        H7-C1-H8=108.0709
 Symmetry turned off by external request.
 Stoichiometry    C2H4F2
 Framework group  C2[X(C2H4F2)]
 Deg. of freedom    10
 Full point group                 C2
[...]
 E= -273.192690415558     Delta-E=       -0.000000013943 Rises=F Damp=F
 DIIS: error= 3.94D-06 at cycle   8 NSaved=   8.
 NSaved= 8 IEnMin= 8 EnMin= -273.192690415558     IErMin= 8 ErrMin= 3.94D-06
 ErrMax= 3.94D-06 EMaxC= 1.00D-01 BMatC= 5.21D-10 BMatP= 4.75D-09
 IDIUse=1 WtCom= 1.00D+00 WtEn= 0.00D+00
 Coeff-Com:  0.258D-03 0.248D-03-0.233D-02-0.151D-01 0.637D-01-0.108D+00
 Coeff-Com: -0.455D+00 0.152D+01
 Coeff:      0.258D-03 0.248D-03-0.233D-02-0.151D-01 0.637D-01-0.108D+00
 Coeff:     -0.455D+00 0.152D+01
 Gap=     0.895 Goal=   None    Shift=    0.000
 RMSDP=3.51D-06 MaxDP=2.20D-05 DE=-1.39D-08 OVMax= 0.00D+00

 Cycle   9  Pass 1  IDiag  1:
 E= -273.192690417587     Delta-E=       -0.000000002029 Rises=F Damp=F
 DIIS: error= 5.54D-07 at cycle   9 NSaved=   9.
 NSaved= 9 IEnMin= 9 EnMin= -273.192690417587     IErMin= 9 ErrMin= 5.54D-07
 ErrMax= 5.54D-07 EMaxC= 1.00D-01 BMatC= 9.35D-12 BMatP= 5.21D-10
 IDIUse=1 WtCom= 1.00D+00 WtEn= 0.00D+00
 Coeff-Com: -0.109D-04-0.811D-05 0.580D-04 0.648D-03-0.235D-02 0.509D-02
 Coeff-Com:  0.337D-01-0.209D+00 0.117D+01
 Coeff:     -0.109D-04-0.811D-05 0.580D-04 0.648D-03-0.235D-02 0.509D-02
 Coeff:      0.337D-01-0.209D+00 0.117D+01
 Gap=     0.895 Goal=   None    Shift=    0.000
 RMSDP=3.95D-07 MaxDP=2.30D-06 DE=-2.03D-09 OVMax= 0.00D+00

 Cycle  10  Pass 1  IDiag  1:
 E= -273.192690417617     Delta-E=       -0.000000000029 Rises=F Damp=F
 DIIS: error= 1.03D-07 at cycle  10 NSaved=  10.
 NSaved=10 IEnMin=10 EnMin= -273.192690417617     IErMin=10 ErrMin= 1.03D-07
 ErrMax= 1.03D-07 EMaxC= 1.00D-01 BMatC= 4.01D-13 BMatP= 9.35D-12
 IDIUse=1 WtCom= 1.00D+00 WtEn= 0.00D+00
 Coeff-Com:  0.534D-06-0.133D-05 0.197D-04 0.124D-04-0.221D-03 0.147D-03
 Coeff-Com: -0.712D-02 0.619D-01-0.497D+00 0.144D+01
 Coeff:      0.534D-06-0.133D-05 0.197D-04 0.124D-04-0.221D-03 0.147D-03
 Coeff:     -0.712D-02 0.619D-01-0.497D+00 0.144D+01
 Gap=     0.895 Goal=   None    Shift=    0.000
 RMSDP=7.92D-08 MaxDP=4.20D-07 DE=-2.94D-11 OVMax= 0.00D+00

 Cycle  11  Pass 1  IDiag  1:
 E= -273.192690417618     Delta-E=       -0.000000000001 Rises=F Damp=F
 DIIS: error= 2.90D-08 at cycle  11 NSaved=  11.
 NSaved=11 IEnMin=11 EnMin= -273.192690417618     IErMin=11 ErrMin= 2.90D-08
 ErrMax= 2.90D-08 EMaxC= 1.00D-01 BMatC= 2.89D-14 BMatP= 4.01D-13
 IDIUse=1 WtCom= 1.00D+00 WtEn= 0.00D+00
 Coeff-Com:  0.114D-06 0.596D-06-0.800D-05-0.156D-04 0.118D-03-0.238D-03
 Coeff-Com:  0.193D-02-0.164D-01 0.146D+00-0.653D+00 0.152D+01
 Coeff:      0.114D-06 0.596D-06-0.800D-05-0.156D-04 0.118D-03-0.238D-03
 Coeff:      0.193D-02-0.164D-01 0.146D+00-0.653D+00 0.152D+01
 Gap=     0.895 Goal=   None    Shift=    0.000
 RMSDP=2.70D-08 MaxDP=1.58D-07 DE=-1.02D-12 OVMax= 0.00D+00

 Cycle  12  Pass 1  IDiag  1:
 E= -273.192690417619     Delta-E=       -0.000000000001 Rises=F Damp=F
 DIIS: error= 2.67D-09 at cycle  12 NSaved=  12.
 NSaved=12 IEnMin=12 EnMin= -273.192690417619     IErMin=12 ErrMin= 2.67D-09
 ErrMax= 2.67D-09 EMaxC= 1.00D-01 BMatC= 3.04D-16 BMatP= 2.89D-14
 IDIUse=1 WtCom= 1.00D+00 WtEn= 0.00D+00
 Coeff-Com:  0.326D-07-0.460D-07 0.780D-06-0.843D-07-0.607D-05 0.243D-04
 Coeff-Com: -0.306D-03 0.211D-02-0.178D-01 0.961D-01-0.316D+00 0.124D+01
 Coeff:      0.326D-07-0.460D-07 0.780D-06-0.843D-07-0.607D-05 0.243D-04
 Coeff:     -0.306D-03 0.211D-02-0.178D-01 0.961D-01-0.316D+00 0.124D+01
 Gap=     0.895 Goal=   None    Shift=    0.000
 RMSDP=2.42D-09 MaxDP=1.42D-08 DE=-9.09D-13 OVMax= 0.00D+00

 SCF Done:  E(RHF) =  -273.192690418     A.U. after   12 cycles
             Convg  =    0.2425D-08             -V/T =  2.0110
             S**2   =   0.0000
 KE= 2.702094228096D+02 PE=-9.060589590341D+02 EE= 2.345061184665D+02
 Leave Link  502 at Tue Oct  2 02:29:15 2007, MaxMem=    6291456 cpu:       0.1
 (Enter /opt/und/gaussian/03D01/linux86-64/g03/l108.exe)
 Variable Step   Value    
 -------- ---- -----------
     7      23    6.152286
 Leave Link  108 at Tue Oct  2 02:29:16 2007, MaxMem=    6291456 cpu:       0.1
 (Enter /opt/und/gaussian/03D01/linux86-64/g03/l202.exe)
 ------------------------------------------------------------------------
                         Z-MATRIX (ANGSTROMS AND DEGREES)
 CD Cent Atom  N1     Length/X     N2    Alpha/Y     N3     Beta/Z      J
 ------------------------------------------------------------------------
   1   1  C 
   2   2  C     1   1.538600(  1)
   3   3  F     2   1.394620(  2)   1  109.542(  8)
   4   4  H     2   1.114560(  3)   1  110.092(  9)   3  120.471( 14)   0
   5   5  H     2   1.114560(  4)   1  110.092( 10)   3 -120.483( 15)   0
   6   6  F     1   1.394620(  5)   2  109.542( 11)   3  352.500( 16)   0
   7   7  H     1   1.114560(  6)   2  110.092( 12)   6  120.471( 17)   0
   8   8  H     1   1.114560(  7)   2  110.092( 13)   6 -120.483( 18)   0
 ------------------------------------------------------------------------
                         Z-Matrix orientation:                         
 ---------------------------------------------------------------------
 Center     Atomic     Atomic              Coordinates (Angstroms)
 Number     Number      Type              X           Y           Z
 ---------------------------------------------------------------------
    1          6             0        0.000000    0.000000    0.000000
    2          6             0        0.000000    0.000000    1.538600
    3          9             0        1.314284    0.000000    2.005100
    4          1             0       -0.530802    0.902157    1.921490
    5          1             0       -0.530988   -0.902048    1.921490
    6          9             0        1.303040    0.171548   -0.466500
    7          1             0       -0.408506   -0.963723   -0.382890
    8          1             0       -0.644186    0.825023   -0.382890
 ---------------------------------------------------------------------
                    Distance matrix (angstroms):
                    1          2          3          4          5
     1  C    0.000000
     2  C    1.538600   0.000000
     3  F    2.397451   1.394620   0.000000
     4  H    2.188096   1.114560   2.055534   0.000000
     5  H    2.188096   1.114560   2.055653   1.804206   0.000000
     6  F    1.394620   2.397451   2.477573   3.098268   3.196681
     7  H    1.114560   2.188096   3.098268   2.967598   2.308457
     8  H    1.114560   2.188096   3.196681   2.308457   2.881972
                    6          7          8
     6  F    0.000000
     7  H    2.055534   0.000000
     8  H    2.055653   1.804206   0.000000
                           Interatomic angles:
       C1-C2-F3=109.5421       C1-C2-H4=110.0924       F3-C2-H4=109.5055
       C1-C2-H5=110.0924       F3-C2-H5=109.515        H4-C2-H5=108.0709
       C2-C1-F6=109.5421       C2-C1-H7=110.0924       F6-C1-H7=109.5055
       C2-C1-H8=110.0924       F6-C1-H8=109.515        H7-C1-H8=108.0709
 Symmetry turned off by external request.
 Stoichiometry    C2H4F2
 Framework group  C2[X(C2H4F2)]
 Deg. of freedom    10
 Full point group                 C2
 Rotational constants (GHZ):     14.2785211      6.2287525      4.6014256
 Leave Link  202 at Tue Oct  2 02:29:16 2007, MaxMem=    6291456 cpu:       0.1
 (Enter /opt/und/gaussian/03D01/linux86-64/g03/l301.exe)
 Standard basis: STO-3G (5D, 7F)
 Integral buffers will be    131072 words long.
 Raffenetti 1 integral format.
 Two-electron integral symmetry is turned off.
    24 basis functions,    72 primitive gaussians,    24 cartesian basis functions
    17 alpha electrons       17 beta electrons
       nuclear repulsion energy       128.4279573262 Hartrees.
 IExCor=   0 DFT=F Ex=HF Corr=None ExCW=0 ScaHFX=  1.000000
 ScaDFX=  1.000000  1.000000  1.000000  1.000000
 IRadAn=      0 IRanWt=     -1 IRanGd=            0 ICorTp=0
 NAtoms=    8 NActive=    8 NUniq=    8 SFac= 7.50D-01 NAtFMM=   80 NAOKFM=F Big=F
 Leave Link  301 at Tue Oct  2 02:29:16 2007, MaxMem=    6291456 cpu:       0.0
 (Enter /opt/und/gaussian/03D01/linux86-64/g03/linda-exe/l302.exel)
 NPDir=0 NMtPBC=     1 NCelOv=     1 NCel=       1 NClECP=     1 NCelD=      1
         NCelK=      1 NCelE2=     1 NClLst=     1 CellRange=     0.0.
 One-electron integrals computed using PRISM.
 NBasis=    24 RedAO= T  NBF=    24
 NBsUse=    24 1.00D-06 NBFU=    24
 Leave Link  302 at Tue Oct  2 02:29:17 2007, MaxMem=    6291456 cpu:       0.0
 (Enter /opt/und/gaussian/03D01/linux86-64/g03/l303.exe)
 DipDrv:  MaxL=1.
 Leave Link  303 at Tue Oct  2 02:29:17 2007, MaxMem=    6291456 cpu:       0.0
 (Enter /opt/und/gaussian/03D01/linux86-64/g03/l401.exe)
 Initial guess read from the read-write file:
 Guess basis will be translated and rotated to current coordinates.
 Generating alternative initial guess.
 Harris functional with IExCor=  205 diagonalized for initial guess.
 ExpMin= 1.69D-01 ExpMax= 1.67D+02 ExpMxC= 1.67D+02 IAcc=1 IRadAn=         1 AccDes= 1.00D-06
 HarFok:  IExCor= 205 AccDes= 1.00D-06 IRadAn=         1 IDoV=1
 ScaDFX=  1.000000  1.000000  1.000000  1.000000
 Harris En= -273.189559947266    
 Leave Link  401 at Tue Oct  2 02:29:17 2007, MaxMem=    6291456 cpu:       0.1
 (Enter /opt/und/gaussian/03D01/linux86-64/g03/linda-exe/l502.exel)
 Closed shell SCF:
 Requested convergence on RMS density matrix=1.00D-08 within 128 cycles.
 Requested convergence on MAX density matrix=1.00D-06.
 Requested convergence on             energy=1.00D-06.
 No special actions if energy rises.
 Using DIIS extrapolation, IDIIS=  1040.
 Two-electron integral symmetry not used.
 Keep R1 integrals in memory in canonical form, NReq=      872356.
 IEnd=     19392 IEndB=     19392 NGot=   6291456 MDV=   6244141
 LenX=   6244141
 Symmetry not used in FoFDir.
 MinBra= 0 MaxBra= 1 Meth= 1.
 IRaf=       0 NMat=   1 IRICut=       1 DoRegI=T DoRafI=F ISym2E= 0 JSym2E=0.

 Cycle   1  Pass 1  IDiag  1:
 E= -273.152377842237    
 DIIS: error= 1.95D-02 at cycle   1 NSaved=   1.
 NSaved= 1 IEnMin= 1 EnMin= -273.152377842237     IErMin= 1 ErrMin= 1.95D-02
 ErrMax= 1.95D-02 EMaxC= 1.00D-01 BMatC= 1.44D-02 BMatP= 1.44D-02
 IDIUse=3 WtCom= 8.05D-01 WtEn= 1.95D-01
 Coeff-Com:  0.100D+01
 Coeff-En:   0.100D+01
 Coeff:      0.100D+01
 Recover alternate guess density for next cycle.
 RMSDP=1.68D-02 MaxDP=8.95D-02              OVMax= 0.00D+00

 Cycle   2  Pass 1  IDiag  1:
 E= -273.153491354470     Delta-E=       -0.001113512233 Rises=F Damp=F
 DIIS: error= 3.73D-02 at cycle   2 NSaved=   2.
 NSaved= 2 IEnMin= 2 EnMin= -273.153491354470     IErMin= 1 ErrMin= 1.95D-02
 ErrMax= 3.73D-02 EMaxC= 1.00D-01 BMatC= 4.18D-02 BMatP= 1.44D-02
 IDIUse=2 WtCom= 0.00D+00 WtEn= 1.00D+00
 Coeff-En:   0.000D+00 0.100D+01
 Coeff:      0.000D+00 0.100D+01
 Gap=     0.930 Goal=   None    Shift=    0.000
 RMSDP=1.00D-02 MaxDP=7.60D-02 DE=-1.11D-03 OVMax= 0.00D+00

 Cycle   3  Pass 1  IDiag  1:
 E= -273.189199514928     Delta-E=       -0.035708160458 Rises=F Damp=F
 DIIS: error= 6.22D-03 at cycle   3 NSaved=   3.
 NSaved= 3 IEnMin= 3 EnMin= -273.189199514928     IErMin= 3 ErrMin= 6.22D-03
 ErrMax= 6.22D-03 EMaxC= 1.00D-01 BMatC= 1.36D-03 BMatP= 1.44D-02
 IDIUse=3 WtCom= 9.38D-01 WtEn= 6.22D-02
 Coeff-Com:  0.726D-01 0.289D-01 0.899D+00
 Coeff-En:   0.000D+00 0.000D+00 0.100D+01
 Coeff:      0.681D-01 0.271D-01 0.905D+00
 Gap=     0.887 Goal=   None    Shift=    0.000
 RMSDP=2.45D-03 MaxDP=1.93D-02 DE=-3.57D-02 OVMax= 0.00D+00

 Cycle   4  Pass 1  IDiag  1:
 E= -273.191139605122     Delta-E=       -0.001940090194 Rises=F Damp=F
 DIIS: error= 1.63D-03 at cycle   4 NSaved=   4.
 NSaved= 4 IEnMin= 4 EnMin= -273.191139605122     IErMin= 4 ErrMin= 1.63D-03
 ErrMax= 1.63D-03 EMaxC= 1.00D-01 BMatC= 8.98D-05 BMatP= 1.36D-03
 IDIUse=3 WtCom= 9.84D-01 WtEn= 1.63D-02
 Coeff-Com: -0.202D-01-0.249D-01 0.548D-01 0.990D+00
 Coeff-En:   0.000D+00 0.000D+00 0.000D+00 0.100D+01
 Coeff:     -0.199D-01-0.245D-01 0.539D-01 0.990D+00
 Gap=     0.892 Goal=   None    Shift=    0.000
 RMSDP=7.06D-04 MaxDP=2.85D-03 DE=-1.94D-03 OVMax= 0.00D+00

 Cycle   5  Pass 1  IDiag  1:
 E= -273.191314758447     Delta-E=       -0.000175153326 Rises=F Damp=F
 DIIS: error= 4.29D-04 at cycle   5 NSaved=   5.
 NSaved= 5 IEnMin= 5 EnMin= -273.191314758447     IErMin= 5 ErrMin= 4.29D-04
 ErrMax= 4.29D-04 EMaxC= 1.00D-01 BMatC= 5.39D-06 BMatP= 8.98D-05
 IDIUse=3 WtCom= 9.96D-01 WtEn= 4.29D-03
 Coeff-Com:  0.576D-02 0.582D-02-0.513D-01-0.345D+00 0.138D+01
 Coeff-En:   0.000D+00 0.000D+00 0.000D+00 0.000D+00 0.100D+01
 Coeff:      0.574D-02 0.579D-02-0.511D-01-0.343D+00 0.138D+01
 Gap=     0.892 Goal=   None    Shift=    0.000
 RMSDP=2.75D-04 MaxDP=1.48D-03 DE=-1.75D-04 OVMax= 0.00D+00

 Cycle   6  Pass 1  IDiag  1:
 E= -273.191329160909     Delta-E=       -0.000014402462 Rises=F Damp=F
 DIIS: error= 2.75D-05 at cycle   6 NSaved=   6.
 NSaved= 6 IEnMin= 6 EnMin= -273.191329160909     IErMin= 6 ErrMin= 2.75D-05
 ErrMax= 2.75D-05 EMaxC= 1.00D-01 BMatC= 4.27D-08 BMatP= 5.39D-06
 IDIUse=1 WtCom= 1.00D+00 WtEn= 0.00D+00
 Coeff-Com: -0.131D-02-0.100D-02 0.974D-02 0.634D-01-0.275D+00 0.120D+01
 Coeff:     -0.131D-02-0.100D-02 0.974D-02 0.634D-01-0.275D+00 0.120D+01
 Gap=     0.893 Goal=   None    Shift=    0.000
 RMSDP=2.04D-05 MaxDP=1.28D-04 DE=-1.44D-05 OVMax= 0.00D+00

 Cycle   7  Pass 1  IDiag  1:
 E= -273.191329280064     Delta-E=       -0.000000119155 Rises=F Damp=F
 DIIS: error= 1.02D-05 at cycle   7 NSaved=   7.
 NSaved= 7 IEnMin= 7 EnMin= -273.191329280064     IErMin= 7 ErrMin= 1.02D-05
 ErrMax= 1.02D-05 EMaxC= 1.00D-01 BMatC= 5.12D-09 BMatP= 4.27D-08
 IDIUse=1 WtCom= 1.00D+00 WtEn= 0.00D+00
 Coeff-Com: -0.531D-03-0.494D-03 0.460D-02 0.289D-01-0.119D+00 0.242D-01
 Coeff-Com:  0.106D+01
 Coeff:     -0.531D-03-0.494D-03 0.460D-02 0.289D-01-0.119D+00 0.242D-01
 Coeff:      0.106D+01
 Gap=     0.893 Goal=   None    Shift=    0.000
 RMSDP=7.46D-06 MaxDP=4.65D-05 DE=-1.19D-07 OVMax= 0.00D+00

 Cycle   8  Pass 1  IDiag  1:
 E= -273.191329295354     Delta-E=       -0.000000015290 Rises=F Damp=F
 DIIS: error= 3.88D-06 at cycle   8 NSaved=   8.
 NSaved= 8 IEnMin= 8 EnMin= -273.191329295354     IErMin= 8 ErrMin= 3.88D-06
 ErrMax= 3.88D-06 EMaxC= 1.00D-01 BMatC= 5.32D-10 BMatP= 5.12D-09
 IDIUse=1 WtCom= 1.00D+00 WtEn= 0.00D+00
 Coeff-Com:  0.264D-03 0.252D-03-0.236D-02-0.154D-01 0.644D-01-0.104D+00
 Coeff-Com: -0.447D+00 0.150D+01
 Coeff:      0.264D-03 0.252D-03-0.236D-02-0.154D-01 0.644D-01-0.104D+00
 Coeff:     -0.447D+00 0.150D+01
 Gap=     0.893 Goal=   None    Shift=    0.000
 RMSDP=3.55D-06 MaxDP=2.17D-05 DE=-1.53D-08 OVMax= 0.00D+00

 Cycle   9  Pass 1  IDiag  1:
 E= -273.191329297423     Delta-E=       -0.000000002070 Rises=F Damp=F
 DIIS: error= 5.44D-07 at cycle   9 NSaved=   9.
 NSaved= 9 IEnMin= 9 EnMin= -273.191329297423     IErMin= 9 ErrMin= 5.44D-07
 ErrMax= 5.44D-07 EMaxC= 1.00D-01 BMatC= 9.12D-12 BMatP= 5.32D-10
 IDIUse=1 WtCom= 1.00D+00 WtEn= 0.00D+00
 Coeff-Com: -0.110D-04-0.811D-05 0.576D-04 0.647D-03-0.232D-02 0.454D-02
 Coeff-Com:  0.333D-01-0.202D+00 0.117D+01
 Coeff:     -0.110D-04-0.811D-05 0.576D-04 0.647D-03-0.232D-02 0.454D-02
 Coeff:      0.333D-01-0.202D+00 0.117D+01
 Gap=     0.893 Goal=   None    Shift=    0.000
 RMSDP=3.83D-07 MaxDP=1.84D-06 DE=-2.07D-09 OVMax= 0.00D+00

 Cycle  10  Pass 1  IDiag  1:
 E= -273.191329297451     Delta-E=       -0.000000000028 Rises=F Damp=F
 DIIS: error= 1.16D-07 at cycle  10 NSaved=  10.
 NSaved=10 IEnMin=10 EnMin= -273.191329297451     IErMin=10 ErrMin= 1.16D-07
 ErrMax= 1.16D-07 EMaxC= 1.00D-01 BMatC= 4.14D-13 BMatP= 9.12D-12
 IDIUse=1 WtCom= 1.00D+00 WtEn= 0.00D+00
 Coeff-Com:  0.527D-06-0.134D-05 0.200D-04 0.112D-04-0.222D-03 0.263D-03
 Coeff-Com: -0.745D-02 0.621D-01-0.513D+00 0.146D+01
 Coeff:      0.527D-06-0.134D-05 0.200D-04 0.112D-04-0.222D-03 0.263D-03
 Coeff:     -0.745D-02 0.621D-01-0.513D+00 0.146D+01
 Gap=     0.893 Goal=   None    Shift=    0.000
 RMSDP=8.10D-08 MaxDP=4.47D-07 DE=-2.80D-11 OVMax= 0.00D+00

 Cycle  11  Pass 1  IDiag  1:
 E= -273.191329297453     Delta-E=       -0.000000000002 Rises=F Damp=F
 DIIS: error= 2.73D-08 at cycle  11 NSaved=  11.
 NSaved=11 IEnMin=11 EnMin= -273.191329297453     IErMin=11 ErrMin= 2.73D-08
 ErrMax= 2.73D-08 EMaxC= 1.00D-01 BMatC= 2.94D-14 BMatP= 4.14D-13
 IDIUse=1 WtCom= 1.00D+00 WtEn= 0.00D+00
 Coeff-Com:  0.909D-07 0.587D-06-0.800D-05-0.143D-04 0.114D-03-0.260D-03
 Coeff-Com:  0.211D-02-0.169D-01 0.153D+00-0.663D+00 0.153D+01
 Coeff:      0.909D-07 0.587D-06-0.800D-05-0.143D-04 0.114D-03-0.260D-03
 Coeff:      0.211D-02-0.169D-01 0.153D+00-0.663D+00 0.153D+01
 Gap=     0.893 Goal=   None    Shift=    0.000
 RMSDP=2.74D-08 MaxDP=1.59D-07 DE=-1.93D-12 OVMax= 0.00D+00

 Cycle  12  Pass 1  IDiag  1:
 E= -273.191329297454     Delta-E=       -0.000000000001 Rises=F Damp=F
 DIIS: error= 2.60D-09 at cycle  12 NSaved=  12.
 NSaved=12 IEnMin=12 EnMin= -273.191329297454     IErMin=12 ErrMin= 2.60D-09
 ErrMax= 2.60D-09 EMaxC= 1.00D-01 BMatC= 2.86D-16 BMatP= 2.94D-14
 IDIUse=1 WtCom= 1.00D+00 WtEn= 0.00D+00
 Coeff-Com:  0.354D-07-0.414D-07 0.736D-06-0.343D-06-0.498D-05 0.264D-04
 Coeff-Com: -0.317D-03 0.209D-02-0.179D-01 0.929D-01-0.303D+00 0.123D+01
 Coeff:      0.354D-07-0.414D-07 0.736D-06-0.343D-06-0.498D-05 0.264D-04
 Coeff:     -0.317D-03 0.209D-02-0.179D-01 0.929D-01-0.303D+00 0.123D+01
 Gap=     0.893 Goal=   None    Shift=    0.000
 RMSDP=2.33D-09 MaxDP=1.36D-08 DE=-1.02D-12 OVMax= 0.00D+00

 SCF Done:  E(RHF) =  -273.191329297     A.U. after   12 cycles
             Convg  =    0.2329D-08             -V/T =  2.0110
             S**2   =   0.0000
 KE= 2.702091807322D+02 PE=-9.066143464521D+02 EE= 2.347858790962D+02
 Leave Link  502 at Tue Oct  2 02:29:17 2007, MaxMem=    6291456 cpu:       0.1
 (Enter /opt/und/gaussian/03D01/linux86-64/g03/l108.exe)
 Scan completed.

 Summary of the potential surface scan:
   N      D3          SCF    
 ----  ---------  -----------
    1     7.5000   -273.19133
    2    22.5000   -273.19269
    3    37.5000   -273.19470
    4    52.5000   -273.19640
    5    67.5000   -273.19711
    6    82.5000   -273.19669
    7    97.5000   -273.19561
    8   112.5000   -273.19463
    9   127.5000   -273.19436
   10   142.5000   -273.19491
   11   157.5000   -273.19588
   12   172.5000   -273.19660
   13   187.5000   -273.19660
   14   202.5000   -273.19588
   15   217.5000   -273.19491
   16   232.5000   -273.19436
   17   247.5000   -273.19463
   18   262.5000   -273.19561
   19   277.5000   -273.19669
   20   292.5000   -273.19711
   21   307.5000   -273.19640
   22   322.5000   -273.19470
   23   337.5000   -273.19269
   24   352.5000   -273.19133
 ----  ---------  -----------
  
 Leave Link  108 at Tue Oct  2 02:29:18 2007, MaxMem=    6291456 cpu:       0.1
 (Enter /opt/und/gaussian/03D01/linux86-64/g03/l9999.exe)
 1\1\GINC-DDCOPT092\Scan\RHF\STO-3G\C2H4F2\WSCHNEI1\02-Oct-2007\1\\#P H
 F/STO-3G SCAN NOSYMMETRY\\C2H4F2 Scan\\0,1\C\C,1,r1\F,2,r2,1,A1\H,2,r3
 ,1,A2,3,D1,0\H,2,r3,1,A2,3,D2,0\F,1,r2,2,A1,3,D3,0\H,1,r3,2,A2,6,D1,0\
 H,1,r3,2,A2,6,D2,0\\r1=1.5386\r2=1.39462\r3=1.11456\D1=120.47127\D2=-1
 20.48305\A1=109.54214\D3=7.5,s,23,15.\A2=110.09239\\Version=AM64L-G03R
 evD.01\HF=-273.1913285,-273.1926884,-273.1946991,-273.1964027,-273.197
 1081,-273.1966927,-273.1956149,-273.1946322,-273.1943586,-273.1949126,
 -273.1958783,-273.1965987,-273.196599,-273.1958792,-273.1949133,-273.1
 943585,-273.1946312,-273.1956135,-273.1966917,-273.1971082,-273.196404
 1,-273.1947013,-273.1926904,-273.1913293\RMSD=4.372e-09,2.145e-09,2.21
 3e-09,2.490e-09,3.083e-09,9.157e-09,5.181e-09,5.223e-09,4.227e-09,3.35
 3e-09,3.456e-09,3.294e-09,3.274e-09,3.417e-09,3.298e-09,4.357e-09,5.49
 9e-09,5.607e-09,3.427e-09,3.079e-09,2.662e-09,2.512e-09,2.425e-09,2.32
 9e-09\Thermal=0.,0.,0.,0.,0.,0.,0.,0.,0.,0.,0.,0.,0.,0.,0.,0.,0.,0.,0.
 ,0.,0.,0.,0.,0.\PG=C02 [X(C2H4F2)]\\@


 SCIENCE AND PEACE WILL TRIUMPH OVER IGNORANCE AND WAR

                          -- PASTEUR
 Job cpu time:  0 days  0 hours  0 minutes 20.3 seconds.
 File lengths (MBytes):  RWF=     22 Int=      0 D2E=      0 Chk=     16 Scr=      1
 Normal termination of Gaussian 03 at Tue Oct  2 02:29:18 2007.
