 Entering Gaussian System, Link 0=g03
 Input=C2H4F2-steepcart.com
 Output=C2H4F2-steepcart.log
 Initial command:
 /opt/und/gaussian/03D01/linux86-64/g03/l1.exe /scratch/Gau-13941.inp -scrdir=/scratch/
 Entering Link 1 = /opt/und/gaussian/03D01/linux86-64/g03/l1.exe PID=     13942.
  
 Copyright (c) 1988,1990,1992,1993,1995,1998,2003,2004, Gaussian, Inc.
                  All Rights Reserved.
  
 This is the Gaussian(R) 03 program.  It is based on the
 the Gaussian(R) 98 system (copyright 1998, Gaussian, Inc.),
 the Gaussian(R) 94 system (copyright 1995, Gaussian, Inc.),
 the Gaussian 92(TM) system (copyright 1992, Gaussian, Inc.),
 the Gaussian 90(TM) system (copyright 1990, Gaussian, Inc.),
 the Gaussian 88(TM) system (copyright 1988, Gaussian, Inc.),
 the Gaussian 86(TM) system (copyright 1986, Carnegie Mellon
 University), and the Gaussian 82(TM) system (copyright 1983,
 Carnegie Mellon University). Gaussian is a federally registered
 trademark of Gaussian, Inc.
  
 This software contains proprietary and confidential information,
 including trade secrets, belonging to Gaussian, Inc.
  
 This software is provided under written license and may be
 used, copied, transmitted, or stored only in accord with that
 written license.
  
 The following legend is applicable only to US Government
 contracts under FAR:
  
                    RESTRICTED RIGHTS LEGEND
  
 Use, reproduction and disclosure by the US Government is
 subject to restrictions as set forth in subparagraphs (a)
 and (c) of the Commercial Computer Software - Restricted
 Rights clause in FAR 52.227-19.
  
 Gaussian, Inc.
 340 Quinnipiac St., Bldg. 40, Wallingford CT 06492
  
  
 ---------------------------------------------------------------
 Warning -- This program may not be used in any manner that
 competes with the business of Gaussian, Inc. or will provide
 assistance to any competitor of Gaussian, Inc.  The licensee
 of this program is prohibited from giving any competitor of
 Gaussian, Inc. access to this program.  By using this program,
 the user acknowledges that Gaussian, Inc. is engaged in the
 business of creating and licensing software in the field of
 computational chemistry and represents and warrants to the
 licensee that it is not a competitor of Gaussian, Inc. and that
 it will not use this program in any manner prohibited above.
 ---------------------------------------------------------------
  

 Cite this work as:
 Gaussian 03, Revision D.01,
 M. J. Frisch, G. W. Trucks, H. B. Schlegel, G. E. Scuseria, 
 M. A. Robb, J. R. Cheeseman, J. A. Montgomery, Jr., T. Vreven, 
 K. N. Kudin, J. C. Burant, J. M. Millam, S. S. Iyengar, J. Tomasi, 
 V. Barone, B. Mennucci, M. Cossi, G. Scalmani, N. Rega, 
 G. A. Petersson, H. Nakatsuji, M. Hada, M. Ehara, K. Toyota, 
 R. Fukuda, J. Hasegawa, M. Ishida, T. Nakajima, Y. Honda, O. Kitao, 
 H. Nakai, M. Klene, X. Li, J. E. Knox, H. P. Hratchian, J. B. Cross, 
 V. Bakken, C. Adamo, J. Jaramillo, R. Gomperts, R. E. Stratmann, 
 O. Yazyev, A. J. Austin, R. Cammi, C. Pomelli, J. W. Ochterski, 
 P. Y. Ayala, K. Morokuma, G. A. Voth, P. Salvador, J. J. Dannenberg, 
 V. G. Zakrzewski, S. Dapprich, A. D. Daniels, M. C. Strain, 
 O. Farkas, D. K. Malick, A. D. Rabuck, K. Raghavachari, 
 J. B. Foresman, J. V. Ortiz, Q. Cui, A. G. Baboul, S. Clifford, 
 J. Cioslowski, B. B. Stefanov, G. Liu, A. Liashenko, P. Piskorz, 
 I. Komaromi, R. L. Martin, D. J. Fox, T. Keith, M. A. Al-Laham, 
 C. Y. Peng, A. Nanayakkara, M. Challacombe, P. M. W. Gill, 
 B. Johnson, W. Chen, M. W. Wong, C. Gonzalez, and J. A. Pople, 
 Gaussian, Inc., Wallingford CT, 2004.
 
 ******************************************
 Gaussian 03:  AM64L-G03RevD.01 13-Oct-2005
                 3-Oct-2007 
 ******************************************
 %chk=C2H4F2-steep.chk
 %mem=6MW
 %nproc=1
 Will use up to    1 processors via shared memory.
 ---------------------------------
 #P HF/3-21G opt=(steep,cartesian)
 ---------------------------------
 1/10=7,18=10,19=2,38=1/1,3;
 2/17=6,18=5,29=2,40=1/2;
 3/5=5,11=9,16=1,25=1,30=1/1,2,3;
 4//1;
 5/5=2,38=5/2;
 6/7=2,8=2,9=2,10=2,28=1/1;
 7/7=1,29=1/1,2,3,16;
 1/10=7,18=10,19=2/3(3);
 2/29=1/2;
 6/7=2,8=2,9=2,10=2,19=2,28=1/1;
 99/12=1/99;
 2/29=1/2;
 3/5=5,11=9,16=1,25=1,30=1/1,2,3;
 4/5=5,16=3/1;
 5/5=2,38=5/2;
 7/7=1/1,2,3,16;
 1/18=10,19=2/3(-5);
 2/29=1/2;
 6/7=2,8=2,9=2,10=2,19=2,28=1/1;
 99/9=1,12=1/99;
 Leave Link    1 at Wed Oct  3 23:23:48 2007, MaxMem=    6291456 cpu:       0.5
 (Enter /opt/und/gaussian/03D01/linux86-64/g03/l101.exe)
 -----------
 C2H4F2 Scan
 -----------
 Symbolic Z-matrix:
 Charge =  0 Multiplicity = 1
 C
 C                    1    r1
 F                    2    r2       1    A1
 H                    2    r3       1    A2       3    D1       0
 H                    2    r3       1    A2       3    D2       0
 F                    1    r2       2    A1       3    D3       0
 H                    1    r3       2    A2       6    D1       0
 H                    1    r3       2    A2       6    D2       0
       Variables:
  r1                    1.5386                   
  r2                    1.39462                  
  r3                    1.11456                  
  D1                  120.47127                  
  D2                 -120.48305                  
  A1                  109.54214                  
  D3                   60.                       
  A2                  110.09239                  
 
                    Isotopes and Nuclear Properties:
 (Nuclear quadrupole moments (NQMom) in fm**2, nuclear magnetic moments (NMagM)
  in nuclear magnetons)

  Atom         1           2           3           4           5           6           7           8
 IAtWgt=          12          12          19           1           1          19           1           1
 AtmWgt=  12.0000000  12.0000000  18.9984033   1.0078250   1.0078250  18.9984033   1.0078250   1.0078250
 NucSpn=           0           0           1           1           1           1           1           1
 AtZEff=   0.0000000   0.0000000   0.0000000   0.0000000   0.0000000   0.0000000   0.0000000   0.0000000
 NQMom=    0.0000000   0.0000000  -9.4200000   0.0000000   0.0000000  -9.4200000   0.0000000   0.0000000
 NMagM=    0.0000000   0.0000000   2.6288670   2.7928460   2.7928460   2.6288670   2.7928460   2.7928460
 Leave Link  101 at Wed Oct  3 23:23:48 2007, MaxMem=    6291456 cpu:       0.3
 (Enter /opt/und/gaussian/03D01/linux86-64/g03/l103.exe)

 GradGradGradGradGradGradGradGradGradGradGradGradGradGradGradGradGradGrad
 Berny optimization.
 Initialization pass.
 Trust Radius=3.00D-01 FncErr=1.00D-07 GrdErr=1.00D-07
 Number of steps in this run=  34 maximum allowed number of steps= 100.
 GradGradGradGradGradGradGradGradGradGradGradGradGradGradGradGradGradGrad

 Leave Link  103 at Wed Oct  3 23:23:48 2007, MaxMem=    6291456 cpu:       0.0
 (Enter /opt/und/gaussian/03D01/linux86-64/g03/l202.exe)
 ------------------------------------------------------------------------
                         Z-MATRIX (ANGSTROMS AND DEGREES)
 CD Cent Atom  N1     Length/X     N2    Alpha/Y     N3     Beta/Z      J
 ------------------------------------------------------------------------
   1   1  C 
   2   2  C     1   1.538600(  1)
   3   3  F     2   1.394620(  2)   1  109.542(  8)
   4   4  H     2   1.114560(  3)   1  110.092(  9)   3  120.471( 14)   0
   5   5  H     2   1.114560(  4)   1  110.092( 10)   3 -120.483( 15)   0
   6   6  F     1   1.394620(  5)   2  109.542( 11)   3   60.000( 16)   0
   7   7  H     1   1.114560(  6)   2  110.092( 12)   6  120.471( 17)   0
   8   8  H     1   1.114560(  7)   2  110.092( 13)   6 -120.483( 18)   0
 ------------------------------------------------------------------------
                         Z-Matrix orientation:                         
 ---------------------------------------------------------------------
 Center     Atomic     Atomic              Coordinates (Angstroms)
 Number     Number      Type              X           Y           Z
 ---------------------------------------------------------------------
    1          6             0        0.000000    0.000000    0.000000
    2          6             0        0.000000    0.000000    1.538600
    3          9             0        1.314284    0.000000    2.005100
    4          1             0       -0.530802    0.902157    1.921490
    5          1             0       -0.530988   -0.902048    1.921490
    6          9             0        0.657142   -1.138203   -0.466500
    7          1             0       -1.046692    0.008609   -0.382890
    8          1             0        0.515703    0.910873   -0.382890
 ---------------------------------------------------------------------
                    Distance matrix (angstroms):
                    1          2          3          4          5
     1  C    0.000000
     2  C    1.538600   0.000000
     3  F    2.397451   1.394620   0.000000
     4  H    2.188096   1.114560   2.055534   0.000000
     5  H    2.188096   1.114560   2.055653   1.804206   0.000000
     6  F    1.394620   2.397451   2.799313   3.358092   2.677671
     7  H    1.114560   2.188096   3.358092   2.524825   2.530893
     8  H    1.114560   2.188096   2.677671   2.530893   3.113264
                    6          7          8
     6  F    0.000000
     7  H    2.055534   0.000000
     8  H    2.055653   1.804206   0.000000
 Stoichiometry    C2H4F2
 Framework group  C2[X(C2H4F2)]
 Deg. of freedom    10
 Full point group                 C2
 Largest Abelian subgroup         C2      NOp   2
 Largest concise Abelian subgroup C2      NOp   2
                         Standard orientation:                         
 ---------------------------------------------------------------------
 Center     Atomic     Atomic              Coordinates (Angstroms)
 Number     Number      Type              X           Y           Z
 ---------------------------------------------------------------------
    1          6             0        0.239588    0.731041    0.548485
    2          6             0       -0.239588   -0.731041    0.548485
    3          9             0        0.239588   -1.378998   -0.589719
    4          1             0        0.131400   -1.255555    1.459251
    5          1             0       -1.353469   -0.768912    0.557309
    6          9             0       -0.239588    1.378998   -0.589719
    7          1             0       -0.131400    1.255555    1.459251
    8          1             0        1.353469    0.768912    0.557309
 ---------------------------------------------------------------------
 Rotational constants (GHZ):     15.9387024      5.2242369      4.3975866
 Leave Link  202 at Wed Oct  3 23:23:49 2007, MaxMem=    6291456 cpu:       0.1
 (Enter /opt/und/gaussian/03D01/linux86-64/g03/l301.exe)
 Standard basis: 3-21G (6D, 7F)
 There are    22 symmetry adapted basis functions of A   symmetry.
 There are    22 symmetry adapted basis functions of B   symmetry.
 Integral buffers will be    131072 words long.
 Raffenetti 1 integral format.
 Two-electron integral symmetry is turned on.
    44 basis functions,    72 primitive gaussians,    44 cartesian basis functions
    17 alpha electrons       17 beta electrons
       nuclear repulsion energy       126.7565310592 Hartrees.
 IExCor=   0 DFT=F Ex=HF Corr=None ExCW=0 ScaHFX=  1.000000
 ScaDFX=  1.000000  1.000000  1.000000  1.000000
 IRadAn=      0 IRanWt=     -1 IRanGd=            0 ICorTp=0
 NAtoms=    8 NActive=    8 NUniq=    4 SFac= 3.00D+00 NAtFMM=   80 NAOKFM=F Big=F
 Leave Link  301 at Wed Oct  3 23:23:49 2007, MaxMem=    6291456 cpu:       0.0
 (Enter /opt/und/gaussian/03D01/linux86-64/g03/linda-exe/l302.exel)
 NPDir=0 NMtPBC=     1 NCelOv=     1 NCel=       1 NClECP=     1 NCelD=      1
         NCelK=      1 NCelE2=     1 NClLst=     1 CellRange=     0.0.
 One-electron integrals computed using PRISM.
 One-electron integral symmetry used in STVInt
 NBasis=    44 RedAO= T  NBF=    22    22
 NBsUse=    44 1.00D-06 NBFU=    22    22
 Leave Link  302 at Wed Oct  3 23:23:49 2007, MaxMem=    6291456 cpu:       0.1
 (Enter /opt/und/gaussian/03D01/linux86-64/g03/l303.exe)
 DipDrv:  MaxL=1.
 Leave Link  303 at Wed Oct  3 23:23:49 2007, MaxMem=    6291456 cpu:       0.0
 (Enter /opt/und/gaussian/03D01/linux86-64/g03/l401.exe)
 Harris functional with IExCor=  205 diagonalized for initial guess.
 ExpMin= 1.83D-01 ExpMax= 4.14D+02 ExpMxC= 4.14D+02 IAcc=1 IRadAn=         1 AccDes= 1.00D-06
 HarFok:  IExCor= 205 AccDes= 1.00D-06 IRadAn=         1 IDoV=1
 ScaDFX=  1.000000  1.000000  1.000000  1.000000
 Harris En= -275.511465740434    
 Initial guess orbital symmetries:
       Occupied  (B) (A) (B) (A) (A) (B) (A) (B) (B) (A) (A) (B)
                 (A) (B) (B) (A) (A)
       Virtual   (A) (B) (A) (B) (B) (A) (B) (A) (B) (B) (A) (B)
                 (A) (A) (B) (A) (B) (A) (B) (A) (B) (B) (A) (B)
                 (A) (A) (B)
 The electronic state of the initial guess is 1-A.
 Leave Link  401 at Wed Oct  3 23:23:49 2007, MaxMem=    6291456 cpu:       0.1
 (Enter /opt/und/gaussian/03D01/linux86-64/g03/linda-exe/l502.exel)
 Closed shell SCF:
 Requested convergence on RMS density matrix=1.00D-08 within 128 cycles.
 Requested convergence on MAX density matrix=1.00D-06.
 Requested convergence on             energy=1.00D-06.
 No special actions if energy rises.
 Using DIIS extrapolation, IDIIS=  1040.
 Integral symmetry usage will be decided dynamically.
 Keep R1 integrals in memory in canonical form, NReq=     1360589.
 IEnd=     24490 IEndB=     24490 NGot=   6291456 MDV=   5795028
 LenX=   5795028
 Symmetry not used in FoFDir.
 MinBra= 0 MaxBra= 1 Meth= 1.
 IRaf=       0 NMat=   1 IRICut=       1 DoRegI=T DoRafI=F ISym2E= 0 JSym2E=0.

 Cycle   1  Pass 1  IDiag  1:
 E= -275.338412712590    
 DIIS: error= 4.18D-02 at cycle   1 NSaved=   1.
 NSaved= 1 IEnMin= 1 EnMin= -275.338412712590     IErMin= 1 ErrMin= 4.18D-02
 ErrMax= 4.18D-02 EMaxC= 1.00D-01 BMatC= 1.61D-01 BMatP= 1.61D-01
 IDIUse=3 WtCom= 5.82D-01 WtEn= 4.18D-01
 Coeff-Com:  0.100D+01
 Coeff-En:   0.100D+01
 Coeff:      0.100D+01
 Gap=     0.809 Goal=   None    Shift=    0.000
 GapD=    0.809 DampG=2.000 DampE=0.500 DampFc=1.0000 IDamp=-1.
 RMSDP=6.22D-03 MaxDP=4.55D-02              OVMax= 5.03D-02

 Cycle   2  Pass 1  IDiag  1:
 E= -275.407931427554     Delta-E=       -0.069518714964 Rises=F Damp=F
 DIIS: error= 8.94D-03 at cycle   2 NSaved=   2.
 NSaved= 2 IEnMin= 2 EnMin= -275.407931427554     IErMin= 2 ErrMin= 8.94D-03
 ErrMax= 8.94D-03 EMaxC= 1.00D-01 BMatC= 7.56D-03 BMatP= 1.61D-01
 IDIUse=3 WtCom= 9.11D-01 WtEn= 8.94D-02
 Coeff-Com:  0.807D-01 0.919D+00
 Coeff-En:   0.000D+00 0.100D+01
 Coeff:      0.735D-01 0.926D+00
 Gap=     0.761 Goal=   None    Shift=    0.000
 RMSDP=1.79D-03 MaxDP=1.29D-02 DE=-6.95D-02 OVMax= 1.62D-02

 Cycle   3  Pass 1  IDiag  1:
 E= -275.413196282843     Delta-E=       -0.005264855289 Rises=F Damp=F
 DIIS: error= 2.69D-03 at cycle   3 NSaved=   3.
 NSaved= 3 IEnMin= 3 EnMin= -275.413196282843     IErMin= 3 ErrMin= 2.69D-03
 ErrMax= 2.69D-03 EMaxC= 1.00D-01 BMatC= 3.09D-04 BMatP= 7.56D-03
 IDIUse=3 WtCom= 9.73D-01 WtEn= 2.69D-02
 Coeff-Com: -0.184D-01 0.126D+00 0.893D+00
 Coeff-En:   0.000D+00 0.000D+00 0.100D+01
 Coeff:     -0.179D-01 0.122D+00 0.896D+00
 Gap=     0.748 Goal=   None    Shift=    0.000
 RMSDP=3.45D-04 MaxDP=2.50D-03 DE=-5.26D-03 OVMax= 3.28D-03

 Cycle   4  Pass 1  IDiag  1:
 E= -275.413496979785     Delta-E=       -0.000300696943 Rises=F Damp=F
 DIIS: error= 3.19D-04 at cycle   4 NSaved=   4.
 NSaved= 4 IEnMin= 4 EnMin= -275.413496979785     IErMin= 4 ErrMin= 3.19D-04
 ErrMax= 3.19D-04 EMaxC= 1.00D-01 BMatC= 4.35D-06 BMatP= 3.09D-04
 IDIUse=3 WtCom= 9.97D-01 WtEn= 3.19D-03
 Coeff-Com:  0.398D-02-0.430D-01-0.227D+00 0.127D+01
 Coeff-En:   0.000D+00 0.000D+00 0.000D+00 0.100D+01
 Coeff:      0.396D-02-0.429D-01-0.226D+00 0.127D+01
 Gap=     0.749 Goal=   None    Shift=    0.000
 RMSDP=9.27D-05 MaxDP=5.39D-04 DE=-3.01D-04 OVMax= 8.30D-04

 Cycle   5  Pass 1  IDiag  1:
 E= -275.413505197806     Delta-E=       -0.000008218020 Rises=F Damp=F
 DIIS: error= 1.24D-04 at cycle   5 NSaved=   5.
 NSaved= 5 IEnMin= 5 EnMin= -275.413505197806     IErMin= 5 ErrMin= 1.24D-04
 ErrMax= 1.24D-04 EMaxC= 1.00D-01 BMatC= 5.76D-07 BMatP= 4.35D-06
 IDIUse=3 WtCom= 9.99D-01 WtEn= 1.24D-03
 Coeff-Com:  0.187D-02-0.180D-01-0.975D-01 0.388D+00 0.726D+00
 Coeff-En:   0.000D+00 0.000D+00 0.000D+00 0.000D+00 0.100D+01
 Coeff:      0.187D-02-0.180D-01-0.974D-01 0.387D+00 0.726D+00
 Gap=     0.749 Goal=   None    Shift=    0.000
 RMSDP=1.69D-05 MaxDP=8.95D-05 DE=-8.22D-06 OVMax= 1.13D-04

 Cycle   6  Pass 1  IDiag  1:
 E= -275.413505675388     Delta-E=       -0.000000477582 Rises=F Damp=F
 DIIS: error= 2.95D-05 at cycle   6 NSaved=   6.
 NSaved= 6 IEnMin= 6 EnMin= -275.413505675388     IErMin= 6 ErrMin= 2.95D-05
 ErrMax= 2.95D-05 EMaxC= 1.00D-01 BMatC= 3.49D-08 BMatP= 5.76D-07
 IDIUse=1 WtCom= 1.00D+00 WtEn= 0.00D+00
 Coeff-Com: -0.724D-03 0.794D-02 0.422D-01-0.221D+00-0.174D+00 0.134D+01
 Coeff:     -0.724D-03 0.794D-02 0.422D-01-0.221D+00-0.174D+00 0.134D+01
 Gap=     0.749 Goal=   None    Shift=    0.000
 RMSDP=9.58D-06 MaxDP=4.44D-05 DE=-4.78D-07 OVMax= 1.02D-04

 Cycle   7  Pass 1  IDiag  1:
 E= -275.413505761457     Delta-E=       -0.000000086069 Rises=F Damp=F
 DIIS: error= 2.80D-06 at cycle   7 NSaved=   7.
 NSaved= 7 IEnMin= 7 EnMin= -275.413505761457     IErMin= 7 ErrMin= 2.80D-06
 ErrMax= 2.80D-06 EMaxC= 1.00D-01 BMatC= 7.77D-10 BMatP= 3.49D-08
 IDIUse=1 WtCom= 1.00D+00 WtEn= 0.00D+00
 Coeff-Com:  0.152D-03-0.176D-02-0.929D-02 0.530D-01 0.251D-01-0.381D+00
 Coeff-Com:  0.131D+01
 Coeff:      0.152D-03-0.176D-02-0.929D-02 0.530D-01 0.251D-01-0.381D+00
 Coeff:      0.131D+01
 Gap=     0.749 Goal=   None    Shift=    0.000
 RMSDP=1.59D-06 MaxDP=1.55D-05 DE=-8.61D-08 OVMax= 1.47D-05

 Cycle   8  Pass 1  IDiag  1:
 E= -275.413505763246     Delta-E=       -0.000000001789 Rises=F Damp=F
 DIIS: error= 7.24D-07 at cycle   8 NSaved=   8.
 NSaved= 8 IEnMin= 8 EnMin= -275.413505763246     IErMin= 8 ErrMin= 7.24D-07
 ErrMax= 7.24D-07 EMaxC= 1.00D-01 BMatC= 2.12D-11 BMatP= 7.77D-10
 IDIUse=1 WtCom= 1.00D+00 WtEn= 0.00D+00
 Coeff-Com: -0.357D-04 0.420D-03 0.218D-02-0.127D-01-0.732D-02 0.101D+00
 Coeff-Com: -0.420D+00 0.134D+01
 Coeff:     -0.357D-04 0.420D-03 0.218D-02-0.127D-01-0.732D-02 0.101D+00
 Coeff:     -0.420D+00 0.134D+01
 Gap=     0.749 Goal=   None    Shift=    0.000
 RMSDP=2.45D-07 MaxDP=1.89D-06 DE=-1.79D-09 OVMax= 2.97D-06

 Cycle   9  Pass 1  IDiag  1:
 E= -275.413505763301     Delta-E=       -0.000000000055 Rises=F Damp=F
 DIIS: error= 2.26D-07 at cycle   9 NSaved=   9.
 NSaved= 9 IEnMin= 9 EnMin= -275.413505763301     IErMin= 9 ErrMin= 2.26D-07
 ErrMax= 2.26D-07 EMaxC= 1.00D-01 BMatC= 1.37D-12 BMatP= 2.12D-11
 IDIUse=1 WtCom= 1.00D+00 WtEn= 0.00D+00
 Coeff-Com:  0.111D-04-0.131D-03-0.672D-03 0.395D-02 0.285D-02-0.343D-01
 Coeff-Com:  0.153D+00-0.684D+00 0.156D+01
 Coeff:      0.111D-04-0.131D-03-0.672D-03 0.395D-02 0.285D-02-0.343D-01
 Coeff:      0.153D+00-0.684D+00 0.156D+01
 Gap=     0.749 Goal=   None    Shift=    0.000
 RMSDP=7.03D-08 MaxDP=4.00D-07 DE=-5.51D-11 OVMax= 1.02D-06

 Cycle  10  Pass 1  IDiag  1:
 E= -275.413505763306     Delta-E=       -0.000000000005 Rises=F Damp=F
 DIIS: error= 3.24D-08 at cycle  10 NSaved=  10.
 NSaved=10 IEnMin=10 EnMin= -275.413505763306     IErMin=10 ErrMin= 3.24D-08
 ErrMax= 3.24D-08 EMaxC= 1.00D-01 BMatC= 3.32D-14 BMatP= 1.37D-12
 IDIUse=1 WtCom= 1.00D+00 WtEn= 0.00D+00
 Coeff-Com: -0.318D-05 0.376D-04 0.193D-03-0.114D-02-0.816D-03 0.101D-01
 Coeff-Com: -0.461D-01 0.226D+00-0.616D+00 0.143D+01
 Coeff:     -0.318D-05 0.376D-04 0.193D-03-0.114D-02-0.816D-03 0.101D-01
 Coeff:     -0.461D-01 0.226D+00-0.616D+00 0.143D+01
 Gap=     0.749 Goal=   None    Shift=    0.000
 RMSDP=1.26D-08 MaxDP=6.80D-08 DE=-4.66D-12 OVMax= 1.98D-07

 Cycle  11  Pass 1  IDiag  1:
 E= -275.413505763306     Delta-E=        0.000000000000 Rises=F Damp=F
 DIIS: error= 3.89D-09 at cycle  11 NSaved=  11.
 NSaved=11 IEnMin=10 EnMin= -275.413505763306     IErMin=11 ErrMin= 3.89D-09
 ErrMax= 3.89D-09 EMaxC= 1.00D-01 BMatC= 6.80D-16 BMatP= 3.32D-14
 IDIUse=1 WtCom= 1.00D+00 WtEn= 0.00D+00
 Coeff-Com:  0.443D-06-0.527D-05-0.273D-04 0.161D-03 0.122D-03-0.149D-02
 Coeff-Com:  0.680D-02-0.355D-01 0.104D+00-0.349D+00 0.127D+01
 Coeff:      0.443D-06-0.527D-05-0.273D-04 0.161D-03 0.122D-03-0.149D-02
 Coeff:      0.680D-02-0.355D-01 0.104D+00-0.349D+00 0.127D+01
 Gap=     0.749 Goal=   None    Shift=    0.000
 RMSDP=1.75D-09 MaxDP=9.69D-09 DE= 1.14D-13 OVMax= 2.87D-08

 SCF Done:  E(RHF) =  -275.413505763     A.U. after   11 cycles
             Convg  =    0.1753D-08             -V/T =  2.0036
             S**2   =   0.0000
 KE= 2.744342398508D+02 PE=-9.079460524073D+02 EE= 2.313417757340D+02
 Leave Link  502 at Wed Oct  3 23:23:50 2007, MaxMem=    6291456 cpu:       0.1
 (Enter /opt/und/gaussian/03D01/linux86-64/g03/l601.exe)
 Copying SCF densities to generalized density rwf, ISCF=0 IROHF=0.

 **********************************************************************

            Population analysis using the SCF density.

 **********************************************************************

 Orbital symmetries:
       Occupied  (B) (A) (B) (A) (A) (B) (A) (B) (B) (A) (A) (A)
                 (B) (B) (B) (A) (A)
       Virtual   (A) (B) (A) (B) (A) (B) (B) (B) (A) (A) (B) (B)
                 (A) (A) (B) (A) (B) (A) (B) (B) (A) (B) (A) (A)
                 (B) (A) (B)
 The electronic state is 1-A.
 Alpha  occ. eigenvalues --  -26.13982 -26.13977 -11.27626 -11.27587  -1.57713
 Alpha  occ. eigenvalues --   -1.56433  -1.03966  -0.86858  -0.71693  -0.71581
 Alpha  occ. eigenvalues --   -0.67762  -0.65069  -0.63946  -0.59906  -0.53221
 Alpha  occ. eigenvalues --   -0.50872  -0.49221
 Alpha virt. eigenvalues --    0.25666   0.28566   0.30070   0.30859   0.35343
 Alpha virt. eigenvalues --    0.38750   0.42620   0.92792   0.93880   0.98342
 Alpha virt. eigenvalues --    0.98526   1.03759   1.10378   1.18886   1.27331
 Alpha virt. eigenvalues --    1.28948   1.32990   1.76890   2.17488   2.31499
 Alpha virt. eigenvalues --    2.34808   2.40332   2.45962   2.49060   2.49177
 Alpha virt. eigenvalues --    3.97344   4.00063
          Condensed to atoms (all electrons):
              1          2          3          4          5          6
     1  C    5.083825   0.176951  -0.029546  -0.045781  -0.050040   0.208180
     2  C    0.176951   5.083825   0.208180   0.324967   0.349038  -0.029546
     3  F   -0.029546   0.208180   9.266673  -0.025988  -0.026259   0.000016
     4  H   -0.045781   0.324967  -0.025988   0.581770  -0.035466   0.001049
     5  H   -0.050040   0.349038  -0.026259  -0.035466   0.543132   0.000315
     6  F    0.208180  -0.029546   0.000016   0.001049   0.000315   9.266673
     7  H    0.324967  -0.045781   0.001049   0.004444  -0.000588  -0.025988
     8  H    0.349038  -0.050040   0.000315  -0.000588   0.003424  -0.026259
              7          8
     1  C    0.324967   0.349038
     2  C   -0.045781  -0.050040
     3  F    0.001049   0.000315
     4  H    0.004444  -0.000588
     5  H   -0.000588   0.003424
     6  F   -0.025988  -0.026259
     7  H    0.581770  -0.035466
     8  H   -0.035466   0.543132
 Mulliken atomic charges:
              1
     1  C   -0.017595
     2  C   -0.017595
     3  F   -0.394441
     4  H    0.195592
     5  H    0.216444
     6  F   -0.394441
     7  H    0.195592
     8  H    0.216444
 Sum of Mulliken charges=   0.00000
 Atomic charges with hydrogens summed into heavy atoms:
              1
     1  C    0.394441
     2  C    0.394441
     3  F   -0.394441
     4  H    0.000000
     5  H    0.000000
     6  F   -0.394441
     7  H    0.000000
     8  H    0.000000
 Sum of Mulliken charges=   0.00000
 Electronic spatial extent (au):  <R**2>=   284.8312
 Charge=     0.0000 electrons
 Dipole moment (field-independent basis, Debye):
    X=     0.0000    Y=     0.0000    Z=     3.4829  Tot=     3.4829
 Quadrupole moment (field-independent basis, Debye-Ang):
   XX=   -21.5030   YY=   -26.3127   ZZ=   -22.3729
   XY=     1.7288   XZ=     0.0000   YZ=     0.0000
 Traceless Quadrupole moment (field-independent basis, Debye-Ang):
   XX=     1.8932   YY=    -2.9165   ZZ=     1.0233
   XY=     1.7288   XZ=     0.0000   YZ=     0.0000
 Octapole moment (field-independent basis, Debye-Ang**2):
  XXX=     0.0000  YYY=     0.0000  ZZZ=    -7.0514  XYY=     0.0000
  XXY=     0.0000  XXZ=    -2.4609  XZZ=     0.0000  YZZ=     0.0000
  YYZ=     2.3090  XYZ=    -0.6344
 Hexadecapole moment (field-independent basis, Debye-Ang**3):
 XXXX=   -36.0449 YYYY=  -185.5935 ZZZZ=   -73.0717 XXXY=     1.5107
 XXXZ=     0.0000 YYYX=     1.7625 YYYZ=     0.0000 ZZZX=     0.0000
 ZZZY=     0.0000 XXYY=   -35.8573 XXZZ=   -19.2618 YYZZ=   -41.8797
 XXYZ=     0.0000 YYXZ=     0.0000 ZZXY=    -0.3714
 N-N= 1.267565310592D+02 E-N=-9.079460523846D+02  KE= 2.744342398508D+02
 Symmetry A    KE= 1.384525320611D+02
 Symmetry B    KE= 1.359817077897D+02
 No NMR shielding tensors so no spin-rotation constants.
 Leave Link  601 at Wed Oct  3 23:23:50 2007, MaxMem=    6291456 cpu:       0.1
 (Enter /opt/und/gaussian/03D01/linux86-64/g03/linda-exe/l701.exel)
 Compute integral first derivatives.
 ... and contract with generalized density number  0.
 Leave Link  701 at Wed Oct  3 23:23:50 2007, MaxMem=    6291456 cpu:       0.1
 (Enter /opt/und/gaussian/03D01/linux86-64/g03/l702.exe)
 L702 exits ... SP integral derivatives will be done elsewhere.
 Leave Link  702 at Wed Oct  3 23:23:50 2007, MaxMem=    6291456 cpu:       0.0
 (Enter /opt/und/gaussian/03D01/linux86-64/g03/linda-exe/l703.exel)
 Compute integral first derivatives, UseDBF=F.
 Integral derivatives from FoFDir, PRISM(SPDF).
 Petite list used in FoFDir.
 MinBra= 0 MaxBra= 1 Meth= 1.
 IRaf=       0 NMat=   1 IRICut=       1 DoRegI=T DoRafI=F ISym2E= 1 JSym2E=1.
 Leave Link  703 at Wed Oct  3 23:23:51 2007, MaxMem=    6291456 cpu:       0.1
 (Enter /opt/und/gaussian/03D01/linux86-64/g03/l716.exe)
 Dipole        = 4.88498131D-15 3.13082893D-14 1.37028042D+00
 ***** Axes restored to original set *****
 -------------------------------------------------------------------
 Center     Atomic                   Forces (Hartrees/Bohr)
 Number     Number              X              Y              Z
 -------------------------------------------------------------------
    1          6          -0.012035280    0.025099171   -0.000735136
    2          6          -0.027754159   -0.002126727    0.000735136
    3          9           0.002173505    0.001331182    0.000586702
    4          1           0.011273444   -0.017859758   -0.009861443
    5          1           0.013529368    0.017308042   -0.008708677
    6          9          -0.000066085   -0.002547902   -0.000586702
    7          1           0.021103727   -0.000833210    0.009861443
    8          1          -0.008224520   -0.020370797    0.008708677
 -------------------------------------------------------------------
 Cartesian Forces:  Max     0.027754159 RMS     0.012529831
 Force constants in Cartesian coordinates: 
                1             2             3             4             5
      1  0.641751D+00
      2 -0.792465D-01  0.722176D+00
      3 -0.172493D-01  0.298856D-01  0.598077D+00
      4 -0.102840D+00  0.580476D-02 -0.292095D-02  0.770699D+00
      5  0.577516D-02 -0.961541D-01  0.506400D-02 -0.479837D-02  0.593228D+00
      6  0.584603D-02  0.238794D-05 -0.286433D+00  0.345064D-01  0.450316D-05
      7  0.109367D-01  0.000000D+00  0.000000D+00 -0.421344D+00 -0.111741D-05
      8 -0.103101D-03  0.606239D-03  0.000000D+00  0.137738D-05 -0.506568D-01
      9 -0.308123D-01  0.000000D+00  0.000000D+00 -0.123666D+00  0.314811D-05
     10  0.301783D-02 -0.351098D-02  0.000000D+00 -0.130768D+00  0.989686D-01
     11 -0.352153D-02  0.694843D-02  0.000000D+00  0.931382D-01 -0.231330D+00
     12  0.124810D-01 -0.212390D-01  0.000000D+00  0.445737D-01 -0.745949D-01
     13  0.279647D-02  0.351163D-02  0.000000D+00 -0.130799D+00 -0.989918D-01
     14  0.365346D-02  0.694712D-02  0.000000D+00 -0.931653D-01 -0.231289D+00
     15  0.124853D-01  0.212366D-01  0.000000D+00  0.445856D-01  0.745873D-01
     16 -0.143329D+00  0.160514D+00  0.632860D-01  0.323351D-02 -0.455054D-02
     17  0.160511D+00 -0.328672D+00 -0.109610D+00 -0.444747D-02  0.830944D-02
     18  0.618356D-01 -0.107096D+00 -0.108655D+00  0.154062D-01 -0.266842D-01
     19 -0.289374D+00  0.156678D-02 -0.803508D-01  0.901095D-02 -0.614018D-04
     20  0.739715D-02 -0.727238D-01  0.338009D-02 -0.508567D-04  0.955313D-03
     21 -0.868880D-01  0.130450D-02 -0.101492D+00 -0.246340D-01  0.189332D-03
     22 -0.122960D+00 -0.886393D-01  0.372350D-01  0.280688D-02  0.365947D-02
     23 -0.944658D-01 -0.239128D+00  0.712804D-01  0.351764D-02  0.693671D-02
     24  0.423017D-01  0.759059D-01 -0.101497D+00  0.121488D-01  0.214308D-01
                6             7             8             9            10
      6  0.598077D+00
      7 -0.126568D+00  0.418589D+00
      8  0.223825D-05  0.000000D+00  0.355350D-01
      9 -0.108655D+00  0.131427D+00  0.000000D+00  0.949667D-01
     10  0.431026D-01 -0.409084D-02  0.207206D-01  0.115252D-01  0.116202D+00
     11 -0.678958D-01 -0.137607D-02  0.722808D-02  0.387683D-02 -0.102145D+00
     12 -0.101492D+00 -0.242889D-02  0.116945D-01  0.684298D-02 -0.435451D-01
     13  0.431132D-01 -0.409110D-02 -0.207174D-01  0.115260D-01  0.157446D-01
     14  0.678866D-01  0.137686D-02  0.723075D-02 -0.387907D-02 -0.139723D-01
     15 -0.101497D+00 -0.242974D-02 -0.116957D-01  0.684537D-02 -0.110828D-01
     16  0.000000D+00  0.000000D+00 -0.358492D-03  0.000000D+00  0.387957D-03
     17  0.000000D+00  0.000000D+00 -0.206975D-03  0.000000D+00  0.223987D-03
     18  0.000000D+00  0.000000D+00  0.000000D+00  0.000000D+00  0.000000D+00
     19  0.000000D+00  0.000000D+00  0.427510D-05  0.000000D+00 -0.462648D-05
     20  0.000000D+00  0.000000D+00  0.519744D-03  0.000000D+00 -0.562462D-03
     21  0.000000D+00  0.000000D+00  0.000000D+00  0.000000D+00  0.000000D+00
     22  0.000000D+00  0.000000D+00  0.452302D-03  0.000000D+00 -0.489477D-03
     23  0.000000D+00  0.000000D+00 -0.256077D-03  0.000000D+00  0.277124D-03
     24  0.000000D+00  0.000000D+00  0.000000D+00  0.000000D+00  0.000000D+00
               11            12            13            14            15
     11  0.229681D+00
     12  0.740781D-01  0.863118D-01
     13  0.139665D-01 -0.110807D-01  0.116243D+00
     14 -0.124911D-01  0.100614D-01  0.102170D+00  0.229638D+00
     15 -0.100591D-01  0.833703D-02 -0.435584D-01 -0.740690D-01  0.863148D-01
     16  0.228262D-03  0.000000D+00 -0.387910D-03  0.228342D-03  0.000000D+00
     17  0.131787D-03  0.000000D+00 -0.223960D-03  0.131833D-03  0.000000D+00
     18  0.000000D+00  0.000000D+00  0.000000D+00  0.000000D+00  0.000000D+00
     19 -0.272208D-05  0.000000D+00  0.462592D-05 -0.272303D-05  0.000000D+00
     20 -0.330936D-03  0.000000D+00  0.562394D-03 -0.331051D-03  0.000000D+00
     21  0.000000D+00  0.000000D+00  0.000000D+00  0.000000D+00  0.000000D+00
     22 -0.287993D-03  0.000000D+00  0.489418D-03 -0.288094D-03  0.000000D+00
     23  0.163051D-03  0.000000D+00 -0.277090D-03  0.163108D-03  0.000000D+00
     24  0.000000D+00  0.000000D+00  0.000000D+00  0.000000D+00  0.000000D+00
               16            17            18            19            20
     16  0.131298D+00
     17 -0.165867D+00  0.322826D+00
     18 -0.657142D-01  0.113818D+00  0.949667D-01
     19 -0.397810D-02 -0.131097D-02 -0.240519D-02  0.289771D+00
     20  0.207857D-01  0.711534D-02  0.119196D-01 -0.193474D-02  0.561122D-01
     21  0.113422D-01  0.374375D-02  0.684298D-02  0.859260D-01 -0.672124D-03
     22  0.127750D-01  0.111145D-01 -0.912235D-02 -0.542966D-02 -0.261972D-01
     23 -0.109797D-01 -0.963532D-02  0.804223D-02  0.174151D-02  0.868315D-02
     24 -0.891392D-02 -0.795208D-02  0.684537D-02 -0.317009D-02 -0.146275D-01
               21            22            23            24
     21  0.863118D-01
     22  0.142538D-01  0.112808D+00
     23 -0.456546D-02  0.100186D+00  0.233073D+00
     24  0.833703D-02 -0.423664D-01 -0.747572D-01  0.863148D-01
 Leave Link  716 at Wed Oct  3 23:23:51 2007, MaxMem=    6291456 cpu:       0.0
 (Enter /opt/und/gaussian/03D01/linux86-64/g03/l103.exe)

 GradGradGradGradGradGradGradGradGradGradGradGradGradGradGradGradGradGrad
 Berny optimization.
 Search for a local minimum.
 Step number   1 out of a maximum of  34
 All quantities printed in internal units (Hartrees-Bohrs-Radians)
 Second derivative matrix not updated -- first step.
 Linear search not attempted -- first point.
 Steepest descent instead of Quadratic search.
 TrRot=  0.000000  0.000000  0.000000  0.000000  0.000000  0.000000
 Variable       Old X    -DE/DX   Delta X   Delta X   Delta X     New X
                                 (Linear)    (Quad)   (Total)
    X1        0.00000  -0.01204   0.00000  -0.00602  -0.00602  -0.00602
    Y1        0.00000   0.02510   0.00000   0.01255   0.01255   0.01255
    Z1        0.00000  -0.00074   0.00000  -0.00037  -0.00037  -0.00037
    X2        0.00000  -0.02775   0.00000  -0.01388  -0.01388  -0.01388
    Y2        0.00000  -0.00213   0.00000  -0.00106  -0.00106  -0.00106
    Z2        2.90753   0.00074   0.00000   0.00037   0.00037   2.90790
    X3        2.48364   0.00217   0.00000   0.00109   0.00109   2.48472
    Y3        0.00000   0.00133   0.00000   0.00067   0.00067   0.00067
    Z3        3.78909   0.00059   0.00000   0.00029   0.00029   3.78938
    X4       -1.00307   0.01127   0.00000   0.00564   0.00564  -0.99743
    Y4        1.70483  -0.01786   0.00000  -0.00893  -0.00893   1.69590
    Z4        3.63109  -0.00986   0.00000  -0.00493  -0.00493   3.62616
    X5       -1.00342   0.01353   0.00000   0.00676   0.00676  -0.99666
    Y5       -1.70462   0.01731   0.00000   0.00865   0.00865  -1.69597
    Z5        3.63109  -0.00871   0.00000  -0.00435  -0.00435   3.62674
    X6        1.24182  -0.00007   0.00000  -0.00003  -0.00003   1.24179
    Y6       -2.15089  -0.00255   0.00000  -0.00127  -0.00127  -2.15217
    Z6       -0.88156  -0.00059   0.00000  -0.00029  -0.00029  -0.88185
    X7       -1.97796   0.02110   0.00000   0.01055   0.01055  -1.96741
    Y7        0.01627  -0.00083   0.00000  -0.00042  -0.00042   0.01585
    Z7       -0.72356   0.00986   0.00000   0.00493   0.00493  -0.71863
    X8        0.97454  -0.00822   0.00000  -0.00411  -0.00411   0.97042
    Y8        1.72130  -0.02037   0.00000  -0.01019  -0.01019   1.71112
    Z8       -0.72356   0.00871   0.00000   0.00435   0.00435  -0.71920
         Item               Value     Threshold  Converged?
 Maximum Force            0.027754     0.000450     NO 
 RMS     Force            0.012530     0.000300     NO 
 Maximum Displacement     0.013877     0.001800     NO 
 RMS     Displacement     0.006265     0.001200     NO 
 Predicted change in Energy=-1.537176D-03
 GradGradGradGradGradGradGradGradGradGradGradGradGradGradGradGradGradGrad

 Leave Link  103 at Wed Oct  3 23:23:51 2007, MaxMem=    6291456 cpu:       0.1
 (Enter /opt/und/gaussian/03D01/linux86-64/g03/l202.exe)
                          Input orientation:                          
 ---------------------------------------------------------------------
 Center     Atomic     Atomic              Coordinates (Angstroms)
 Number     Number      Type              X           Y           Z
 ---------------------------------------------------------------------
    1          6             0       -0.003184    0.006641   -0.000195
    2          6             0       -0.007343   -0.000563    1.538795
    3          9             0        1.314859    0.000352    2.005256
    4          1             0       -0.527819    0.897432    1.918881
    5          1             0       -0.527408   -0.897469    1.919186
    6          9             0        0.657124   -1.138877   -0.466656
    7          1             0       -1.041109    0.008389   -0.380281
    8          1             0        0.513527    0.905483   -0.380586
 ---------------------------------------------------------------------
                    Distance matrix (angstroms):
                    1          2          3          4          5
     1  C    0.000000
     2  C    1.539011   0.000000
     3  F    2.399814   1.402072   0.000000
     4  H    2.179817   1.105330   2.051262   0.000000
     5  H    2.185463   1.104357   2.051204   1.794901   0.000000
     6  F    1.402072   2.399814   2.800144   3.352825   2.674628
     7  H    1.105330   2.179817   3.352825   2.517938   2.524285
     8  H    1.104357   2.185463   2.674628   2.524285   3.102117
                    6          7          8
     6  F    0.000000
     7  H    2.051262   0.000000
     8  H    2.051204   1.794901   0.000000
 Stoichiometry    C2H4F2
 Framework group  C2[X(C2H4F2)]
 Deg. of freedom    10
 Full point group                 C2
 Largest Abelian subgroup         C2      NOp   2
 Largest concise Abelian subgroup C2      NOp   2
                         Standard orientation:                         
 ---------------------------------------------------------------------
 Center     Atomic     Atomic              Coordinates (Angstroms)
 Number     Number      Type              X           Y           Z
 ---------------------------------------------------------------------
    1          6             0        0.242390    0.730333    0.552927
    2          6             0       -0.242390   -0.730333    0.552927
    3          9             0        0.242390   -1.378930   -0.591677
    4          1             0        0.131818   -1.252049    1.452669
    5          1             0       -1.346006   -0.770748    0.554863
    6          9             0       -0.242390    1.378930   -0.591677
    7          1             0       -0.131818    1.252049    1.452669
    8          1             0        1.346006    0.770748    0.554863
 ---------------------------------------------------------------------
 Rotational constants (GHZ):     15.8442811      5.2242709      4.3923426
 Leave Link  202 at Wed Oct  3 23:23:52 2007, MaxMem=    6291456 cpu:       0.1
 (Enter /opt/und/gaussian/03D01/linux86-64/g03/l301.exe)
 Standard basis: 3-21G (6D, 7F)
 There are    22 symmetry adapted basis functions of A   symmetry.
 There are    22 symmetry adapted basis functions of B   symmetry.
 Integral buffers will be    131072 words long.
 Raffenetti 1 integral format.
 Two-electron integral symmetry is turned on.
    44 basis functions,    72 primitive gaussians,    44 cartesian basis functions
    17 alpha electrons       17 beta electrons
       nuclear repulsion energy       126.6556427988 Hartrees.
 IExCor=   0 DFT=F Ex=HF Corr=None ExCW=0 ScaHFX=  1.000000
 ScaDFX=  1.000000  1.000000  1.000000  1.000000
 IRadAn=      0 IRanWt=     -1 IRanGd=            0 ICorTp=0
 NAtoms=    8 NActive=    8 NUniq=    4 SFac= 3.00D+00 NAtFMM=   80 NAOKFM=F Big=F
 Leave Link  301 at Wed Oct  3 23:23:52 2007, MaxMem=    6291456 cpu:       0.0
 (Enter /opt/und/gaussian/03D01/linux86-64/g03/linda-exe/l302.exel)
 NPDir=0 NMtPBC=     1 NCelOv=     1 NCel=       1 NClECP=     1 NCelD=      1
         NCelK=      1 NCelE2=     1 NClLst=     1 CellRange=     0.0.
 One-electron integrals computed using PRISM.
 One-electron integral symmetry used in STVInt
 NBasis=    44 RedAO= T  NBF=    22    22
 NBsUse=    44 1.00D-06 NBFU=    22    22
 Leave Link  302 at Wed Oct  3 23:23:52 2007, MaxMem=    6291456 cpu:       0.1
 (Enter /opt/und/gaussian/03D01/linux86-64/g03/l303.exe)
 DipDrv:  MaxL=1.
 Leave Link  303 at Wed Oct  3 23:23:52 2007, MaxMem=    6291456 cpu:       0.0
 (Enter /opt/und/gaussian/03D01/linux86-64/g03/l401.exe)
 Initial guess read from the read-write file:
 Guess basis will be translated and rotated to current coordinates.
 Initial guess orbital symmetries:
       Occupied  (B) (A) (B) (A) (A) (B) (A) (B) (B) (A) (A) (A)
                 (B) (B) (B) (A) (A)
       Virtual   (A) (B) (A) (B) (A) (B) (B) (B) (A) (A) (B) (B)
                 (A) (A) (B) (A) (B) (A) (B) (B) (A) (B) (A) (A)
                 (B) (A) (B)
 The electronic state of the initial guess is 1-A.
 Leave Link  401 at Wed Oct  3 23:23:52 2007, MaxMem=    6291456 cpu:       0.0
 (Enter /opt/und/gaussian/03D01/linux86-64/g03/linda-exe/l502.exel)
 Closed shell SCF:
 Requested convergence on RMS density matrix=1.00D-08 within 128 cycles.
 Requested convergence on MAX density matrix=1.00D-06.
 Requested convergence on             energy=1.00D-06.
 No special actions if energy rises.
 Using DIIS extrapolation, IDIIS=  1040.
 Integral symmetry usage will be decided dynamically.
 Keep R1 integrals in memory in canonical form, NReq=     1360589.
 IEnd=     24490 IEndB=     24490 NGot=   6291456 MDV=   5795028
 LenX=   5795028
 Symmetry not used in FoFDir.
 MinBra= 0 MaxBra= 1 Meth= 1.
 IRaf=       0 NMat=   1 IRICut=       1 DoRegI=T DoRafI=F ISym2E= 0 JSym2E=0.

 Cycle   1  Pass 1  IDiag  1:
 E= -275.414916909402    
 DIIS: error= 1.28D-03 at cycle   1 NSaved=   1.
 NSaved= 1 IEnMin= 1 EnMin= -275.414916909402     IErMin= 1 ErrMin= 1.28D-03
 ErrMax= 1.28D-03 EMaxC= 1.00D-01 BMatC= 1.63D-04 BMatP= 1.63D-04
 IDIUse=3 WtCom= 9.87D-01 WtEn= 1.28D-02
 Coeff-Com:  0.100D+01
 Coeff-En:   0.100D+01
 Coeff:      0.100D+01
 Gap=     0.752 Goal=   None    Shift=    0.000
 GapD=    0.752 DampG=2.000 DampE=1.000 DampFc=2.0000 IDamp=-1.
 RMSDP=3.11D-04 MaxDP=1.64D-03              OVMax= 2.47D-03

 Cycle   2  Pass 1  IDiag  1:
 E= -275.415079616600     Delta-E=       -0.000162707198 Rises=F Damp=F
 DIIS: error= 4.02D-04 at cycle   2 NSaved=   2.
 NSaved= 2 IEnMin= 2 EnMin= -275.415079616600     IErMin= 2 ErrMin= 4.02D-04
 ErrMax= 4.02D-04 EMaxC= 1.00D-01 BMatC= 1.47D-05 BMatP= 1.63D-04
 IDIUse=3 WtCom= 9.96D-01 WtEn= 4.02D-03
 Coeff-Com:  0.321D-01 0.968D+00
 Coeff-En:   0.000D+00 0.100D+01
 Coeff:      0.320D-01 0.968D+00
 Gap=     0.752 Goal=   None    Shift=    0.000
 RMSDP=8.84D-05 MaxDP=4.59D-04 DE=-1.63D-04 OVMax= 8.17D-04

 Cycle   3  Pass 1  IDiag  1:
 E= -275.415091584207     Delta-E=       -0.000011967607 Rises=F Damp=F
 DIIS: error= 2.38D-04 at cycle   3 NSaved=   3.
 NSaved= 3 IEnMin= 3 EnMin= -275.415091584207     IErMin= 3 ErrMin= 2.38D-04
 ErrMax= 2.38D-04 EMaxC= 1.00D-01 BMatC= 3.14D-06 BMatP= 1.47D-05
 IDIUse=3 WtCom= 9.98D-01 WtEn= 2.38D-03
 Coeff-Com: -0.715D-01 0.281D+00 0.790D+00
 Coeff-En:   0.000D+00 0.000D+00 0.100D+01
 Coeff:     -0.713D-01 0.280D+00 0.791D+00
 Gap=     0.752 Goal=   None    Shift=    0.000
 RMSDP=3.06D-05 MaxDP=2.24D-04 DE=-1.20D-05 OVMax= 2.88D-04

 Cycle   4  Pass 1  IDiag  1:
 E= -275.415093905029     Delta-E=       -0.000002320822 Rises=F Damp=F
 DIIS: error= 2.16D-05 at cycle   4 NSaved=   4.
 NSaved= 4 IEnMin= 4 EnMin= -275.415093905029     IErMin= 4 ErrMin= 2.16D-05
 ErrMax= 2.16D-05 EMaxC= 1.00D-01 BMatC= 3.86D-08 BMatP= 3.14D-06
 IDIUse=1 WtCom= 1.00D+00 WtEn= 0.00D+00
 Coeff-Com: -0.423D-04-0.360D-01-0.259D-01 0.106D+01
 Coeff:     -0.423D-04-0.360D-01-0.259D-01 0.106D+01
 Gap=     0.752 Goal=   None    Shift=    0.000
 RMSDP=7.61D-06 MaxDP=6.11D-05 DE=-2.32D-06 OVMax= 6.96D-05

 Cycle   5  Pass 1  IDiag  1:
 E= -275.415093979706     Delta-E=       -0.000000074677 Rises=F Damp=F
 DIIS: error= 9.00D-06 at cycle   5 NSaved=   5.
 NSaved= 5 IEnMin= 5 EnMin= -275.415093979706     IErMin= 5 ErrMin= 9.00D-06
 ErrMax= 9.00D-06 EMaxC= 1.00D-01 BMatC= 4.10D-09 BMatP= 3.86D-08
 IDIUse=1 WtCom= 1.00D+00 WtEn= 0.00D+00
 Coeff-Com:  0.359D-02-0.172D-01-0.399D-01 0.275D-01 0.103D+01
 Coeff:      0.359D-02-0.172D-01-0.399D-01 0.275D-01 0.103D+01
 Gap=     0.752 Goal=   None    Shift=    0.000
 RMSDP=2.30D-06 MaxDP=1.05D-05 DE=-7.47D-08 OVMax= 2.46D-05

 Cycle   6  Pass 1  IDiag  1:
 E= -275.415093987829     Delta-E=       -0.000000008122 Rises=F Damp=F
 DIIS: error= 3.83D-06 at cycle   6 NSaved=   6.
 NSaved= 6 IEnMin= 6 EnMin= -275.415093987829     IErMin= 6 ErrMin= 3.83D-06
 ErrMax= 3.83D-06 EMaxC= 1.00D-01 BMatC= 4.38D-10 BMatP= 4.10D-09
 IDIUse=1 WtCom= 1.00D+00 WtEn= 0.00D+00
 Coeff-Com: -0.109D-02 0.911D-02 0.150D-01-0.115D+00-0.277D+00 0.137D+01
 Coeff:     -0.109D-02 0.911D-02 0.150D-01-0.115D+00-0.277D+00 0.137D+01
 Gap=     0.752 Goal=   None    Shift=    0.000
 RMSDP=1.14D-06 MaxDP=5.44D-06 DE=-8.12D-09 OVMax= 1.55D-05

 Cycle   7  Pass 1  IDiag  1:
 E= -275.415093989144     Delta-E=       -0.000000001315 Rises=F Damp=F
 DIIS: error= 8.86D-07 at cycle   7 NSaved=   7.
 NSaved= 7 IEnMin= 7 EnMin= -275.415093989144     IErMin= 7 ErrMin= 8.86D-07
 ErrMax= 8.86D-07 EMaxC= 1.00D-01 BMatC= 2.05D-11 BMatP= 4.38D-10
 IDIUse=1 WtCom= 1.00D+00 WtEn= 0.00D+00
 Coeff-Com:  0.225D-03-0.258D-02-0.359D-02 0.411D-01 0.595D-01-0.558D+00
 Coeff-Com:  0.146D+01
 Coeff:      0.225D-03-0.258D-02-0.359D-02 0.411D-01 0.595D-01-0.558D+00
 Coeff:      0.146D+01
 Gap=     0.752 Goal=   None    Shift=    0.000
 RMSDP=3.11D-07 MaxDP=1.71D-06 DE=-1.32D-09 OVMax= 5.00D-06

 Cycle   8  Pass 1  IDiag  1:
 E= -275.415093989211     Delta-E=       -0.000000000067 Rises=F Damp=F
 DIIS: error= 7.94D-08 at cycle   8 NSaved=   8.
 NSaved= 8 IEnMin= 8 EnMin= -275.415093989211     IErMin= 8 ErrMin= 7.94D-08
 ErrMax= 7.94D-08 EMaxC= 1.00D-01 BMatC= 3.43D-13 BMatP= 2.05D-11
 IDIUse=1 WtCom= 1.00D+00 WtEn= 0.00D+00
 Coeff-Com: -0.594D-04 0.753D-03 0.927D-03-0.123D-01-0.160D-01 0.173D+00
 Coeff-Com: -0.530D+00 0.138D+01
 Coeff:     -0.594D-04 0.753D-03 0.927D-03-0.123D-01-0.160D-01 0.173D+00
 Coeff:     -0.530D+00 0.138D+01
 Gap=     0.752 Goal=   None    Shift=    0.000
 RMSDP=4.09D-08 MaxDP=2.43D-07 DE=-6.67D-11 OVMax= 6.78D-07

 Cycle   9  Pass 1  IDiag  1:
 E= -275.415093989212     Delta-E=       -0.000000000001 Rises=F Damp=F
 DIIS: error= 1.03D-08 at cycle   9 NSaved=   9.
 NSaved= 9 IEnMin= 9 EnMin= -275.415093989212     IErMin= 9 ErrMin= 1.03D-08
 ErrMax= 1.03D-08 EMaxC= 1.00D-01 BMatC= 5.91D-15 BMatP= 3.43D-13
 IDIUse=1 WtCom= 1.00D+00 WtEn= 0.00D+00
 Coeff-Com:  0.961D-05-0.133D-03-0.143D-03 0.217D-02 0.262D-02-0.307D-01
 Coeff-Com:  0.100D+00-0.353D+00 0.128D+01
 Coeff:      0.961D-05-0.133D-03-0.143D-03 0.217D-02 0.262D-02-0.307D-01
 Coeff:      0.100D+00-0.353D+00 0.128D+01
 Gap=     0.752 Goal=   None    Shift=    0.000
 RMSDP=4.95D-09 MaxDP=2.50D-08 DE=-1.36D-12 OVMax= 9.03D-08

 SCF Done:  E(RHF) =  -275.415093989     A.U. after    9 cycles
             Convg  =    0.4949D-08             -V/T =  2.0035
             S**2   =   0.0000
 KE= 2.744619214897D+02 PE=-9.078122934695D+02 EE= 2.312796351919D+02
 Leave Link  502 at Wed Oct  3 23:23:53 2007, MaxMem=    6291456 cpu:       0.1
 (Enter /opt/und/gaussian/03D01/linux86-64/g03/linda-exe/l701.exel)
 Compute integral first derivatives.
 ... and contract with generalized density number  0.
 Leave Link  701 at Wed Oct  3 23:23:53 2007, MaxMem=    6291456 cpu:       0.1
 (Enter /opt/und/gaussian/03D01/linux86-64/g03/l702.exe)
 L702 exits ... SP integral derivatives will be done elsewhere.
 Leave Link  702 at Wed Oct  3 23:23:53 2007, MaxMem=    6291456 cpu:       0.0
 (Enter /opt/und/gaussian/03D01/linux86-64/g03/linda-exe/l703.exel)
 Compute integral first derivatives, UseDBF=F.
 Integral derivatives from FoFDir, PRISM(SPDF).
 Petite list used in FoFDir.
 MinBra= 0 MaxBra= 1 Meth= 1.
 IRaf=       0 NMat=   1 IRICut=       1 DoRegI=T DoRafI=F ISym2E= 1 JSym2E=1.
 Leave Link  703 at Wed Oct  3 23:23:54 2007, MaxMem=    6291456 cpu:       0.1
 (Enter /opt/und/gaussian/03D01/linux86-64/g03/l716.exe)
 Dipole        = 8.88178420D-16 1.97619698D-14 1.39165513D+00
 ***** Axes restored to original set *****
 -------------------------------------------------------------------
 Center     Atomic                   Forces (Hartrees/Bohr)
 Number     Number              X              Y              Z
 -------------------------------------------------------------------
    1          6          -0.007867802    0.014354563    0.001935963
    2          6          -0.016365317   -0.000363565   -0.001935963
    3          9          -0.002194557    0.001270073   -0.000921958
    4          1           0.008203663   -0.013943624   -0.007520397
    5          1           0.010257940    0.012866904   -0.007173870
    6          9          -0.002197194    0.001265506    0.000921958
    7          1           0.016177364   -0.000132769    0.007520397
    8          1          -0.006014096   -0.015317089    0.007173870
 -------------------------------------------------------------------
 Cartesian Forces:  Max     0.016365317 RMS     0.008753623
 Leave Link  716 at Wed Oct  3 23:23:54 2007, MaxMem=    6291456 cpu:       0.0
 (Enter /opt/und/gaussian/03D01/linux86-64/g03/l103.exe)

 GradGradGradGradGradGradGradGradGradGradGradGradGradGradGradGradGradGrad
 Berny optimization.
 Search for a local minimum.
 Step number   2 out of a maximum of  34
 All quantities printed in internal units (Hartrees-Bohrs-Radians)
 Update second derivatives using D2CorN and points  1  2
 Quartic linear search produced a step of  2.00000.
 Steepest descent instead of Quadratic search.
 TrRot=  0.000000  0.000000  0.000000  0.000000  0.000000  0.000000
 Variable       Old X    -DE/DX   Delta X   Delta X   Delta X     New X
                                 (Linear)    (Quad)   (Total)
    X1       -0.00602  -0.00787  -0.01204   0.00056  -0.01148  -0.01750
    Y1        0.01255   0.01435   0.02510  -0.00424   0.02086   0.03341
    Z1       -0.00037   0.00194  -0.00074   0.00366   0.00292   0.00256
    X2       -0.01388  -0.01637  -0.02775   0.00395  -0.02381  -0.03768
    Y2       -0.00106  -0.00036  -0.00213   0.00164  -0.00049  -0.00155
    Z2        2.90790  -0.00194   0.00074  -0.00366  -0.00292   2.90498
    X3        2.48472  -0.00219   0.00217  -0.00552  -0.00335   2.48137
    Y3        0.00067   0.00127   0.00133   0.00054   0.00187   0.00254
    Z3        3.78938  -0.00092   0.00059  -0.00199  -0.00140   3.78799
    X4       -0.99743   0.00820   0.01127   0.00073   0.01200  -0.98543
    Y4        1.69590  -0.01394  -0.01786  -0.00258  -0.02044   1.67546
    Z4        3.62616  -0.00752  -0.00986  -0.00116  -0.01102   3.61514
    X5       -0.99666   0.01026   0.01353   0.00150   0.01503  -0.98163
    Y5       -1.69597   0.01287   0.01731   0.00153   0.01884  -1.67713
    Z5        3.62674  -0.00717  -0.00871  -0.00182  -0.01053   3.61621
    X6        1.24179  -0.00220  -0.00007  -0.00323  -0.00329   1.23849
    Y6       -2.15217   0.00127  -0.00255   0.00451   0.00197  -2.15020
    Z6       -0.88185   0.00092  -0.00059   0.00199   0.00140  -0.88045
    X7       -1.96741   0.01618   0.02110   0.00260   0.02370  -1.94371
    Y7        0.01585  -0.00013  -0.00083   0.00066  -0.00018   0.01568
    Z7       -0.71863   0.00752   0.00986   0.00116   0.01102  -0.70761
    X8        0.97042  -0.00601  -0.00822  -0.00058  -0.00880   0.96162
    Y8        1.71112  -0.01532  -0.02037  -0.00206  -0.02243   1.68868
    Z8       -0.71920   0.00717   0.00871   0.00182   0.01053  -0.70868
         Item               Value     Threshold  Converged?
 Maximum Force            0.016365     0.000450     NO 
 RMS     Force            0.008754     0.000300     NO 
 Maximum Displacement     0.023806     0.001800     NO 
 RMS     Displacement     0.012802     0.001200     NO 
 Predicted change in Energy=-1.711642D-03
 GradGradGradGradGradGradGradGradGradGradGradGradGradGradGradGradGradGrad

 Leave Link  103 at Wed Oct  3 23:23:54 2007, MaxMem=    6291456 cpu:       0.0
 (Enter /opt/und/gaussian/03D01/linux86-64/g03/l202.exe)
                          Input orientation:                          
 ---------------------------------------------------------------------
 Center     Atomic     Atomic              Coordinates (Angstroms)
 Number     Number      Type              X           Y           Z
 ---------------------------------------------------------------------
    1          6             0       -0.009259    0.017680    0.001353
    2          6             0       -0.019941   -0.000821    1.537247
    3          9             0        1.313086    0.001342    2.004516
    4          1             0       -0.521467    0.886617    1.913051
    5          1             0       -0.519457   -0.887500    1.913615
    6          9             0        0.655381   -1.137837   -0.465916
    7          1             0       -1.028566    0.008295   -0.374451
    8          1             0        0.508869    0.893613   -0.375015
 ---------------------------------------------------------------------
                    Distance matrix (angstroms):
                    1          2          3          4          5
     1  C    0.000000
     2  C    1.536043   0.000000
     3  F    2.400318   1.412553   0.000000
     4  H    2.161481   1.086418   2.039035   0.000000
     5  H    2.176327   1.085066   2.038754   1.774118   0.000000
     6  F    1.412553   2.400318   2.798809   3.338093   2.665535
     7  H    1.086418   2.161481   3.338093   2.502252   2.509360
     8  H    1.085066   2.176327   2.665535   2.509360   3.076954
                    6          7          8
     6  F    0.000000
     7  H    2.039035   0.000000
     8  H    2.038754   1.774118   0.000000
 Stoichiometry    C2H4F2
 Framework group  C2[X(C2H4F2)]
 Deg. of freedom    10
 Full point group                 C2
 Largest Abelian subgroup         C2      NOp   2
 Largest concise Abelian subgroup C2      NOp   2
                         Standard orientation:                         
 ---------------------------------------------------------------------
 Center     Atomic     Atomic              Coordinates (Angstroms)
 Number     Number      Type              X           Y           Z
 ---------------------------------------------------------------------
    1          6             0       -0.635514   -0.431254    0.559581
    2          6             0        0.635514    0.431254    0.559581
    3          9             0        0.635514    1.246778   -0.593773
    4          1             0        0.646843    1.070939    1.437635
    5          1             0        1.527053   -0.187140    0.548835
    6          9             0       -0.635514   -1.246778   -0.593773
    7          1             0       -0.646843   -1.070939    1.437635
    8          1             0       -1.527053    0.187140    0.548835
 ---------------------------------------------------------------------
 Rotational constants (GHZ):     15.7551732      5.2374689      4.3950265
 Leave Link  202 at Wed Oct  3 23:23:54 2007, MaxMem=    6291456 cpu:       0.1
 (Enter /opt/und/gaussian/03D01/linux86-64/g03/l301.exe)
 Standard basis: 3-21G (6D, 7F)
 There are    22 symmetry adapted basis functions of A   symmetry.
 There are    22 symmetry adapted basis functions of B   symmetry.
 Integral buffers will be    131072 words long.
 Raffenetti 1 integral format.
 Two-electron integral symmetry is turned on.
    44 basis functions,    72 primitive gaussians,    44 cartesian basis functions
    17 alpha electrons       17 beta electrons
       nuclear repulsion energy       126.7115718604 Hartrees.
 IExCor=   0 DFT=F Ex=HF Corr=None ExCW=0 ScaHFX=  1.000000
 ScaDFX=  1.000000  1.000000  1.000000  1.000000
 IRadAn=      0 IRanWt=     -1 IRanGd=            0 ICorTp=0
 NAtoms=    8 NActive=    8 NUniq=    4 SFac= 3.00D+00 NAtFMM=   80 NAOKFM=F Big=F
 Leave Link  301 at Wed Oct  3 23:23:54 2007, MaxMem=    6291456 cpu:       0.0
 (Enter /opt/und/gaussian/03D01/linux86-64/g03/linda-exe/l302.exel)
 NPDir=0 NMtPBC=     1 NCelOv=     1 NCel=       1 NClECP=     1 NCelD=      1
         NCelK=      1 NCelE2=     1 NClLst=     1 CellRange=     0.0.
 One-electron integrals computed using PRISM.
 One-electron integral symmetry used in STVInt
 NBasis=    44 RedAO= T  NBF=    22    22
 NBsUse=    44 1.00D-06 NBFU=    22    22
 Leave Link  302 at Wed Oct  3 23:23:55 2007, MaxMem=    6291456 cpu:       0.1
 (Enter /opt/und/gaussian/03D01/linux86-64/g03/l303.exe)
 DipDrv:  MaxL=1.
 Leave Link  303 at Wed Oct  3 23:23:55 2007, MaxMem=    6291456 cpu:       0.0
 (Enter /opt/und/gaussian/03D01/linux86-64/g03/l401.exe)
 Initial guess read from the read-write file:
 Guess basis will be translated and rotated to current coordinates.
 Initial guess orbital symmetries:
       Occupied  (B) (A) (B) (A) (A) (B) (A) (B) (B) (A) (A) (A)
                 (B) (B) (B) (A) (A)
       Virtual   (A) (B) (A) (B) (A) (B) (B) (B) (A) (A) (B) (B)
                 (A) (A) (B) (A) (B) (A) (B) (B) (A) (B) (A) (A)
                 (B) (A) (B)
 The electronic state of the initial guess is 1-A.
 Generating alternative initial guess.
 Harris functional with IExCor=  205 diagonalized for initial guess.
 ExpMin= 1.83D-01 ExpMax= 4.14D+02 ExpMxC= 4.14D+02 IAcc=1 IRadAn=         1 AccDes= 1.00D-06
 HarFok:  IExCor= 205 AccDes= 1.00D-06 IRadAn=         1 IDoV=1
 ScaDFX=  1.000000  1.000000  1.000000  1.000000
 Harris En= -275.515093293057    
 Leave Link  401 at Wed Oct  3 23:23:55 2007, MaxMem=    6291456 cpu:       0.1
 (Enter /opt/und/gaussian/03D01/linux86-64/g03/linda-exe/l502.exel)
 Closed shell SCF:
 Requested convergence on RMS density matrix=1.00D-08 within 128 cycles.
 Requested convergence on MAX density matrix=1.00D-06.
 Requested convergence on             energy=1.00D-06.
 No special actions if energy rises.
 Using DIIS extrapolation, IDIIS=  1040.
 Integral symmetry usage will be decided dynamically.
 Keep R1 integrals in memory in canonical form, NReq=     1360589.
 IEnd=     24490 IEndB=     24490 NGot=   6291456 MDV=   5795028
 LenX=   5795028
 Symmetry not used in FoFDir.
 MinBra= 0 MaxBra= 1 Meth= 1.
 IRaf=       0 NMat=   1 IRICut=       1 DoRegI=T DoRafI=F ISym2E= 0 JSym2E=0.

 Cycle   1  Pass 1  IDiag  1:
 E= -271.075237300434    
 DIIS: error= 1.09D-01 at cycle   1 NSaved=   1.
 NSaved= 1 IEnMin= 1 EnMin= -271.075237300434     IErMin= 1 ErrMin= 1.09D-01
 ErrMax= 1.09D-01 EMaxC= 1.00D-01 BMatC= 9.17D-01 BMatP= 9.17D-01
 IDIUse=3 WtCom= 0.00D+00 WtEn= 1.00D+00
 Coeff-Com:  0.100D+01
 Coeff-En:   0.100D+01
 Coeff:      0.100D+01
 Recover alternate guess density for next cycle.
 RMSDP=6.55D-02 MaxDP=3.94D-01              OVMax= 0.00D+00

 Cycle   2  Pass 1  IDiag  1:
 E= -275.339159499720     Delta-E=       -4.263922199287 Rises=F Damp=F
 DIIS: error= 4.45D-02 at cycle   2 NSaved=   2.
 NSaved= 2 IEnMin= 2 EnMin= -275.339159499720     IErMin= 2 ErrMin= 4.45D-02
 ErrMax= 4.45D-02 EMaxC= 1.00D-01 BMatC= 1.64D-01 BMatP= 9.17D-01
 IDIUse=3 WtCom= 5.55D-01 WtEn= 4.45D-01
 Coeff-Com:  0.140D+00 0.860D+00
 Coeff-En:   0.000D+00 0.100D+01
 Coeff:      0.778D-01 0.922D+00
 Gap=     0.049 Goal=   None    Shift=    0.000
 RMSDP=6.57D-03 MaxDP=4.52D-02 DE=-4.26D+00 OVMax= 7.91D-01

 Cycle   3  Pass 1  IDiag  1:
 E= -275.407565371366     Delta-E=       -0.068405871646 Rises=F Damp=F
 DIIS: error= 1.33D-02 at cycle   3 NSaved=   3.
 NSaved= 3 IEnMin= 3 EnMin= -275.407565371366     IErMin= 3 ErrMin= 1.33D-02
 ErrMax= 1.33D-02 EMaxC= 1.00D-01 BMatC= 1.20D-02 BMatP= 1.64D-01
 IDIUse=3 WtCom= 8.67D-01 WtEn= 1.33D-01
 Coeff-Com:  0.126D-01 0.119D+00 0.869D+00
 Coeff-En:   0.000D+00 0.000D+00 0.100D+01
 Coeff:      0.109D-01 0.103D+00 0.886D+00
 Gap=     0.769 Goal=   None    Shift=    0.000
 RMSDP=2.09D-03 MaxDP=1.41D-02 DE=-6.84D-02 OVMax= 1.90D-02

 Cycle   4  Pass 1  IDiag  1:
 E= -275.416366845676     Delta-E=       -0.008801474310 Rises=F Damp=F
 DIIS: error= 2.16D-03 at cycle   4 NSaved=   4.
 NSaved= 4 IEnMin= 4 EnMin= -275.416366845676     IErMin= 4 ErrMin= 2.16D-03
 ErrMax= 2.16D-03 EMaxC= 1.00D-01 BMatC= 3.05D-04 BMatP= 1.20D-02
 IDIUse=3 WtCom= 9.78D-01 WtEn= 2.16D-02
 Coeff-Com: -0.273D-02-0.176D-01 0.850D-01 0.935D+00
 Coeff-En:   0.000D+00 0.000D+00 0.000D+00 0.100D+01
 Coeff:     -0.267D-02-0.172D-01 0.831D-01 0.937D+00
 Gap=     0.758 Goal=   None    Shift=    0.000
 RMSDP=4.22D-04 MaxDP=2.60D-03 DE=-8.80D-03 OVMax= 3.69D-03

 Cycle   5  Pass 1  IDiag  1:
 E= -275.416704194694     Delta-E=       -0.000337349018 Rises=F Damp=F
 DIIS: error= 4.13D-04 at cycle   5 NSaved=   5.
 NSaved= 5 IEnMin= 5 EnMin= -275.416704194694     IErMin= 5 ErrMin= 4.13D-04
 ErrMax= 4.13D-04 EMaxC= 1.00D-01 BMatC= 8.01D-06 BMatP= 3.05D-04
 IDIUse=3 WtCom= 9.96D-01 WtEn= 4.13D-03
 Coeff-Com: -0.220D-03 0.332D-02-0.222D-01-0.242D+00 0.126D+01
 Coeff-En:   0.000D+00 0.000D+00 0.000D+00 0.000D+00 0.100D+01
 Coeff:     -0.220D-03 0.330D-02-0.222D-01-0.241D+00 0.126D+01
 Gap=     0.757 Goal=   None    Shift=    0.000
 RMSDP=1.43D-04 MaxDP=5.73D-04 DE=-3.37D-04 OVMax= 1.62D-03

 Cycle   6  Pass 1  IDiag  1:
 E= -275.416723480496     Delta-E=       -0.000019285802 Rises=F Damp=F
 DIIS: error= 1.35D-04 at cycle   6 NSaved=   6.
 NSaved= 6 IEnMin= 6 EnMin= -275.416723480496     IErMin= 6 ErrMin= 1.35D-04
 ErrMax= 1.35D-04 EMaxC= 1.00D-01 BMatC= 7.27D-07 BMatP= 8.01D-06
 IDIUse=3 WtCom= 9.99D-01 WtEn= 1.35D-03
 Coeff-Com:  0.145D-03 0.374D-03-0.183D-02-0.154D-01-0.735D-01 0.109D+01
 Coeff-En:   0.000D+00 0.000D+00 0.000D+00 0.000D+00 0.000D+00 0.100D+01
 Coeff:      0.145D-03 0.374D-03-0.182D-02-0.154D-01-0.734D-01 0.109D+01
 Gap=     0.757 Goal=   None    Shift=    0.000
 RMSDP=3.46D-05 MaxDP=1.46D-04 DE=-1.93D-05 OVMax= 4.21D-04

 Cycle   7  Pass 1  IDiag  1:
 E= -275.416724839530     Delta-E=       -0.000001359034 Rises=F Damp=F
 DIIS: error= 5.79D-05 at cycle   7 NSaved=   7.
 NSaved= 7 IEnMin= 7 EnMin= -275.416724839530     IErMin= 7 ErrMin= 5.79D-05
 ErrMax= 5.79D-05 EMaxC= 1.00D-01 BMatC= 1.46D-07 BMatP= 7.27D-07
 IDIUse=1 WtCom= 1.00D+00 WtEn= 0.00D+00
 Coeff-Com: -0.268D-04-0.403D-03 0.289D-02 0.350D-01-0.216D+00 0.251D+00
 Coeff-Com:  0.927D+00
 Coeff:     -0.268D-04-0.403D-03 0.289D-02 0.350D-01-0.216D+00 0.251D+00
 Coeff:      0.927D+00
 Gap=     0.757 Goal=   None    Shift=    0.000
 RMSDP=1.36D-05 MaxDP=7.85D-05 DE=-1.36D-06 OVMax= 2.11D-04

 Cycle   8  Pass 1  IDiag  1:
 E= -275.416725103674     Delta-E=       -0.000000264144 Rises=F Damp=F
 DIIS: error= 1.68D-05 at cycle   8 NSaved=   8.
 NSaved= 8 IEnMin= 8 EnMin= -275.416725103674     IErMin= 8 ErrMin= 1.68D-05
 ErrMax= 1.68D-05 EMaxC= 1.00D-01 BMatC= 7.60D-09 BMatP= 1.46D-07
 IDIUse=1 WtCom= 1.00D+00 WtEn= 0.00D+00
 Coeff-Com: -0.641D-05 0.876D-04-0.585D-03-0.888D-02 0.689D-01-0.170D+00
 Coeff-Com: -0.287D+00 0.140D+01
 Coeff:     -0.641D-05 0.876D-04-0.585D-03-0.888D-02 0.689D-01-0.170D+00
 Coeff:     -0.287D+00 0.140D+01
 Gap=     0.757 Goal=   None    Shift=    0.000
 RMSDP=5.53D-06 MaxDP=3.05D-05 DE=-2.64D-07 OVMax= 7.90D-05

 Cycle   9  Pass 1  IDiag  1:
 E= -275.416725127041     Delta-E=       -0.000000023367 Rises=F Damp=F
 DIIS: error= 2.09D-06 at cycle   9 NSaved=   9.
 NSaved= 9 IEnMin= 9 EnMin= -275.416725127041     IErMin= 9 ErrMin= 2.09D-06
 ErrMax= 2.09D-06 EMaxC= 1.00D-01 BMatC= 1.90D-10 BMatP= 7.60D-09
 IDIUse=1 WtCom= 1.00D+00 WtEn= 0.00D+00
 Coeff-Com:  0.440D-07-0.271D-04 0.192D-03 0.238D-02-0.183D-01 0.508D-01
 Coeff-Com:  0.717D-01-0.474D+00 0.137D+01
 Coeff:      0.440D-07-0.271D-04 0.192D-03 0.238D-02-0.183D-01 0.508D-01
 Coeff:      0.717D-01-0.474D+00 0.137D+01
 Gap=     0.757 Goal=   None    Shift=    0.000
 RMSDP=8.13D-07 MaxDP=3.87D-06 DE=-2.34D-08 OVMax= 1.09D-05

 Cycle  10  Pass 1  IDiag  1:
 E= -275.416725127559     Delta-E=       -0.000000000518 Rises=F Damp=F
 DIIS: error= 3.26D-07 at cycle  10 NSaved=  10.
 NSaved=10 IEnMin=10 EnMin= -275.416725127559     IErMin=10 ErrMin= 3.26D-07
 ErrMax= 3.26D-07 EMaxC= 1.00D-01 BMatC= 6.38D-12 BMatP= 1.90D-10
 IDIUse=1 WtCom= 1.00D+00 WtEn= 0.00D+00
 Coeff-Com: -0.164D-06 0.813D-05-0.594D-04-0.709D-03 0.570D-02-0.163D-01
 Coeff-Com: -0.244D-01 0.164D+00-0.575D+00 0.145D+01
 Coeff:     -0.164D-06 0.813D-05-0.594D-04-0.709D-03 0.570D-02-0.163D-01
 Coeff:     -0.244D-01 0.164D+00-0.575D+00 0.145D+01
 Gap=     0.757 Goal=   None    Shift=    0.000
 RMSDP=1.37D-07 MaxDP=6.96D-07 DE=-5.18D-10 OVMax= 1.66D-06

 Cycle  11  Pass 1  IDiag  1:
 E= -275.416725127574     Delta-E=       -0.000000000015 Rises=F Damp=F
 DIIS: error= 5.90D-08 at cycle  11 NSaved=  11.
 NSaved=11 IEnMin=11 EnMin= -275.416725127574     IErMin=11 ErrMin= 5.90D-08
 ErrMax= 5.90D-08 EMaxC= 1.00D-01 BMatC= 1.24D-13 BMatP= 6.38D-12
 IDIUse=1 WtCom= 1.00D+00 WtEn= 0.00D+00
 Coeff-Com: -0.206D-08-0.205D-05 0.155D-04 0.170D-03-0.134D-02 0.388D-02
 Coeff-Com:  0.543D-02-0.384D-01 0.144D+00-0.448D+00 0.133D+01
 Coeff:     -0.206D-08-0.205D-05 0.155D-04 0.170D-03-0.134D-02 0.388D-02
 Coeff:      0.543D-02-0.384D-01 0.144D+00-0.448D+00 0.133D+01
 Gap=     0.757 Goal=   None    Shift=    0.000
 RMSDP=1.96D-08 MaxDP=1.29D-07 DE=-1.48D-11 OVMax= 1.78D-07

 Cycle  12  Pass 1  IDiag  1:
 E= -275.416725127576     Delta-E=       -0.000000000002 Rises=F Damp=F
 DIIS: error= 5.81D-09 at cycle  12 NSaved=  12.
 NSaved=12 IEnMin=12 EnMin= -275.416725127576     IErMin=12 ErrMin= 5.81D-09
 ErrMax= 5.81D-09 EMaxC= 1.00D-01 BMatC= 1.82D-15 BMatP= 1.24D-13
 IDIUse=1 WtCom= 1.00D+00 WtEn= 0.00D+00
 Coeff-Com: -0.136D-09 0.321D-06-0.247D-05-0.265D-04 0.209D-03-0.600D-03
 Coeff-Com: -0.829D-03 0.586D-02-0.226D-01 0.768D-01-0.331D+00 0.127D+01
 Coeff:     -0.136D-09 0.321D-06-0.247D-05-0.265D-04 0.209D-03-0.600D-03
 Coeff:     -0.829D-03 0.586D-02-0.226D-01 0.768D-01-0.331D+00 0.127D+01
 Gap=     0.757 Goal=   None    Shift=    0.000
 RMSDP=2.73D-09 MaxDP=1.61D-08 DE=-2.39D-12 OVMax= 2.43D-08

 SCF Done:  E(RHF) =  -275.416725128     A.U. after   12 cycles
             Convg  =    0.2733D-08             -V/T =  2.0032
             S**2   =   0.0000
 KE= 2.745457890142D+02 PE=-9.080577994818D+02 EE= 2.313837134796D+02
 Leave Link  502 at Wed Oct  3 23:23:55 2007, MaxMem=    6291456 cpu:       0.1
 (Enter /opt/und/gaussian/03D01/linux86-64/g03/linda-exe/l701.exel)
 Compute integral first derivatives.
 ... and contract with generalized density number  0.
 Leave Link  701 at Wed Oct  3 23:23:56 2007, MaxMem=    6291456 cpu:       0.1
 (Enter /opt/und/gaussian/03D01/linux86-64/g03/l702.exe)
 L702 exits ... SP integral derivatives will be done elsewhere.
 Leave Link  702 at Wed Oct  3 23:23:56 2007, MaxMem=    6291456 cpu:       0.0
 (Enter /opt/und/gaussian/03D01/linux86-64/g03/linda-exe/l703.exel)
 Compute integral first derivatives, UseDBF=F.
 Integral derivatives from FoFDir, PRISM(SPDF).
 Petite list used in FoFDir.
 MinBra= 0 MaxBra= 1 Meth= 1.
 IRaf=       0 NMat=   1 IRICut=       1 DoRegI=T DoRafI=F ISym2E= 1 JSym2E=1.
 Leave Link  703 at Wed Oct  3 23:23:56 2007, MaxMem=    6291456 cpu:       0.1
 (Enter /opt/und/gaussian/03D01/linux86-64/g03/l716.exe)
 Dipole        =-1.33226763D-15 7.29971639D-14 1.42402536D+00
 ***** Axes restored to original set *****
 -------------------------------------------------------------------
 Center     Atomic                   Forces (Hartrees/Bohr)
 Number     Number              X              Y              Z
 -------------------------------------------------------------------
    1          6           0.000039109   -0.003727541    0.006833453
    2          6           0.003247700    0.001829901   -0.006833453
    3          9          -0.007278133    0.001265048   -0.002906269
    4          1           0.001542110   -0.004733645   -0.002700471
    5          1           0.003445922    0.003297305   -0.003853379
    6          9          -0.004734630    0.005670524    0.002906269
    7          1           0.004870512    0.001031316    0.002700471
    8          1          -0.001132589   -0.004632909    0.003853379
 -------------------------------------------------------------------
 Cartesian Forces:  Max     0.007278133 RMS     0.004013346
 Leave Link  716 at Wed Oct  3 23:23:56 2007, MaxMem=    6291456 cpu:       0.0
 (Enter /opt/und/gaussian/03D01/linux86-64/g03/l103.exe)

 GradGradGradGradGradGradGradGradGradGradGradGradGradGradGradGradGradGrad
 Berny optimization.
 Search for a local minimum.
 Step number   3 out of a maximum of  34
 All quantities printed in internal units (Hartrees-Bohrs-Radians)
 Update second derivatives using D2CorN and points  1  2  3
 Quartic linear search produced a step of  0.24147.
 Steepest descent instead of Quadratic search.
 TrRot=  0.000000  0.000000  0.000000  0.000000  0.000000  0.000000
 Variable       Old X    -DE/DX   Delta X   Delta X   Delta X     New X
                                 (Linear)    (Quad)   (Total)
    X1       -0.01750   0.00004  -0.00277   0.00101  -0.00176  -0.01926
    Y1        0.03341  -0.00373   0.00504  -0.00412   0.00092   0.03433
    Z1        0.00256   0.00683   0.00071   0.00400   0.00470   0.00726
    X2       -0.03768   0.00325  -0.00575   0.00407  -0.00168  -0.03936
    Y2       -0.00155   0.00183  -0.00012   0.00118   0.00106  -0.00049
    Z2        2.90498  -0.00683  -0.00071  -0.00400  -0.00470   2.90027
    X3        2.48137  -0.00728  -0.00081  -0.00424  -0.00505   2.47632
    Y3        0.00254   0.00127   0.00045   0.00063   0.00108   0.00361
    Z3        3.78799  -0.00291  -0.00034  -0.00169  -0.00203   3.78596
    X4       -0.98543   0.00154   0.00290  -0.00007   0.00283  -0.98260
    Y4        1.67546  -0.00473  -0.00494  -0.00119  -0.00612   1.66934
    Z4        3.61514  -0.00270  -0.00266  -0.00073  -0.00339   3.61175
    X5       -0.98163   0.00345   0.00363   0.00085   0.00448  -0.97715
    Y5       -1.67713   0.00330   0.00455   0.00043   0.00498  -1.67215
    Z5        3.61621  -0.00385  -0.00254  -0.00149  -0.00403   3.61218
    X6        1.23849  -0.00473  -0.00080  -0.00266  -0.00346   1.23503
    Y6       -2.15020   0.00567   0.00047   0.00336   0.00384  -2.14636
    Z6       -0.88045   0.00291   0.00034   0.00169   0.00203  -0.87843
    X7       -1.94371   0.00487   0.00572   0.00099   0.00672  -1.93699
    Y7        0.01568   0.00103  -0.00004   0.00066   0.00061   0.01629
    Z7       -0.70761   0.00270   0.00266   0.00073   0.00339  -0.70422
    X8        0.96162  -0.00113  -0.00213   0.00005  -0.00207   0.95955
    Y8        1.68868  -0.00463  -0.00542  -0.00095  -0.00637   1.68232
    Z8       -0.70868   0.00385   0.00254   0.00149   0.00403  -0.70464
         Item               Value     Threshold  Converged?
 Maximum Force            0.007278     0.000450     NO 
 RMS     Force            0.004013     0.000300     NO 
 Maximum Displacement     0.006715     0.001800     NO 
 RMS     Displacement     0.003818     0.001200     NO 
 Predicted change in Energy=-2.699963D-04
 GradGradGradGradGradGradGradGradGradGradGradGradGradGradGradGradGradGrad

 Leave Link  103 at Wed Oct  3 23:23:57 2007, MaxMem=    6291456 cpu:       0.0
 (Enter /opt/und/gaussian/03D01/linux86-64/g03/l202.exe)
                          Input orientation:                          
 ---------------------------------------------------------------------
 Center     Atomic     Atomic              Coordinates (Angstroms)
 Number     Number      Type              X           Y           Z
 ---------------------------------------------------------------------
    1          6             0       -0.010191    0.018167    0.003842
    2          6             0       -0.020829   -0.000258    1.534758
    3          9             0        1.310414    0.001912    2.003444
    4          1             0       -0.519972    0.883377    1.911256
    5          1             0       -0.517087   -0.884865    1.911481
    6          9             0        0.653551   -1.135807   -0.464844
    7          1             0       -1.025013    0.008620   -0.372656
    8          1             0        0.507772    0.890243   -0.372881
 ---------------------------------------------------------------------
                    Distance matrix (angstroms):
                    1          2          3          4          5
     1  C    0.000000
     2  C    1.531064   0.000000
     3  F    2.396386   1.411339   0.000000
     4  H    2.155619   1.082454   2.033664   0.000000
     5  H    2.170598   1.081999   2.033369   1.768245   0.000000
     6  F    1.411339   2.396386   2.796125   3.331683   2.660880
     7  H    1.082454   2.155619   3.331683   2.497303   2.504713
     8  H    1.081999   2.170598   2.660880   2.504713   3.069145
                    6          7          8
     6  F    0.000000
     7  H    2.033664   0.000000
     8  H    2.033369   1.768245   0.000000
 Stoichiometry    C2H4F2
 Framework group  C2[X(C2H4F2)]
 Deg. of freedom    10
 Full point group                 C2
 Largest Abelian subgroup         C2      NOp   2
 Largest concise Abelian subgroup C2      NOp   2
                         Standard orientation:                         
 ---------------------------------------------------------------------
 Center     Atomic     Atomic              Coordinates (Angstroms)
 Number     Number      Type              X           Y           Z
 ---------------------------------------------------------------------
    1          6             0       -0.632567   -0.431159    0.559099
    2          6             0        0.632567    0.431159    0.559099
    3          9             0        0.632567    1.246771   -0.592706
    4          1             0        0.644364    1.069545    1.433187
    5          1             0        1.523694   -0.182403    0.546568
    6          9             0       -0.632567   -1.246771   -0.592706
    7          1             0       -0.644364   -1.069545    1.433187
    8          1             0       -1.523694    0.182403    0.546568
 ---------------------------------------------------------------------
 Rotational constants (GHZ):     15.8194317      5.2522181      4.4072714
 Leave Link  202 at Wed Oct  3 23:23:57 2007, MaxMem=    6291456 cpu:       0.1
 (Enter /opt/und/gaussian/03D01/linux86-64/g03/l301.exe)
 Standard basis: 3-21G (6D, 7F)
 There are    22 symmetry adapted basis functions of A   symmetry.
 There are    22 symmetry adapted basis functions of B   symmetry.
 Integral buffers will be    131072 words long.
 Raffenetti 1 integral format.
 Two-electron integral symmetry is turned on.
    44 basis functions,    72 primitive gaussians,    44 cartesian basis functions
    17 alpha electrons       17 beta electrons
       nuclear repulsion energy       126.9342468007 Hartrees.
 IExCor=   0 DFT=F Ex=HF Corr=None ExCW=0 ScaHFX=  1.000000
 ScaDFX=  1.000000  1.000000  1.000000  1.000000
 IRadAn=      0 IRanWt=     -1 IRanGd=            0 ICorTp=0
 NAtoms=    8 NActive=    8 NUniq=    4 SFac= 3.00D+00 NAtFMM=   80 NAOKFM=F Big=F
 Leave Link  301 at Wed Oct  3 23:23:57 2007, MaxMem=    6291456 cpu:       0.0
 (Enter /opt/und/gaussian/03D01/linux86-64/g03/linda-exe/l302.exel)
 NPDir=0 NMtPBC=     1 NCelOv=     1 NCel=       1 NClECP=     1 NCelD=      1
         NCelK=      1 NCelE2=     1 NClLst=     1 CellRange=     0.0.
 One-electron integrals computed using PRISM.
 One-electron integral symmetry used in STVInt
 NBasis=    44 RedAO= T  NBF=    22    22
 NBsUse=    44 1.00D-06 NBFU=    22    22
 Leave Link  302 at Wed Oct  3 23:23:57 2007, MaxMem=    6291456 cpu:       0.1
 (Enter /opt/und/gaussian/03D01/linux86-64/g03/l303.exe)
 DipDrv:  MaxL=1.
 Leave Link  303 at Wed Oct  3 23:23:57 2007, MaxMem=    6291456 cpu:       0.0
 (Enter /opt/und/gaussian/03D01/linux86-64/g03/l401.exe)
 Initial guess read from the read-write file:
 Guess basis will be translated and rotated to current coordinates.
 Initial guess orbital symmetries:
       Occupied  (B) (A) (B) (A) (A) (B) (A) (B) (B) (A) (A) (A)
                 (B) (B) (B) (A) (A)
       Virtual   (A) (B) (A) (B) (A) (B) (B) (B) (A) (A) (B) (B)
                 (A) (A) (B) (A) (B) (A) (B) (B) (A) (B) (A) (A)
                 (B) (A) (B)
 The electronic state of the initial guess is 1-A.
 Leave Link  401 at Wed Oct  3 23:23:58 2007, MaxMem=    6291456 cpu:       0.0
 (Enter /opt/und/gaussian/03D01/linux86-64/g03/linda-exe/l502.exel)
 Closed shell SCF:
 Requested convergence on RMS density matrix=1.00D-08 within 128 cycles.
 Requested convergence on MAX density matrix=1.00D-06.
 Requested convergence on             energy=1.00D-06.
 No special actions if energy rises.
 Using DIIS extrapolation, IDIIS=  1040.
 Integral symmetry usage will be decided dynamically.
 Keep R1 integrals in memory in canonical form, NReq=     1360589.
 IEnd=     24490 IEndB=     24490 NGot=   6291456 MDV=   5795028
 LenX=   5795028
 Symmetry not used in FoFDir.
 MinBra= 0 MaxBra= 1 Meth= 1.
 IRaf=       0 NMat=   1 IRICut=       1 DoRegI=T DoRafI=F ISym2E= 0 JSym2E=0.

 Cycle   1  Pass 1  IDiag  1:
 E= -275.416977098356    
 DIIS: error= 5.54D-04 at cycle   1 NSaved=   1.
 NSaved= 1 IEnMin= 1 EnMin= -275.416977098356     IErMin= 1 ErrMin= 5.54D-04
 ErrMax= 5.54D-04 EMaxC= 1.00D-01 BMatC= 2.14D-05 BMatP= 2.14D-05
 IDIUse=3 WtCom= 9.94D-01 WtEn= 5.54D-03
 Coeff-Com:  0.100D+01
 Coeff-En:   0.100D+01
 Coeff:      0.100D+01
 Gap=     0.759 Goal=   None    Shift=    0.000
 RMSDP=1.14D-04 MaxDP=6.68D-04              OVMax= 8.87D-04

 Cycle   2  Pass 1  IDiag  1:
 E= -275.416996048251     Delta-E=       -0.000018949895 Rises=F Damp=F
 DIIS: error= 2.02D-04 at cycle   2 NSaved=   2.
 NSaved= 2 IEnMin= 2 EnMin= -275.416996048251     IErMin= 2 ErrMin= 2.02D-04
 ErrMax= 2.02D-04 EMaxC= 1.00D-01 BMatC= 1.59D-06 BMatP= 2.14D-05
 IDIUse=3 WtCom= 9.98D-01 WtEn= 2.02D-03
 Coeff-Com:  0.871D-01 0.913D+00
 Coeff-En:   0.000D+00 0.100D+01
 Coeff:      0.869D-01 0.913D+00
 Gap=     0.759 Goal=   None    Shift=    0.000
 RMSDP=2.69D-05 MaxDP=2.15D-04 DE=-1.89D-05 OVMax= 3.62D-04

 Cycle   3  Pass 1  IDiag  1:
 E= -275.416997663626     Delta-E=       -0.000001615374 Rises=F Damp=F
 DIIS: error= 7.83D-05 at cycle   3 NSaved=   3.
 NSaved= 3 IEnMin= 3 EnMin= -275.416997663626     IErMin= 3 ErrMin= 7.83D-05
 ErrMax= 7.83D-05 EMaxC= 1.00D-01 BMatC= 2.93D-07 BMatP= 1.59D-06
 IDIUse=1 WtCom= 1.00D+00 WtEn= 0.00D+00
 Coeff-Com: -0.434D-01 0.212D+00 0.831D+00
 Coeff:     -0.434D-01 0.212D+00 0.831D+00
 Gap=     0.759 Goal=   None    Shift=    0.000
 RMSDP=1.13D-05 MaxDP=5.73D-05 DE=-1.62D-06 OVMax= 8.28D-05

 Cycle   4  Pass 1  IDiag  1:
 E= -275.416997910008     Delta-E=       -0.000000246383 Rises=F Damp=F
 DIIS: error= 1.53D-05 at cycle   4 NSaved=   4.
 NSaved= 4 IEnMin= 4 EnMin= -275.416997910008     IErMin= 4 ErrMin= 1.53D-05
 ErrMax= 1.53D-05 EMaxC= 1.00D-01 BMatC= 1.34D-08 BMatP= 2.93D-07
 IDIUse=1 WtCom= 1.00D+00 WtEn= 0.00D+00
 Coeff-Com: -0.122D-01-0.215D-01 0.703D-01 0.963D+00
 Coeff:     -0.122D-01-0.215D-01 0.703D-01 0.963D+00
 Gap=     0.759 Goal=   None    Shift=    0.000
 RMSDP=3.53D-06 MaxDP=1.97D-05 DE=-2.46D-07 OVMax= 4.68D-05

 Cycle   5  Pass 1  IDiag  1:
 E= -275.416997932350     Delta-E=       -0.000000022342 Rises=F Damp=F
 DIIS: error= 6.47D-06 at cycle   5 NSaved=   5.
 NSaved= 5 IEnMin= 5 EnMin= -275.416997932350     IErMin= 5 ErrMin= 6.47D-06
 ErrMax= 6.47D-06 EMaxC= 1.00D-01 BMatC= 1.75D-09 BMatP= 1.34D-08
 IDIUse=1 WtCom= 1.00D+00 WtEn= 0.00D+00
 Coeff-Com:  0.530D-02-0.182D-01-0.100D+00-0.574D-01 0.117D+01
 Coeff:      0.530D-02-0.182D-01-0.100D+00-0.574D-01 0.117D+01
 Gap=     0.759 Goal=   None    Shift=    0.000
 RMSDP=1.84D-06 MaxDP=7.85D-06 DE=-2.23D-08 OVMax= 1.95D-05

 Cycle   6  Pass 1  IDiag  1:
 E= -275.416997935536     Delta-E=       -0.000000003186 Rises=F Damp=F
 DIIS: error= 1.09D-06 at cycle   6 NSaved=   6.
 NSaved= 6 IEnMin= 6 EnMin= -275.416997935536     IErMin= 6 ErrMin= 1.09D-06
 ErrMax= 1.09D-06 EMaxC= 1.00D-01 BMatC= 5.68D-11 BMatP= 1.75D-09
 IDIUse=1 WtCom= 1.00D+00 WtEn= 0.00D+00
 Coeff-Com: -0.739D-03 0.669D-02 0.215D-01-0.342D-01-0.305D+00 0.131D+01
 Coeff:     -0.739D-03 0.669D-02 0.215D-01-0.342D-01-0.305D+00 0.131D+01
 Gap=     0.759 Goal=   None    Shift=    0.000
 RMSDP=4.49D-07 MaxDP=2.59D-06 DE=-3.19D-09 OVMax= 5.28D-06

 Cycle   7  Pass 1  IDiag  1:
 E= -275.416997935691     Delta-E=       -0.000000000155 Rises=F Damp=F
 DIIS: error= 2.96D-07 at cycle   7 NSaved=   7.
 NSaved= 7 IEnMin= 7 EnMin= -275.416997935691     IErMin= 7 ErrMin= 2.96D-07
[...]
 Leave Link  301 at Wed Oct  3 23:25:14 2007, MaxMem=    6291456 cpu:       0.0
 (Enter /opt/und/gaussian/03D01/linux86-64/g03/linda-exe/l302.exel)
 NPDir=0 NMtPBC=     1 NCelOv=     1 NCel=       1 NClECP=     1 NCelD=      1
         NCelK=      1 NCelE2=     1 NClLst=     1 CellRange=     0.0.
 One-electron integrals computed using PRISM.
 One-electron integral symmetry used in STVInt
 NBasis=    44 RedAO= T  NBF=    22    22
 NBsUse=    44 1.00D-06 NBFU=    22    22
 Leave Link  302 at Wed Oct  3 23:25:14 2007, MaxMem=    6291456 cpu:       0.1
 (Enter /opt/und/gaussian/03D01/linux86-64/g03/l303.exe)
 DipDrv:  MaxL=1.
 Leave Link  303 at Wed Oct  3 23:25:14 2007, MaxMem=    6291456 cpu:       0.0
 (Enter /opt/und/gaussian/03D01/linux86-64/g03/l401.exe)
 Initial guess read from the read-write file:
 Guess basis will be translated and rotated to current coordinates.
 Initial guess orbital symmetries:
       Occupied  (B) (A) (B) (A) (A) (B) (A) (B) (A) (B) (A) (A)
                 (B) (B) (B) (A) (A)
       Virtual   (A) (B) (A) (B) (A) (B) (B) (B) (A) (A) (B) (B)
                 (A) (A) (B) (A) (B) (A) (B) (B) (A) (B) (A) (B)
                 (A) (A) (B)
 The electronic state of the initial guess is 1-A.
 Leave Link  401 at Wed Oct  3 23:25:14 2007, MaxMem=    6291456 cpu:       0.0
 (Enter /opt/und/gaussian/03D01/linux86-64/g03/linda-exe/l502.exel)
 Closed shell SCF:
 Requested convergence on RMS density matrix=1.00D-08 within 128 cycles.
 Requested convergence on MAX density matrix=1.00D-06.
 Requested convergence on             energy=1.00D-06.
 No special actions if energy rises.
 Using DIIS extrapolation, IDIIS=  1040.
 Integral symmetry usage will be decided dynamically.
 Keep R1 integrals in memory in canonical form, NReq=     1360589.
 IEnd=     24490 IEndB=     24490 NGot=   6291456 MDV=   5795028
 LenX=   5795028
 Symmetry not used in FoFDir.
 MinBra= 0 MaxBra= 1 Meth= 1.
 IRaf=       0 NMat=   1 IRICut=       1 DoRegI=T DoRafI=F ISym2E= 0 JSym2E=0.

 Cycle   1  Pass 1  IDiag  1:
 E= -275.418414986152    
 DIIS: error= 7.62D-05 at cycle   1 NSaved=   1.
 NSaved= 1 IEnMin= 1 EnMin= -275.418414986152     IErMin= 1 ErrMin= 7.62D-05
 ErrMax= 7.62D-05 EMaxC= 1.00D-01 BMatC= 6.65D-07 BMatP= 6.65D-07
 IDIUse=1 WtCom= 1.00D+00 WtEn= 0.00D+00
 Coeff-Com:  0.100D+01
 Coeff:      0.100D+01
 Gap=     0.765 Goal=   None    Shift=    0.000
 RMSDP=2.47D-05 MaxDP=2.74D-04              OVMax= 1.76D-04

 Cycle   2  Pass 1  IDiag  1:
 E= -275.418415660018     Delta-E=       -0.000000673866 Rises=F Damp=F
 DIIS: error= 2.06D-05 at cycle   2 NSaved=   2.
 NSaved= 2 IEnMin= 2 EnMin= -275.418415660018     IErMin= 2 ErrMin= 2.06D-05
 ErrMax= 2.06D-05 EMaxC= 1.00D-01 BMatC= 3.29D-08 BMatP= 6.65D-07
 IDIUse=1 WtCom= 1.00D+00 WtEn= 0.00D+00
 Coeff-Com: -0.123D+00 0.112D+01
 Coeff:     -0.123D+00 0.112D+01
 Gap=     0.765 Goal=   None    Shift=    0.000
 RMSDP=6.77D-06 MaxDP=3.26D-05 DE=-6.74D-07 OVMax= 8.92D-05

 Cycle   3  Pass 1  IDiag  1:
 E= -275.418415732272     Delta-E=       -0.000000072254 Rises=F Damp=F
 DIIS: error= 8.34D-06 at cycle   3 NSaved=   3.
 NSaved= 3 IEnMin= 3 EnMin= -275.418415732272     IErMin= 3 ErrMin= 8.34D-06
 ErrMax= 8.34D-06 EMaxC= 1.00D-01 BMatC= 4.67D-09 BMatP= 3.29D-08
 IDIUse=1 WtCom= 1.00D+00 WtEn= 0.00D+00
 Coeff-Com: -0.284D-01-0.364D-01 0.106D+01
 Coeff:     -0.284D-01-0.364D-01 0.106D+01
 Gap=     0.764 Goal=   None    Shift=    0.000
 RMSDP=2.40D-06 MaxDP=1.39D-05 DE=-7.23D-08 OVMax= 2.46D-05

 Cycle   4  Pass 1  IDiag  1:
 E= -275.418415741476     Delta-E=       -0.000000009204 Rises=F Damp=F
 DIIS: error= 3.59D-06 at cycle   4 NSaved=   4.
 NSaved= 4 IEnMin= 4 EnMin= -275.418415741476     IErMin= 4 ErrMin= 3.59D-06
 ErrMax= 3.59D-06 EMaxC= 1.00D-01 BMatC= 9.48D-10 BMatP= 4.67D-09
 IDIUse=1 WtCom= 1.00D+00 WtEn= 0.00D+00
 Coeff-Com:  0.113D-01-0.179D+00 0.216D+00 0.952D+00
 Coeff:      0.113D-01-0.179D+00 0.216D+00 0.952D+00
 Gap=     0.764 Goal=   None    Shift=    0.000
 RMSDP=1.11D-06 MaxDP=7.31D-06 DE=-9.20D-09 OVMax= 1.59D-05

 Cycle   5  Pass 1  IDiag  1:
 E= -275.418415743195     Delta-E=       -0.000000001718 Rises=F Damp=F
 DIIS: error= 1.16D-06 at cycle   5 NSaved=   5.
 NSaved= 5 IEnMin= 5 EnMin= -275.418415743195     IErMin= 5 ErrMin= 1.16D-06
 ErrMax= 1.16D-06 EMaxC= 1.00D-01 BMatC= 6.95D-11 BMatP= 9.48D-10
 IDIUse=1 WtCom= 1.00D+00 WtEn= 0.00D+00
 Coeff-Com:  0.253D-02 0.991D-02-0.104D+00-0.556D-01 0.115D+01
 Coeff:      0.253D-02 0.991D-02-0.104D+00-0.556D-01 0.115D+01
 Gap=     0.764 Goal=   None    Shift=    0.000
 RMSDP=3.95D-07 MaxDP=2.30D-06 DE=-1.72D-09 OVMax= 4.48D-06

 Cycle   6  Pass 1  IDiag  1:
 E= -275.418415743363     Delta-E=       -0.000000000168 Rises=F Damp=F
 DIIS: error= 3.09D-07 at cycle   6 NSaved=   6.
 NSaved= 6 IEnMin= 6 EnMin= -275.418415743363     IErMin= 6 ErrMin= 3.09D-07
 ErrMax= 3.09D-07 EMaxC= 1.00D-01 BMatC= 5.54D-12 BMatP= 6.95D-11
 IDIUse=1 WtCom= 1.00D+00 WtEn= 0.00D+00
 Coeff-Com: -0.131D-02 0.206D-01-0.300D-01-0.103D+00 0.350D-01 0.108D+01
 Coeff:     -0.131D-02 0.206D-01-0.300D-01-0.103D+00 0.350D-01 0.108D+01
 Gap=     0.764 Goal=   None    Shift=    0.000
 RMSDP=1.29D-07 MaxDP=7.52D-07 DE=-1.68D-10 OVMax= 1.80D-06

 Cycle   7  Pass 1  IDiag  1:
 E= -275.418415743378     Delta-E=       -0.000000000015 Rises=F Damp=F
 DIIS: error= 4.80D-08 at cycle   7 NSaved=   7.
 NSaved= 7 IEnMin= 7 EnMin= -275.418415743378     IErMin= 7 ErrMin= 4.80D-08
 ErrMax= 4.80D-08 EMaxC= 1.00D-01 BMatC= 2.15D-13 BMatP= 5.54D-12
 IDIUse=1 WtCom= 1.00D+00 WtEn= 0.00D+00
 Coeff-Com:  0.306D-03-0.709D-02 0.151D-01 0.327D-01-0.632D-01-0.341D+00
 Coeff-Com:  0.136D+01
 Coeff:      0.306D-03-0.709D-02 0.151D-01 0.327D-01-0.632D-01-0.341D+00
 Coeff:      0.136D+01
 Gap=     0.764 Goal=   None    Shift=    0.000
 RMSDP=2.84D-08 MaxDP=1.49D-07 DE=-1.51D-11 OVMax= 4.59D-07

 Cycle   8  Pass 1  IDiag  1:
 E= -275.418415743379     Delta-E=       -0.000000000001 Rises=F Damp=F
 DIIS: error= 6.24D-09 at cycle   8 NSaved=   8.
 NSaved= 8 IEnMin= 8 EnMin= -275.418415743379     IErMin= 8 ErrMin= 6.24D-09
 ErrMax= 6.24D-09 EMaxC= 1.00D-01 BMatC= 2.95D-15 BMatP= 2.15D-13
 IDIUse=1 WtCom= 1.00D+00 WtEn= 0.00D+00
 Coeff-Com: -0.500D-04 0.137D-02-0.325D-02-0.618D-02 0.159D-01 0.605D-01
 Coeff-Com: -0.335D+00 0.127D+01
 Coeff:     -0.500D-04 0.137D-02-0.325D-02-0.618D-02 0.159D-01 0.605D-01
 Coeff:     -0.335D+00 0.127D+01
 Gap=     0.764 Goal=   None    Shift=    0.000
 RMSDP=2.85D-09 MaxDP=2.17D-08 DE=-1.25D-12 OVMax= 3.82D-08

 SCF Done:  E(RHF) =  -275.418415743     A.U. after    8 cycles
             Convg  =    0.2848D-08             -V/T =  2.0026
             S**2   =   0.0000
 KE= 2.746937445190D+02 PE=-9.085969178862D+02 EE= 2.315365982938D+02
 Leave Link  502 at Wed Oct  3 23:25:15 2007, MaxMem=    6291456 cpu:       0.1
 (Enter /opt/und/gaussian/03D01/linux86-64/g03/linda-exe/l701.exel)
 Compute integral first derivatives.
 ... and contract with generalized density number  0.
 Leave Link  701 at Wed Oct  3 23:25:15 2007, MaxMem=    6291456 cpu:       0.1
 (Enter /opt/und/gaussian/03D01/linux86-64/g03/l702.exe)
 L702 exits ... SP integral derivatives will be done elsewhere.
 Leave Link  702 at Wed Oct  3 23:25:15 2007, MaxMem=    6291456 cpu:       0.0
 (Enter /opt/und/gaussian/03D01/linux86-64/g03/linda-exe/l703.exel)
 Compute integral first derivatives, UseDBF=F.
 Integral derivatives from FoFDir, PRISM(SPDF).
 Petite list used in FoFDir.
 MinBra= 0 MaxBra= 1 Meth= 1.
 IRaf=       0 NMat=   1 IRICut=       1 DoRegI=T DoRafI=F ISym2E= 1 JSym2E=1.
 Leave Link  703 at Wed Oct  3 23:25:15 2007, MaxMem=    6291456 cpu:       0.1
 (Enter /opt/und/gaussian/03D01/linux86-64/g03/l716.exe)
 Dipole        = 1.82076576D-14 6.16173779D-14 1.24065558D+00
 ***** Axes restored to original set *****
 -------------------------------------------------------------------
 Center     Atomic                   Forces (Hartrees/Bohr)
 Number     Number              X              Y              Z
 -------------------------------------------------------------------
    1          6           0.000025078    0.000125639   -0.000112124
    2          6          -0.000096266   -0.000084538    0.000112125
    3          9          -0.000038116   -0.000423021    0.000144321
    4          1           0.000446473    0.000348616    0.000216702
    5          1          -0.000414223   -0.000017972    0.000405107
    6          9           0.000347286    0.000244521   -0.000144325
    7          1          -0.000078677   -0.000560963   -0.000216706
    8          1          -0.000191555    0.000367717   -0.000405100
 -------------------------------------------------------------------
 Cartesian Forces:  Max     0.000560963 RMS     0.000278995
 Leave Link  716 at Wed Oct  3 23:25:16 2007, MaxMem=    6291456 cpu:       0.0
 (Enter /opt/und/gaussian/03D01/linux86-64/g03/l103.exe)

 GradGradGradGradGradGradGradGradGradGradGradGradGradGradGradGradGradGrad
 Berny optimization.
 Search for a local minimum.
 Step number  34 out of a maximum of  34
 All quantities printed in internal units (Hartrees-Bohrs-Radians)
 Update second derivatives using D2CorN and points 19 20 21 22 23
                                                       24 25 26 27 28

                                                       29 30 31 32 33

                                                       34
 Quartic linear search produced a step of  0.35630.
 Steepest descent instead of Quadratic search.
 TrRot=  0.000000  0.000000  0.000000  0.000000  0.000000  0.000000
 Variable       Old X    -DE/DX   Delta X   Delta X   Delta X     New X
                                 (Linear)    (Quad)   (Total)
    X1       -0.00127   0.00003   0.00002   0.00001   0.00003  -0.00125
    Y1        0.02571   0.00013   0.00003   0.00006   0.00009   0.02580
    Z1        0.02963  -0.00011  -0.00023  -0.00005  -0.00028   0.02936
    X2       -0.02288  -0.00010  -0.00002  -0.00005  -0.00006  -0.02294
    Y2       -0.01176  -0.00008  -0.00003  -0.00004  -0.00007  -0.01183
    Z2        2.87790   0.00011   0.00023   0.00005   0.00028   2.87818
    X3        2.43064  -0.00004  -0.00024  -0.00001  -0.00025   2.43039
    Y3        0.42772  -0.00042   0.00054  -0.00022   0.00032   0.42805
    Z3        3.79177   0.00014   0.00067   0.00005   0.00072   3.79248
    X4       -1.25205   0.00045   0.00003   0.00021   0.00024  -1.25181
    Y4        1.44995   0.00035  -0.00030   0.00017  -0.00013   1.44982
    Z4        3.59022   0.00022   0.00091   0.00007   0.00099   3.59121
    X5       -0.65974  -0.00041   0.00030  -0.00020   0.00010  -0.65964
    Y5       -1.83325  -0.00002  -0.00008   0.00000  -0.00008  -1.83333
    Z5        3.52832   0.00041   0.00063   0.00018   0.00081   3.52913
    X6        0.84486   0.00035  -0.00059   0.00019  -0.00040   0.84446
    Y6       -2.31883   0.00024  -0.00006   0.00012   0.00006  -2.31878
    Z6       -0.88427  -0.00014  -0.00067  -0.00005  -0.00072  -0.88498
    X7       -1.88176  -0.00008   0.00028  -0.00005   0.00023  -1.88152
    Y7        0.35935  -0.00056   0.00013  -0.00027  -0.00014   0.35921
    Z7       -0.68265  -0.00022  -0.00091  -0.00007  -0.00099  -0.68364
    X8        1.25773  -0.00019   0.00022  -0.00010   0.00012   1.25785
    Y8        1.48799   0.00037  -0.00022   0.00018  -0.00005   1.48795
    Z8       -0.62079  -0.00041  -0.00063  -0.00018  -0.00081  -0.62160
         Item               Value     Threshold  Converged?
 Maximum Force            0.000561     0.000450     NO 
 RMS     Force            0.000279     0.000300     YES
 Maximum Displacement     0.000988     0.001800     YES
 RMS     Displacement     0.000455     0.001200     YES
 Predicted change in Energy=-9.670930D-07
 Optimization stopped.
    -- Number of steps exceeded,  NStep=  34
    -- Flag reset to prevent archiving.
 GradGradGradGradGradGradGradGradGradGradGradGradGradGradGradGradGradGrad

 Largest change from initial coordinates is atom    5       2.854 Angstoms.
 Leave Link  103 at Wed Oct  3 23:25:16 2007, MaxMem=    6291456 cpu:       0.0
 (Enter /opt/und/gaussian/03D01/linux86-64/g03/l202.exe)
                          Input orientation:                          
 ---------------------------------------------------------------------
 Center     Atomic     Atomic              Coordinates (Angstroms)
 Number     Number      Type              X           Y           Z
 ---------------------------------------------------------------------
    1          6             0       -0.000674    0.013603    0.015682
    2          6             0       -0.012106   -0.006224    1.522919
    3          9             0        1.286237    0.226342    2.006517
    4          1             0       -0.662556    0.767282    1.899864
    5          1             0       -0.349119   -0.970113    1.867106
    6          9             0        0.447082   -1.227073   -0.467934
    7          1             0       -0.995782    0.190158   -0.361245
    8          1             0        0.665564    0.787413   -0.328509
 ---------------------------------------------------------------------
                    Distance matrix (angstroms):
                    1          2          3          4          5
     1  C    0.000000
     2  C    1.507411   0.000000
     3  F    2.380088   1.404865   0.000000
     4  H    2.134540   1.078650   2.025286   0.000000
     5  H    2.125296   1.077554   2.031090   1.765745   0.000000
     6  F    1.404865   2.380088   2.989900   3.288649   2.480399
     7  H    1.078650   2.134540   3.288649   2.357271   2.594215
     8  H    1.077554   2.125296   2.480399   2.594215   2.989850
                    6          7          8
     6  F    0.000000
     7  H    2.025286   0.000000
     8  H    2.031090   1.765745   0.000000
 Stoichiometry    C2H4F2
 Framework group  C2[X(C2H4F2)]
 Deg. of freedom    10
 Full point group                 C2
 Largest Abelian subgroup         C2      NOp   2
 Largest concise Abelian subgroup C2      NOp   2
                         Standard orientation:                         
 ---------------------------------------------------------------------
 Center     Atomic     Atomic              Coordinates (Angstroms)
 Number     Number      Type              X           Y           Z
 ---------------------------------------------------------------------
    1          6             0       -0.660788   -0.362535    0.489001
    2          6             0        0.660788    0.362535    0.489001
    3          9             0        0.660788    1.340983   -0.519110
    4          1             0        0.818116    0.848450    1.439064
    5          1             0        1.455866   -0.339494    0.298922
    6          9             0       -0.660788   -1.340983   -0.519110
    7          1             0       -0.818116   -0.848450    1.439064
    8          1             0       -1.455866    0.339494    0.298922
 ---------------------------------------------------------------------
 Rotational constants (GHZ):     17.8657450      4.7741884      4.2965486
 Leave Link  202 at Wed Oct  3 23:25:16 2007, MaxMem=    6291456 cpu:       0.1
 (Enter /opt/und/gaussian/03D01/linux86-64/g03/l601.exe)
 Copying SCF densities to generalized density rwf, ISCF=0 IROHF=0.

 **********************************************************************

            Population analysis using the SCF density.

 **********************************************************************

 Orbital symmetries:
       Occupied  (B) (A) (B) (A) (A) (B) (A) (B) (A) (B) (A) (A)
                 (B) (B) (B) (A) (A)
       Virtual   (A) (B) (A) (B) (A) (B) (B) (B) (A) (A) (B) (B)
                 (A) (A) (B) (A) (B) (A) (B) (B) (A) (B) (A) (B)
                 (A) (A) (B)
 The electronic state is 1-A.
 Alpha  occ. eigenvalues --  -26.13526 -26.13524 -11.26462 -11.26423  -1.57057
 Alpha  occ. eigenvalues --   -1.55971  -1.05449  -0.87750  -0.72101  -0.71931
 Alpha  occ. eigenvalues --   -0.67838  -0.64248  -0.64083  -0.59713  -0.52912
 Alpha  occ. eigenvalues --   -0.52636  -0.49875
 Alpha virt. eigenvalues --    0.26575   0.28168   0.30190   0.33455   0.36879
 Alpha virt. eigenvalues --    0.38394   0.42887   0.93460   0.93563   0.95499
 Alpha virt. eigenvalues --    1.00298   1.06872   1.07288   1.21362   1.30351
 Alpha virt. eigenvalues --    1.30676   1.36380   1.79241   2.19422   2.28997
 Alpha virt. eigenvalues --    2.33665   2.43158   2.46450   2.49140   2.51090
 Alpha virt. eigenvalues --    3.98570   4.00617
          Condensed to atoms (all electrons):
              1          2          3          4          5          6
     1  C    5.121788   0.169385  -0.031145  -0.049249  -0.054511   0.209208
     2  C    0.169385   5.121788   0.209208   0.326368   0.347260  -0.031145
     3  F   -0.031145   0.209208   9.274325  -0.026769  -0.026238   0.000065
     4  H   -0.049249   0.326368  -0.026769   0.570394  -0.032892   0.001321
     5  H   -0.054511   0.347260  -0.026238  -0.032892   0.525247   0.000938
     6  F    0.209208  -0.031145   0.000065   0.001321   0.000938   9.274325
     7  H    0.326368  -0.049249   0.001321   0.004233   0.000735  -0.026769
     8  H    0.347260  -0.054511   0.000938   0.000735   0.004511  -0.026238
              7          8
     1  C    0.326368   0.347260
     2  C   -0.049249  -0.054511
     3  F    0.001321   0.000938
     4  H    0.004233   0.000735
     5  H    0.000735   0.004511
     6  F   -0.026769  -0.026238
     7  H    0.570394  -0.032892
     8  H   -0.032892   0.525247
 Mulliken atomic charges:
              1
     1  C   -0.039104
     2  C   -0.039104
     3  F   -0.401704
     4  H    0.205858
     5  H    0.234950
     6  F   -0.401704
     7  H    0.205858
     8  H    0.234950
 Sum of Mulliken charges=   0.00000
 Atomic charges with hydrogens summed into heavy atoms:
              1
     1  C    0.401704
     2  C    0.401704
     3  F   -0.401704
     4  H    0.000000
     5  H    0.000000
     6  F   -0.401704
     7  H    0.000000
     8  H    0.000000
 Sum of Mulliken charges=   0.00000
 Electronic spatial extent (au):  <R**2>=   289.4081
 Charge=     0.0000 electrons
 Dipole moment (field-independent basis, Debye):
    X=     0.0000    Y=     0.0000    Z=     3.1534  Tot=     3.1534
 Quadrupole moment (field-independent basis, Debye-Ang):
   XX=   -21.3894   YY=   -27.2478   ZZ=   -22.0150
   XY=    -2.3726   XZ=     0.0000   YZ=     0.0000
 Traceless Quadrupole moment (field-independent basis, Debye-Ang):
   XX=     2.1613   YY=    -3.6971   ZZ=     1.5357
   XY=    -2.3726   XZ=     0.0000   YZ=     0.0000
 Octapole moment (field-independent basis, Debye-Ang**2):
  XXX=     0.0000  YYY=     0.0000  ZZZ=    -5.6183  XYY=     0.0000
  XXY=     0.0000  XXZ=    -1.1670  XZZ=     0.0000  YZZ=     0.0000
  YYZ=     1.4427  XYZ=     2.2864
 Hexadecapole moment (field-independent basis, Debye-Ang**3):
 XXXX=   -89.1603 YYYY=  -142.5619 ZZZZ=   -61.3182 XXXY=   -35.5580
 XXXZ=     0.0000 YYYX=   -38.2435 YYYZ=     0.0000 ZZZX=     0.0000
 ZZZY=     0.0000 XXYY=   -38.9202 XXZZ=   -26.1532 YYZZ=   -32.9815
 XXYZ=     0.0000 YYXZ=     0.0000 ZZXY=   -10.7907
 N-N= 1.269481593301D+02 E-N=-9.085969179003D+02  KE= 2.746937445190D+02
 Symmetry A    KE= 1.386609504775D+02
 Symmetry B    KE= 1.360327940414D+02
 No NMR shielding tensors so no spin-rotation constants.
 Leave Link  601 at Wed Oct  3 23:25:16 2007, MaxMem=    6291456 cpu:       0.1
 (Enter /opt/und/gaussian/03D01/linux86-64/g03/l9999.exe)


 SOME THINGS ARE EASY, THEY ARE ONLY HARD TO DO.
            -- A. EINSTEIN TO J. O. HIRSCHFELDER
 THE ONLY TROUBLE WITH A SURE THING IS THE UNCERTAINTY.
     -- FROM A TEABAG (BELONGING TO W.H.?)
 Error termination request processed by link 9999.
 Error termination via Lnk1e in /opt/und/gaussian/03D01/linux86-64/g03/l9999.exe at Wed Oct  3 23:25:16 2007.
 Job cpu time:  0 days  0 hours  0 minutes 27.5 seconds.
 File lengths (MBytes):  RWF=     13 Int=      0 D2E=      0 Chk=     10 Scr=      1
