 Entering Gaussian System, Link 0=g03
 Input=e-C2H4F2-G2.com
 Output=e-C2H4F2-G2.log
 Initial command:
 /opt/und/gaussian/03D01/linux86-64/g03/l1.exe /scratch/Gau-17456.inp -scrdir=/scratch/
 Entering Link 1 = /opt/und/gaussian/03D01/linux86-64/g03/l1.exe PID=     17457.
  
 Copyright (c) 1988,1990,1992,1993,1995,1998,2003,2004, Gaussian, Inc.
                  All Rights Reserved.
  
 This is the Gaussian(R) 03 program.  It is based on the
 the Gaussian(R) 98 system (copyright 1998, Gaussian, Inc.),
 the Gaussian(R) 94 system (copyright 1995, Gaussian, Inc.),
 the Gaussian 92(TM) system (copyright 1992, Gaussian, Inc.),
 the Gaussian 90(TM) system (copyright 1990, Gaussian, Inc.),
 the Gaussian 88(TM) system (copyright 1988, Gaussian, Inc.),
 the Gaussian 86(TM) system (copyright 1986, Carnegie Mellon
 University), and the Gaussian 82(TM) system (copyright 1983,
 Carnegie Mellon University). Gaussian is a federally registered
 trademark of Gaussian, Inc.
  
 This software contains proprietary and confidential information,
 including trade secrets, belonging to Gaussian, Inc.
  
 This software is provided under written license and may be
 used, copied, transmitted, or stored only in accord with that
 written license.
  
 The following legend is applicable only to US Government
 contracts under FAR:
  
                    RESTRICTED RIGHTS LEGEND
  
 Use, reproduction and disclosure by the US Government is
 subject to restrictions as set forth in subparagraphs (a)
 and (c) of the Commercial Computer Software - Restricted
 Rights clause in FAR 52.227-19.
  
 Gaussian, Inc.
 340 Quinnipiac St., Bldg. 40, Wallingford CT 06492
  
  
 ---------------------------------------------------------------
 Warning -- This program may not be used in any manner that
 competes with the business of Gaussian, Inc. or will provide
 assistance to any competitor of Gaussian, Inc.  The licensee
 of this program is prohibited from giving any competitor of
 Gaussian, Inc. access to this program.  By using this program,
 the user acknowledges that Gaussian, Inc. is engaged in the
 business of creating and licensing software in the field of
 computational chemistry and represents and warrants to the
 licensee that it is not a competitor of Gaussian, Inc. and that
 it will not use this program in any manner prohibited above.
 ---------------------------------------------------------------
  

 Cite this work as:
 Gaussian 03, Revision D.01,
 M. J. Frisch, G. W. Trucks, H. B. Schlegel, G. E. Scuseria, 
 M. A. Robb, J. R. Cheeseman, J. A. Montgomery, Jr., T. Vreven, 
 K. N. Kudin, J. C. Burant, J. M. Millam, S. S. Iyengar, J. Tomasi, 
 V. Barone, B. Mennucci, M. Cossi, G. Scalmani, N. Rega, 
 G. A. Petersson, H. Nakatsuji, M. Hada, M. Ehara, K. Toyota, 
 R. Fukuda, J. Hasegawa, M. Ishida, T. Nakajima, Y. Honda, O. Kitao, 
 H. Nakai, M. Klene, X. Li, J. E. Knox, H. P. Hratchian, J. B. Cross, 
 V. Bakken, C. Adamo, J. Jaramillo, R. Gomperts, R. E. Stratmann, 
 O. Yazyev, A. J. Austin, R. Cammi, C. Pomelli, J. W. Ochterski, 
 P. Y. Ayala, K. Morokuma, G. A. Voth, P. Salvador, J. J. Dannenberg, 
 V. G. Zakrzewski, S. Dapprich, A. D. Daniels, M. C. Strain, 
 O. Farkas, D. K. Malick, A. D. Rabuck, K. Raghavachari, 
 J. B. Foresman, J. V. Ortiz, Q. Cui, A. G. Baboul, S. Clifford, 
 J. Cioslowski, B. B. Stefanov, G. Liu, A. Liashenko, P. Piskorz, 
 I. Komaromi, R. L. Martin, D. J. Fox, T. Keith, M. A. Al-Laham, 
 C. Y. Peng, A. Nanayakkara, M. Challacombe, P. M. W. Gill, 
 B. Johnson, W. Chen, M. W. Wong, C. Gonzalez, and J. A. Pople, 
 Gaussian, Inc., Wallingford CT, 2004.
 
 ******************************************
 Gaussian 03:  AM64L-G03RevD.01 13-Oct-2005
                18-Oct-2007 
 ******************************************
 %chk=e-C2H4F2-G2.chk
 %mem=6MW
 %nproc=1
 Will use up to    1 processors via shared memory.
 -----
 #N G2
 -----
 1/18=20,38=1/1,3;
 2/9=110,17=6,18=5,40=1/2;
 3/5=1,6=6,7=1,11=9,16=1,25=1,30=1/1,2,3;
 4//1;
 5/5=2,38=5/2;
 6/7=2,8=2,9=2,10=2,28=1/1;
 7//1,2,3,16;
 1/18=20/3(3);
 2/9=110/2;
 6/7=2,8=2,9=2,10=2,19=2,28=1/1;
 99//99;
 2/9=110/2;
 3/5=1,6=6,7=1,11=9,16=1,25=1,30=1/1,2,3;
 4/5=5,16=3/1;
 5/5=2,38=5/2;
 7//1,2,3,16;
 1/18=20/3(-5);
 2/9=110/2;
 6/7=2,8=2,9=2,10=2,19=2,28=1/1;
 99/9=1/99;
 -----------
 e-C2H4F2 G2
 -----------
 Symbolic Z-matrix:
 Charge =  0 Multiplicity = 1
 C
 C                    1    r1
 F                    2    r2       1    A1
 H                    2    r3       1    A2       3    D1       0
 H                    2    r3       1    A2       3    D2       0
 F                    1    r2       2    A1       3    D3       0
 H                    1    r3       2    A2       6    D1       0
 H                    1    r3       2    A2       6    D2       0
       Variables:
  r1                    1.5386                   
  r2                    1.39462                  
  r3                    1.11456                  
  D1                  120.                       
  D2                 -120.                       
  A1                  109.54214                  
  D3                    0.                       
  A2                  110.09239                  
 

 GradGradGradGradGradGradGradGradGradGradGradGradGradGradGradGradGradGrad
 Berny optimization.
 Initialization pass.
                           ----------------------------
                           !    Initial Parameters    !
                           ! (Angstroms and Degrees)  !
 --------------------------                            --------------------------
 ! Name  Definition              Value          Derivative Info.                !
 --------------------------------------------------------------------------------
 ! R1    R(1,2)                  1.5386         estimate D2E/DX2                !
 ! R2    R(1,6)                  1.3946         estimate D2E/DX2                !
 ! R3    R(1,7)                  1.1146         estimate D2E/DX2                !
 ! R4    R(1,8)                  1.1146         estimate D2E/DX2                !
 ! R5    R(2,3)                  1.3946         estimate D2E/DX2                !
 ! R6    R(2,4)                  1.1146         estimate D2E/DX2                !
 ! R7    R(2,5)                  1.1146         estimate D2E/DX2                !
 ! A1    A(2,1,6)              109.5421         estimate D2E/DX2                !
 ! A2    A(2,1,7)              110.0924         estimate D2E/DX2                !
 ! A3    A(2,1,8)              110.0924         estimate D2E/DX2                !
 ! A4    A(6,1,7)              109.1237         estimate D2E/DX2                !
 ! A5    A(6,1,8)              109.1237         estimate D2E/DX2                !
 ! A6    A(7,1,8)              108.843          estimate D2E/DX2                !
 ! A7    A(1,2,3)              109.5421         estimate D2E/DX2                !
 ! A8    A(1,2,4)              110.0924         estimate D2E/DX2                !
 ! A9    A(1,2,5)              110.0924         estimate D2E/DX2                !
 ! A10   A(3,2,4)              109.1237         estimate D2E/DX2                !
 ! A11   A(3,2,5)              109.1237         estimate D2E/DX2                !
 ! A12   A(4,2,5)              108.843          estimate D2E/DX2                !
 ! D1    D(6,1,2,3)              0.0            estimate D2E/DX2                !
 ! D2    D(6,1,2,4)            120.0            estimate D2E/DX2                !
 ! D3    D(6,1,2,5)           -120.0            estimate D2E/DX2                !
 ! D4    D(7,1,2,3)            120.0            estimate D2E/DX2                !
 ! D5    D(7,1,2,4)           -120.0            estimate D2E/DX2                !
 ! D6    D(7,1,2,5)              0.0            estimate D2E/DX2                !
 ! D7    D(8,1,2,3)           -120.0            estimate D2E/DX2                !
 ! D8    D(8,1,2,4)              0.0            estimate D2E/DX2                !
 ! D9    D(8,1,2,5)            120.0            estimate D2E/DX2                !
 --------------------------------------------------------------------------------
 Trust Radius=3.00D-01 FncErr=1.00D-07 GrdErr=1.00D-07
 Number of steps in this run=  38 maximum allowed number of steps= 100.
 GradGradGradGradGradGradGradGradGradGradGradGradGradGradGradGradGradGrad

                          Input orientation:                          
 ---------------------------------------------------------------------
 Center     Atomic     Atomic              Coordinates (Angstroms)
 Number     Number      Type              X           Y           Z
 ---------------------------------------------------------------------
    1          6             0        0.000000    0.000000    0.000000
    2          6             0        0.000000    0.000000    1.538600
    3          9             0        1.314284    0.000000    2.005100
    4          1             0       -0.523364    0.906493    1.921490
    5          1             0       -0.523364   -0.906493    1.921490
    6          9             0        1.314284    0.000000   -0.466500
    7          1             0       -0.523364   -0.906493   -0.382890
    8          1             0       -0.523364    0.906493   -0.382890
 ---------------------------------------------------------------------
                    Distance matrix (angstroms):
                    1          2          3          4          5
     1  C    0.000000
     2  C    1.538600   0.000000
     3  F    2.397451   1.394620   0.000000
     4  H    2.188096   1.114560   2.050773   0.000000
     5  H    2.188096   1.114560   2.050773   1.812986   0.000000
     6  F    1.394620   2.397451   2.471601   3.146614   3.146614
     7  H    1.114560   2.188096   3.146614   2.932079   2.304381
     8  H    1.114560   2.188096   3.146614   2.304381   2.932079
                    6          7          8
     6  F    0.000000
     7  H    2.050773   0.000000
     8  H    2.050773   1.812986   0.000000
 Stoichiometry    C2H4F2
 Framework group  C2V[SGV(C2F2),X(H4)]
 Deg. of freedom     6
 Full point group                 C2V
 Largest Abelian subgroup         C2V     NOp   4
 Largest concise Abelian subgroup C2V     NOp   4
                         Standard orientation:                         
 ---------------------------------------------------------------------
 Center     Atomic     Atomic              Coordinates (Angstroms)
 Number     Number      Type              X           Y           Z
 ---------------------------------------------------------------------
    1          6             0        0.000000    0.769300    0.634225
    2          6             0        0.000000   -0.769300    0.634225
    3          9             0        0.000000   -1.235800   -0.680059
    4          1             0        0.906493   -1.152190    1.157589
    5          1             0       -0.906493   -1.152190    1.157589
    6          9             0        0.000000    1.235800   -0.680059
    7          1             0       -0.906493    1.152190    1.157589
    8          1             0        0.906493    1.152190    1.157589
 ---------------------------------------------------------------------
 Rotational constants (GHZ):     14.2743717      6.2471964      4.6079146
 Standard basis: 6-31G(d) (6D, 7F)
 There are    24 symmetry adapted basis functions of A1  symmetry.
 There are    10 symmetry adapted basis functions of A2  symmetry.
 There are    10 symmetry adapted basis functions of B1  symmetry.
 There are    24 symmetry adapted basis functions of B2  symmetry.
 Integral buffers will be    131072 words long.
 Raffenetti 1 integral format.
 Two-electron integral symmetry is turned on.
    68 basis functions,   128 primitive gaussians,    68 cartesian basis functions
    17 alpha electrons       17 beta electrons
       nuclear repulsion energy       128.4887118849 Hartrees.
 NAtoms=    8 NActive=    8 NUniq=    3 SFac= 3.00D+00 NAtFMM=   80 NAOKFM=F Big=F
 One-electron integrals computed using PRISM.
 NBasis=    68 RedAO= T  NBF=    24    10    10    24
 NBsUse=    68 1.00D-06 NBFU=    24    10    10    24
 Harris functional with IExCor=  205 diagonalized for initial guess.
 ExpMin= 1.61D-01 ExpMax= 7.00D+03 ExpMxC= 1.05D+03 IAcc=1 IRadAn=         1 AccDes= 1.00D-06
 HarFok:  IExCor= 205 AccDes= 1.00D-06 IRadAn=         1 IDoV=1
 ScaDFX=  1.000000  1.000000  1.000000  1.000000
 Initial guess orbital symmetries:
       Occupied  (B2) (A1) (A1) (B2) (A1) (B2) (A1) (B2) (A1) (B1)
                 (A1) (B2) (A2) (B2) (B1) (A1) (A2)
       Virtual   (A1) (A1) (B1) (B2) (B2) (B2) (A2) (A1) (A1) (B1)
                 (B2) (B2) (A1) (A2) (B1) (A2) (A1) (B2) (A1) (B2)
                 (A1) (B1) (B2) (A1) (A2) (B2) (B1) (B2) (A1) (A1)
                 (A2) (B1) (A2) (A1) (B2) (A1) (B1) (B2) (B2) (A1)
                 (A2) (B1) (B2) (A2) (B2) (A1) (B2) (A1) (A1) (B2)
                 (B2)
 The electronic state of the initial guess is 1-A1.
 Requested convergence on RMS density matrix=1.00D-08 within 128 cycles.
 Requested convergence on MAX density matrix=1.00D-06.
 Requested convergence on             energy=1.00D-06.
 No special actions if energy rises.
 Keep R1 integrals in memory in canonical form, NReq=     3771655.
 SCF Done:  E(RHF) =  -276.903913742     A.U. after   11 cycles
             Convg  =    0.2700D-08             -V/T =  2.0026
             S**2   =   0.0000

 **********************************************************************

            Population analysis using the SCF density.

 **********************************************************************

 Orbital symmetries:
       Occupied  (B2) (A1) (A1) (B2) (A1) (B2) (A1) (B2) (B1) (A1)
                 (A1) (A2) (B2) (B2) (B1) (A1) (A2)
       Virtual   (A1) (B1) (A1) (B2) (A2) (B2) (B2) (A1) (B1) (A1)
                 (B2) (B2) (A1) (A2) (B1) (A1) (A2) (B2) (B2) (A1)
                 (A1) (B1) (B2) (A1) (B1) (A2) (B2) (A1) (B2) (A1)
                 (A2) (B1) (A2) (A1) (B2) (B2) (A1) (B1) (B2) (A1)
                 (A2) (B1) (B2) (A2) (B2) (A1) (B2) (A1) (A1) (B2)
                 (B2)
 The electronic state is 1-A1.
 Alpha  occ. eigenvalues --  -26.27958 -26.27957 -11.32908 -11.32851  -1.58860
 Alpha  occ. eigenvalues --   -1.56937  -1.03493  -0.86704  -0.72155  -0.72111
 Alpha  occ. eigenvalues --   -0.68693  -0.66775  -0.64472  -0.59734  -0.56292
 Alpha  occ. eigenvalues --   -0.50552  -0.49257
 Alpha virt. eigenvalues --    0.21175   0.25027   0.25354   0.28871   0.36535
 Alpha virt. eigenvalues --    0.39100   0.43721   0.72347   0.74105   0.76795
 Alpha virt. eigenvalues --    0.79963   0.84207   1.00166   1.00500   1.04970
 Alpha virt. eigenvalues --    1.09520   1.09859   1.15155   1.36079   1.38033
 Alpha virt. eigenvalues --    1.42539   1.48842   1.60625   1.68954   1.71906
 Alpha virt. eigenvalues --    1.72567   1.76741   1.99550   2.00023   2.08879
 Alpha virt. eigenvalues --    2.11738   2.11939   2.15228   2.19417   2.22980
 Alpha virt. eigenvalues --    2.32792   2.35945   2.37019   2.49853   2.60272
 Alpha virt. eigenvalues --    2.66626   2.67025   2.80888   2.81207   3.08129
 Alpha virt. eigenvalues --    3.31404   3.41774   4.29360   4.56404   4.82874
 Alpha virt. eigenvalues --    4.92322
          Condensed to atoms (all electrons):
              1          2          3          4          5          6
     1  C    4.766189   0.292867  -0.030910  -0.044999  -0.044999   0.216196
     2  C    0.292867   4.766189   0.216196   0.387112   0.387112  -0.030910
     3  F   -0.030910   0.216196   9.260596  -0.026096  -0.026096   0.000883
     4  H   -0.044999   0.387112  -0.026096   0.559501  -0.039194   0.001223
     5  H   -0.044999   0.387112  -0.026096  -0.039194   0.559501   0.001223
     6  F    0.216196  -0.030910   0.000883   0.001223   0.001223   9.260596
     7  H    0.387112  -0.044999   0.001223   0.003944  -0.004285  -0.026096
     8  H    0.387112  -0.044999   0.001223  -0.004285   0.003944  -0.026096
              7          8
     1  C    0.387112   0.387112
     2  C   -0.044999  -0.044999
     3  F    0.001223   0.001223
     4  H    0.003944  -0.004285
     5  H   -0.004285   0.003944
     6  F   -0.026096  -0.026096
     7  H    0.559501  -0.039194
     8  H   -0.039194   0.559501
 Mulliken atomic charges:
              1
     1  C    0.071431
     2  C    0.071431
     3  F   -0.397019
     4  H    0.162794
     5  H    0.162794
     6  F   -0.397019
     7  H    0.162794
     8  H    0.162794
 Sum of Mulliken charges=   0.00000
 Atomic charges with hydrogens summed into heavy atoms:
              1
     1  C    0.397019
     2  C    0.397019
     3  F   -0.397019
     4  H    0.000000
     5  H    0.000000
     6  F   -0.397019
     7  H    0.000000
     8  H    0.000000
 Sum of Mulliken charges=   0.00000
 Electronic spatial extent (au):  <R**2>=   271.1370
 Charge=     0.0000 electrons
 Dipole moment (field-independent basis, Debye):
    X=     0.0000    Y=     0.0000    Z=     3.6428  Tot=     3.6428
 Quadrupole moment (field-independent basis, Debye-Ang):
   XX=   -21.4612   YY=   -24.7853   ZZ=   -22.0833
   XY=     0.0000   XZ=     0.0000   YZ=     0.0000
 Traceless Quadrupole moment (field-independent basis, Debye-Ang):
   XX=     1.3154   YY=    -2.0087   ZZ=     0.6933
   XY=     0.0000   XZ=     0.0000   YZ=     0.0000
 Octapole moment (field-independent basis, Debye-Ang**2):
  XXX=     0.0000  YYY=     0.0000  ZZZ=    -7.8829  XYY=     0.0000
  XXY=     0.0000  XXZ=    -1.8287  XZZ=     0.0000  YZZ=     0.0000
  YYZ=     1.0483  XYZ=     0.0000
 Hexadecapole moment (field-independent basis, Debye-Ang**3):
 XXXX=   -31.0347 YYYY=  -170.9535 ZZZZ=   -88.8813 XXXY=     0.0000
 XXXZ=     0.0000 YYYX=     0.0000 YYYZ=     0.0000 ZZZX=     0.0000
 ZZZY=     0.0000 XXYY=   -31.4027 XXZZ=   -18.6761 YYZZ=   -42.8425
 XXYZ=     0.0000 YYXZ=     0.0000 ZZXY=     0.0000
 N-N= 1.284887118849D+02 E-N=-9.152247428130D+02  KE= 2.761936288389D+02
 Symmetry A1   KE= 1.305427425357D+02
 Symmetry A2   KE= 8.611340780525D+00
 Symmetry B1   KE= 8.156495828512D+00
 Symmetry B2   KE= 1.288830496941D+02
 ***** Axes restored to original set *****
 -------------------------------------------------------------------
 Center     Atomic                   Forces (Hartrees/Bohr)
 Number     Number              X              Y              Z
 -------------------------------------------------------------------
    1          6           0.003772821    0.000000000   -0.015380817
    2          6           0.003772821    0.000000000    0.015380817
    3          9          -0.031069670    0.000000000   -0.005666208
    4          1           0.013648424   -0.018520302   -0.003697352
    5          1           0.013648424    0.018520302   -0.003697352
    6          9          -0.031069670    0.000000000    0.005666208
    7          1           0.013648424    0.018520302    0.003697352
    8          1           0.013648424   -0.018520302    0.003697352
 -------------------------------------------------------------------
 Cartesian Forces:  Max     0.031069670 RMS     0.013946735

 GradGradGradGradGradGradGradGradGradGradGradGradGradGradGradGradGradGrad
 Berny optimization.
 Internal  Forces:  Max     0.031175272 RMS     0.012506005
 Search for a local minimum.
 Step number   1 out of a maximum of  38
 All quantities printed in internal units (Hartrees-Bohrs-Radians)
 Second derivative matrix not updated -- first step.
     Eigenvalues ---    0.00255   0.05675   0.05675   0.05889   0.05889
     Eigenvalues ---    0.16000   0.16000   0.16000   0.16000   0.22395
     Eigenvalues ---    0.22395   0.28643   0.32122   0.32122   0.32122
     Eigenvalues ---    0.32122   0.46524   0.465241000.000001000.00000
     Eigenvalues --- 1000.000001000.000001000.000001000.000001000.00000
     Eigenvalues --- 1000.000001000.000001000.00000
 RFO step:  Lambda=-1.23394474D-02.
 Linear search not attempted -- first point.
 Iteration  1 RMS(Cart)=  0.04418438 RMS(Int)=  0.00111041
 Iteration  2 RMS(Cart)=  0.00133858 RMS(Int)=  0.00034614
 Iteration  3 RMS(Cart)=  0.00000110 RMS(Int)=  0.00034614
 Iteration  4 RMS(Cart)=  0.00000000 RMS(Int)=  0.00034614
 Variable       Old X    -DE/DX   Delta X   Delta X   Delta X     New X
                                 (Linear)    (Quad)   (Total)
    R1        2.90753   0.00232   0.00000   0.00776   0.00776   2.91530
    R2        2.63545  -0.03118   0.00000  -0.06528  -0.06528   2.57017
    R3        2.10621  -0.02274   0.00000  -0.06818  -0.06818   2.03803
    R4        2.10621  -0.02274   0.00000  -0.06818  -0.06818   2.03803
    R5        2.63545  -0.03118   0.00000  -0.06528  -0.06528   2.57017
    R6        2.10621  -0.02274   0.00000  -0.06818  -0.06818   2.03803
    R7        2.10621  -0.02274   0.00000  -0.06818  -0.06818   2.03803
    A1        1.91187   0.00684   0.00000   0.02457   0.02438   1.93625
    A2        1.92147   0.00440   0.00000   0.02995   0.02938   1.95085
    A3        1.92147   0.00440   0.00000   0.02995   0.02938   1.95085
    A4        1.90457  -0.00636   0.00000  -0.03918  -0.03936   1.86521
    A5        1.90457  -0.00636   0.00000  -0.03918  -0.03936   1.86521
    A6        1.89967  -0.00317   0.00000  -0.00757  -0.00843   1.89124
    A7        1.91187   0.00684   0.00000   0.02457   0.02438   1.93625
    A8        1.92147   0.00440   0.00000   0.02995   0.02938   1.95085
    A9        1.92147   0.00440   0.00000   0.02995   0.02938   1.95085
   A10        1.90457  -0.00636   0.00000  -0.03918  -0.03936   1.86521
   A11        1.90457  -0.00636   0.00000  -0.03918  -0.03936   1.86521
   A12        1.89967  -0.00317   0.00000  -0.00757  -0.00843   1.89124
    D1        0.00000   0.00000   0.00000   0.00000   0.00000   0.00000
    D2        2.09440  -0.00082   0.00000  -0.01429  -0.01446   2.07993
    D3       -2.09440   0.00082   0.00000   0.01429   0.01446  -2.07993
    D4        2.09440  -0.00082   0.00000  -0.01429  -0.01446   2.07993
    D5       -2.09440  -0.00164   0.00000  -0.02857  -0.02892  -2.12332
    D6        0.00000   0.00000   0.00000   0.00000   0.00000   0.00000
    D7       -2.09440   0.00082   0.00000   0.01429   0.01446  -2.07993
    D8        0.00000   0.00000   0.00000   0.00000   0.00000   0.00000
    D9        2.09440   0.00164   0.00000   0.02857   0.02892   2.12332
         Item               Value     Threshold  Converged?
 Maximum Force            0.031175     0.000450     NO 
 RMS     Force            0.012506     0.000300     NO 
 Maximum Displacement     0.095649     0.001800     NO 
 RMS     Displacement     0.043742     0.001200     NO 
 Predicted change in Energy=-6.426154D-03
 GradGradGradGradGradGradGradGradGradGradGradGradGradGradGradGradGradGrad

                          Input orientation:                          
 ---------------------------------------------------------------------
 Center     Atomic     Atomic              Coordinates (Angstroms)
 Number     Number      Type              X           Y           Z
 ---------------------------------------------------------------------
    1          6             0       -0.006592    0.000000   -0.002054
    2          6             0       -0.006592    0.000000    1.540654
    3          9             0        1.263669    0.000000    2.026706
    4          1             0       -0.494760    0.874497    1.940739
    5          1             0       -0.494760   -0.874497    1.940739
    6          9             0        1.263669    0.000000   -0.488106
    7          1             0       -0.494760   -0.874497   -0.402139
    8          1             0       -0.494760    0.874497   -0.402139
 ---------------------------------------------------------------------
                    Distance matrix (angstroms):
                    1          2          3          4          5
     1  C    0.000000
     2  C    1.542709   0.000000
     3  F    2.393623   1.360076   0.000000
     4  H    2.185749   1.078481   1.965759   0.000000
     5  H    2.185749   1.078481   1.965759   1.748994   0.000000
     6  F    1.360076   2.393623   2.514812   3.123477   3.123477
     7  H    1.078481   2.185749   3.123477   2.923706   2.342878
     8  H    1.078481   2.185749   3.123477   2.342878   2.923706
                    6          7          8
     6  F    0.000000
     7  H    1.965759   0.000000
     8  H    1.965759   1.748994   0.000000
 Stoichiometry    C2H4F2
 Framework group  C2V[SGV(C2F2),X(H4)]
 Deg. of freedom     6
 Full point group                 C2V
 Largest Abelian subgroup         C2V     NOp   4
 Largest concise Abelian subgroup C2V     NOp   4
                         Standard orientation:                         
 ---------------------------------------------------------------------
 Center     Atomic     Atomic              Coordinates (Angstroms)
 Number     Number      Type              X           Y           Z
 ---------------------------------------------------------------------
    1          6             0        0.000000    0.771354    0.615059
    2          6             0        0.000000   -0.771354    0.615059
    3          9             0        0.000000   -1.257406   -0.655201
    4          1             0        0.874497   -1.171439    1.103228
    5          1             0       -0.874497   -1.171439    1.103228
    6          9             0        0.000000    1.257406   -0.655201
    7          1             0       -0.874497    1.171439    1.103228
    8          1             0        0.874497    1.171439    1.103228
 ---------------------------------------------------------------------
 Rotational constants (GHZ):     15.3655298      6.0910852      4.6071339
 Standard basis: 6-31G(d) (6D, 7F)
 There are    24 symmetry adapted basis functions of A1  symmetry.
 There are    10 symmetry adapted basis functions of A2  symmetry.
 There are    10 symmetry adapted basis functions of B1  symmetry.
 There are    24 symmetry adapted basis functions of B2  symmetry.
 Integral buffers will be    131072 words long.
 Raffenetti 1 integral format.
 Two-electron integral symmetry is turned on.
    68 basis functions,   128 primitive gaussians,    68 cartesian basis functions
    17 alpha electrons       17 beta electrons
       nuclear repulsion energy       130.0855427515 Hartrees.
 NAtoms=    8 NActive=    8 NUniq=    3 SFac= 3.00D+00 NAtFMM=   80 NAOKFM=F Big=F
 One-electron integrals computed using PRISM.
 NBasis=    68 RedAO= T  NBF=    24    10    10    24
 NBsUse=    68 1.00D-06 NBFU=    24    10    10    24
 Initial guess read from the read-write file:
 Initial guess orbital symmetries:
       Occupied  (B2) (A1) (A1) (B2) (A1) (B2) (A1) (B2) (B1) (A1)
                 (A1) (A2) (B2) (B2) (B1) (A1) (A2)
       Virtual   (A1) (B1) (A1) (B2) (A2) (B2) (B2) (A1) (B1) (A1)
                 (B2) (B2) (A1) (A2) (B1) (A1) (A2) (B2) (B2) (A1)
                 (A1) (B1) (B2) (A1) (B1) (A2) (B2) (A1) (B2) (A1)
                 (A2) (B1) (A2) (A1) (B2) (B2) (A1) (B1) (B2) (A1)
                 (A2) (B1) (B2) (A2) (B2) (A1) (B2) (A1) (A1) (B2)
                 (B2)
 Harris functional with IExCor=  205 diagonalized for initial guess.
 ExpMin= 1.61D-01 ExpMax= 7.00D+03 ExpMxC= 1.05D+03 IAcc=1 IRadAn=         1 AccDes= 1.00D-06
 HarFok:  IExCor= 205 AccDes= 1.00D-06 IRadAn=         1 IDoV=1
 ScaDFX=  1.000000  1.000000  1.000000  1.000000
 Requested convergence on RMS density matrix=1.00D-08 within 128 cycles.
 Requested convergence on MAX density matrix=1.00D-06.
 Requested convergence on             energy=1.00D-06.
 No special actions if energy rises.
 Keep R1 integrals in memory in canonical form, NReq=     3771655.
 SCF Done:  E(RHF) =  -276.909085187     A.U. after   10 cycles
             Convg  =    0.6583D-08             -V/T =  2.0012
             S**2   =   0.0000
 ***** Axes restored to original set *****
 -------------------------------------------------------------------
 Center     Atomic                   Forces (Hartrees/Bohr)
 Number     Number              X              Y              Z
 -------------------------------------------------------------------
    1          6           0.003225051    0.000000000   -0.002052223
    2          6           0.003225051    0.000000000    0.002052223
    3          9           0.003258931    0.000000000   -0.002837205
    4          1          -0.003241991    0.002370685   -0.001728804
    5          1          -0.003241991   -0.002370685   -0.001728804
    6          9           0.003258931    0.000000000    0.002837205
    7          1          -0.003241991   -0.002370685    0.001728804
    8          1          -0.003241991    0.002370685    0.001728804
 -------------------------------------------------------------------
 Cartesian Forces:  Max     0.003258931 RMS     0.002441341

 GradGradGradGradGradGradGradGradGradGradGradGradGradGradGradGradGradGrad
 Berny optimization.
 Internal  Forces:  Max     0.005124379 RMS     0.002828478
 Search for a local minimum.
 Step number   2 out of a maximum of  38
 All quantities printed in internal units (Hartrees-Bohrs-Radians)
 Update second derivatives using D2CorX and points  1  2
 Trust test= 8.05D-01 RLast= 2.02D-01 DXMaxT set to 4.24D-01
     Eigenvalues ---    0.00255   0.05445   0.05445   0.05545   0.05695
     Eigenvalues ---    0.16000   0.16000   0.16000   0.17059   0.22233
     Eigenvalues ---    0.23103   0.28424   0.32122   0.32122   0.32122
     Eigenvalues ---    0.35371   0.46524   0.467231000.000001000.00000
     Eigenvalues --- 1000.000001000.000001000.000001000.000001000.00000
     Eigenvalues --- 1000.000001000.000001000.00000
 RFO step:  Lambda=-4.41229726D-04.
 Quartic linear search produced a step of -0.15221.
 Iteration  1 RMS(Cart)=  0.01818758 RMS(Int)=  0.00015096
 Iteration  2 RMS(Cart)=  0.00017250 RMS(Int)=  0.00003013
 Iteration  3 RMS(Cart)=  0.00000001 RMS(Int)=  0.00003013
 Variable       Old X    -DE/DX   Delta X   Delta X   Delta X     New X
                                 (Linear)    (Quad)   (Total)
    R1        2.91530  -0.00424  -0.00118  -0.01089  -0.01207   2.90323
    R2        2.57017   0.00203   0.00994  -0.00967   0.00027   2.57044
    R3        2.03803   0.00275   0.01038  -0.00709   0.00329   2.04132
    R4        2.03803   0.00275   0.01038  -0.00709   0.00329   2.04132
    R5        2.57017   0.00203   0.00994  -0.00967   0.00027   2.57044
    R6        2.03803   0.00275   0.01038  -0.00709   0.00329   2.04132
    R7        2.03803   0.00275   0.01038  -0.00709   0.00329   2.04132
    A1        1.93625  -0.00512  -0.00371  -0.01171  -0.01546   1.92079
    A2        1.95085  -0.00255  -0.00447  -0.00960  -0.01412   1.93673
    A3        1.95085  -0.00255  -0.00447  -0.00960  -0.01412   1.93673
    A4        1.86521   0.00441   0.00599   0.01487   0.02083   1.88604
    A5        1.86521   0.00441   0.00599   0.01487   0.02083   1.88604
    A6        1.89124   0.00213   0.00128   0.00354   0.00476   1.89600
    A7        1.93625  -0.00512  -0.00371  -0.01171  -0.01546   1.92079
    A8        1.95085  -0.00255  -0.00447  -0.00960  -0.01412   1.93673
    A9        1.95085  -0.00255  -0.00447  -0.00960  -0.01412   1.93673
   A10        1.86521   0.00441   0.00599   0.01487   0.02083   1.88604
   A11        1.86521   0.00441   0.00599   0.01487   0.02083   1.88604
   A12        1.89124   0.00213   0.00128   0.00354   0.00476   1.89600
    D1        0.00000   0.00000   0.00000   0.00000   0.00000   0.00000
    D2        2.07993   0.00044   0.00220   0.00459   0.00678   2.08671
    D3       -2.07993  -0.00044  -0.00220  -0.00459  -0.00678  -2.08671
    D4        2.07993   0.00044   0.00220   0.00459   0.00678   2.08671
    D5       -2.12332   0.00089   0.00440   0.00917   0.01356  -2.10976
    D6        0.00000   0.00000   0.00000   0.00000   0.00000   0.00000
    D7       -2.07993  -0.00044  -0.00220  -0.00459  -0.00678  -2.08671
    D8        0.00000   0.00000   0.00000   0.00000   0.00000   0.00000
    D9        2.12332  -0.00089  -0.00440  -0.00917  -0.01356   2.10976
         Item               Value     Threshold  Converged?
 Maximum Force            0.005124     0.000450     NO 
 RMS     Force            0.002828     0.000300     NO 
 Maximum Displacement     0.043151     0.001800     NO 
 RMS     Displacement     0.018297     0.001200     NO 
 Predicted change in Energy=-4.229655D-04
 GradGradGradGradGradGradGradGradGradGradGradGradGradGradGradGradGradGrad

                          Input orientation:                          
 ---------------------------------------------------------------------
 Center     Atomic     Atomic              Coordinates (Angstroms)
 Number     Number      Type              X           Y           Z
 ---------------------------------------------------------------------
    1          6             0       -0.003737    0.000000    0.001139
    2          6             0       -0.003737    0.000000    1.537461
    3          9             0        1.274017    0.000000    2.003872
    4          1             0       -0.501362    0.877410    1.923983
    5          1             0       -0.501362   -0.877410    1.923983
    6          9             0        1.274017    0.000000   -0.465272
    7          1             0       -0.501362   -0.877410   -0.385383
    8          1             0       -0.501362    0.877410   -0.385383
 ---------------------------------------------------------------------
                    Distance matrix (angstroms):
                    1          2          3          4          5
     1  C    0.000000
     2  C    1.536322   0.000000
     3  F    2.375625   1.360218   0.000000
     4  H    2.171361   1.080222   1.981969   0.000000
     5  H    2.171361   1.080222   1.981969   1.754819   0.000000
     6  F    1.360218   2.375625   2.469144   3.103282   3.103282
     7  H    1.080222   2.171361   3.103282   2.900443   2.309367
     8  H    1.080222   2.171361   3.103282   2.309367   2.900443
                    6          7          8
     6  F    0.000000
     7  H    1.981969   0.000000
     8  H    1.981969   1.754819   0.000000
 Stoichiometry    C2H4F2
 Framework group  C2V[SGV(C2F2),X(H4)]
 Deg. of freedom     6
 Full point group                 C2V
 Largest Abelian subgroup         C2V     NOp   4
 Largest concise Abelian subgroup C2V     NOp   4
                         Standard orientation:                         
 ---------------------------------------------------------------------
 Center     Atomic     Atomic              Coordinates (Angstroms)
 Number     Number      Type              X           Y           Z
 ---------------------------------------------------------------------
    1          6             0        0.000000    0.768161    0.617914
    2          6             0        0.000000   -0.768161    0.617914
    3          9             0        0.000000   -1.234572   -0.659840
    4          1             0        0.877410   -1.154683    1.115539
    5          1             0       -0.877410   -1.154683    1.115539
    6          9             0        0.000000    1.234572   -0.659840
    7          1             0       -0.877410    1.154683    1.115539
    8          1             0        0.877410    1.154683    1.115539
 ---------------------------------------------------------------------
 Rotational constants (GHZ):     15.1641035      6.2738214      4.6936044
 Standard basis: 6-31G(d) (6D, 7F)
 There are    24 symmetry adapted basis functions of A1  symmetry.
 There are    10 symmetry adapted basis functions of A2  symmetry.
 There are    10 symmetry adapted basis functions of B1  symmetry.
 There are    24 symmetry adapted basis functions of B2  symmetry.
 Integral buffers will be    131072 words long.
 Raffenetti 1 integral format.
 Two-electron integral symmetry is turned on.
    68 basis functions,   128 primitive gaussians,    68 cartesian basis functions
    17 alpha electrons       17 beta electrons
       nuclear repulsion energy       130.6160372462 Hartrees.
 NAtoms=    8 NActive=    8 NUniq=    3 SFac= 3.00D+00 NAtFMM=   80 NAOKFM=F Big=F
 One-electron integrals computed using PRISM.
 NBasis=    68 RedAO= T  NBF=    24    10    10    24
 NBsUse=    68 1.00D-06 NBFU=    24    10    10    24
 Initial guess read from the read-write file:
 Initial guess orbital symmetries:
       Occupied  (B2) (A1) (A1) (B2) (A1) (B2) (A1) (B2) (B1) (A1)
                 (A1) (A2) (B2) (B2) (B1) (A1) (A2)
       Virtual   (A1) (B1) (A1) (B2) (A2) (B2) (B2) (B1) (A1) (A1)
                 (B2) (B2) (A1) (A2) (B1) (A2) (A1) (B2) (B2) (A1)
                 (A1) (B1) (B2) (A1) (B1) (A2) (B2) (B2) (A1) (A2)
                 (A1) (B1) (A2) (B2) (A1) (B2) (A1) (B1) (B2) (A1)
                 (B1) (A2) (B2) (A2) (B2) (A1) (B2) (A1) (A1) (B2)
                 (B2)
 Harris functional with IExCor=  205 diagonalized for initial guess.
 ExpMin= 1.61D-01 ExpMax= 7.00D+03 ExpMxC= 1.05D+03 IAcc=1 IRadAn=         1 AccDes= 1.00D-06
 HarFok:  IExCor= 205 AccDes= 1.00D-06 IRadAn=         1 IDoV=1
 ScaDFX=  1.000000  1.000000  1.000000  1.000000
 Requested convergence on RMS density matrix=1.00D-08 within 128 cycles.
 Requested convergence on MAX density matrix=1.00D-06.
 Requested convergence on             energy=1.00D-06.
 No special actions if energy rises.
 Keep R1 integrals in memory in canonical form, NReq=     3771655.
 SCF Done:  E(RHF) =  -276.909416508     A.U. after   10 cycles
             Convg  =    0.2286D-08             -V/T =  2.0013
             S**2   =   0.0000
 ***** Axes restored to original set *****
 -------------------------------------------------------------------
 Center     Atomic                   Forces (Hartrees/Bohr)
 Number     Number              X              Y              Z
 -------------------------------------------------------------------
    1          6           0.001692769    0.000000000   -0.000729413
    2          6           0.001692769    0.000000000    0.000729413
    3          9          -0.000551680    0.000000000    0.000980466
    4          1          -0.000570545    0.001006697    0.000886193
    5          1          -0.000570545   -0.001006697    0.000886193
    6          9          -0.000551680    0.000000000   -0.000980466
    7          1          -0.000570545   -0.001006697   -0.000886193
    8          1          -0.000570545    0.001006697   -0.000886193
 -------------------------------------------------------------------
 Cartesian Forces:  Max     0.001692769 RMS     0.000861770

 GradGradGradGradGradGradGradGradGradGradGradGradGradGradGradGradGradGrad
 Berny optimization.
 Internal  Forces:  Max     0.003482264 RMS     0.001056432
 Search for a local minimum.
 Step number   3 out of a maximum of  38
 All quantities printed in internal units (Hartrees-Bohrs-Radians)
 Update second derivatives using D2CorX and points  1  2  3
 Trust test= 7.83D-01 RLast= 6.16D-02 DXMaxT set to 4.24D-01
     Eigenvalues ---    0.00255   0.05578   0.05578   0.05702   0.05715
     Eigenvalues ---    0.16000   0.16000   0.16000   0.16865   0.22313
     Eigenvalues ---    0.25264   0.32122   0.32122   0.32122   0.33370
     Eigenvalues ---    0.37476   0.46524   0.481141000.000001000.00000
     Eigenvalues --- 1000.000001000.000001000.000001000.000001000.00000
     Eigenvalues --- 1000.000001000.000001000.00000
 RFO step:  Lambda=-6.09512737D-05.
 Quartic linear search produced a step of -0.16093.
 Iteration  1 RMS(Cart)=  0.00566215 RMS(Int)=  0.00001740
 Iteration  2 RMS(Cart)=  0.00001071 RMS(Int)=  0.00001174
 Iteration  3 RMS(Cart)=  0.00000000 RMS(Int)=  0.00001174
 Variable       Old X    -DE/DX   Delta X   Delta X   Delta X     New X
                                 (Linear)    (Quad)   (Total)
    R1        2.90323   0.00348   0.00194   0.00689   0.00883   2.91206
    R2        2.57044  -0.00018  -0.00004   0.00018   0.00014   2.57058
    R3        2.04132   0.00140  -0.00053   0.00471   0.00418   2.04550
    R4        2.04132   0.00140  -0.00053   0.00471   0.00418   2.04550
    R5        2.57044  -0.00018  -0.00004   0.00018   0.00014   2.57058
    R6        2.04132   0.00140  -0.00053   0.00471   0.00418   2.04550
    R7        2.04132   0.00140  -0.00053   0.00471   0.00418   2.04550
    A1        1.92079   0.00188   0.00249   0.00337   0.00586   1.92665
    A2        1.93673   0.00015   0.00227  -0.00263  -0.00034   1.93639
    A3        1.93673   0.00015   0.00227  -0.00263  -0.00034   1.93639
    A4        1.88604  -0.00094  -0.00335   0.00212  -0.00123   1.88481
    A5        1.88604  -0.00094  -0.00335   0.00212  -0.00123   1.88481
    A6        1.89600  -0.00040  -0.00077  -0.00216  -0.00290   1.89310
    A7        1.92079   0.00188   0.00249   0.00337   0.00586   1.92665
    A8        1.93673   0.00015   0.00227  -0.00263  -0.00034   1.93639
    A9        1.93673   0.00015   0.00227  -0.00263  -0.00034   1.93639
   A10        1.88604  -0.00094  -0.00335   0.00212  -0.00123   1.88481
   A11        1.88604  -0.00094  -0.00335   0.00212  -0.00123   1.88481
   A12        1.89600  -0.00040  -0.00077  -0.00216  -0.00290   1.89310
    D1        0.00000   0.00000   0.00000   0.00000   0.00000   0.00000
    D2        2.08671   0.00015  -0.00109   0.00315   0.00206   2.08877
    D3       -2.08671  -0.00015   0.00109  -0.00315  -0.00206  -2.08877
    D4        2.08671   0.00015  -0.00109   0.00315   0.00206   2.08877
    D5       -2.10976   0.00029  -0.00218   0.00629   0.00412  -2.10564
    D6        0.00000   0.00000   0.00000   0.00000   0.00000   0.00000
    D7       -2.08671  -0.00015   0.00109  -0.00315  -0.00206  -2.08877
    D8        0.00000   0.00000   0.00000   0.00000   0.00000   0.00000
    D9        2.10976  -0.00029   0.00218  -0.00629  -0.00412   2.10564
         Item               Value     Threshold  Converged?
 Maximum Force            0.003482     0.000450     NO 
 RMS     Force            0.001056     0.000300     NO 
 Maximum Displacement     0.018601     0.001800     NO 
 RMS     Displacement     0.005656     0.001200     NO 
 Predicted change in Energy=-4.329932D-05
 GradGradGradGradGradGradGradGradGradGradGradGradGradGradGradGradGradGrad

                          Input orientation:                          
 ---------------------------------------------------------------------
 Center     Atomic     Atomic              Coordinates (Angstroms)
 Number     Number      Type              X           Y           Z
 ---------------------------------------------------------------------
    1          6             0       -0.001618    0.000000   -0.001197
    2          6             0       -0.001618    0.000000    1.539797
    3          9             0        1.273449    0.000000    2.013715
    4          1             0       -0.502138    0.878289    1.926769
    5          1             0       -0.502138   -0.878289    1.926769
    6          9             0        1.273449    0.000000   -0.475115
    7          1             0       -0.502138   -0.878289   -0.388169
    8          1             0       -0.502138    0.878289   -0.388169
 ---------------------------------------------------------------------
                    Distance matrix (angstroms):
                    1          2          3          4          5
     1  C    0.000000
     2  C    1.540993   0.000000
     3  F    2.384463   1.360293   0.000000
     4  H    2.176916   1.082432   1.982842   0.000000
     5  H    2.176916   1.082432   1.982842   1.756578   0.000000
     6  F    1.360293   2.384463   2.488830   3.113382   3.113382
     7  H    1.082432   2.176916   3.113382   2.905944   2.314939
     8  H    1.082432   2.176916   3.113382   2.314939   2.905944
                    6          7          8
     6  F    0.000000
     7  H    1.982842   0.000000
     8  H    1.982842   1.756578   0.000000
 Stoichiometry    C2H4F2
 Framework group  C2V[SGV(C2F2),X(H4)]
 Deg. of freedom     6
 Full point group                 C2V
 Largest Abelian subgroup         C2V     NOp   4
 Largest concise Abelian subgroup C2V     NOp   4
                         Standard orientation:                         
 ---------------------------------------------------------------------
 Center     Atomic     Atomic              Coordinates (Angstroms)
 Number     Number      Type              X           Y           Z
 ---------------------------------------------------------------------
    1          6             0        0.000000    0.770497    0.616151
    2          6             0        0.000000   -0.770497    0.616151
    3          9             0        0.000000   -1.244415   -0.658916
    4          1             0        0.878289   -1.157469    1.116670
    5          1             0       -0.878289   -1.157469    1.116670
    6          9             0        0.000000    1.244415   -0.658916
    7          1             0       -0.878289    1.157469    1.116670
    8          1             0        0.878289    1.157469    1.116670
 ---------------------------------------------------------------------
 Rotational constants (GHZ):     15.2017535      6.1934303      4.6525296
 Standard basis: 6-31G(d) (6D, 7F)
 There are    24 symmetry adapted basis functions of A1  symmetry.
 There are    10 symmetry adapted basis functions of A2  symmetry.
 There are    10 symmetry adapted basis functions of B1  symmetry.
 There are    24 symmetry adapted basis functions of B2  symmetry.
 Integral buffers will be    131072 words long.
 Raffenetti 1 integral format.
 Two-electron integral symmetry is turned on.
    68 basis functions,   128 primitive gaussians,    68 cartesian basis functions
    17 alpha electrons       17 beta electrons
       nuclear repulsion energy       130.2841947464 Hartrees.
 NAtoms=    8 NActive=    8 NUniq=    3 SFac= 3.00D+00 NAtFMM=   80 NAOKFM=F Big=F
 One-electron integrals computed using PRISM.
 NBasis=    68 RedAO= T  NBF=    24    10    10    24
 NBsUse=    68 1.00D-06 NBFU=    24    10    10    24
 Initial guess read from the read-write file:
 Initial guess orbital symmetries:
       Occupied  (B2) (A1) (A1) (B2) (A1) (B2) (A1) (B2) (B1) (A1)
                 (A1) (A2) (B2) (B2) (B1) (A1) (A2)
       Virtual   (A1) (B1) (A1) (B2) (A2) (B2) (B2) (B1) (A1) (A1)
                 (B2) (B2) (A2) (A1) (B1) (A1) (A2) (B2) (B2) (A1)
                 (A1) (B1) (B2) (A1) (B1) (A2) (B2) (A1) (B2) (A1)
                 (A2) (B1) (A2) (A1) (B2) (B2) (A1) (B1) (B2) (A1)
                 (B1) (A2) (B2) (A2) (B2) (A1) (B2) (A1) (A1) (B2)
                 (B2)
 Requested convergence on RMS density matrix=1.00D-08 within 128 cycles.
 Requested convergence on MAX density matrix=1.00D-06.
 Requested convergence on             energy=1.00D-06.
 No special actions if energy rises.
 Keep R1 integrals in memory in canonical form, NReq=     3771655.
 SCF Done:  E(RHF) =  -276.909453701     A.U. after    9 cycles
             Convg  =    0.5708D-08             -V/T =  2.0013
             S**2   =   0.0000
 ***** Axes restored to original set *****
 -------------------------------------------------------------------
 Center     Atomic                   Forces (Hartrees/Bohr)
 Number     Number              X              Y              Z
 -------------------------------------------------------------------
    1          6           0.000159044    0.000000000   -0.000175560
    2          6           0.000159044    0.000000000    0.000175560
    3          9          -0.000518376    0.000000000   -0.000337564
    4          1           0.000179666   -0.000133223   -0.000041386
    5          1           0.000179666    0.000133223   -0.000041386
    6          9          -0.000518376    0.000000000    0.000337564
    7          1           0.000179666    0.000133223    0.000041386
    8          1           0.000179666   -0.000133223    0.000041386
 -------------------------------------------------------------------
 Cartesian Forces:  Max     0.000518376 RMS     0.000212576

 GradGradGradGradGradGradGradGradGradGradGradGradGradGradGradGradGradGrad
 Berny optimization.
 Internal  Forces:  Max     0.000603504 RMS     0.000210574
 Search for a local minimum.
 Step number   4 out of a maximum of  38
 All quantities printed in internal units (Hartrees-Bohrs-Radians)
 Update second derivatives using D2CorX and points  1  2  3  4
 Trust test= 8.59D-01 RLast= 1.71D-02 DXMaxT set to 4.24D-01
     Eigenvalues ---    0.00255   0.05537   0.05537   0.05719   0.05909
     Eigenvalues ---    0.16000   0.16000   0.16000   0.16858   0.22305
     Eigenvalues ---    0.24848   0.32122   0.32122   0.32122   0.33380
     Eigenvalues ---    0.41538   0.46524   0.472261000.000001000.00000
     Eigenvalues --- 1000.000001000.000001000.000001000.000001000.00000
     Eigenvalues --- 1000.000001000.000001000.00000
 RFO step:  Lambda=-2.05739162D-06.
 Quartic linear search produced a step of -0.11836.
 Iteration  1 RMS(Cart)=  0.00109719 RMS(Int)=  0.00000075
 Iteration  2 RMS(Cart)=  0.00000075 RMS(Int)=  0.00000034
 Variable       Old X    -DE/DX   Delta X   Delta X   Delta X     New X
                                 (Linear)    (Quad)   (Total)
    R1        2.91206  -0.00024  -0.00104   0.00065  -0.00039   2.91166
    R2        2.57058  -0.00060  -0.00002  -0.00114  -0.00115   2.56943
    R3        2.04550  -0.00021  -0.00049   0.00010  -0.00039   2.04511
    R4        2.04550  -0.00021  -0.00049   0.00010  -0.00039   2.04511
    R5        2.57058  -0.00060  -0.00002  -0.00114  -0.00115   2.56943
    R6        2.04550  -0.00021  -0.00049   0.00010  -0.00039   2.04511
    R7        2.04550  -0.00021  -0.00049   0.00010  -0.00039   2.04511
    A1        1.92665  -0.00030  -0.00069  -0.00053  -0.00122   1.92543
    A2        1.93639   0.00010   0.00004   0.00054   0.00058   1.93696
    A3        1.93639   0.00010   0.00004   0.00054   0.00058   1.93696
    A4        1.88481   0.00005   0.00015  -0.00046  -0.00032   1.88449
    A5        1.88481   0.00005   0.00015  -0.00046  -0.00032   1.88449
    A6        1.89310   0.00000   0.00034   0.00035   0.00069   1.89379
    A7        1.92665  -0.00030  -0.00069  -0.00053  -0.00122   1.92543
    A8        1.93639   0.00010   0.00004   0.00054   0.00058   1.93696
    A9        1.93639   0.00010   0.00004   0.00054   0.00058   1.93696
   A10        1.88481   0.00005   0.00015  -0.00046  -0.00032   1.88449
   A11        1.88481   0.00005   0.00015  -0.00046  -0.00032   1.88449
   A12        1.89310   0.00000   0.00034   0.00035   0.00069   1.89379
    D1        0.00000   0.00000   0.00000   0.00000   0.00000   0.00000
    D2        2.08877  -0.00007  -0.00024  -0.00058  -0.00082   2.08795
    D3       -2.08877   0.00007   0.00024   0.00058   0.00082  -2.08795
    D4        2.08877  -0.00007  -0.00024  -0.00058  -0.00082   2.08795
    D5       -2.10564  -0.00014  -0.00049  -0.00116  -0.00165  -2.10729
    D6        0.00000   0.00000   0.00000   0.00000   0.00000   0.00000
    D7       -2.08877   0.00007   0.00024   0.00058   0.00082  -2.08795
    D8        0.00000   0.00000   0.00000   0.00000   0.00000   0.00000
    D9        2.10564   0.00014   0.00049   0.00116   0.00165   2.10729
         Item               Value     Threshold  Converged?
 Maximum Force            0.000604     0.000450     NO 
 RMS     Force            0.000211     0.000300     YES
 Maximum Displacement     0.003544     0.001800     NO 
 RMS     Displacement     0.001097     0.001200     YES
 Predicted change in Energy=-1.681668D-06
 GradGradGradGradGradGradGradGradGradGradGradGradGradGradGradGradGradGrad

                          Input orientation:                          
 ---------------------------------------------------------------------
 Center     Atomic     Atomic              Coordinates (Angstroms)
 Number     Number      Type              X           Y           Z
 ---------------------------------------------------------------------
    1          6             0       -0.002085    0.000000   -0.001093
    2          6             0       -0.002085    0.000000    1.539693
    3          9             0        1.272989    0.000000    2.011839
    4          1             0       -0.501674    0.878340    1.927172
    5          1             0       -0.501674   -0.878340    1.927172
    6          9             0        1.272989    0.000000   -0.473239
    7          1             0       -0.501674   -0.878340   -0.388572
    8          1             0       -0.501674    0.878340   -0.388572
 ---------------------------------------------------------------------
                    Distance matrix (angstroms):
                    1          2          3          4          5
     1  C    0.000000
     2  C    1.540785   0.000000
     3  F    2.382794   1.359682   0.000000
     4  H    2.176988   1.082225   1.981938   0.000000
     5  H    2.176988   1.082225   1.981938   1.756681   0.000000
     6  F    1.359682   2.382794   2.485079   3.111734   3.111734
     7  H    1.082225   2.176988   3.111734   2.906648   2.315745
     8  H    1.082225   2.176988   3.111734   2.315745   2.906648
                    6          7          8
     6  F    0.000000
     7  H    1.981938   0.000000
     8  H    1.981938   1.756681   0.000000
 Stoichiometry    C2H4F2
 Framework group  C2V[SGV(C2F2),X(H4)]
 Deg. of freedom     6
 Full point group                 C2V
 Largest Abelian subgroup         C2V     NOp   4
 Largest concise Abelian subgroup C2V     NOp   4
                         Standard orientation:                         
 ---------------------------------------------------------------------
 Center     Atomic     Atomic              Coordinates (Angstroms)
 Number     Number      Type              X           Y           Z
 ---------------------------------------------------------------------
    1          6             0        0.000000    0.770393    0.616264
    2          6             0        0.000000   -0.770393    0.616264
    3          9             0        0.000000   -1.242539   -0.658810
    4          1             0        0.878340   -1.157872    1.115853
    5          1             0       -0.878340   -1.157872    1.115853
    6          9             0        0.000000    1.242539   -0.658810
    7          1             0       -0.878340    1.157872    1.115853
    8          1             0        0.878340    1.157872    1.115853
 ---------------------------------------------------------------------
 Rotational constants (GHZ):     15.2055949      6.2068895      4.6605127
 Standard basis: 6-31G(d) (6D, 7F)
 There are    24 symmetry adapted basis functions of A1  symmetry.
 There are    10 symmetry adapted basis functions of A2  symmetry.
 There are    10 symmetry adapted basis functions of B1  symmetry.
 There are    24 symmetry adapted basis functions of B2  symmetry.
 Integral buffers will be    131072 words long.
 Raffenetti 1 integral format.
 Two-electron integral symmetry is turned on.
    68 basis functions,   128 primitive gaussians,    68 cartesian basis functions
    17 alpha electrons       17 beta electrons
       nuclear repulsion energy       130.3568985484 Hartrees.
 NAtoms=    8 NActive=    8 NUniq=    3 SFac= 3.00D+00 NAtFMM=   80 NAOKFM=F Big=F
 One-electron integrals computed using PRISM.
 NBasis=    68 RedAO= T  NBF=    24    10    10    24
 NBsUse=    68 1.00D-06 NBFU=    24    10    10    24
 Initial guess read from the read-write file:
 Initial guess orbital symmetries:
       Occupied  (B2) (A1) (A1) (B2) (A1) (B2) (A1) (B2) (B1) (A1)
                 (A1) (A2) (B2) (B2) (B1) (A1) (A2)
       Virtual   (A1) (B1) (A1) (B2) (A2) (B2) (B2) (B1) (A1) (A1)
                 (B2) (B2) (A2) (A1) (B1) (A2) (A1) (B2) (B2) (A1)
                 (A1) (B1) (B2) (A1) (B1) (A2) (B2) (B2) (A1) (A1)
                 (A2) (B1) (A2) (A1) (B2) (B2) (A1) (B1) (B2) (A1)
                 (B1) (A2) (B2) (A2) (B2) (A1) (B2) (A1) (A1) (B2)
                 (B2)
 Requested convergence on RMS density matrix=1.00D-08 within 128 cycles.
 Requested convergence on MAX density matrix=1.00D-06.
 Requested convergence on             energy=1.00D-06.
 No special actions if energy rises.
 Keep R1 integrals in memory in canonical form, NReq=     3771655.
 SCF Done:  E(RHF) =  -276.909455272     A.U. after    8 cycles
             Convg  =    0.4181D-08             -V/T =  2.0013
             S**2   =   0.0000
 ***** Axes restored to original set *****
 -------------------------------------------------------------------
 Center     Atomic                   Forces (Hartrees/Bohr)
 Number     Number              X              Y              Z
 -------------------------------------------------------------------
    1          6          -0.000018744    0.000000000   -0.000036860
    2          6          -0.000018744    0.000000000    0.000036860
    3          9           0.000030954    0.000000000    0.000016271
    4          1          -0.000006105   -0.000047743   -0.000021977
    5          1          -0.000006105    0.000047743   -0.000021977
    6          9           0.000030954    0.000000000   -0.000016271
    7          1          -0.000006105    0.000047743    0.000021977
    8          1          -0.000006105   -0.000047743    0.000021977
 -------------------------------------------------------------------
 Cartesian Forces:  Max     0.000047743 RMS     0.000026665

 GradGradGradGradGradGradGradGradGradGradGradGradGradGradGradGradGradGrad
 Berny optimization.
 Internal  Forces:  Max     0.000043799 RMS     0.000022775
 Search for a local minimum.
 Step number   5 out of a maximum of  38
 All quantities printed in internal units (Hartrees-Bohrs-Radians)
 Update second derivatives using D2CorX and points  1  2  3  4  5

 Trust test= 9.34D-01 RLast= 4.16D-03 DXMaxT set to 4.24D-01
     Eigenvalues ---    0.00255   0.05544   0.05544   0.05712   0.06427
     Eigenvalues ---    0.16000   0.16000   0.16000   0.17005   0.22304
     Eigenvalues ---    0.24833   0.32122   0.32122   0.32122   0.33077
     Eigenvalues ---    0.41199   0.46524   0.469931000.000001000.00000
     Eigenvalues --- 1000.000001000.000001000.000001000.000001000.00000
     Eigenvalues --- 1000.000001000.000001000.00000
 RFO step:  Lambda=-6.15414969D-08.
 Quartic linear search produced a step of -0.07031.
 Iteration  1 RMS(Cart)=  0.00016793 RMS(Int)=  0.00000002
 Iteration  2 RMS(Cart)=  0.00000002 RMS(Int)=  0.00000001
 Variable       Old X    -DE/DX   Delta X   Delta X   Delta X     New X
                                 (Linear)    (Quad)   (Total)
    R1        2.91166   0.00001   0.00003   0.00000   0.00003   2.91169
    R2        2.56943   0.00003   0.00008  -0.00005   0.00003   2.56946
    R3        2.04511  -0.00004   0.00003  -0.00017  -0.00014   2.04497
    R4        2.04511  -0.00004   0.00003  -0.00017  -0.00014   2.04497
    R5        2.56943   0.00003   0.00008  -0.00005   0.00003   2.56946
    R6        2.04511  -0.00004   0.00003  -0.00017  -0.00014   2.04497
    R7        2.04511  -0.00004   0.00003  -0.00017  -0.00014   2.04497
    A1        1.92543   0.00002   0.00009   0.00004   0.00013   1.92556
    A2        1.93696  -0.00001  -0.00004  -0.00006  -0.00010   1.93687
    A3        1.93696  -0.00001  -0.00004  -0.00006  -0.00010   1.93687
    A4        1.88449   0.00001   0.00002   0.00012   0.00014   1.88464
    A5        1.88449   0.00001   0.00002   0.00012   0.00014   1.88464
    A6        1.89379  -0.00001  -0.00005  -0.00016  -0.00021   1.89358
    A7        1.92543   0.00002   0.00009   0.00004   0.00013   1.92556
    A8        1.93696  -0.00001  -0.00004  -0.00006  -0.00010   1.93687
    A9        1.93696  -0.00001  -0.00004  -0.00006  -0.00010   1.93687
   A10        1.88449   0.00001   0.00002   0.00012   0.00014   1.88464
   A11        1.88449   0.00001   0.00002   0.00012   0.00014   1.88464
   A12        1.89379  -0.00001  -0.00005  -0.00016  -0.00021   1.89358
    D1        0.00000   0.00000   0.00000   0.00000   0.00000   0.00000
    D2        2.08795   0.00001   0.00006   0.00014   0.00020   2.08815
    D3       -2.08795  -0.00001  -0.00006  -0.00014  -0.00020  -2.08815
    D4        2.08795   0.00001   0.00006   0.00014   0.00020   2.08815
    D5       -2.10729   0.00003   0.00012   0.00028   0.00040  -2.10689
    D6        0.00000   0.00000   0.00000   0.00000   0.00000   0.00000
    D7       -2.08795  -0.00001  -0.00006  -0.00014  -0.00020  -2.08815
    D8        0.00000   0.00000   0.00000   0.00000   0.00000   0.00000
    D9        2.10729  -0.00003  -0.00012  -0.00028  -0.00040   2.10689
         Item               Value     Threshold  Converged?
 Maximum Force            0.000044     0.000450     YES
 RMS     Force            0.000023     0.000300     YES
 Maximum Displacement     0.000327     0.001800     YES
 RMS     Displacement     0.000168     0.001200     YES
 Predicted change in Energy=-3.990053D-08
 Optimization completed.
    -- Stationary point found.
                           ----------------------------
                           !   Optimized Parameters   !
                           ! (Angstroms and Degrees)  !
 --------------------------                            --------------------------
 ! Name  Definition              Value          Derivative Info.                !
 --------------------------------------------------------------------------------
 ! R1    R(1,2)                  1.5408         -DE/DX =    0.0                 !
 ! R2    R(1,6)                  1.3597         -DE/DX =    0.0                 !
 ! R3    R(1,7)                  1.0822         -DE/DX =    0.0                 !
 ! R4    R(1,8)                  1.0822         -DE/DX =    0.0                 !
 ! R5    R(2,3)                  1.3597         -DE/DX =    0.0                 !
 ! R6    R(2,4)                  1.0822         -DE/DX =    0.0                 !
 ! R7    R(2,5)                  1.0822         -DE/DX =    0.0                 !
 ! A1    A(2,1,6)              110.3191         -DE/DX =    0.0                 !
 ! A2    A(2,1,7)              110.9799         -DE/DX =    0.0                 !
 ! A3    A(2,1,8)              110.9799         -DE/DX =    0.0                 !
 ! A4    A(6,1,7)              107.9735         -DE/DX =    0.0                 !
 ! A5    A(6,1,8)              107.9735         -DE/DX =    0.0                 !
 ! A6    A(7,1,8)              108.5062         -DE/DX =    0.0                 !
 ! A7    A(1,2,3)              110.3191         -DE/DX =    0.0                 !
 ! A8    A(1,2,4)              110.9799         -DE/DX =    0.0                 !
 ! A9    A(1,2,5)              110.9799         -DE/DX =    0.0                 !
 ! A10   A(3,2,4)              107.9735         -DE/DX =    0.0                 !
 ! A11   A(3,2,5)              107.9735         -DE/DX =    0.0                 !
 ! A12   A(4,2,5)              108.5062         -DE/DX =    0.0                 !
 ! D1    D(6,1,2,3)              0.0            -DE/DX =    0.0                 !
 ! D2    D(6,1,2,4)            119.6307         -DE/DX =    0.0                 !
 ! D3    D(6,1,2,5)           -119.6307         -DE/DX =    0.0                 !
 ! D4    D(7,1,2,3)            119.6307         -DE/DX =    0.0                 !
 ! D5    D(7,1,2,4)           -120.7386         -DE/DX =    0.0                 !
 ! D6    D(7,1,2,5)              0.0            -DE/DX =    0.0                 !
 ! D7    D(8,1,2,3)           -119.6307         -DE/DX =    0.0                 !
 ! D8    D(8,1,2,4)              0.0            -DE/DX =    0.0                 !
 ! D9    D(8,1,2,5)            120.7386         -DE/DX =    0.0                 !
 --------------------------------------------------------------------------------
 GradGradGradGradGradGradGradGradGradGradGradGradGradGradGradGradGradGrad

                          Input orientation:                          
 ---------------------------------------------------------------------
 Center     Atomic     Atomic              Coordinates (Angstroms)
 Number     Number      Type              X           Y           Z
 ---------------------------------------------------------------------
    1          6             0       -0.002085    0.000000   -0.001093
    2          6             0       -0.002085    0.000000    1.539693
    3          9             0        1.272989    0.000000    2.011839
    4          1             0       -0.501674    0.878340    1.927172
    5          1             0       -0.501674   -0.878340    1.927172
    6          9             0        1.272989    0.000000   -0.473239
    7          1             0       -0.501674   -0.878340   -0.388572
    8          1             0       -0.501674    0.878340   -0.388572
 ---------------------------------------------------------------------
                    Distance matrix (angstroms):
                    1          2          3          4          5
     1  C    0.000000
     2  C    1.540785   0.000000
     3  F    2.382794   1.359682   0.000000
     4  H    2.176988   1.082225   1.981938   0.000000
     5  H    2.176988   1.082225   1.981938   1.756681   0.000000
     6  F    1.359682   2.382794   2.485079   3.111734   3.111734
     7  H    1.082225   2.176988   3.111734   2.906648   2.315745
     8  H    1.082225   2.176988   3.111734   2.315745   2.906648
                    6          7          8
     6  F    0.000000
     7  H    1.981938   0.000000
     8  H    1.981938   1.756681   0.000000
 Stoichiometry    C2H4F2
 Framework group  C2V[SGV(C2F2),X(H4)]
 Deg. of freedom     6
 Full point group                 C2V
 Largest Abelian subgroup         C2V     NOp   4
 Largest concise Abelian subgroup C2V     NOp   4
                         Standard orientation:                         
 ---------------------------------------------------------------------
 Center     Atomic     Atomic              Coordinates (Angstroms)
 Number     Number      Type              X           Y           Z
 ---------------------------------------------------------------------
    1          6             0        0.000000    0.770393    0.616264
    2          6             0        0.000000   -0.770393    0.616264
    3          9             0        0.000000   -1.242539   -0.658810
    4          1             0        0.878340   -1.157872    1.115853
    5          1             0       -0.878340   -1.157872    1.115853
    6          9             0        0.000000    1.242539   -0.658810
    7          1             0       -0.878340    1.157872    1.115853
    8          1             0        0.878340    1.157872    1.115853
 ---------------------------------------------------------------------
 Rotational constants (GHZ):     15.2055949      6.2068895      4.6605127

 **********************************************************************

            Population analysis using the SCF density.

 **********************************************************************

 Orbital symmetries:
       Occupied  (B2) (A1) (A1) (B2) (A1) (B2) (A1) (B2) (B1) (A1)
                 (A1) (A2) (B2) (B2) (B1) (A1) (A2)
       Virtual   (A1) (B1) (A1) (B2) (A2) (B2) (B2) (B1) (A1) (A1)
                 (B2) (B2) (A2) (A1) (B1) (A2) (A1) (B2) (B2) (A1)
                 (A1) (B1) (B2) (A1) (B1) (A2) (B2) (B2) (A1) (A1)
                 (A2) (B1) (A2) (A1) (B2) (B2) (A1) (B1) (B2) (A1)
                 (B1) (A2) (B2) (A2) (B2) (A1) (B2) (A1) (A1) (B2)
                 (B2)
 The electronic state is 1-A1.
 Alpha  occ. eigenvalues --  -26.28021 -26.28020 -11.31589 -11.31532  -1.60304
 Alpha  occ. eigenvalues --   -1.58394  -1.03515  -0.87949  -0.73338  -0.73194
 Alpha  occ. eigenvalues --   -0.69772  -0.68045  -0.65720  -0.60287  -0.56114
 Alpha  occ. eigenvalues --   -0.50052  -0.49327
 Alpha virt. eigenvalues --    0.22052   0.26305   0.26999   0.29643   0.37316
 Alpha virt. eigenvalues --    0.40574   0.44941   0.72604   0.72926   0.78054
 Alpha virt. eigenvalues --    0.81608   0.84442   1.01250   1.01426   1.07530
 Alpha virt. eigenvalues --    1.12573   1.12653   1.18808   1.35728   1.39225
 Alpha virt. eigenvalues --    1.42476   1.49291   1.60438   1.69226   1.71971
 Alpha virt. eigenvalues --    1.72589   1.76542   2.00531   2.00886   2.09450
 Alpha virt. eigenvalues --    2.09584   2.11958   2.15376   2.21664   2.22067
 Alpha virt. eigenvalues --    2.34387   2.41025   2.42446   2.56664   2.64195
 Alpha virt. eigenvalues --    2.70389   2.73986   2.82895   2.85124   3.12405
 Alpha virt. eigenvalues --    3.34803   3.44475   4.33373   4.57839   4.85193
 Alpha virt. eigenvalues --    4.99972
          Condensed to atoms (all electrons):
              1          2          3          4          5          6
     1  C    4.738066   0.309052  -0.032388  -0.044566  -0.044566   0.218670
     2  C    0.309052   4.738066   0.218670   0.392990   0.392990  -0.032388
     3  F   -0.032388   0.218670   9.258043  -0.029633  -0.029633   0.001569
     4  H   -0.044566   0.392990  -0.029633   0.562500  -0.042294   0.001295
     5  H   -0.044566   0.392990  -0.029633  -0.042294   0.562500   0.001295
     6  F    0.218670  -0.032388   0.001569   0.001295   0.001295   9.258043
     7  H    0.392990  -0.044566   0.001295   0.004037  -0.004062  -0.029633
     8  H    0.392990  -0.044566   0.001295  -0.004062   0.004037  -0.029633
              7          8
     1  C    0.392990   0.392990
     2  C   -0.044566  -0.044566
     3  F    0.001295   0.001295
     4  H    0.004037  -0.004062
     5  H   -0.004062   0.004037
     6  F   -0.029633  -0.029633
     7  H    0.562500  -0.042294
     8  H   -0.042294   0.562500
 Mulliken atomic charges:
              1
     1  C    0.069753
     2  C    0.069753
     3  F   -0.389218
     4  H    0.159732
     5  H    0.159732
     6  F   -0.389218
     7  H    0.159732
     8  H    0.159732
 Sum of Mulliken charges=   0.00000
 Atomic charges with hydrogens summed into heavy atoms:
              1
     1  C    0.389218
     2  C    0.389218
     3  F   -0.389218
     4  H    0.000000
     5  H    0.000000
     6  F   -0.389218
     7  H    0.000000
     8  H    0.000000
 Sum of Mulliken charges=   0.00000
 Electronic spatial extent (au):  <R**2>=   267.4073
 Charge=     0.0000 electrons
 Dipole moment (field-independent basis, Debye):
    X=     0.0000    Y=     0.0000    Z=     3.3987  Tot=     3.3987
 Quadrupole moment (field-independent basis, Debye-Ang):
   XX=   -21.4292   YY=   -24.5016   ZZ=   -22.1321
   XY=     0.0000   XZ=     0.0000   YZ=     0.0000
 Traceless Quadrupole moment (field-independent basis, Debye-Ang):
   XX=     1.2585   YY=    -1.8140   ZZ=     0.5555
   XY=     0.0000   XZ=     0.0000   YZ=     0.0000
 Octapole moment (field-independent basis, Debye-Ang**2):
  XXX=     0.0000  YYY=     0.0000  ZZZ=    -7.7002  XYY=     0.0000
  XXY=     0.0000  XXZ=    -1.9892  XZZ=     0.0000  YZZ=     0.0000
  YYZ=     1.0779  XYZ=     0.0000
 Hexadecapole moment (field-independent basis, Debye-Ang**3):
 XXXX=   -29.9271 YYYY=  -170.2170 ZZZZ=   -83.9148 XXXY=     0.0000
 XXXZ=     0.0000 YYYX=     0.0000 YYYZ=     0.0000 ZZZX=     0.0000
 ZZZY=     0.0000 XXYY=   -31.2692 XXZZ=   -18.0545 YYZZ=   -42.0571
 XXYZ=     0.0000 YYXZ=     0.0000 ZZXY=     0.0000
 N-N= 1.303568985484D+02 E-N=-9.191717212160D+02  KE= 2.765424274554D+02
 Symmetry A1   KE= 1.306854339168D+02
 Symmetry A2   KE= 8.677155354520D+00
 Symmetry B1   KE= 8.224840352155D+00
 Symmetry B2   KE= 1.289549978319D+02
 Final structure in terms of initial Z-matrix:
 C
 C,1,r1
 F,2,r2,1,A1
 H,2,r3,1,A2,3,D1,0
 H,2,r3,1,A2,3,D2,0
 F,1,r2,2,A1,3,D3,0
 H,1,r3,2,A2,6,D1,0
 H,1,r3,2,A2,6,D2,0
      Variables:
 r1=1.5407853
 r2=1.35968212
 r3=1.08222542
 D1=119.63067875
 D2=-119.63067875
 A1=110.31908015
 D3=0.
 A2=110.97986637
 1\1\GINC-DCOPT154\FOpt\RHF\6-31G(d)\C2H4F2\WSCHNEI1\18-Oct-2007\0\\#N 
 G2\\e-C2H4F2 G2\\0,1\C,-0.0020848249,0.,-0.0010926477\C,-0.0020848249,
 0.,1.5396926477\F,1.2729888304,0.,2.0118394903\H,-0.5016739177,0.87834
 04593,1.9271724947\H,-0.5016739177,-0.8783404593,1.9271724947\F,1.2729
 888304,0.,-0.4732394903\H,-0.5016739177,-0.8783404593,-0.3885724947\H,
 -0.5016739177,0.8783404593,-0.3885724947\\Version=AM64L-G03RevD.01\Sta
 te=1-A1\HF=-276.9094553\RMSD=4.181e-09\RMSF=2.667e-05\Thermal=0.\Dipol
 e=-1.3371515,0.,0.\PG=C02V [SGV(C2F2),X(H4)]\\@


 ALMOST ALL THE CHEMICAL PROCESSES WHICH OCCUR IN NATURE,
 WHETHER IN ANIMAL OR VEGETABLE ORGANISMS,
 OR IN THE NON-LIVING SURFACE OF THE EARTH ... 
 TAKE PLACE BETWEEN SUBSTANCES IN SOLUTION

                                    -- W. OSTWALD, 1890
 Job cpu time:  0 days  0 hours  0 minutes 11.2 seconds.
 File lengths (MBytes):  RWF=     18 Int=      0 D2E=      0 Chk=     10 Scr=      1
 Normal termination of Gaussian 03 at Thu Oct 18 11:18:13 2007.
 Link1:  Proceeding to internal job step number  2.
 -------------------------------------------------------
 #N Geom=AllCheck Guess=Read SCRF=Check HF/6-31G(d) Freq
 -------------------------------------------------------
 1/10=4,29=7,30=1,38=1,40=1,46=1/1,3;
 2/40=1/2;
 3/5=1,6=6,7=1,11=9,16=1,25=1,30=1,70=2,71=2/1,2,3;
 4/5=1/1;
 5/5=2,38=6/2;
 8/6=4,10=90,11=11/1;
 10/13=10/2;
 11/6=2,8=1,9=11,15=111,16=1/1,2,10;
 10/6=1/2;
 6/7=2,8=2,9=2,10=2,18=1,28=1/1;
 7/8=1,10=1,25=1/1,2,3,16;
 1/10=4,30=1,46=1/3;
 99//99;
 -----------
 e-C2H4F2 G2
 -----------
 Redundant internal coordinates taken from checkpoint file:
 e-C2H4F2-G2.chk
 Charge =  0 Multiplicity = 1
 C,0,-0.0020848249,0.,-0.0010926477
 C,0,-0.0020848249,0.,1.5396926477
 F,0,1.2729888304,0.,2.0118394903
 H,0,-0.5016739177,0.8783404593,1.9271724947
 H,0,-0.5016739177,-0.8783404593,1.9271724947
 F,0,1.2729888304,0.,-0.4732394903
 H,0,-0.5016739177,-0.8783404593,-0.3885724947
 H,0,-0.5016739177,0.8783404593,-0.3885724947
 Recover connectivity data from disk.

 GradGradGradGradGradGradGradGradGradGradGradGradGradGradGradGradGradGrad
 Berny optimization.
 Initialization pass.
                           ----------------------------
                           !    Initial Parameters    !
                           ! (Angstroms and Degrees)  !
 --------------------------                            --------------------------
 ! Name  Definition              Value          Derivative Info.                !
 --------------------------------------------------------------------------------
 ! R1    R(1,2)                  1.5408         calculate D2E/DX2 analytically  !
 ! R2    R(1,6)                  1.3597         calculate D2E/DX2 analytically  !
 ! R3    R(1,7)                  1.0822         calculate D2E/DX2 analytically  !
 ! R4    R(1,8)                  1.0822         calculate D2E/DX2 analytically  !
 ! R5    R(2,3)                  1.3597         calculate D2E/DX2 analytically  !
 ! R6    R(2,4)                  1.0822         calculate D2E/DX2 analytically  !
 ! R7    R(2,5)                  1.0822         calculate D2E/DX2 analytically  !
 ! A1    A(2,1,6)              110.3191         calculate D2E/DX2 analytically  !
 ! A2    A(2,1,7)              110.9799         calculate D2E/DX2 analytically  !
 ! A3    A(2,1,8)              110.9799         calculate D2E/DX2 analytically  !
 ! A4    A(6,1,7)              107.9735         calculate D2E/DX2 analytically  !
 ! A5    A(6,1,8)              107.9735         calculate D2E/DX2 analytically  !
 ! A6    A(7,1,8)              108.5062         calculate D2E/DX2 analytically  !
 ! A7    A(1,2,3)              110.3191         calculate D2E/DX2 analytically  !
 ! A8    A(1,2,4)              110.9799         calculate D2E/DX2 analytically  !
 ! A9    A(1,2,5)              110.9799         calculate D2E/DX2 analytically  !
 ! A10   A(3,2,4)              107.9735         calculate D2E/DX2 analytically  !
 ! A11   A(3,2,5)              107.9735         calculate D2E/DX2 analytically  !
 ! A12   A(4,2,5)              108.5062         calculate D2E/DX2 analytically  !
 ! D1    D(6,1,2,3)              0.0            calculate D2E/DX2 analytically  !
 ! D2    D(6,1,2,4)            119.6307         calculate D2E/DX2 analytically  !
 ! D3    D(6,1,2,5)           -119.6307         calculate D2E/DX2 analytically  !
 ! D4    D(7,1,2,3)            119.6307         calculate D2E/DX2 analytically  !
 ! D5    D(7,1,2,4)           -120.7386         calculate D2E/DX2 analytically  !
 ! D6    D(7,1,2,5)              0.0            calculate D2E/DX2 analytically  !
 ! D7    D(8,1,2,3)           -119.6307         calculate D2E/DX2 analytically  !
 ! D8    D(8,1,2,4)              0.0            calculate D2E/DX2 analytically  !
 ! D9    D(8,1,2,5)            120.7386         calculate D2E/DX2 analytically  !
 --------------------------------------------------------------------------------
 Trust Radius=3.00D-01 FncErr=1.00D-07 GrdErr=1.00D-07
 Number of steps in this run=   2 maximum allowed number of steps=   2.
 GradGradGradGradGradGradGradGradGradGradGradGradGradGradGradGradGradGrad

                          Input orientation:                          
 ---------------------------------------------------------------------
 Center     Atomic     Atomic              Coordinates (Angstroms)
 Number     Number      Type              X           Y           Z
 ---------------------------------------------------------------------
    1          6             0       -0.002085    0.000000   -0.001093
    2          6             0       -0.002085    0.000000    1.539693
    3          9             0        1.272989    0.000000    2.011839
    4          1             0       -0.501674    0.878340    1.927172
    5          1             0       -0.501674   -0.878340    1.927172
    6          9             0        1.272989    0.000000   -0.473239
    7          1             0       -0.501674   -0.878340   -0.388572
    8          1             0       -0.501674    0.878340   -0.388572
 ---------------------------------------------------------------------
                    Distance matrix (angstroms):
                    1          2          3          4          5
     1  C    0.000000
     2  C    1.540785   0.000000
     3  F    2.382794   1.359682   0.000000
     4  H    2.176988   1.082225   1.981938   0.000000
     5  H    2.176988   1.082225   1.981938   1.756681   0.000000
     6  F    1.359682   2.382794   2.485079   3.111734   3.111734
     7  H    1.082225   2.176988   3.111734   2.906648   2.315745
     8  H    1.082225   2.176988   3.111734   2.315745   2.906648
                    6          7          8
     6  F    0.000000
     7  H    1.981938   0.000000
     8  H    1.981938   1.756681   0.000000
 Stoichiometry    C2H4F2
 Framework group  C2V[SGV(C2F2),X(H4)]
 Deg. of freedom     6
 Full point group                 C2V
 Largest Abelian subgroup         C2V     NOp   4
 Largest concise Abelian subgroup C2V     NOp   4
                         Standard orientation:                         
 ---------------------------------------------------------------------
 Center     Atomic     Atomic              Coordinates (Angstroms)
 Number     Number      Type              X           Y           Z
 ---------------------------------------------------------------------
    1          6             0        0.000000    0.770393    0.616264
    2          6             0        0.000000   -0.770393    0.616264
    3          9             0        0.000000   -1.242539   -0.658810
    4          1             0        0.878340   -1.157872    1.115853
    5          1             0       -0.878340   -1.157872    1.115853
    6          9             0        0.000000    1.242539   -0.658810
    7          1             0       -0.878340    1.157872    1.115853
    8          1             0        0.878340    1.157872    1.115853
 ---------------------------------------------------------------------
 Rotational constants (GHZ):     15.2055949      6.2068895      4.6605127
 Standard basis: 6-31G(d) (6D, 7F)
 There are    24 symmetry adapted basis functions of A1  symmetry.
[...]
                    Distance matrix (angstroms):
                    1          2          3          4          5
     1  C    0.000000
     2  C    1.542377   0.000000
     3  F    2.396308   1.385865   0.000000
     4  H    2.189005   1.093522   2.014044   0.000000
     5  H    2.189005   1.093522   2.014044   1.775872   0.000000
     6  F    1.385865   2.396308   2.477778   3.135786   3.135786
     7  H    1.093522   2.189005   3.135786   2.930754   2.331437
     8  H    1.093522   2.189005   3.135786   2.331437   2.930754
                    6          7          8
     6  F    0.000000
     7  H    2.014044   0.000000
     8  H    2.014044   1.775872   0.000000
 Stoichiometry    C2H4F2
 Framework group  C2V[SGV(C2F2),X(H4)]
 Deg. of freedom     6
 Full point group                 C2V
 Largest Abelian subgroup         C2V     NOp   4
 Largest concise Abelian subgroup C2V     NOp   4
                         Standard orientation:                         
 ---------------------------------------------------------------------
 Center     Atomic     Atomic              Coordinates (Angstroms)
 Number     Number      Type              X           Y           Z
 ---------------------------------------------------------------------
    1          6             0        0.000000    0.771188    0.631626
    2          6             0        0.000000   -0.771188    0.631626
    3          9             0        0.000000   -1.238889   -0.672935
    4          1             0        0.887936   -1.165718    1.133328
    5          1             0       -0.887936   -1.165718    1.133328
    6          9             0        0.000000    1.238889   -0.672935
    7          1             0       -0.887936    1.165718    1.133328
    8          1             0        0.887936    1.165718    1.133328
 ---------------------------------------------------------------------
 Rotational constants (GHZ):     14.5975196      6.2200999      4.6147678
 Standard basis: 6-311+G(3df,2p) (5D, 7F)
 There are    61 symmetry adapted basis functions of A1  symmetry.
 There are    35 symmetry adapted basis functions of A2  symmetry.
 There are    35 symmetry adapted basis functions of B1  symmetry.
 There are    61 symmetry adapted basis functions of B2  symmetry.
 Integral buffers will be    131072 words long.
 Raffenetti 1 integral format.
 Two-electron integral symmetry is turned on.
   192 basis functions,   276 primitive gaussians,   216 cartesian basis functions
    17 alpha electrons       17 beta electrons
       nuclear repulsion energy       129.0995635823 Hartrees.
 NAtoms=    8 NActive=    8 NUniq=    3 SFac= 3.00D+00 NAtFMM=   80 NAOKFM=F Big=F
 One-electron integrals computed using PRISM.
 NBasis=   192 RedAO= T  NBF=    61    35    35    61
 NBsUse=   192 1.00D-06 NBFU=    61    35    35    61
 Initial guess read from the checkpoint file:
 e-C2H4F2-G2.chk
 Initial guess orbital symmetries:
       Occupied  (B2) (A1) (A1) (B2) (A1) (B2) (A1) (B2) (A1) (B1)
                 (A1) (A2) (B2) (B2) (B1) (A1) (A2)
       Virtual   (A1) (B1) (B2) (A1) (A2) (B2) (B2) (B1) (A1) (A1)
                 (B2) (A2) (B2) (A1) (B1) (B2) (A2) (A1) (B1) (A1)
                 (B2) (A1) (B1) (B2) (A2) (A1) (A2) (B2) (B1) (B2)
                 (A1) (A1) (B2) (A2) (B2) (B1) (A2) (A1) (A1) (B2)
                 (B1) (A1) (A2) (B1) (B2) (B2) (A1) (A2) (B2) (B1)
                 (A1) (B1) (A1) (A1) (A2) (B2) (B1) (B2) (A2) (A1)
                 (B2) (B2) (A1) (A2) (B1) (A1) (A1) (B1) (A2) (B2)
                 (A1) (B1) (B2) (A1) (B1) (B2) (A2) (B2) (A2) (A1)
                 (B1) (A1) (B2) (A2) (B2) (A2) (A1) (B2) (A1) (B2)
                 (B1) (A2) (B2) (A1) (B1) (A2) (B2) (A1) (B1) (B2)
                 (A1) (A2) (B2) (B1) (A1) (A2) (B2) (A1) (B1) (A2)
                 (B2) (A1) (B2) (B1) (A1) (B2) (A2) (B1) (A1) (A2)
                 (B2) (A1) (B2) (A1) (B2) (A1) (B2) (A1) (A1) (A1)
                 (A1) (A1) (A1) (A1) (A1) (A1) (A1) (A1) (A1) (A1)
                 (A1) (A1) (A2) (A2) (A2) (A2) (A2) (A2) (A2) (A2)
                 (A2) (B1) (B1) (B1) (B1) (B1) (B1) (B1) (B1) (B1)
                 (B2) (B2) (B2) (B2) (B2) (B2) (B2) (B2) (B2) (B2)
                 (B2) (B2) (B2) (B2) (B2)
 Requested convergence on RMS density matrix=1.00D-08 within 128 cycles.
 Requested convergence on MAX density matrix=1.00D-06.
 Requested convergence on             energy=1.00D-06.
 No special actions if energy rises.
 SCF Done:  E(RHF) =  -277.016822542     A.U. after   10 cycles
             Convg  =    0.3818D-08             -V/T =  2.0011
             S**2   =   0.0000
 ExpMin= 4.38D-02 ExpMax= 1.14D+04 ExpMxC= 1.72D+03 IAcc=3 IRadAn=         5 AccDes= 0.00D+00
 HarFok:  IExCor= 205 AccDes= 0.00D+00 IRadAn=         5 IDoV=1
 ScaDFX=  1.000000  1.000000  1.000000  1.000000
 Range of M.O.s used for correlation:     5   192
 NBasis=   192 NAE=    17 NBE=    17 NFC=     4 NFV=     0
 NROrb=    188 NOA=    13 NOB=    13 NVA=   175 NVB=   175

 **** Warning!!: The largest alpha MO coefficient is  0.40273565D+02

 Disk-based method using OVN memory for 13 occupieds at a time.
 Estimated scratch disk usage=    63227415 words.
 Actual    scratch disk usage=    62474775 words.
 JobTyp=1 Pass  1:  I=   1 to  13 NPSUse=  1 ParTrn=F ParDer=F DoDerP=F.
 Spin components of T(2) and E(2):
     alpha-alpha T2 =       0.2418831981D-01 E2=     -0.1040238387D+00
     alpha-beta  T2 =       0.1440895287D+00 E2=     -0.6359715612D+00
     beta-beta   T2 =       0.2418831981D-01 E2=     -0.1040238387D+00
 ANorm=    0.1092000993D+01
 E2 =    -0.8440192386D+00 EUMP2 =    -0.27786084178077D+03

 **********************************************************************

            Population analysis using the SCF density.

 **********************************************************************

 Orbital symmetries:
       Occupied  (B2) (A1) (A1) (B2) (A1) (B2) (A1) (B2) (A1) (B1)
                 (A1) (A2) (B2) (B2) (B1) (A1) (A2)
       Virtual   (A1) (B2) (A1) (B1) (A2) (B2) (A1) (B2) (B1) (A1)
                 (A1) (B2) (A2) (A1) (B1) (B2) (B2) (A1) (B2) (A2)
                 (B1) (A1) (A1) (B2) (B1) (A1) (B2) (A2) (B2) (A2)
                 (A1) (B2) (B1) (B2) (A1) (A2) (B1) (A1) (B2) (A1)
                 (B2) (A1) (B1) (A2) (B2) (A2) (B2) (A2) (A1) (B1)
                 (A1) (B2) (B1) (A1) (B1) (A2) (A1) (B1) (B2) (B1)
                 (A1) (B2) (A2) (A1) (B2) (A2) (B2) (A1) (B2) (A2)
                 (A1) (A1) (B2) (B1) (A1) (B2) (A1) (B1) (B2) (A2)
                 (B2) (A2) (B2) (A1) (A1) (B1) (B2) (B2) (B1) (A2)
                 (A1) (B1) (A1) (A2) (A1) (B2) (A1) (B1) (A2) (A1)
                 (B2) (B1) (B2) (A2) (A1) (B2) (B2) (A2) (A1) (B1)
                 (A1) (B2) (B1) (A2) (B2) (A1) (A2) (B1) (B2) (A2)
                 (B1) (A1) (B2) (A2) (B2) (A1) (A1) (B2) (B1) (B2)
                 (A2) (B1) (A1) (A2) (B1) (A2) (A1) (B2) (B1) (B2)
                 (A1) (A1) (A2) (B2) (B1) (A1) (B2) (A2) (B2) (A1)
                 (B1) (A1) (B2) (B2) (A2) (A1) (B1) (A2) (A1) (B2)
                 (B2) (A1) (B1) (A2) (B2) (A1) (B1) (A2) (B2) (A1)
                 (B2) (A1) (B2) (A1) (B2)
 The electronic state is 1-A1.
 Alpha  occ. eigenvalues --  -26.28507 -26.28506 -11.32472 -11.32414  -1.60277
 Alpha  occ. eigenvalues --   -1.58397  -1.03897  -0.88100  -0.73402  -0.73328
 Alpha  occ. eigenvalues --   -0.69994  -0.68203  -0.65910  -0.61076  -0.57290
 Alpha  occ. eigenvalues --   -0.51422  -0.50071
 Alpha virt. eigenvalues --    0.06406   0.08414   0.08957   0.09329   0.12248
 Alpha virt. eigenvalues --    0.12819   0.13645   0.18509   0.23273   0.23876
 Alpha virt. eigenvalues --    0.27271   0.29931   0.31446   0.34851   0.36542
 Alpha virt. eigenvalues --    0.37508   0.38726   0.40327   0.41460   0.42292
 Alpha virt. eigenvalues --    0.43109   0.44506   0.45803   0.46812   0.50646
 Alpha virt. eigenvalues --    0.57365   0.58173   0.59370   0.64415   0.66422
 Alpha virt. eigenvalues --    0.67494   0.69836   0.74045   0.78133   0.79218
 Alpha virt. eigenvalues --    0.82891   0.83506   0.84502   0.90825   0.92506
 Alpha virt. eigenvalues --    0.93627   1.00979   1.10860   1.13427   1.15492
 Alpha virt. eigenvalues --    1.25344   1.26814   1.27718   1.27887   1.32851
 Alpha virt. eigenvalues --    1.34961   1.36805   1.38910   1.41394   1.51123
 Alpha virt. eigenvalues --    1.51494   1.54278   1.55940   1.57281   1.59764
 Alpha virt. eigenvalues --    1.59975   1.60086   1.61014   1.61897   1.64410
 Alpha virt. eigenvalues --    1.67364   1.70842   1.71138   1.73271   1.80035
 Alpha virt. eigenvalues --    1.92455   1.97376   1.97532   1.99004   2.14736
 Alpha virt. eigenvalues --    2.18062   2.27305   2.31886   2.36265   2.43670
 Alpha virt. eigenvalues --    2.46350   2.57341   2.67211   2.80776   2.85305
 Alpha virt. eigenvalues --    2.87093   3.01127   3.12986   3.20953   3.21869
 Alpha virt. eigenvalues --    3.23845   3.30293   3.37673   3.39337   3.39576
 Alpha virt. eigenvalues --    3.54256   3.55933   3.64128   3.72584   3.78900
 Alpha virt. eigenvalues --    3.85038   3.85954   3.87888   4.05686   4.18204
 Alpha virt. eigenvalues --    4.20732   4.47537   4.48397   4.60784   4.61014
 Alpha virt. eigenvalues --    4.62990   4.65698   4.68543   4.79045   4.80204
 Alpha virt. eigenvalues --    5.03387   5.04183   5.08316   5.11967   5.17483
 Alpha virt. eigenvalues --    5.20226   5.24732   5.24766   5.30506   5.39070
 Alpha virt. eigenvalues --    5.43214   5.61914   5.67738   5.99814   6.01704
 Alpha virt. eigenvalues --    6.16963   7.00092   7.00475   7.09673   7.17177
 Alpha virt. eigenvalues --    7.18060   7.18312   7.19390   7.20428   7.20626
 Alpha virt. eigenvalues --    7.22270   7.26650   7.30648   7.31420   7.34956
 Alpha virt. eigenvalues --    7.35449   7.36806   7.45798   7.61309   7.74107
 Alpha virt. eigenvalues --    7.82889   7.93348   7.98139   8.17604   8.24006
 Alpha virt. eigenvalues --    8.26679   8.50176   8.78794   8.93750   9.01948
 Alpha virt. eigenvalues --    9.49219  20.13266  20.15661  20.20136  20.23553
 Alpha virt. eigenvalues --   20.24557  20.24884  20.27796  20.34104  20.49623
 Alpha virt. eigenvalues --   20.60506  25.36291  25.54255  68.96332  69.02913
          Condensed to atoms (all electrons):
              1          2          3          4          5          6
     1  C    5.062786  -0.167984  -0.046544  -0.058103  -0.058103   0.003770
     2  C   -0.167984   5.062786   0.003770   0.476798   0.476798  -0.046544
     3  F   -0.046544   0.003770   9.674691  -0.034315  -0.034315  -0.005743
     4  H   -0.058103   0.476798  -0.034315   0.519777  -0.025696   0.001421
     5  H   -0.058103   0.476798  -0.034315  -0.025696   0.519777   0.001421
     6  F    0.003770  -0.046544  -0.005743   0.001421   0.001421   9.674691
     7  H    0.476798  -0.058103   0.001421   0.003923  -0.008707  -0.034315
     8  H    0.476798  -0.058103   0.001421  -0.008707   0.003923  -0.034315
              7          8
     1  C    0.476798   0.476798
     2  C   -0.058103  -0.058103
     3  F    0.001421   0.001421
     4  H    0.003923  -0.008707
     5  H   -0.008707   0.003923
     6  F   -0.034315  -0.034315
     7  H    0.519777  -0.025696
     8  H   -0.025696   0.519777
 Mulliken atomic charges:
              1
     1  C    0.310582
     2  C    0.310582
     3  F   -0.560387
     4  H    0.124902
     5  H    0.124902
     6  F   -0.560387
     7  H    0.124902
     8  H    0.124902
 Sum of Mulliken charges=   0.00000
 Atomic charges with hydrogens summed into heavy atoms:
              1
     1  C    0.560387
     2  C    0.560387
     3  F   -0.560387
     4  H    0.000000
     5  H    0.000000
     6  F   -0.560387
     7  H    0.000000
     8  H    0.000000
 Sum of Mulliken charges=   0.00000
 Electronic spatial extent (au):  <R**2>=   270.6563
 Charge=     0.0000 electrons
 Dipole moment (field-independent basis, Debye):
    X=     0.0000    Y=     0.0000    Z=     3.6746  Tot=     3.6746
 Quadrupole moment (field-independent basis, Debye-Ang):
   XX=   -21.4222   YY=   -24.7536   ZZ=   -22.8071
   XY=     0.0000   XZ=     0.0000   YZ=     0.0000
 Traceless Quadrupole moment (field-independent basis, Debye-Ang):
   XX=     1.5721   YY=    -1.7593   ZZ=     0.1872
   XY=     0.0000   XZ=     0.0000   YZ=     0.0000
 Octapole moment (field-independent basis, Debye-Ang**2):
  XXX=     0.0000  YYY=     0.0000  ZZZ=    -7.1605  XYY=     0.0000
  XXY=     0.0000  XXZ=    -1.2525  XZZ=     0.0000  YZZ=     0.0000
  YYZ=     2.2551  XYZ=     0.0000
 Hexadecapole moment (field-independent basis, Debye-Ang**3):
 XXXX=   -30.2479 YYYY=  -175.0463 ZZZZ=   -90.6687 XXXY=     0.0000
 XXXZ=     0.0000 YYYX=     0.0000 YYYZ=     0.0000 ZZZX=     0.0000
 ZZZY=     0.0000 XXYY=   -31.2120 XXZZ=   -18.8889 YYZZ=   -43.9591
 XXYZ=     0.0000 YYXZ=     0.0000 ZZXY=     0.0000
 N-N= 1.290995635823D+02 E-N=-9.168824973599D+02  KE= 2.767150569467D+02
 Symmetry A1   KE= 1.307842987135D+02
 Symmetry A2   KE= 8.642830534709D+00
 Symmetry B1   KE= 8.144208151855D+00
 Symmetry B2   KE= 1.291437195467D+02
 1\1\GINC-DCOPT154\SP\RMP2-FC\6-311+G(3df,2p)\C2H4F2\WSCHNEI1\18-Oct-20
 07\0\\#N Geom=AllCheck Guess=Read SCRF=Check MP2/6-311+G(3df,2p)\\e-C2
 H4F2 G2\\0,1\C,0,-0.0032574082,0.,-0.0018883509\C,0,-0.0032574082,0.,1
 .5404883509\F,0,1.3013033609,0.,2.0081890821\H,0,-0.5049598361,0.88793
 61411,1.9350183608\H,0,-0.5049598361,-0.8879361411,1.9350183608\F,0,1.
 3013033609,0.,-0.4695890821\H,0,-0.5049598361,-0.8879361411,-0.3964183
 608\H,0,-0.5049598361,0.8879361411,-0.3964183608\\Version=AM64L-G03Rev
 D.01\State=1-A1\HF=-277.0168225\MP2=-277.8608418\RMSD=3.818e-09\Therma
 l=0.\PG=C02V [SGV(C2F2),X(H4)]\\@


 IF YOU BELIEVE CERTAIN WORDS, YOU BELIEVE THEIR HIDDEN ARGUMENTS.
 WHEN YOU BELIEVE SOMETHING IS RIGHT OR WRONG, TRUE OR FALSE, 
 YOU BELIEVE THE ASSUMPTIONS IN THE WORDS WHICH EXPRESS THE ARGUMENTS.
 SUCH ASSUMPTIONS ARE OFTEN FULL OF HOLES, BUT REMAIN MOST PRECIOUS 
 TO THE CONVINCED.

                 -- THE OPEN-ENDED PROOF FROM THE PANOPLIA PROPHETICA
                    CHILDREN OF DUNE BY FRANK HERBERT
 Diagonal vibrational polarizability:
        0.0000000       0.0000000       0.0000000
    1 imaginary frequencies ignored.

 Temperature=              298.150000 Pressure=                      1.000000
 E(ZPE)=                     0.059155 E(Thermal)=                    0.062856
 E(QCISD(T))=             -277.738415 E(Empiric)=                   -0.079820
 DE(Plus)=                  -0.017230 DE(2DF)=                      -0.141698
 G1(0 K)=                 -277.918008 G1 Energy=                  -277.914307
 G1 Enthalpy=             -277.913362 G1 Free Energy=             -277.943719
 E(Delta-G2)=               -0.019224 E(G2-Empiric)=                 0.014820
 G2(0 K)=                 -277.922412 G2 Energy=                  -277.918710
 G2 Enthalpy=             -277.917766 G2 Free Energy=             -277.948123
 DE(MP2)=                   -0.170556
 G2MP2(0 K)=              -277.914817 G2MP2 Energy=               -277.911115
 G2MP2 Enthalpy=          -277.910171 G2MP2 Free Energy=          -277.940528
 1\1\GINC-DCOPT154\Mixed\G2\G2\C2H4F2\WSCHNEI1\18-Oct-2007\0\\#N G2\\e-
 C2H4F2 G2\\0,1\C,0,-0.0032574082,0.,-0.0018883509\C,0,-0.0032574082,0.
 ,1.5404883509\F,0,1.3013033609,0.,2.0081890821\H,0,-0.5049598361,0.887
 9361411,1.9350183608\H,0,-0.5049598361,-0.8879361411,1.9350183608\F,0,
 1.3013033609,0.,-0.4695890821\H,0,-0.5049598361,-0.8879361411,-0.39641
 83608\H,0,-0.5049598361,0.8879361411,-0.3964183608\\Version=AM64L-G03R
 evD.01\State=1-A1\MP2/6-311G(d,p)=-277.6902857\QCISD(T)/6-311G(d,p)=-2
 77.7384153\MP4/6-311G(d,p)=-277.7398141\MP2/6-311+G(d,p)=-277.7064514\
 MP4/6-311+G(d,p)=-277.7570438\MP2/6-311G(2df,p)=-277.8254525\MP4/6-311
 G(2df,p)=-277.8815119\MP2/6-311+G(3df,2p)=-277.8608418\G1=-277.918008\
 G2MP2=-277.9148167\G2=-277.9224116\FreqCoord=-0.0039397481,0.,-0.00206
 48049,-0.0039397481,0.,2.9095974345,2.4056002611,0.,3.8018256621,-0.94
 80263129,1.6598229203,3.6418282278,-0.9480263129,-1.6598229203,3.64182
 82278,2.4056002611,0.,-0.8942930324,-0.9480263129,-1.6598229203,-0.734
 2955981,-0.9480263129,1.6598229203,-0.7342955981\PG=C02V [SGV(C2F2),X(
 H4)]\NImag=1\\0.63544423,0.,0.71317948,0.02733184,0.,0.58195426,-0.076
 06188,0.,-0.01286149,0.63544423,0.,-0.10820261,0.,0.,0.71317948,0.0128
 6149,0.,-0.22676577,-0.02733184,0.,0.58195426,-0.02563194,0.,-0.007249
 95,-0.31743651,0.,-0.08433310,0.41351478,0.,0.00283067,0.,0.,-0.079504
 08,0.,0.,0.05384299,-0.04624575,0.,-0.01797324,-0.07921817,0.,-0.10381
 854,0.12116331,0.,0.11540333,0.00296040,0.00446225,0.00001122,-0.11111
 735,0.09012548,0.04578797,-0.04099912,0.03574202,0.00470932,0.13472077
 ,-0.00203379,0.00359274,0.00361536,0.10121599,-0.26774445,-0.08669724,
 0.00350457,0.01040564,0.00411093,-0.11523596,0.27500252,0.01319571,-0.
 03191478,-0.00917529,0.04977858,-0.08761395,-0.10752307,-0.01490715,0.
 01473880,0.00863664,-0.04481468,0.09134503,0.10849192,0.00296040,-0.00
 446226,0.00001122,-0.11111735,-0.09012548,0.04578797,-0.04099912,-0.03
 574202,0.00470932,0.01300699,0.01318865,-0.00569415,0.13472077,0.00203
 379,0.00359273,-0.00361536,-0.10121599,-0.26774445,0.08669724,-0.00350
 457,0.01040564,-0.00411093,-0.01318865,-0.02450191,0.01214637,0.115235
 96,0.27500252,0.01319571,0.03191478,-0.00917529,0.04977858,0.08761395,
 -0.10752307,-0.01490714,-0.01473880,0.00863664,-0.00569415,-0.01214637
 ,0.00809528,-0.04481468,-0.09134503,0.10849192,-0.31743651,0.,0.084333
 10,-0.02563194,0.,0.00724995,0.01109908,0.,-0.00590759,0.00022641,-0.0
 0033618,0.00283678,0.00022641,0.00033618,0.00283678,0.41351478,0.,-0.0
 7950408,0.,0.,0.00283067,0.,0.,0.00208561,0.,-0.00103703,-0.00003324,0
 .00047162,0.00103703,-0.00003324,-0.00047162,0.,0.05384299,0.07921817,
 0.,-0.10381854,0.04624575,0.,-0.01797324,0.00590759,0.,-0.00084086,-0.
 00039478,0.00040562,-0.00502198,-0.00039478,-0.00040562,-0.00502198,-0
 .12116331,0.,0.11540333,-0.11111735,-0.09012548,-0.04578797,0.00296040
 ,-0.00446225,-0.00001122,0.00022641,0.00103703,0.00039478,-0.00051694,
 0.00028241,-0.00113071,0.00171883,0.00058570,0.00073561,-0.04099912,-0
 .03574202,-0.00470932,0.13472077,-0.10121599,-0.26774445,-0.08669724,0
 .00203379,0.00359274,0.00361536,0.00033618,-0.00003324,0.00040562,-0.0
 0028241,0.00130452,0.00009679,0.00058570,0.00197418,-0.00073012,-0.003
 50457,0.01040564,0.00411093,0.11523596,0.27500252,-0.04977858,-0.08761
 395,-0.10752307,-0.01319571,-0.03191478,-0.00917529,-0.00283678,0.0004
 7162,-0.00502198,0.00113071,0.00009679,-0.00490116,-0.00073561,0.00073
 012,0.00139767,0.01490715,0.01473880,0.00863664,0.04481468,0.09134503,
 0.10849192,-0.11111735,0.09012548,-0.04578797,0.00296040,0.00446226,-0
 .00001122,0.00022641,-0.00103703,0.00039478,0.00171883,-0.00058570,0.0
 0073561,-0.00051694,-0.00028241,-0.00113071,-0.04099912,0.03574202,-0.
 00470932,0.01300699,-0.01318865,0.00569415,0.13472077,0.10121599,-0.26
 774445,0.08669724,-0.00203379,0.00359273,-0.00361536,-0.00033618,-0.00
 003324,-0.00040562,-0.00058570,0.00197418,0.00073012,0.00028241,0.0013
 0452,-0.00009679,0.00350457,0.01040564,-0.00411093,0.01318865,-0.02450
 191,0.01214637,-0.11523596,0.27500252,-0.04977858,0.08761395,-0.107523
 07,-0.01319571,0.03191478,-0.00917529,-0.00283678,-0.00047162,-0.00502
 198,-0.00073561,-0.00073012,0.00139767,0.00113071,-0.00009679,-0.00490
 116,0.01490714,-0.01473880,0.00863664,0.00569415,-0.01214637,0.0080952
 8,0.04481468,-0.09134503,0.10849192\\0.00001874,0.,0.00003686,0.000018
 74,0.,-0.00003686,-0.00003095,0.,-0.00001627,0.00000611,0.00004774,0.0
 0002198,0.00000611,-0.00004774,0.00002198,-0.00003095,0.,0.00001627,0.
 00000611,-0.00004774,-0.00002198,0.00000611,0.00004774,-0.00002198\\\@
 Job cpu time:  0 days  0 hours  0 minutes  2.0 seconds.
 File lengths (MBytes):  RWF=    548 Int=      0 D2E=      0 Chk=     12 Scr=      1
 Normal termination of Gaussian 03 at Thu Oct 18 11:32:25 2007.
