 Entering Gaussian System, Link 0=g03
 Input=g-C2H4F2-vib.com
 Output=g-C2H4F2-vib.log
 Initial command:
 /opt/und/gaussian/03D01/linux86-64/g03/l1.exe /scratch/Gau-5817.inp -scrdir=/scratch/
 Entering Link 1 = /opt/und/gaussian/03D01/linux86-64/g03/l1.exe PID=      5818.
  
 Copyright (c) 1988,1990,1992,1993,1995,1998,2003,2004, Gaussian, Inc.
                  All Rights Reserved.
  
 This is the Gaussian(R) 03 program.  It is based on the
 the Gaussian(R) 98 system (copyright 1998, Gaussian, Inc.),
 the Gaussian(R) 94 system (copyright 1995, Gaussian, Inc.),
 the Gaussian 92(TM) system (copyright 1992, Gaussian, Inc.),
 the Gaussian 90(TM) system (copyright 1990, Gaussian, Inc.),
 the Gaussian 88(TM) system (copyright 1988, Gaussian, Inc.),
 the Gaussian 86(TM) system (copyright 1986, Carnegie Mellon
 University), and the Gaussian 82(TM) system (copyright 1983,
 Carnegie Mellon University). Gaussian is a federally registered
 trademark of Gaussian, Inc.
  
 This software contains proprietary and confidential information,
 including trade secrets, belonging to Gaussian, Inc.
  
 This software is provided under written license and may be
 used, copied, transmitted, or stored only in accord with that
 written license.
  
 The following legend is applicable only to US Government
 contracts under FAR:
  
                    RESTRICTED RIGHTS LEGEND
  
 Use, reproduction and disclosure by the US Government is
 subject to restrictions as set forth in subparagraphs (a)
 and (c) of the Commercial Computer Software - Restricted
 Rights clause in FAR 52.227-19.
  
 Gaussian, Inc.
 340 Quinnipiac St., Bldg. 40, Wallingford CT 06492
  
  
 ---------------------------------------------------------------
 Warning -- This program may not be used in any manner that
 competes with the business of Gaussian, Inc. or will provide
 assistance to any competitor of Gaussian, Inc.  The licensee
 of this program is prohibited from giving any competitor of
 Gaussian, Inc. access to this program.  By using this program,
 the user acknowledges that Gaussian, Inc. is engaged in the
 business of creating and licensing software in the field of
 computational chemistry and represents and warrants to the
 licensee that it is not a competitor of Gaussian, Inc. and that
 it will not use this program in any manner prohibited above.
 ---------------------------------------------------------------
  

 Cite this work as:
 Gaussian 03, Revision D.01,
 M. J. Frisch, G. W. Trucks, H. B. Schlegel, G. E. Scuseria, 
 M. A. Robb, J. R. Cheeseman, J. A. Montgomery, Jr., T. Vreven, 
 K. N. Kudin, J. C. Burant, J. M. Millam, S. S. Iyengar, J. Tomasi, 
 V. Barone, B. Mennucci, M. Cossi, G. Scalmani, N. Rega, 
 G. A. Petersson, H. Nakatsuji, M. Hada, M. Ehara, K. Toyota, 
 R. Fukuda, J. Hasegawa, M. Ishida, T. Nakajima, Y. Honda, O. Kitao, 
 H. Nakai, M. Klene, X. Li, J. E. Knox, H. P. Hratchian, J. B. Cross, 
 V. Bakken, C. Adamo, J. Jaramillo, R. Gomperts, R. E. Stratmann, 
 O. Yazyev, A. J. Austin, R. Cammi, C. Pomelli, J. W. Ochterski, 
 P. Y. Ayala, K. Morokuma, G. A. Voth, P. Salvador, J. J. Dannenberg, 
 V. G. Zakrzewski, S. Dapprich, A. D. Daniels, M. C. Strain, 
 O. Farkas, D. K. Malick, A. D. Rabuck, K. Raghavachari, 
 J. B. Foresman, J. V. Ortiz, Q. Cui, A. G. Baboul, S. Clifford, 
 J. Cioslowski, B. B. Stefanov, G. Liu, A. Liashenko, P. Piskorz, 
 I. Komaromi, R. L. Martin, D. J. Fox, T. Keith, M. A. Al-Laham, 
 C. Y. Peng, A. Nanayakkara, M. Challacombe, P. M. W. Gill, 
 B. Johnson, W. Chen, M. W. Wong, C. Gonzalez, and J. A. Pople, 
 Gaussian, Inc., Wallingford CT, 2004.
 
 ******************************************
 Gaussian 03:  AM64L-G03RevD.01 13-Oct-2005
                 4-Oct-2007 
 ******************************************
 %chk=C2H4F2-gdiis.chk
 %mem=6MW
 %nproc=1
 Will use up to    1 processors via shared memory.
 ------------------------------------------------
 #P HF/3-21G Geom=Checkpoint Guess=Read Frequency
 ------------------------------------------------
 1/10=4,29=2,30=1,38=1/1,3;
 2/40=1/2;
 3/5=5,11=9,16=1,25=1,30=1/1,2,3;
 4/5=1/1;
 5/5=2,38=6/2;
 8/6=4,10=90,11=11/1;
 10/13=10/2;
 11/6=2,8=1,9=11,15=111,16=1/1,2,10;
 10/6=1/2;
 6/7=2,8=2,9=2,10=2,18=1,28=1/1;
 7/8=1,10=1,25=1/1,2,3,16;
 1/10=4,30=1/3;
 99//99;
 Leave Link    1 at Thu Oct  4 00:45:56 2007, MaxMem=    6291456 cpu:       0.8
 (Enter /opt/und/gaussian/03D01/linux86-64/g03/l101.exe)
 -------------
 gauche-C2H4F2
 -------------
 Redundant internal coordinates taken from checkpoint file:
 C2H4F2-gdiis.chk
 Charge =  0 Multiplicity = 1
 C,0,-0.0028622242,0.0141975064,0.0159367708
 C,0,-0.0137265133,-0.0046199944,1.5226632292
 F,0,1.2955638742,0.1620833052,2.0025924078
 H,0,-0.6230429648,0.8032047751,1.8971026661
 H,0,-0.3990033136,-0.947920164,1.8743886514
 F,0,0.5074136772,-1.2030328799,-0.4639924078
 H,0,-1.0071172221,0.1379686476,-0.3585026661
 H,0,0.621421286,0.8195070878,-0.3357886514
 Recover connectivity data from disk.
                    Isotopes and Nuclear Properties:
 (Nuclear quadrupole moments (NQMom) in fm**2, nuclear magnetic moments (NMagM)
  in nuclear magnetons)

  Atom         1           2           3           4           5           6           7           8
 IAtWgt=          12          12          19           1           1          19           1           1
 AtmWgt=  12.0000000  12.0000000  18.9984033   1.0078250   1.0078250  18.9984033   1.0078250   1.0078250
 NucSpn=           0           0           1           1           1           1           1           1
 AtZEff=  -3.6000000  -3.6000000  -6.7500000  -1.0000000  -1.0000000  -6.7500000  -1.0000000  -1.0000000
 NQMom=    0.0000000   0.0000000  -9.4200000   0.0000000   0.0000000  -9.4200000   0.0000000   0.0000000
 NMagM=    0.0000000   0.0000000   2.6288670   2.7928460   2.7928460   2.6288670   2.7928460   2.7928460
 Leave Link  101 at Thu Oct  4 00:45:57 2007, MaxMem=    6291456 cpu:       0.5
 (Enter /opt/und/gaussian/03D01/linux86-64/g03/l103.exe)

 GradGradGradGradGradGradGradGradGradGradGradGradGradGradGradGradGradGrad
 Berny optimization.
 Initialization pass.
                           ----------------------------
                           !    Initial Parameters    !
                           ! (Angstroms and Degrees)  !
 --------------------------                            --------------------------
 ! Name  Definition              Value          Derivative Info.                !
 --------------------------------------------------------------------------------
 ! R1    R(1,2)                  1.5069         calculate D2E/DX2 analytically  !
 ! R2    R(1,6)                  1.4044         calculate D2E/DX2 analytically  !
 ! R3    R(1,7)                  1.0789         calculate D2E/DX2 analytically  !
 ! R4    R(1,8)                  1.0779         calculate D2E/DX2 analytically  !
 ! R5    R(2,3)                  1.4044         calculate D2E/DX2 analytically  !
 ! R6    R(2,4)                  1.0789         calculate D2E/DX2 analytically  !
 ! R7    R(2,5)                  1.0779         calculate D2E/DX2 analytically  !
 ! A1    A(2,1,6)              109.4808         calculate D2E/DX2 analytically  !
 ! A2    A(2,1,7)              109.9828         calculate D2E/DX2 analytically  !
 ! A3    A(2,1,8)              109.8625         calculate D2E/DX2 analytically  !
 ! A4    A(6,1,7)              108.6041         calculate D2E/DX2 analytically  !
 ! A5    A(6,1,8)              109.0007         calculate D2E/DX2 analytically  !
 ! A6    A(7,1,8)              109.8844         calculate D2E/DX2 analytically  !
 ! A7    A(1,2,3)              109.4808         calculate D2E/DX2 analytically  !
 ! A8    A(1,2,4)              109.9828         calculate D2E/DX2 analytically  !
 ! A9    A(1,2,5)              109.8625         calculate D2E/DX2 analytically  !
 ! A10   A(3,2,4)              108.6041         calculate D2E/DX2 analytically  !
 ! A11   A(3,2,5)              109.0007         calculate D2E/DX2 analytically  !
 ! A12   A(4,2,5)              109.8844         calculate D2E/DX2 analytically  !
 ! D1    D(6,1,2,3)             74.9831         calculate D2E/DX2 analytically  !
 ! D2    D(6,1,2,4)           -165.7611         calculate D2E/DX2 analytically  !
 ! D3    D(6,1,2,5)            -44.6856         calculate D2E/DX2 analytically  !
 ! D4    D(7,1,2,3)           -165.7611         calculate D2E/DX2 analytically  !
 ! D5    D(7,1,2,4)            -46.5054         calculate D2E/DX2 analytically  !
 ! D6    D(7,1,2,5)             74.5701         calculate D2E/DX2 analytically  !
 ! D7    D(8,1,2,3)            -44.6856         calculate D2E/DX2 analytically  !
 ! D8    D(8,1,2,4)             74.5701         calculate D2E/DX2 analytically  !
 ! D9    D(8,1,2,5)           -164.3544         calculate D2E/DX2 analytically  !
 --------------------------------------------------------------------------------
 Trust Radius=3.00D-01 FncErr=1.00D-07 GrdErr=1.00D-07
 Number of steps in this run=   2 maximum allowed number of steps=   2.
 GradGradGradGradGradGradGradGradGradGradGradGradGradGradGradGradGradGrad

 Leave Link  103 at Thu Oct  4 00:45:57 2007, MaxMem=    6291456 cpu:       0.1
 (Enter /opt/und/gaussian/03D01/linux86-64/g03/l202.exe)
                          Input orientation:                          
 ---------------------------------------------------------------------
 Center     Atomic     Atomic              Coordinates (Angstroms)
 Number     Number      Type              X           Y           Z
 ---------------------------------------------------------------------
    1          6             0       -0.002862    0.014198    0.015937
    2          6             0       -0.013727   -0.004620    1.522663
    3          9             0        1.295564    0.162083    2.002592
    4          1             0       -0.623043    0.803205    1.897103
    5          1             0       -0.399003   -0.947920    1.874389
    6          9             0        0.507414   -1.203033   -0.463992
    7          1             0       -1.007117    0.137969   -0.358503
    8          1             0        0.621421    0.819507   -0.335789
 ---------------------------------------------------------------------
                    Distance matrix (angstroms):
                    1          2          3          4          5
     1  C    0.000000
     2  C    1.506883   0.000000
     3  F    2.377936   1.404409   0.000000
     4  H    2.132121   1.078913   2.025640   0.000000
     5  H    2.129892   1.077944   2.029803   1.765545   0.000000
     6  F    1.404409   2.377936   2.927245   3.298135   2.520853
     7  H    1.078913   2.132121   3.298135   2.382815   2.556318
     8  H    1.077944   2.129892   2.520853   2.556318   3.008313
                    6          7          8
     6  F    0.000000
     7  H    2.025640   0.000000
     8  H    2.029803   1.765545   0.000000
 Stoichiometry    C2H4F2
 Framework group  C2[X(C2H4F2)]
 Deg. of freedom    10
 Full point group                 C2
 Largest Abelian subgroup         C2      NOp   2
 Largest concise Abelian subgroup C2      NOp   2
                         Standard orientation:                         
 ---------------------------------------------------------------------
 Center     Atomic     Atomic              Coordinates (Angstroms)
 Number     Number      Type              X           Y           Z
 ---------------------------------------------------------------------
    1          6             0       -0.651412   -0.378598    0.509479
    2          6             0        0.651412    0.378598    0.509479
    3          9             0        0.651412    1.310669   -0.541048
    4          1             0        0.769043    0.909959    1.441075
    5          1             0        1.472756   -0.305738    0.371488
    6          9             0       -0.651412   -1.310669   -0.541048
    7          1             0       -0.769043   -0.909959    1.441075
    8          1             0       -1.472756    0.305738    0.371488
 ---------------------------------------------------------------------
 Rotational constants (GHZ):     17.2526378      4.9333139      4.3522170
 Leave Link  202 at Thu Oct  4 00:45:57 2007, MaxMem=    6291456 cpu:       0.1
 (Enter /opt/und/gaussian/03D01/linux86-64/g03/l301.exe)
 Standard basis: 3-21G (6D, 7F)
 There are    22 symmetry adapted basis functions of A   symmetry.
 There are    22 symmetry adapted basis functions of B   symmetry.
 Integral buffers will be    131072 words long.
 Raffenetti 1 integral format.
 Two-electron integral symmetry is turned on.
    44 basis functions,    72 primitive gaussians,    44 cartesian basis functions
    17 alpha electrons       17 beta electrons
       nuclear repulsion energy       127.2225769851 Hartrees.
 IExCor=   0 DFT=F Ex=HF Corr=None ExCW=0 ScaHFX=  1.000000
 ScaDFX=  1.000000  1.000000  1.000000  1.000000
 IRadAn=      0 IRanWt=     -1 IRanGd=            0 ICorTp=0
 NAtoms=    8 NActive=    8 NUniq=    4 SFac= 3.00D+00 NAtFMM=   80 NAOKFM=F Big=F
 Leave Link  301 at Thu Oct  4 00:45:57 2007, MaxMem=    6291456 cpu:       0.1
 (Enter /opt/und/gaussian/03D01/linux86-64/g03/linda-exe/l302.exel)
 NPDir=0 NMtPBC=     1 NCelOv=     1 NCel=       1 NClECP=     1 NCelD=      1
         NCelK=      1 NCelE2=     1 NClLst=     1 CellRange=     0.0.
 One-electron integrals computed using PRISM.
 One-electron integral symmetry used in STVInt
 NBasis=    44 RedAO= T  NBF=    22    22
 NBsUse=    44 1.00D-06 NBFU=    22    22
 Leave Link  302 at Thu Oct  4 00:45:58 2007, MaxMem=    6291456 cpu:       0.1
 (Enter /opt/und/gaussian/03D01/linux86-64/g03/l303.exe)
 DipDrv:  MaxL=1.
 Leave Link  303 at Thu Oct  4 00:45:58 2007, MaxMem=    6291456 cpu:       0.0
 (Enter /opt/und/gaussian/03D01/linux86-64/g03/l401.exe)
 Initial guess read from the checkpoint file:
 C2H4F2-gdiis.chk
 Guess basis will be translated and rotated to current coordinates.
 Initial guess orbital symmetries:
       Occupied  (B) (A) (B) (A) (A) (B) (A) (B) (B) (A) (A) (A)
                 (B) (B) (B) (A) (A)
       Virtual   (A) (B) (A) (B) (A) (B) (B) (B) (A) (A) (B) (B)
                 (A) (A) (B) (A) (B) (A) (B) (B) (A) (B) (A) (B)
                 (A) (A) (B)
 The electronic state of the initial guess is 1-A.
 Leave Link  401 at Thu Oct  4 00:45:58 2007, MaxMem=    6291456 cpu:       0.0
 (Enter /opt/und/gaussian/03D01/linux86-64/g03/linda-exe/l502.exel)
 Closed shell SCF:
 Requested convergence on RMS density matrix=1.00D-08 within 128 cycles.
 Requested convergence on MAX density matrix=1.00D-06.
 Requested convergence on             energy=1.00D-06.
 No special actions if energy rises.
 Using DIIS extrapolation, IDIIS=  1040.
 Integral symmetry usage will be decided dynamically.
 Keep R1 integrals in memory in canonical form, NReq=     1360589.
 IEnd=     24490 IEndB=     24490 NGot=   6291456 MDV=   5795028
 LenX=   5795028
 Symmetry not used in FoFDir.
 MinBra= 0 MaxBra= 1 Meth= 1.
 IRaf=       0 NMat=   1 IRICut=       1 DoRegI=T DoRafI=F ISym2E= 0 JSym2E=0.

 Cycle   1  Pass 1  IDiag  1:
 E= -275.418571367114    
 DIIS: error= 1.19D-09 at cycle   1 NSaved=   1.
 NSaved= 1 IEnMin= 1 EnMin= -275.418571367114     IErMin= 1 ErrMin= 1.19D-09
 ErrMax= 1.19D-09 EMaxC= 1.00D-01 BMatC= 8.29D-17 BMatP= 8.29D-17
 IDIUse=1 WtCom= 1.00D+00 WtEn= 0.00D+00
 Coeff-Com:  0.100D+01
 Coeff:      0.100D+01
 Gap=     0.765 Goal=   None    Shift=    0.000
 RMSDP=3.72D-10 MaxDP=2.09D-09              OVMax= 4.09D-09

 SCF Done:  E(RHF) =  -275.418571367     A.U. after    1 cycles
             Convg  =    0.3720D-09             -V/T =  2.0027
             S**2   =   0.0000
 KE= 2.746900880642D+02 PE=-9.091448724030D+02 EE= 2.318136359866D+02
 Leave Link  502 at Thu Oct  4 00:45:59 2007, MaxMem=    6291456 cpu:       0.1
 (Enter /opt/und/gaussian/03D01/linux86-64/g03/l801.exe)
 Range of M.O.s used for correlation:     1    44
 NBasis=    44 NAE=    17 NBE=    17 NFC=     0 NFV=     0
 NROrb=     44 NOA=    17 NOB=    17 NVA=    27 NVB=    27
 Leave Link  801 at Thu Oct  4 00:45:59 2007, MaxMem=    6291456 cpu:       0.0
 (Enter /opt/und/gaussian/03D01/linux86-64/g03/linda-exe/l1002.exel)
 Minotr:  Closed-shell wavefunction.
          Direct CPHF calculation.
          Solving linear equations simultaneously.
          Differentiating once with respect to electric field.
                with respect to dipole field.
          Electric field/nuclear overlap derivatives assumed to be zero.
          Using symmetry in CPHF.
          Requested convergence is 1.0D-08 RMS, and 1.0D-07 maximum.
          Secondary convergence is 1.0D-12 RMS, and 1.0D-12 maximum.
          NewPWx=F KeepS1=T KeepF1=T KeepIn=T MapXYZ=F.
          MDV=       6291390 using IRadAn=       2.
          Store integrals in memory, NReq=     1291015.
 Symmetry not used in FoFDir.
 MinBra= 0 MaxBra= 1 Meth= 1.
 IRaf=       0 NMat=   1 IRICut=       1 DoRegI=T DoRafI=F ISym2E= 0 JSym2E=0.
          There are   3 degrees of freedom in the 1st order CPHF.
     3 vectors were produced by pass  0.
 AX will form   3 AO Fock derivatives at one time.
     3 vectors were produced by pass  1.
     3 vectors were produced by pass  2.
     3 vectors were produced by pass  3.
     3 vectors were produced by pass  4.
     3 vectors were produced by pass  5.
     3 vectors were produced by pass  6.
     3 vectors were produced by pass  7.
     2 vectors were produced by pass  8.
     1 vectors were produced by pass  9.
 Inv2:  IOpt= 1 Iter= 1 AM= 3.88D-16 Conv= 1.00D-12.
 Inverted reduced A of dimension   27 with in-core refinement.
 End of Minotr Frequency-dependent properties file   721 does not exist.
 Leave Link 1002 at Thu Oct  4 00:46:01 2007, MaxMem=    6291456 cpu:       0.4
 (Enter /opt/und/gaussian/03D01/linux86-64/g03/linda-exe/l1101.exel)
 Using compressed storage, NAtomX=     8.
 Will process   9 centers per pass.
 Leave Link 1101 at Thu Oct  4 00:46:01 2007, MaxMem=    6291456 cpu:       0.2
 (Enter /opt/und/gaussian/03D01/linux86-64/g03/l1102.exe)
 Use density number 0.
 Symmetrizing basis deriv contribution to polar:
 IMax=3 JMax=2 DiffMx= 0.00D+00
 Leave Link 1102 at Thu Oct  4 00:46:02 2007, MaxMem=    6291456 cpu:       0.0
 (Enter /opt/und/gaussian/03D01/linux86-64/g03/linda-exe/l1110.exel)
 Forming Gx(P) for the SCF density, NAtomX=     8.
 Integral derivatives from FoFDir, PRISM(SPDF).
 Do as many integral derivatives as possible in FoFDir.
 G2DrvN: MDV=       6291390.
 G2DrvN: will do    9 centers at a time, making    1 passes doing MaxLOS=1.
 Petite list used in FoFDir.
 MinBra= 0 MaxBra= 1 Meth= 1.
 IRaf=       0 NMat=   1 IRICut=       1 DoRegI=T DoRafI=F ISym2E= 1 JSym2E=1.
 FoFDir/FoFCou used for L=0 through L=1.
 Leave Link 1110 at Thu Oct  4 00:46:04 2007, MaxMem=    6291456 cpu:       0.5
 (Enter /opt/und/gaussian/03D01/linux86-64/g03/linda-exe/l1002.exel)
 Minotr:  Closed-shell wavefunction.
 DoAtom=TTTTTTTT
          Direct CPHF calculation.
          Solving linear equations simultaneously.
          Differentiating once with respect to electric field.
                with respect to dipole field.
          Differentiating once with respect to nuclear coordinates.
          Using symmetry in CPHF.
          Requested convergence is 1.0D-08 RMS, and 1.0D-07 maximum.
          Secondary convergence is 1.0D-12 RMS, and 1.0D-12 maximum.
          NewPWx=T KeepS1=F KeepF1=F KeepIn=T MapXYZ=F.
          MDV=       6291382 using IRadAn=       2.
          Store integrals in memory, NReq=     1291183.
 Symmetry not used in FoFDir.
 MinBra= 0 MaxBra= 1 Meth= 1.
 IRaf=       0 NMat=   1 IRICut=       1 DoRegI=T DoRafI=F ISym2E= 0 JSym2E=0.
          There are  15 degrees of freedom in the 1st order CPHF.
    15 vectors were produced by pass  0.
 AX will form  15 AO Fock derivatives at one time.
    15 vectors were produced by pass  1.
    15 vectors were produced by pass  2.
    15 vectors were produced by pass  3.
    15 vectors were produced by pass  4.
    15 vectors were produced by pass  5.
     8 vectors were produced by pass  6.
     3 vectors were produced by pass  7.
 Inv2:  IOpt= 1 Iter= 1 AM= 1.34D-15 Conv= 1.00D-12.
 Inverted reduced A of dimension  101 with in-core refinement.
 Isotropic polarizability for W=    0.000000       19.64 Bohr**3.
 End of Minotr Frequency-dependent properties file   721 does not exist.
 Leave Link 1002 at Thu Oct  4 00:46:05 2007, MaxMem=    6291456 cpu:       1.2
 (Enter /opt/und/gaussian/03D01/linux86-64/g03/l601.exe)
 Copying SCF densities to generalized density rwf, ISCF=0 IROHF=0.

 **********************************************************************

            Population analysis using the SCF density.

 **********************************************************************

 Orbital symmetries:
       Occupied  (B) (A) (B) (A) (A) (B) (A) (B) (B) (A) (A) (A)
                 (B) (B) (B) (A) (A)
       Virtual   (A) (B) (A) (B) (A) (B) (B) (B) (A) (A) (B) (B)
                 (A) (A) (B) (A) (B) (A) (B) (B) (A) (B) (A) (B)
                 (A) (A) (B)
 The electronic state is 1-A.
 Alpha  occ. eigenvalues --  -26.13509 -26.13507 -11.26490 -11.26451  -1.57075
 Alpha  occ. eigenvalues --   -1.55911  -1.05475  -0.87713  -0.72079  -0.72013
 Alpha  occ. eigenvalues --   -0.67813  -0.64367  -0.63877  -0.59696  -0.53164
 Alpha  occ. eigenvalues --   -0.52382  -0.49854
 Alpha virt. eigenvalues --    0.26619   0.28603   0.30223   0.33037   0.36320
 Alpha virt. eigenvalues --    0.38502   0.42908   0.93229   0.93601   0.95723
 Alpha virt. eigenvalues --    1.00229   1.05451   1.08081   1.21216   1.30349
 Alpha virt. eigenvalues --    1.31025   1.36555   1.79219   2.18985   2.29676
 Alpha virt. eigenvalues --    2.33976   2.42707   2.46680   2.49242   2.50921
 Alpha virt. eigenvalues --    3.98751   4.00372
          Condensed to atoms (all electrons):
              1          2          3          4          5          6
     1  C    5.117033   0.170087  -0.030516  -0.049482  -0.053729   0.209355
     2  C    0.170087   5.117033   0.209355   0.324990   0.348703  -0.030516
     3  F   -0.030516   0.209355   9.272990  -0.026755  -0.026544   0.000042
     4  H   -0.049482   0.324990  -0.026755   0.574236  -0.033811   0.001308
     5  H   -0.053729   0.348703  -0.026544  -0.033811   0.527874   0.000623
     6  F    0.209355  -0.030516   0.000042   0.001308   0.000623   9.272990
     7  H    0.324990  -0.049482   0.001308   0.004603   0.000230  -0.026755
     8  H    0.348703  -0.053729   0.000623   0.000230   0.004393  -0.026544
              7          8
     1  C    0.324990   0.348703
     2  C   -0.049482  -0.053729
     3  F    0.001308   0.000623
     4  H    0.004603   0.000230
     5  H    0.000230   0.004393
     6  F   -0.026755  -0.026544
     7  H    0.574236  -0.033811
     8  H   -0.033811   0.527874
 Mulliken atomic charges:
              1
     1  C   -0.036440
     2  C   -0.036440
     3  F   -0.400502
     4  H    0.204681
     5  H    0.232262
     6  F   -0.400502
     7  H    0.204681
     8  H    0.232262
 Sum of Mulliken charges=   0.00000
 Atomic charges with hydrogens summed into heavy atoms:
              1
     1  C    0.400502
     2  C    0.400502
     3  F   -0.400502
     4  H    0.000000
     5  H    0.000000
     6  F   -0.400502
     7  H    0.000000
     8  H    0.000000
 Sum of Mulliken charges=   0.00000
 APT atomic charges:
              1
     1  C    0.536015
     2  C    0.536015
     3  F   -0.479632
     4  H   -0.035899
     5  H   -0.020484
     6  F   -0.479632
     7  H   -0.035899
     8  H   -0.020484
 Sum of APT charges=   0.00000
 APT Atomic charges with hydrogens summed into heavy atoms:
              1
     1  C    0.479632
     2  C    0.479632
     3  F   -0.479632
     4  H    0.000000
     5  H    0.000000
     6  F   -0.479632
     7  H    0.000000
     8  H    0.000000
 Sum of APT charges=   0.00000
 Electronic spatial extent (au):  <R**2>=   286.4044
 Charge=     0.0000 electrons
 Dipole moment (field-independent basis, Debye):
    X=     0.0000    Y=     0.0000    Z=     3.2858  Tot=     3.2858
 Quadrupole moment (field-independent basis, Debye-Ang):
   XX=   -21.3846   YY=   -26.9164   ZZ=   -22.0783
   XY=    -2.2290   XZ=     0.0000   YZ=     0.0000
 Traceless Quadrupole moment (field-independent basis, Debye-Ang):
   XX=     2.0752   YY=    -3.4567   ZZ=     1.3815
   XY=    -2.2290   XZ=     0.0000   YZ=     0.0000
 Octapole moment (field-independent basis, Debye-Ang**2):
  XXX=     0.0000  YYY=     0.0000  ZZZ=    -5.9526  XYY=     0.0000
  XXY=     0.0000  XXZ=    -1.2112  XZZ=     0.0000  YZZ=     0.0000
  YYZ=     1.4166  XYZ=     2.2334
 Hexadecapole moment (field-independent basis, Debye-Ang**3):
 XXXX=   -87.2148 YYYY=  -138.5507 ZZZZ=   -64.4518 XXXY=   -35.0321
 XXXZ=     0.0000 YYYX=   -37.2122 YYYZ=     0.0000 ZZZX=     0.0000
 ZZZY=     0.0000 XXYY=   -38.0386 XXZZ=   -26.4959 YYZZ=   -32.8652
 XXYZ=     0.0000 YYXZ=     0.0000 ZZXY=   -10.7390
 N-N= 1.272225769851D+02 E-N=-9.091448724183D+02  KE= 2.746900880642D+02
 Symmetry A    KE= 1.386434770631D+02
 Symmetry B    KE= 1.360466110011D+02
  Exact polarizability:  19.281   0.043  19.712   0.000   0.000  19.926
 Approx polarizability:  14.799  -0.515  16.430   0.000   0.000  17.044
 No NMR shielding tensors so no spin-rotation constants.
 Leave Link  601 at Thu Oct  4 00:46:06 2007, MaxMem=    6291456 cpu:       0.2
 (Enter /opt/und/gaussian/03D01/linux86-64/g03/linda-exe/l701.exel)
 Compute integral second derivatives.
 ... and contract with generalized density number  0.
 Leave Link  701 at Thu Oct  4 00:46:07 2007, MaxMem=    6291456 cpu:       0.3
 (Enter /opt/und/gaussian/03D01/linux86-64/g03/l702.exe)
 L702 exits ... SP integral derivatives will be done elsewhere.
 Leave Link  702 at Thu Oct  4 00:46:07 2007, MaxMem=    6291456 cpu:       0.0
 (Enter /opt/und/gaussian/03D01/linux86-64/g03/linda-exe/l703.exel)
 Compute integral second derivatives, UseDBF=F.
 Integral derivatives from FoFDir, PRISM(SPD) Scalar Rys(F).
 Petite list used in FoFDir.
 MinBra= 0 MaxBra= 2 Meth= 1.
 IRaf=       0 NMat=   1 IRICut=       1 DoRegI=T DoRafI=F ISym2E= 1 JSym2E=1.
 Leave Link  703 at Thu Oct  4 00:46:08 2007, MaxMem=    6291456 cpu:       1.0
 (Enter /opt/und/gaussian/03D01/linux86-64/g03/l716.exe)
 Dipole        = 7.22078647D-16 1.59511889D-15 1.29272305D+00
 Polarizability= 1.92811084D+01 4.26693890D-02 1.97118868D+01
                 4.32257419D-08 8.99154005D-08 1.99257269D+01
 HyperPolar    =-1.66162560D-06 1.60653697D-06-6.13286825D-07
                 1.57126157D-06 2.32744868D+00 1.03896590D+01
                 2.58436546D+01-1.31837575D-07 1.71899993D-06
                 6.00175502D+01
 Full mass-weighted force constant matrix:
 Low frequencies ---   -3.9582   -1.8738   -0.0029    0.0011    0.0026    4.3782
 Low frequencies ---  142.4960  338.4137  499.1148
 Diagonal vibrational polarizability:
        2.0858602       2.2007790      10.7358474
 Diagonal vibrational hyperpolarizability:
       -0.0000014      -0.0000016      28.1474382
 Harmonic frequencies (cm**-1), IR intensities (KM/Mole), Raman scattering
 activities (A**4/AMU), depolarization ratios for plane and unpolarized
 incident light, reduced masses (AMU), force constants (mDyne/A),
 and normal coordinates:
                     1                      2                      3
                     A                      A                      B
 Frequencies --   142.4959               338.4137               499.1148
 Red. masses --     4.8019                 2.6819                 2.5937
 Frc consts  --     0.0574                 0.1810                 0.3807
 IR Inten    --     6.4745                 0.8093                22.8532
 Raman Activ --     0.0757                 0.2935                 0.6543
 Depolar (P) --     0.7062                 0.3316                 0.7500
 Depolar (U) --     0.8278                 0.4981                 0.8571
 Atom AN      X      Y      Z        X      Y      Z        X      Y      Z
   1   6    -0.05   0.07  -0.16     0.07  -0.15   0.02     0.16   0.05  -0.13
   2   6     0.05  -0.07  -0.16    -0.07   0.15   0.02     0.16   0.05   0.13
   3   9     0.07   0.26   0.13     0.15   0.09  -0.03    -0.11  -0.06   0.03
   4   1     0.23  -0.33  -0.03    -0.42   0.24   0.01    -0.19   0.19   0.10
   5   1    -0.06  -0.15  -0.44     0.12   0.31   0.32     0.39   0.30   0.33
   6   9    -0.07  -0.26   0.13    -0.15  -0.09  -0.03    -0.11  -0.06  -0.03
   7   1    -0.23   0.33  -0.03     0.42  -0.24   0.01    -0.19   0.19  -0.10
   8   1     0.06   0.15  -0.44    -0.12  -0.31   0.32     0.39   0.30  -0.33
                     4                      5                      6
                     A                      B                      B
 Frequencies --   928.5778              1009.6689              1182.6990
 Red. masses --     2.9848                 2.1900                 3.0365
 Frc consts  --     1.5163                 1.3154                 2.5025
 IR Inten    --    19.7065                38.6565                23.9554
 Raman Activ --     9.6582                 5.0985                 4.2662
 Depolar (P) --     0.1821                 0.7500                 0.7500
 Depolar (U) --     0.3081                 0.8571                 0.8571
 Atom AN      X      Y      Z        X      Y      Z        X      Y      Z
   1   6     0.18   0.09  -0.16     0.01   0.17  -0.03    -0.02   0.05   0.24
   2   6    -0.18  -0.09  -0.16     0.01   0.17   0.03    -0.02   0.05  -0.24
   3   9    -0.01  -0.07   0.09    -0.01  -0.10   0.07     0.01  -0.06   0.12
   4   1    -0.60  -0.16  -0.06     0.49   0.00   0.07    -0.23   0.34  -0.37
   5   1    -0.05   0.00   0.16    -0.34  -0.20  -0.24     0.20   0.25   0.11
   6   9     0.01   0.07   0.09    -0.01  -0.10  -0.07     0.01  -0.06  -0.12
   7   1     0.60   0.16  -0.06     0.49   0.00  -0.07    -0.23   0.34   0.37
   8   1     0.05   0.00   0.16    -0.34  -0.20   0.24     0.20   0.25  -0.11
                     7                      8                      9
                     A                      A                      B
 Frequencies --  1189.1059              1220.6366              1372.9600
 Red. masses --     3.9320                 1.9699                 1.0913
 Frc consts  --     3.2757                 1.7293                 1.2120
 IR Inten    --    49.1941                 8.5261                 3.5511
 Raman Activ --     7.0105                 3.4494                 7.5769
 Depolar (P) --     0.7456                 0.3008                 0.7500
 Depolar (U) --     0.8543                 0.4625                 0.8571
 Atom AN      X      Y      Z        X      Y      Z        X      Y      Z
   1   6     0.21   0.14   0.17    -0.12   0.14   0.01     0.03  -0.03   0.00
   2   6    -0.21  -0.14   0.17     0.12  -0.14   0.01     0.03  -0.03   0.00
   3   9     0.01   0.09  -0.12    -0.03   0.06  -0.03    -0.02   0.03   0.00
   4   1     0.01  -0.24   0.19    -0.31   0.13  -0.09     0.12   0.29  -0.20
   5   1    -0.42  -0.34   0.00     0.22  -0.13   0.52    -0.19  -0.40   0.40
   6   9    -0.01  -0.09  -0.12     0.03  -0.06  -0.03    -0.02   0.03   0.00
   7   1    -0.01   0.24   0.19     0.31  -0.13  -0.09     0.12   0.29   0.20
   8   1     0.42   0.34   0.00    -0.22   0.13   0.52    -0.19  -0.40  -0.40
                    10                     11                     12
                     A                      A                      B
 Frequencies --  1435.7549              1574.0526              1581.0498
 Red. masses --     1.0758                 1.3466                 1.2796
 Frc consts  --     1.3066                 1.9658                 1.8846
 IR Inten    --     0.6231                12.9839                10.6732
 Raman Activ --    24.6359                 3.5486                 1.1789
 Depolar (P) --     0.7311                 0.7105                 0.7500
 Depolar (U) --     0.8447                 0.8307                 0.8571
 Atom AN      X      Y      Z        X      Y      Z        X      Y      Z
   1   6     0.04  -0.01  -0.02     0.06   0.10   0.03    -0.06  -0.06  -0.07
   2   6    -0.04   0.01  -0.02    -0.06  -0.10   0.03    -0.06  -0.06   0.07
   3   9     0.00   0.01   0.02     0.01   0.00   0.00     0.01   0.00   0.01
   4   1     0.22   0.46  -0.33     0.18   0.23  -0.20     0.36   0.41  -0.25
   5   1    -0.22  -0.25   0.15     0.35   0.45  -0.20     0.16   0.25  -0.20
   6   9     0.00  -0.01   0.02    -0.01   0.00   0.00     0.01   0.00  -0.01
   7   1    -0.22  -0.46  -0.33    -0.18  -0.23  -0.20     0.36   0.41   0.25
   8   1     0.22   0.25   0.15    -0.35  -0.45  -0.20     0.16   0.25   0.20
                    13                     14                     15
                     A                      B                      B
 Frequencies --  1680.8954              1685.5738              3254.6433
 Red. masses --     1.0904                 1.0860                 1.0588
 Frc consts  --     1.8151                 1.8179                 6.6079
 IR Inten    --     0.0068                 4.0323                16.8285
 Raman Activ --     3.9062                20.0563                41.2769
 Depolar (P) --     0.7480                 0.7500                 0.7500
 Depolar (U) --     0.8559                 0.8571                 0.8571
 Atom AN      X      Y      Z        X      Y      Z        X      Y      Z
   1   6     0.04  -0.01  -0.04    -0.05   0.01   0.03     0.03   0.01  -0.04
   2   6    -0.04   0.01  -0.04    -0.05   0.01  -0.03     0.03   0.01   0.04
   3   9     0.00   0.00   0.00     0.00   0.00   0.00     0.00   0.00   0.00
   4   1     0.43  -0.26   0.07     0.41  -0.27   0.09    -0.06  -0.31  -0.52
   5   1     0.13   0.10   0.46     0.18   0.17   0.43    -0.26   0.23   0.06
   6   9     0.00   0.00   0.00     0.00   0.00   0.00     0.00   0.00   0.00
   7   1    -0.43   0.26   0.07     0.41  -0.27  -0.09    -0.06  -0.31   0.52
   8   1    -0.13  -0.10   0.46     0.18   0.17  -0.43    -0.26   0.23  -0.06
                    16                     17                     18
                     A                      A                      B
 Frequencies --  3267.4469              3306.9230              3319.0553
 Red. masses --     1.0568                 1.1089                 1.1068
 Frc consts  --     6.6478                 7.1446                 7.1834
 IR Inten    --    20.4139                23.8524                36.8351
 Raman Activ --   148.8712                89.3435                12.2379
 Depolar (P) --     0.0403                 0.7497                 0.7500
 Depolar (U) --     0.0774                 0.8570                 0.8571
 Atom AN      X      Y      Z        X      Y      Z        X      Y      Z
   1   6     0.04   0.00  -0.03     0.03  -0.05   0.04     0.04  -0.05   0.03
   2   6    -0.04   0.00  -0.03    -0.03   0.05   0.04     0.04  -0.05  -0.03
   3   9     0.00   0.00   0.00     0.00   0.00   0.00     0.00   0.00   0.00
   4   1     0.05   0.26   0.43    -0.06  -0.25  -0.42     0.05   0.17   0.29
   5   1     0.37  -0.32  -0.08     0.38  -0.31  -0.07    -0.47   0.38   0.09
   6   9     0.00   0.00   0.00     0.00   0.00   0.00     0.00   0.00   0.00
   7   1    -0.05  -0.26   0.43     0.06   0.25  -0.42     0.05   0.17  -0.29
   8   1    -0.37   0.32  -0.08    -0.38   0.31  -0.07    -0.47   0.38  -0.09

 -------------------
 - Thermochemistry -
 -------------------
 Temperature   298.150 Kelvin.  Pressure   1.00000 Atm.
 Atom  1 has atomic number  6 and mass  12.00000
 Atom  2 has atomic number  6 and mass  12.00000
 Atom  3 has atomic number  9 and mass  18.99840
 Atom  4 has atomic number  1 and mass   1.00783
 Atom  5 has atomic number  1 and mass   1.00783
 Atom  6 has atomic number  9 and mass  18.99840
 Atom  7 has atomic number  1 and mass   1.00783
 Atom  8 has atomic number  1 and mass   1.00783
 Molecular mass:    66.02811 amu.
 Principal axes and moments of inertia in atomic units:
                           1         2         3
     EIGENVALUES --   104.60668 365.82736 414.67170
           X            0.52645   0.00000   0.85021
           Y            0.85021   0.00000  -0.52645
           Z            0.00000   1.00000   0.00000
 This molecule is an asymmetric top.
 Rotational symmetry number  2.
 Rotational temperatures (Kelvin)      0.82800     0.23676     0.20887
 Rotational constants (GHZ):          17.25264     4.93331     4.35222
 Zero-point vibrational energy     173393.1 (Joules/Mol)
                                   41.44195 (Kcal/Mol)
 Warning -- explicit consideration of   3 degrees of freedom as
           vibrations may cause significant error
 Vibrational temperatures:    205.02   486.90   718.11  1336.01  1452.69
          (Kelvin)           1701.64  1710.86  1756.22  1975.38  2065.73
                             2264.71  2274.78  2418.43  2425.16  4682.70
                             4701.12  4757.92  4775.37
 
 Zero-point correction=                           0.066042 (Hartree/Particle)
 Thermal correction to Energy=                    0.070291
 Thermal correction to Enthalpy=                  0.071235
 Thermal correction to Gibbs Free Energy=         0.039671
 Sum of electronic and zero-point Energies=           -275.352529
 Sum of electronic and thermal Energies=              -275.348280
 Sum of electronic and thermal Enthalpies=            -275.347336
 Sum of electronic and thermal Free Energies=         -275.378901
 
                     E (Thermal)             CV                S
                      KCal/Mol        Cal/Mol-Kelvin    Cal/Mol-Kelvin
 Total                   44.108             12.574             66.434
 Electronic               0.000              0.000              0.000
 Translational            0.889              2.981             38.481
 Rotational               0.889              2.981             22.899
 Vibrational             42.331              6.612              5.054
 Vibration  1             0.616              1.911              2.770
 Vibration  2             0.719              1.599              1.220
 Vibration  3             0.855              1.252              0.660
                       Q            Log10(Q)             Ln(Q)
 Total Bot       0.565948D-18        -18.247223        -42.015785
 Total V=0       0.134866D+13         12.129904         27.930136
 Vib (Bot)       0.119026D-29        -29.924358        -68.903381
 Vib (Bot)  1    0.142599D+01          0.154116          0.354866
 Vib (Bot)  2    0.549242D+00         -0.260237         -0.599217
 Vib (Bot)  3    0.329548D+00         -0.482082         -1.110034
 Vib (V=0)       0.283641D+01          0.452769          1.042539
 Vib (V=0)  1    0.201111D+01          0.303435          0.698686
 Vib (V=0)  2    0.124274D+01          0.094381          0.217321
 Vib (V=0)  3    0.109883D+01          0.040932          0.094249
 Electronic      0.100000D+01          0.000000          0.000000
 Translational   0.210886D+08          7.324048         16.864245
 Rotational      0.225469D+05          4.353086         10.023352
 
                                                            gauche-C2H4F2
                                                             IR Spectrum
 
     3333                                                          11  11     1 1    111      1                                      
     3322                                                          66  55     4 3    211      0  9               4      3      1     
     1065                                                          88  87     3 7    288      1  2               9      3      4     
     9775                                                          61  14     6 3    193      0  9               9      8      2     
 
     XXXX                                                          X   XX     X X    XXX      X  X               X      X      X     
     XXXX                                                          X   XX            XXX      X  X               X             X     
     XXXX                                                              XX            XXX      X  X               X             X     
     XXXX                                                              XX             XX      X  X               X                   
     XXXX                                                               X             XX      X  X               X                   
     XXXX                                                                             XX      X  X               X                   
     XXXX                                                                             XX      X  X               X                   
     XXX                                                                              XX      X  X               X                   
     XX                                                                               XX      X                  X                   
     XX                                                                               XX      X                                      
     X                                                                                X       X                                      
     X                                                                                X       X                                      
     X                                                                                X       X                                      
     X                                                                                X       X                                      
     X                                                                                X       X                                      
                                                                                      X       X                                      
                                                                                      X                                              
                                                                                      X                                              
                                                                                      X                                              
                                                                                      X                                              
 
 
                                                            gauche-C2H4F2
                                                            Raman Spectrum
 
     3333                                                          11  11     1 1    111      1                                      
     3322                                                          66  55     4 3    211      0  9               4      3      1     
     1065                                                          88  87     3 7    288      1  2               9      3      4     
     9775                                                          61  14     6 3    193      0  9               9      8      2     
 
     XXXX                                                          XX  XX     X X    XXX      X  X               X      X      X     
     XXXX                                                          X          X                                                      
      XXX                                                          X          X                                                      
      XXX                                                                                                                            
      XXX                                                                                                                            
      XXX                                                                                                                            
      XX                                                                                                                             
      XX                                                                                                                             
      XX                                                                                                                             
      XX                                                                                                                             
      XX                                                                                                                             
      XX                                                                                                                             
       X                                                                                                                             
       X                                                                                                                             
       X                                                                                                                             
       X                                                                                                                             
       X                                                                                                                             
       X                                                                                                                             
       X                                                                                                                             
       X                                                                                                                             
 
 ***** Axes restored to original set *****
 -------------------------------------------------------------------
 Center     Atomic                   Forces (Hartrees/Bohr)
 Number     Number              X              Y              Z
 -------------------------------------------------------------------
    1          6           0.000000532    0.000019164    0.000014034
    2          6          -0.000016331   -0.000010043   -0.000014034
    3          9           0.000016455    0.000018882   -0.000005108
    4          1           0.000021084    0.000003050    0.000008856
    5          1          -0.000017716   -0.000005840   -0.000017221
    6          9          -0.000008125   -0.000023692    0.000005108
    7          1           0.000007901   -0.000019785   -0.000008856
    8          1          -0.000003800    0.000018263    0.000017221
 -------------------------------------------------------------------
 Cartesian Forces:  Max     0.000023692 RMS     0.000014127
 Force constants in Cartesian coordinates: 
                1             2             3             4             5
      1  0.698404D+00
      2  0.437232D-01  0.622554D+00
      3  0.959106D-02 -0.304156D-01  0.546210D+00
      4 -0.895494D-01 -0.646786D-02  0.174109D-02  0.603651D+00
      5 -0.602491D-02 -0.967621D-01  0.179638D-01 -0.109821D-01  0.717307D+00
      6  0.146865D-01  0.104897D-01 -0.204164D+00 -0.311362D-01 -0.690170D-02
      7 -0.255203D-01  0.662064D-03 -0.790054D-02 -0.278485D+00 -0.271315D-01
      8 -0.191416D-02  0.254149D-02 -0.219796D-05 -0.271241D-01 -0.766741D-01
      9 -0.559639D-01 -0.366393D-02 -0.173792D-01 -0.778450D-01 -0.873848D-02
     10  0.117273D-02 -0.153954D-03  0.416487D-03 -0.141819D+00  0.114017D+00
     11 -0.209135D-02  0.145790D-02  0.303462D-02  0.120133D+00 -0.235579D+00
     12  0.221324D-01 -0.339464D-01 -0.906560D-02  0.592552D-01 -0.742693D-01
     13  0.413368D-02 -0.125183D-03  0.164299D-02 -0.922045D-01 -0.776795D-01
     14  0.105542D-02 -0.867984D-03 -0.258048D-02 -0.866930D-01 -0.292802D+00
     15  0.167754D-01  0.419869D-01 -0.175756D-01  0.356667D-01  0.845284D-01
     16 -0.103634D+00  0.738265D-01  0.301354D-01 -0.393178D-02  0.105500D-01
     17  0.738191D-01 -0.251526D+00 -0.705924D-01  0.131262D-01 -0.190470D-01
     18  0.313548D-01 -0.717850D-01 -0.932656D-01  0.248089D-01 -0.502981D-01
     19 -0.313529D+00  0.209964D-01 -0.944337D-01  0.235885D-02 -0.140654D-02
     20  0.148805D-01 -0.638686D-01  0.110202D-01  0.530856D-03  0.271773D-03
     21 -0.939467D-01  0.141818D-01 -0.106942D+00 -0.404646D-01  0.219403D-02
     22 -0.171478D+00 -0.132461D+00  0.588072D-01 -0.203720D-04 -0.134292D-02
     23 -0.123448D+00 -0.213529D+00  0.715721D-01 -0.252353D-02  0.328607D-02
     24  0.553704D-01  0.731524D-01 -0.978181D-01  0.279740D-01  0.355214D-01
                6             7             8             9            10
      6  0.546210D+00
      7 -0.762025D-01  0.368986D+00
      8 -0.919814D-02  0.391764D-01  0.548712D-01
      9 -0.932656D-01  0.119631D+00  0.130648D-01  0.984185D-01
     10  0.567606D-01 -0.405564D-01  0.251507D-01  0.516928D-02  0.168089D+00
     11 -0.762719D-01 -0.621461D-02  0.113656D-01  0.316487D-02 -0.129952D+00
     12 -0.106942D+00 -0.175067D-01  0.109958D-01  0.694337D-02 -0.563604D-01
     13  0.325796D-01 -0.321021D-01 -0.368145D-01  0.499008D-02  0.110248D-01
     14  0.867146D-01 -0.373205D-02  0.404132D-02 -0.150202D-02 -0.857947D-02
     15 -0.978181D-01 -0.137891D-01 -0.146431D-01  0.582015D-02 -0.464094D-02
     16  0.394837D-02  0.424575D-02  0.199545D-04  0.234184D-02  0.168933D-02
     17 -0.684317D-02 -0.381783D-02  0.205304D-02 -0.275117D-03  0.412526D-04
     18 -0.173792D-01 -0.140918D-02  0.189053D-02  0.280255D-02 -0.160378D-02
     19  0.241981D-02  0.165257D-02  0.249182D-03  0.136293D-02  0.768690D-03
     20  0.187800D-02  0.200336D-04  0.185701D-02 -0.106499D-02 -0.814571D-03
     21 -0.906560D-02 -0.258552D-02  0.234842D-03 -0.987595D-02  0.464934D-03
     22 -0.305626D-02  0.177950D-02  0.125645D-02  0.313828D-03 -0.368738D-03
     23  0.132629D-03  0.103747D-02 -0.555576D-04 -0.985144D-03  0.290451D-03
     24 -0.175756D-01 -0.237442D-03 -0.234259D-02  0.653614D-02 -0.206241D-03
               11            12            13            14            15
     11  0.244641D+00
     12  0.862001D-01  0.108820D+00
     13  0.183658D-01 -0.776168D-02  0.109049D+00
     14 -0.240313D-01  0.115437D-01  0.969360D-01  0.310735D+00
     15 -0.144995D-01  0.805861D-02 -0.311918D-01 -0.943137D-01  0.101851D+00
     16  0.270401D-03  0.149614D-02 -0.590089D-03 -0.111631D-03 -0.191002D-02
     17  0.182026D-02 -0.212171D-02 -0.330615D-03  0.231403D-02 -0.137693D-02
     18  0.647832D-03 -0.987595D-02 -0.101007D-02 -0.220789D-03  0.653614D-02
     19 -0.400559D-03 -0.143447D-02  0.241094D-04  0.115561D-03 -0.665976D-03
     20  0.671349D-04 -0.291333D-03  0.517261D-03 -0.134327D-03 -0.622648D-03
     21 -0.138796D-02  0.119513D-02  0.154621D-02  0.109994D-02  0.866926D-03
     22 -0.111249D-03  0.179472D-03  0.664937D-03  0.100911D-02 -0.244191D-03
     23  0.258520D-03  0.188903D-02 -0.869300D-03  0.745657D-03 -0.105942D-02
     24 -0.888076D-03  0.866926D-03 -0.795387D-03 -0.741185D-03 -0.773877D-02
               16            17            18            19            20
     16  0.994722D-01
     17 -0.116428D+00  0.324385D+00
     18 -0.485010D-01  0.110136D+00  0.984185D-01
     19 -0.981447D-02  0.115343D-01  0.156221D-03  0.338044D+00
     20  0.428996D-01 -0.193764D-01  0.605916D-02 -0.318278D-01  0.746850D-01
     21  0.182760D-01 -0.966331D-02  0.694337D-02  0.102832D+00 -0.570944D-02
     22  0.125626D-01  0.220551D-01 -0.379582D-02 -0.195049D-01 -0.262058D-01
     23 -0.110273D-01 -0.406234D-01  0.357052D-02  0.739456D-03  0.649840D-02
     24 -0.578670D-02 -0.192633D-01  0.582015D-02 -0.102365D-01 -0.112689D-01
               21            22            23            24
     21  0.108820D+00
     22  0.138780D-01  0.176364D+00
     23 -0.949962D-03  0.135801D+00  0.243420D+00
     24  0.805861D-02 -0.660822D-01 -0.741697D-01  0.101851D+00
 Force constants in internal coordinates: 
                1             2             3             4             5
      1  0.300987D+00
      2  0.171691D-01  0.418919D+00
      3  0.419906D-02  0.117635D-01  0.380658D+00
      4  0.434965D-02  0.106105D-01  0.449846D-02  0.384504D+00
      5  0.171691D-01  0.472993D-02  0.887219D-04  0.100956D-02  0.418919D+00
      6  0.419906D-02  0.887219D-04  0.150141D-02  0.701065D-03  0.117635D-01
      7  0.434965D-02  0.100956D-02  0.701065D-03 -0.689293D-03  0.106105D-01
      8  0.161924D-01  0.239731D-01 -0.472264D-02 -0.491171D-02 -0.416291D-02
      9  0.156239D-01 -0.268221D-01  0.753850D-02 -0.100157D-01  0.110136D-01
     10  0.188544D-01 -0.265701D-01 -0.109926D-01  0.651613D-02 -0.495234D-02
     11 -0.159404D-01  0.146244D-01  0.581530D-03  0.183726D-02 -0.101412D-02
     12 -0.171027D-01  0.129686D-01  0.193827D-02  0.956723D-03  0.872795D-03
     13 -0.182063D-01  0.281210D-02  0.571701D-02  0.560865D-02 -0.181123D-02
     14  0.161924D-01 -0.416291D-02  0.418628D-02 -0.711088D-02  0.239731D-01
     15  0.156239D-01  0.110136D-01 -0.135617D-03  0.185060D-02 -0.268221D-01
     16  0.188544D-01 -0.495234D-02 -0.797699D-03  0.392617D-02 -0.265701D-01
     17 -0.159404D-01 -0.101412D-02 -0.157681D-02  0.118455D-02  0.146244D-01
     18 -0.171027D-01  0.872795D-03 -0.136974D-02  0.177982D-02  0.129686D-01
     19 -0.182063D-01 -0.181123D-02 -0.300525D-03 -0.170340D-02  0.281210D-02
     20 -0.368921D-03 -0.372621D-02 -0.327571D-02  0.380913D-02 -0.372621D-02
     21 -0.438557D-03 -0.820655D-03 -0.271729D-02  0.201598D-02  0.126081D-01
     22 -0.930683D-03  0.807632D-03 -0.368986D-02  0.360782D-02 -0.181551D-01
     23 -0.438557D-03  0.126081D-01 -0.874791D-03 -0.305971D-02 -0.820655D-03
     24 -0.508193D-03  0.155136D-01 -0.316370D-03 -0.485286D-02  0.155136D-01
     25 -0.100032D-02  0.171419D-01 -0.128894D-02 -0.326102D-02 -0.152495D-01
     26 -0.930683D-03 -0.181551D-01  0.399817D-02  0.167306D-02  0.807632D-03
     27 -0.100032D-02 -0.152495D-01  0.455659D-02 -0.120085D-03  0.171419D-01
     28 -0.149244D-02 -0.136212D-01  0.358403D-02  0.147175D-02 -0.136212D-01
                6             7             8             9            10
      6  0.380658D+00
      7  0.449846D-02  0.384504D+00
      8  0.418628D-02 -0.711088D-02  0.177568D+00
      9 -0.135617D-03  0.185060D-02 -0.181682D-01  0.134851D+00
     10 -0.797699D-03  0.392617D-02 -0.213986D-01 -0.178697D-01  0.129555D+00
     11 -0.157681D-02  0.118455D-02 -0.719900D-01 -0.555651D-01  0.929897D-02
     12 -0.136974D-02  0.177982D-02 -0.736203D-01  0.798172D-02 -0.514240D-01
     13 -0.300525D-03 -0.170340D-02  0.755525D-02 -0.526696D-01 -0.500721D-01
     14 -0.472264D-02 -0.491171D-02 -0.133535D-01  0.316038D-01 -0.218821D-01
     15  0.753850D-02 -0.100157D-01  0.316038D-01 -0.120390D-01 -0.742486D-02
     16 -0.109926D-01  0.651613D-02 -0.218821D-01 -0.742486D-02  0.257228D-01
     17  0.581530D-03  0.183726D-02 -0.454825D-02 -0.743655D-02  0.794767D-02
     18  0.193827D-02  0.956723D-03  0.980361D-02 -0.860054D-02  0.210982D-03
     19  0.571701D-02  0.560865D-02 -0.164375D-02  0.410509D-02 -0.486634D-02
     20 -0.327571D-02  0.380913D-02 -0.714512D-02 -0.529359D-02  0.990259D-02
     21 -0.874791D-03 -0.305971D-02 -0.168186D-02 -0.231037D-02  0.166795D-02
     22  0.399817D-02  0.167306D-02  0.247786D-02 -0.969602D-02  0.738526D-02
     23 -0.271729D-02  0.201598D-02  0.271629D-02 -0.244934D-02 -0.274036D-02
     24 -0.316370D-03 -0.485286D-02  0.817955D-02  0.533884D-03 -0.109750D-01
     25  0.455659D-02 -0.120085D-03  0.123393D-01 -0.685177D-02 -0.525770D-02
     26 -0.368986D-02  0.360782D-02 -0.132869D-01  0.707802D-02  0.681689D-02
     27 -0.128894D-02 -0.326102D-02 -0.782366D-02  0.100612D-01 -0.141775D-02
     28  0.358403D-02  0.147175D-02 -0.366394D-02  0.267560D-02  0.429956D-02
               11            12            13            14            15
     11  0.819105D-01
     12  0.208709D-01  0.817309D-01
     13  0.164654D-01  0.156101D-01  0.644312D-01
     14 -0.454825D-02  0.980361D-02 -0.164375D-02  0.177568D+00
     15 -0.743655D-02 -0.860054D-02  0.410509D-02 -0.181682D-01  0.134851D+00
     16  0.794767D-02  0.210982D-03 -0.486634D-02 -0.213986D-01 -0.178697D-01
     17  0.360013D-02  0.213539D-03  0.200318D-03 -0.719900D-01 -0.555651D-01
     18  0.213539D-03 -0.330874D-02  0.177525D-02 -0.736203D-01  0.798172D-02
     19  0.200318D-03  0.177525D-02  0.464998D-03  0.755525D-02 -0.526696D-01
     20 -0.947677D-02  0.130916D-01 -0.117147D-02 -0.714512D-02 -0.529359D-02
     21 -0.123896D-01  0.141431D-01  0.563940D-03  0.271629D-02 -0.244934D-02
     22 -0.118025D-01  0.109714D-01  0.647112D-03 -0.132869D-01  0.707802D-02
     23  0.128353D-01 -0.172925D-02 -0.842108D-02 -0.168186D-02 -0.231037D-02
     24  0.992247D-02 -0.677768D-03 -0.668567D-02  0.817955D-02  0.533884D-03
     25  0.105096D-01 -0.384942D-02 -0.660250D-02 -0.782366D-02  0.100612D-01
     26  0.364747D-02 -0.102512D-01  0.569689D-02  0.247786D-02 -0.969602D-02
     27  0.734646D-03 -0.919968D-02  0.743230D-02  0.123393D-01 -0.685177D-02
     28  0.132173D-02 -0.123713D-01  0.751547D-02 -0.366394D-02  0.267560D-02
               16            17            18            19            20
     16  0.129555D+00
     17  0.929897D-02  0.819105D-01
     18 -0.514240D-01  0.208709D-01  0.817309D-01
     19 -0.500721D-01  0.164654D-01  0.156101D-01  0.644312D-01
     20  0.990259D-02 -0.947677D-02  0.130916D-01 -0.117147D-02  0.252918D-01
     21 -0.274036D-02  0.128353D-01 -0.172925D-02 -0.842108D-02  0.605395D-02
     22  0.681689D-02  0.364747D-02 -0.102512D-01  0.569689D-02  0.756611D-02
     23  0.166795D-02 -0.123896D-01  0.141431D-01  0.563940D-03  0.605395D-02
     24 -0.109750D-01  0.992247D-02 -0.677768D-03 -0.668567D-02 -0.131839D-01
     25 -0.141775D-02  0.734646D-03 -0.919968D-02  0.743230D-02 -0.116717D-01
     26  0.738526D-02 -0.118025D-01  0.109714D-01  0.647112D-03  0.756611D-02
     27 -0.525770D-02  0.105096D-01 -0.384942D-02 -0.660250D-02 -0.116717D-01
     28  0.429956D-02  0.132173D-02 -0.123713D-01  0.751547D-02 -0.101595D-01
               21            22            23            24            25
     21  0.219695D-01
     22  0.817908D-02  0.241705D-01
     23 -0.115784D-01 -0.112874D-01  0.219695D-01
     24  0.433716D-02 -0.106744D-01  0.433716D-02  0.218582D-01
     25 -0.945327D-02  0.531698D-02  0.462817D-02  0.684660D-02  0.216169D-01
     26 -0.112874D-01 -0.119547D-01  0.817908D-02 -0.106744D-01 -0.113417D-01
     27  0.462817D-02 -0.113417D-01 -0.945327D-02  0.684660D-02 -0.912327D-02
     28 -0.916226D-02  0.464969D-02 -0.916226D-02 -0.816497D-02  0.564697D-02
               26            27            28
     26  0.241705D-01
     27  0.531698D-02  0.216169D-01
     28  0.464969D-02  0.564697D-02  0.194589D-01
 Leave Link  716 at Thu Oct  4 00:46:09 2007, MaxMem=    6291456 cpu:       0.1
 (Enter /opt/und/gaussian/03D01/linux86-64/g03/l103.exe)

 GradGradGradGradGradGradGradGradGradGradGradGradGradGradGradGradGradGrad
 Berny optimization.
 Internal  Forces:  Max     0.000028005 RMS     0.000015457
 Search for a local minimum.
 Step number   1 out of a maximum of   2
 All quantities printed in internal units (Hartrees-Bohrs-Radians)
 Second derivative matrix not updated -- analytic derivatives used.
     Eigenvalues ---    0.00335   0.05765   0.06010   0.07957   0.08127
     Eigenvalues ---    0.14537   0.15301   0.17626   0.19006   0.25024
     Eigenvalues ---    0.27176   0.33249   0.37987   0.38020   0.38380
     Eigenvalues ---    0.38624   0.43705   0.443071000.000001000.00000
     Eigenvalues --- 1000.000001000.000001000.000001000.000001000.00000
     Eigenvalues --- 1000.000001000.000001000.00000
 Angle between quadratic step and forces=  71.79 degrees.
 Linear search not attempted -- first point.
 Iteration  1 RMS(Cart)=  0.00034698 RMS(Int)=  0.00000007
 Iteration  2 RMS(Cart)=  0.00000007 RMS(Int)=  0.00000000
 Variable       Old X    -DE/DX   Delta X   Delta X   Delta X     New X
                                 (Linear)    (Quad)   (Total)
    R1        2.84760  -0.00003   0.00000  -0.00009  -0.00009   2.84751
    R2        2.65395   0.00002   0.00000   0.00005   0.00005   2.65400
    R3        2.03885  -0.00001   0.00000  -0.00002  -0.00002   2.03883
    R4        2.03702   0.00001   0.00000   0.00001   0.00001   2.03703
    R5        2.65395   0.00002   0.00000   0.00005   0.00005   2.65400
    R6        2.03885  -0.00001   0.00000  -0.00002  -0.00002   2.03883
    R7        2.03702   0.00001   0.00000   0.00001   0.00001   2.03703
    A1        1.91080  -0.00002   0.00000  -0.00016  -0.00016   1.91064
    A2        1.91956   0.00002   0.00000   0.00014   0.00014   1.91970
    A3        1.91746  -0.00002   0.00000  -0.00007  -0.00007   1.91739
    A4        1.89550  -0.00001   0.00000  -0.00012  -0.00012   1.89538
    A5        1.90242   0.00003   0.00000   0.00015   0.00015   1.90257
    A6        1.91784   0.00001   0.00000   0.00006   0.00006   1.91791
    A7        1.91080  -0.00002   0.00000  -0.00016  -0.00016   1.91064
    A8        1.91956   0.00002   0.00000   0.00014   0.00014   1.91970
    A9        1.91746  -0.00002   0.00000  -0.00007  -0.00007   1.91739
   A10        1.89550  -0.00001   0.00000  -0.00012  -0.00012   1.89538
   A11        1.90242   0.00003   0.00000   0.00015   0.00015   1.90257
   A12        1.91784   0.00001   0.00000   0.00006   0.00006   1.91791
    D1        1.30870   0.00001   0.00000  -0.00052  -0.00052   1.30818
    D2       -2.89308   0.00000   0.00000  -0.00069  -0.00069  -2.89376
    D3       -0.77991   0.00000   0.00000  -0.00056  -0.00056  -0.78047
    D4       -2.89308   0.00000   0.00000  -0.00069  -0.00069  -2.89376
    D5       -0.81167  -0.00001   0.00000  -0.00085  -0.00085  -0.81252
    D6        1.30149  -0.00001   0.00000  -0.00072  -0.00072   1.30077
    D7       -0.77991   0.00000   0.00000  -0.00056  -0.00056  -0.78047
    D8        1.30149  -0.00001   0.00000  -0.00072  -0.00072   1.30077
    D9       -2.86853   0.00000   0.00000  -0.00060  -0.00060  -2.86913
         Item               Value     Threshold  Converged?
 Maximum Force            0.000028     0.000450     YES
 RMS     Force            0.000015     0.000300     YES
 Maximum Displacement     0.000730     0.001800     YES
 RMS     Displacement     0.000347     0.001200     YES
 Predicted change in Energy=-2.608455D-08
 Optimization completed.
    -- Stationary point found.
                           ----------------------------
                           !   Optimized Parameters   !
                           ! (Angstroms and Degrees)  !
 --------------------------                            --------------------------
 ! Name  Definition              Value          Derivative Info.                !
 --------------------------------------------------------------------------------
 ! R1    R(1,2)                  1.5069         -DE/DX =    0.0                 !
 ! R2    R(1,6)                  1.4044         -DE/DX =    0.0                 !
 ! R3    R(1,7)                  1.0789         -DE/DX =    0.0                 !
 ! R4    R(1,8)                  1.0779         -DE/DX =    0.0                 !
 ! R5    R(2,3)                  1.4044         -DE/DX =    0.0                 !
 ! R6    R(2,4)                  1.0789         -DE/DX =    0.0                 !
 ! R7    R(2,5)                  1.0779         -DE/DX =    0.0                 !
 ! A1    A(2,1,6)              109.4808         -DE/DX =    0.0                 !
 ! A2    A(2,1,7)              109.9828         -DE/DX =    0.0                 !
 ! A3    A(2,1,8)              109.8625         -DE/DX =    0.0                 !
 ! A4    A(6,1,7)              108.6041         -DE/DX =    0.0                 !
 ! A5    A(6,1,8)              109.0007         -DE/DX =    0.0                 !
 ! A6    A(7,1,8)              109.8844         -DE/DX =    0.0                 !
 ! A7    A(1,2,3)              109.4808         -DE/DX =    0.0                 !
 ! A8    A(1,2,4)              109.9828         -DE/DX =    0.0                 !
 ! A9    A(1,2,5)              109.8625         -DE/DX =    0.0                 !
 ! A10   A(3,2,4)              108.6041         -DE/DX =    0.0                 !
 ! A11   A(3,2,5)              109.0007         -DE/DX =    0.0                 !
 ! A12   A(4,2,5)              109.8844         -DE/DX =    0.0                 !
 ! D1    D(6,1,2,3)             74.9831         -DE/DX =    0.0                 !
 ! D2    D(6,1,2,4)           -165.7611         -DE/DX =    0.0                 !
 ! D3    D(6,1,2,5)            -44.6856         -DE/DX =    0.0                 !
 ! D4    D(7,1,2,3)           -165.7611         -DE/DX =    0.0                 !
 ! D5    D(7,1,2,4)            -46.5054         -DE/DX =    0.0                 !
 ! D6    D(7,1,2,5)             74.5701         -DE/DX =    0.0                 !
 ! D7    D(8,1,2,3)            -44.6856         -DE/DX =    0.0                 !
 ! D8    D(8,1,2,4)             74.5701         -DE/DX =    0.0                 !
 ! D9    D(8,1,2,5)           -164.3544         -DE/DX =    0.0                 !
 --------------------------------------------------------------------------------
 GradGradGradGradGradGradGradGradGradGradGradGradGradGradGradGradGradGrad

 Leave Link  103 at Thu Oct  4 00:46:09 2007, MaxMem=    6291456 cpu:       0.0
 (Enter /opt/und/gaussian/03D01/linux86-64/g03/l9999.exe)
 1\1\GINC-DCOPT139\Freq\RHF\3-21G\C2H4F2\WSCHNEI1\04-Oct-2007\0\\#P HF/
 3-21G Geom=Checkpoint Guess=Read Frequency\\gauche-C2H4F2\\0,1\C,-0.00
 28622242,0.0141975064,0.0159367708\C,-0.0137265133,-0.0046199944,1.522
 6632292\F,1.2955638742,0.1620833052,2.0025924078\H,-0.6230429648,0.803
 2047751,1.8971026661\H,-0.3990033136,-0.947920164,1.8743886514\F,0.507
 4136772,-1.2030328799,-0.4639924078\H,-1.0071172221,0.1379686476,-0.35
 85026661\H,0.621421286,0.8195070878,-0.3357886514\\Version=AM64L-G03Re
 vD.01\State=1-A\HF=-275.4185714\RMSD=3.720e-10\RMSF=1.413e-05\ZeroPoin
 t=0.066042\Thermal=0.0702913\Dipole=-1.119531,0.6463615,0.\DipoleDeriv
 =0.4921979,-0.1275199,0.0303583,-0.1011634,0.6815081,0.1224531,-0.1076
 396,0.1730179,0.4343393,0.7332034,0.0379812,0.0908684,0.0116246,0.4405
 027,0.0875176,0.2036577,-0.0067097,0.4343394,-0.6703114,-0.0243806,-0.
 1868101,-0.0522431,-0.3135542,-0.0235008,-0.1632357,0.0020399,-0.45503
 08,-0.0511438,0.0572769,0.0152842,0.0754052,-0.0675557,-0.0758124,-0.0
 078156,-0.04665,0.0110017,-0.0039199,-0.0440729,-0.0090992,-0.0525521,
 -0.067221,0.0636167,-0.0079497,0.0370842,0.0096896,-0.3695644,0.121393
 2,0.0730528,0.1492557,-0.6143011,-0.1735327,0.0833845,-0.1403463,-0.45
 50308,-0.1209057,0.0351281,-0.0732976,0.0169999,0.0022062,-0.0246697,-
 0.0364923,-0.0300935,0.0110017,-0.0095559,-0.055806,0.0596432,-0.04732
 69,-0.061585,0.0239282,0.0360907,0.0116575,0.0096896\Polar=19.8342967,
 -0.1583616,19.6514366,0.1050949,0.1820299,19.4329887\PolarDeriv=3.4174
 703,-0.959865,-2.4771182,2.6971382,0.1590235,-0.5201021,-1.7696832,-3.
 2802801,-0.3102317,-0.0271334,3.1538657,-0.7281714,1.6965244,0.1527297
 ,1.2808288,0.1608615,0.0584174,-4.0751137,-1.9616632,-0.6430738,4.2330
 981,-2.9825735,-0.1376629,0.3705637,-0.9337227,3.1301941,1.1593114,-0.
 3238198,-2.8684305,0.8145065,-1.2524847,0.1036365,-1.7248679,0.0298398
 ,-0.1685195,4.0751135,6.6323812,0.5767547,-0.902119,2.9275223,0.305250
 9,0.8134966,0.2770558,1.8104234,0.2214502,0.207409,1.1878473,0.0144377
 ,1.0182226,0.154308,-0.0002535,2.9212299,0.3929914,1.8158022,-3.347434
 4,2.5597594,-1.3900313,1.6767729,-0.6058638,-0.5739307,1.1140974,-2.35
 5422,4.58658,-0.4014839,2.1604154,1.2034993,0.4540614,-0.1952279,1.103
 1144,-1.7473407,2.2526726,2.1670612,-1.9101081,-2.3259616,-1.4178836,1
 .4430978,0.2666435,-0.3659784,-0.6801274,-1.8368637,-5.8550811,0.34626
 23,2.3868021,-1.6095619,0.4313003,-0.1197202,1.2072848,-1.1137252,-2.3
 212522,1.7744421,1.3950084,-2.2501624,1.038404,-1.4007779,0.6740574,0.
 3942454,0.2488175,2.1351286,-5.4606226,0.5762153,-2.7145915,-0.7117274
 ,-0.1207309,0.3638592,-0.8972381,1.1202744,-2.7263549,-1.815802,-7.034
 9459,0.7814768,-0.2707179,-2.4756991,-0.0597763,-1.3292263,0.6682551,-
 2.0053934,0.5841719,0.1446036,-1.3614893,-0.1047109,-1.1099236,-0.1834
 341,-0.4472523,-2.8245418,0.3869051,-2.167061,2.8092918,2.2610721,1.18
 63685,-1.8854801,-0.6016718,1.2109325,1.0753072,2.4022129,5.0744218,-0
 .5220528,-1.9444199,1.1217277,-1.1169696,-0.2761512,-0.521616,1.453401
 ,2.1251407,-1.7744422\HyperPolar=-45.7614498,15.9835736,-15.2538171,19
 .2436124,-13.2160329,-7.6302811,13.2160328,-15.3583446,8.8671454,0.000
 0006\PG=C02 [X(C2H4F2)]\NImag=0\\0.69840362,0.04372324,0.62255434,0.00
 959106,-0.03041561,0.54621041,-0.08954939,-0.00646786,0.00174109,0.603
 65122,-0.00602491,-0.09676210,0.01796377,-0.01098208,0.71730674,0.0146
 8654,0.01048971,-0.20416398,-0.03113623,-0.00690170,0.54621041,-0.0255
 2030,0.00066206,-0.00790054,-0.27848509,-0.02713145,-0.07620249,0.3689
 8616,-0.00191416,0.00254149,-0.00000220,-0.02712407,-0.07667415,-0.009
 19814,0.03917640,0.05487124,-0.05596390,-0.00366393,-0.01737923,-0.077
 84504,-0.00873848,-0.09326556,0.11963099,0.01306482,0.09841853,0.00117
 273,-0.00015395,0.00041649,-0.14181890,0.11401749,0.05676063,-0.040556
 45,0.02515069,0.00516928,0.16808851,-0.00209135,0.00145790,0.00303462,
 0.12013345,-0.23557895,-0.07627193,-0.00621461,0.01136560,0.00316487,-
 0.12995187,0.24464087,0.02213239,-0.03394636,-0.00906560,0.05925517,-0
 .07426926,-0.10694232,-0.01750666,0.01099580,0.00694337,-0.05636036,0.
 08620014,0.10881985,0.00413368,-0.00012518,0.00164299,-0.09220453,-0.0
 7767954,0.03257962,-0.03210214,-0.03681445,0.00499008,0.01102483,0.018
 36580,-0.00776168,0.10904920,0.00105542,-0.00086798,-0.00258048,-0.086
 69297,-0.29280236,0.08671460,-0.00373205,0.00404132,-0.00150202,-0.008
 57947,-0.02403132,0.01154370,0.09693603,0.31073499,0.01677538,0.041986
 90,-0.01757562,0.03566666,0.08452840,-0.09781810,-0.01378914,-0.014643
 07,0.00582015,-0.00464094,-0.01449950,0.00805861,-0.03119176,-0.094313
 74,0.10185066,-0.10363355,0.07382652,0.03013542,-0.00393178,0.01054998
 ,0.00394837,0.00424575,0.00001995,0.00234184,0.00168933,0.00027040,0.0
 0149614,-0.00059009,-0.00011163,-0.00191002,0.09947222,0.07381913,-0.2
 5152568,-0.07059236,0.01312620,-0.01904703,-0.00684317,-0.00381783,0.0
 0205304,-0.00027512,0.00004125,0.00182026,-0.00212171,-0.00033061,0.00
 231403,-0.00137693,-0.11642755,0.32438518,0.03135477,-0.07178502,-0.09
 326556,0.02480889,-0.05029813,-0.01737923,-0.00140918,0.00189053,0.002
 80255,-0.00160378,0.00064783,-0.00987595,-0.00101007,-0.00022079,0.006
 53614,-0.04850104,0.11013589,0.09841853,-0.31352927,0.02099642,-0.0944
 3375,0.00235885,-0.00140654,0.00241981,0.00165257,0.00024918,0.0013629
 3,0.00076869,-0.00040056,-0.00143447,0.00002411,0.00011556,-0.00066598
 ,-0.00981447,0.01153427,0.00015622,0.33804440,0.01488046,-0.06386859,0
 .01102018,0.00053086,0.00027177,0.00187800,0.00002003,0.00185701,-0.00
 106499,-0.00081457,0.00006713,-0.00029133,0.00051726,-0.00013433,-0.00
 062265,0.04289958,-0.01937638,0.00605916,-0.03182779,0.07468498,-0.093
 94665,0.01418185,-0.10694232,-0.04046460,0.00219403,-0.00906560,-0.002
 58552,0.00023484,-0.00987595,0.00046493,-0.00138796,0.00119513,0.00154
 621,0.00109994,0.00086693,0.01827598,-0.00966331,0.00694337,0.10283169
 ,-0.00570944,0.10881985,-0.17147752,-0.13246125,0.05880724,-0.00002037
 ,-0.00134292,-0.00305626,0.00177950,0.00125645,0.00031383,-0.00036874,
 -0.00011125,0.00017947,0.00066494,0.00100911,-0.00024419,0.01256261,0.
 02205515,-0.00379582,-0.01950489,-0.02620581,0.01387797,0.17636448,-0.
 12344782,-0.21352938,0.07157208,-0.00252353,0.00328607,0.00013263,0.00
 103747,-0.00005556,-0.00098514,0.00029045,0.00025852,0.00188903,-0.000
 86930,0.00074566,-0.00105942,-0.01102725,-0.04062342,0.00357052,0.0007
 3946,0.00649840,-0.00094996,0.13580052,0.24341972,0.05537041,0.0731524
 3,-0.09781810,0.02797403,0.03552136,-0.01757562,-0.00023744,-0.0023425
 9,0.00653614,-0.00020624,-0.00088808,0.00086693,-0.00079539,-0.0007411
 8,-0.00773877,-0.00578670,-0.01926328,0.00582015,-0.01023646,-0.011268
 92,0.00805861,-0.06608222,-0.07416972,0.10185066\\-0.00000053,-0.00001
 916,-0.00001403,0.00001633,0.00001004,0.00001403,-0.00001646,-0.000018
 88,0.00000511,-0.00002108,-0.00000305,-0.00000886,0.00001772,0.0000058
 4,0.00001722,0.00000812,0.00002369,-0.00000511,-0.00000790,0.00001978,
 0.00000886,0.00000380,-0.00001826,-0.00001722\\\@


 SIGN SEEN IN A RESTAURANT-
 WE RESERVE THE RIGHT TO SERVE REFUSE TO ANYONE.
 Job cpu time:  0 days  0 hours  0 minutes  4.1 seconds.
 File lengths (MBytes):  RWF=     13 Int=      0 D2E=      0 Chk=     10 Scr=      1
 Normal termination of Gaussian 03 at Thu Oct  4 00:46:10 2007.
