 Entering Gaussian System, Link 0=g03
 Input=g-C2H4F2-G2.com
 Output=g-C2H4F2-G2.log
 Initial command:
 /opt/und/gaussian/03D01/linux86-64/g03/l1.exe /scratch/Gau-17791.inp -scrdir=/scratch/
 Entering Link 1 = /opt/und/gaussian/03D01/linux86-64/g03/l1.exe PID=     17792.
  
 Copyright (c) 1988,1990,1992,1993,1995,1998,2003,2004, Gaussian, Inc.
                  All Rights Reserved.
  
 This is the Gaussian(R) 03 program.  It is based on the
 the Gaussian(R) 98 system (copyright 1998, Gaussian, Inc.),
 the Gaussian(R) 94 system (copyright 1995, Gaussian, Inc.),
 the Gaussian 92(TM) system (copyright 1992, Gaussian, Inc.),
 the Gaussian 90(TM) system (copyright 1990, Gaussian, Inc.),
 the Gaussian 88(TM) system (copyright 1988, Gaussian, Inc.),
 the Gaussian 86(TM) system (copyright 1986, Carnegie Mellon
 University), and the Gaussian 82(TM) system (copyright 1983,
 Carnegie Mellon University). Gaussian is a federally registered
 trademark of Gaussian, Inc.
  
 This software contains proprietary and confidential information,
 including trade secrets, belonging to Gaussian, Inc.
  
 This software is provided under written license and may be
 used, copied, transmitted, or stored only in accord with that
 written license.
  
 The following legend is applicable only to US Government
 contracts under FAR:
  
                    RESTRICTED RIGHTS LEGEND
  
 Use, reproduction and disclosure by the US Government is
 subject to restrictions as set forth in subparagraphs (a)
 and (c) of the Commercial Computer Software - Restricted
 Rights clause in FAR 52.227-19.
  
 Gaussian, Inc.
 340 Quinnipiac St., Bldg. 40, Wallingford CT 06492
  
  
 ---------------------------------------------------------------
 Warning -- This program may not be used in any manner that
 competes with the business of Gaussian, Inc. or will provide
 assistance to any competitor of Gaussian, Inc.  The licensee
 of this program is prohibited from giving any competitor of
 Gaussian, Inc. access to this program.  By using this program,
 the user acknowledges that Gaussian, Inc. is engaged in the
 business of creating and licensing software in the field of
 computational chemistry and represents and warrants to the
 licensee that it is not a competitor of Gaussian, Inc. and that
 it will not use this program in any manner prohibited above.
 ---------------------------------------------------------------
  

 Cite this work as:
 Gaussian 03, Revision D.01,
 M. J. Frisch, G. W. Trucks, H. B. Schlegel, G. E. Scuseria, 
 M. A. Robb, J. R. Cheeseman, J. A. Montgomery, Jr., T. Vreven, 
 K. N. Kudin, J. C. Burant, J. M. Millam, S. S. Iyengar, J. Tomasi, 
 V. Barone, B. Mennucci, M. Cossi, G. Scalmani, N. Rega, 
 G. A. Petersson, H. Nakatsuji, M. Hada, M. Ehara, K. Toyota, 
 R. Fukuda, J. Hasegawa, M. Ishida, T. Nakajima, Y. Honda, O. Kitao, 
 H. Nakai, M. Klene, X. Li, J. E. Knox, H. P. Hratchian, J. B. Cross, 
 V. Bakken, C. Adamo, J. Jaramillo, R. Gomperts, R. E. Stratmann, 
 O. Yazyev, A. J. Austin, R. Cammi, C. Pomelli, J. W. Ochterski, 
 P. Y. Ayala, K. Morokuma, G. A. Voth, P. Salvador, J. J. Dannenberg, 
 V. G. Zakrzewski, S. Dapprich, A. D. Daniels, M. C. Strain, 
 O. Farkas, D. K. Malick, A. D. Rabuck, K. Raghavachari, 
 J. B. Foresman, J. V. Ortiz, Q. Cui, A. G. Baboul, S. Clifford, 
 J. Cioslowski, B. B. Stefanov, G. Liu, A. Liashenko, P. Piskorz, 
 I. Komaromi, R. L. Martin, D. J. Fox, T. Keith, M. A. Al-Laham, 
 C. Y. Peng, A. Nanayakkara, M. Challacombe, P. M. W. Gill, 
 B. Johnson, W. Chen, M. W. Wong, C. Gonzalez, and J. A. Pople, 
 Gaussian, Inc., Wallingford CT, 2004.
 
 ******************************************
 Gaussian 03:  AM64L-G03RevD.01 13-Oct-2005
                18-Oct-2007 
 ******************************************
 %chk=g-C2H4F2-g2.chk
 %mem=6MW
 %nproc=1
 Will use up to    1 processors via shared memory.
 -----
 #N G2
 -----
 1/18=20,38=1/1,3;
 2/9=110,17=6,18=5,40=1/2;
 3/5=1,6=6,7=1,11=9,16=1,25=1,30=1/1,2,3;
 4//1;
 5/5=2,38=5/2;
 6/7=2,8=2,9=2,10=2,28=1/1;
 7//1,2,3,16;
 1/18=20/3(3);
 2/9=110/2;
 6/7=2,8=2,9=2,10=2,19=2,28=1/1;
 99//99;
 2/9=110/2;
 3/5=1,6=6,7=1,11=9,16=1,25=1,30=1/1,2,3;
 4/5=5,16=3/1;
 5/5=2,38=5/2;
 7//1,2,3,16;
 1/18=20/3(-5);
 2/9=110/2;
 6/7=2,8=2,9=2,10=2,19=2,28=1/1;
 99/9=1/99;
 -----------
 C2H4F2 Scan
 -----------
 Symbolic Z-matrix:
 Charge =  0 Multiplicity = 1
 C
 C                    1    r1
 F                    2    r2       1    A1
 H                    2    r3       1    A2       3    D1       0
 H                    2    r3       1    A2       3    D2       0
 F                    1    r2       2    A1       3    D3       0
 H                    1    r3       2    A2       6    D1       0
 H                    1    r3       2    A2       6    D2       0
       Variables:
  r1                    1.5386                   
  r2                    1.39462                  
  r3                    1.11456                  
  D1                  120.47127                  
  D2                 -120.48305                  
  A1                  109.54214                  
  D3                   60.                       
  A2                  110.09239                  
 

 GradGradGradGradGradGradGradGradGradGradGradGradGradGradGradGradGradGrad
 Berny optimization.
 Initialization pass.
                           ----------------------------
                           !    Initial Parameters    !
                           ! (Angstroms and Degrees)  !
 --------------------------                            --------------------------
 ! Name  Definition              Value          Derivative Info.                !
 --------------------------------------------------------------------------------
 ! R1    R(1,2)                  1.5386         estimate D2E/DX2                !
 ! R2    R(1,6)                  1.3946         estimate D2E/DX2                !
 ! R3    R(1,7)                  1.1146         estimate D2E/DX2                !
 ! R4    R(1,8)                  1.1146         estimate D2E/DX2                !
 ! R5    R(2,3)                  1.3946         estimate D2E/DX2                !
 ! R6    R(2,4)                  1.1146         estimate D2E/DX2                !
 ! R7    R(2,5)                  1.1146         estimate D2E/DX2                !
 ! A1    A(2,1,6)              109.5421         estimate D2E/DX2                !
 ! A2    A(2,1,7)              110.0924         estimate D2E/DX2                !
 ! A3    A(2,1,8)              110.0924         estimate D2E/DX2                !
 ! A4    A(6,1,7)              109.5055         estimate D2E/DX2                !
 ! A5    A(6,1,8)              109.515          estimate D2E/DX2                !
 ! A6    A(7,1,8)              108.0709         estimate D2E/DX2                !
 ! A7    A(1,2,3)              109.5421         estimate D2E/DX2                !
 ! A8    A(1,2,4)              110.0924         estimate D2E/DX2                !
 ! A9    A(1,2,5)              110.0924         estimate D2E/DX2                !
 ! A10   A(3,2,4)              109.5055         estimate D2E/DX2                !
 ! A11   A(3,2,5)              109.515          estimate D2E/DX2                !
 ! A12   A(4,2,5)              108.0709         estimate D2E/DX2                !
 ! D1    D(6,1,2,3)             60.0            estimate D2E/DX2                !
 ! D2    D(6,1,2,4)           -179.5287         estimate D2E/DX2                !
 ! D3    D(6,1,2,5)            -60.4831         estimate D2E/DX2                !
 ! D4    D(7,1,2,3)           -179.5287         estimate D2E/DX2                !
 ! D5    D(7,1,2,4)            -59.0575         estimate D2E/DX2                !
 ! D6    D(7,1,2,5)             59.9882         estimate D2E/DX2                !
 ! D7    D(8,1,2,3)            -60.4831         estimate D2E/DX2                !
 ! D8    D(8,1,2,4)             59.9882         estimate D2E/DX2                !
 ! D9    D(8,1,2,5)            179.0339         estimate D2E/DX2                !
 --------------------------------------------------------------------------------
 Trust Radius=3.00D-01 FncErr=1.00D-07 GrdErr=1.00D-07
 Number of steps in this run=  38 maximum allowed number of steps= 100.
 GradGradGradGradGradGradGradGradGradGradGradGradGradGradGradGradGradGrad

                          Input orientation:                          
 ---------------------------------------------------------------------
 Center     Atomic     Atomic              Coordinates (Angstroms)
 Number     Number      Type              X           Y           Z
 ---------------------------------------------------------------------
    1          6             0        0.000000    0.000000    0.000000
    2          6             0        0.000000    0.000000    1.538600
    3          9             0        1.314284    0.000000    2.005100
    4          1             0       -0.530802    0.902157    1.921490
    5          1             0       -0.530988   -0.902048    1.921490
    6          9             0        0.657142   -1.138203   -0.466500
    7          1             0       -1.046692    0.008609   -0.382890
    8          1             0        0.515703    0.910873   -0.382890
 ---------------------------------------------------------------------
                    Distance matrix (angstroms):
                    1          2          3          4          5
     1  C    0.000000
     2  C    1.538600   0.000000
     3  F    2.397451   1.394620   0.000000
     4  H    2.188096   1.114560   2.055534   0.000000
     5  H    2.188096   1.114560   2.055653   1.804206   0.000000
     6  F    1.394620   2.397451   2.799313   3.358092   2.677671
     7  H    1.114560   2.188096   3.358092   2.524825   2.530893
     8  H    1.114560   2.188096   2.677671   2.530893   3.113264
                    6          7          8
     6  F    0.000000
     7  H    2.055534   0.000000
     8  H    2.055653   1.804206   0.000000
 Stoichiometry    C2H4F2
 Framework group  C2[X(C2H4F2)]
 Deg. of freedom    10
 Full point group                 C2
 Largest Abelian subgroup         C2      NOp   2
 Largest concise Abelian subgroup C2      NOp   2
                         Standard orientation:                         
 ---------------------------------------------------------------------
 Center     Atomic     Atomic              Coordinates (Angstroms)
 Number     Number      Type              X           Y           Z
 ---------------------------------------------------------------------
    1          6             0        0.239588    0.731041    0.548485
    2          6             0       -0.239588   -0.731041    0.548485
    3          9             0        0.239588   -1.378998   -0.589719
    4          1             0        0.131400   -1.255555    1.459251
    5          1             0       -1.353469   -0.768912    0.557309
    6          9             0       -0.239588    1.378998   -0.589719
    7          1             0       -0.131400    1.255555    1.459251
    8          1             0        1.353469    0.768912    0.557309
 ---------------------------------------------------------------------
 Rotational constants (GHZ):     15.9387024      5.2242369      4.3975866
 Standard basis: 6-31G(d) (6D, 7F)
 There are    34 symmetry adapted basis functions of A   symmetry.
 There are    34 symmetry adapted basis functions of B   symmetry.
 Integral buffers will be    131072 words long.
 Raffenetti 1 integral format.
 Two-electron integral symmetry is turned on.
    68 basis functions,   128 primitive gaussians,    68 cartesian basis functions
    17 alpha electrons       17 beta electrons
       nuclear repulsion energy       126.7565310592 Hartrees.
 NAtoms=    8 NActive=    8 NUniq=    4 SFac= 3.00D+00 NAtFMM=   80 NAOKFM=F Big=F
 One-electron integrals computed using PRISM.
 NBasis=    68 RedAO= T  NBF=    34    34
 NBsUse=    68 1.00D-06 NBFU=    34    34
 Harris functional with IExCor=  205 diagonalized for initial guess.
 ExpMin= 1.61D-01 ExpMax= 7.00D+03 ExpMxC= 1.05D+03 IAcc=1 IRadAn=         1 AccDes= 1.00D-06
 HarFok:  IExCor= 205 AccDes= 1.00D-06 IRadAn=         1 IDoV=1
 ScaDFX=  1.000000  1.000000  1.000000  1.000000
 Initial guess orbital symmetries:
       Occupied  (A) (B) (A) (B) (A) (B) (A) (B) (A) (B) (A) (B)
                 (A) (B) (B) (A) (A)
       Virtual   (A) (B) (A) (B) (B) (A) (B) (A) (B) (A) (B) (B)
                 (A) (A) (B) (A) (B) (A) (B) (A) (B) (A) (B) (A)
                 (B) (A) (B) (B) (A) (B) (A) (A) (B) (A) (A) (B)
                 (B) (B) (A) (A) (A) (B) (B) (A) (B) (B) (A) (A)
                 (B) (A) (B)
 The electronic state of the initial guess is 1-A.
 Requested convergence on RMS density matrix=1.00D-08 within 128 cycles.
 Requested convergence on MAX density matrix=1.00D-06.
 Requested convergence on             energy=1.00D-06.
 No special actions if energy rises.
 Keep R1 integrals in memory in canonical form, NReq=     3771471.
 SCF Done:  E(RHF) =  -276.915450133     A.U. after   11 cycles
             Convg  =    0.4388D-08             -V/T =  2.0027
             S**2   =   0.0000

 **********************************************************************

            Population analysis using the SCF density.

 **********************************************************************

 Orbital symmetries:
       Occupied  (B) (A) (A) (B) (A) (B) (A) (B) (A) (B) (A) (A)
                 (B) (B) (B) (A) (A)
       Virtual   (A) (B) (A) (B) (A) (B) (B) (A) (B) (A) (B) (B)
                 (A) (A) (B) (A) (A) (B) (B) (A) (B) (A) (B) (A)
                 (B) (A) (B) (B) (A) (B) (A) (A) (B) (A) (A) (B)
                 (B) (B) (A) (A) (A) (B) (B) (A) (B) (B) (A) (B)
                 (A) (A) (B)
 The electronic state is 1-A.
 Alpha  occ. eigenvalues --  -26.28287 -26.28287 -11.33071 -11.33012  -1.58891
 Alpha  occ. eigenvalues --   -1.57702  -1.03488  -0.87138  -0.72045  -0.71929
 Alpha  occ. eigenvalues --   -0.68971  -0.66614  -0.65681  -0.61321  -0.54143
 Alpha  occ. eigenvalues --   -0.51655  -0.50118
 Alpha virt. eigenvalues --    0.23413   0.26809   0.27721   0.28706   0.32124
 Alpha virt. eigenvalues --    0.35540   0.39622   0.72645   0.77308   0.77476
 Alpha virt. eigenvalues --    0.80067   0.84278   0.89341   1.01101   1.07312
 Alpha virt. eigenvalues --    1.10014   1.13737   1.15039   1.31867   1.43081
 Alpha virt. eigenvalues --    1.52158   1.54192   1.58267   1.68549   1.69375
 Alpha virt. eigenvalues --    1.71954   1.74630   1.95414   1.99886   2.06145
 Alpha virt. eigenvalues --    2.09054   2.10443   2.13528   2.14513   2.29510
 Alpha virt. eigenvalues --    2.29773   2.39712   2.41710   2.44608   2.51353
 Alpha virt. eigenvalues --    2.70639   2.73723   2.78495   2.83507   3.01987
 Alpha virt. eigenvalues --    3.36136   3.38798   4.46880   4.47686   4.67648
 Alpha virt. eigenvalues --    4.82180
          Condensed to atoms (all electrons):
              1          2          3          4          5          6
     1  C    4.736254   0.336254  -0.027735  -0.041343  -0.039351   0.208502
     2  C    0.336254   4.736254   0.208502   0.369545   0.382094  -0.027735
     3  F   -0.027735   0.208502   9.273026  -0.026020  -0.027059   0.001060
     4  H   -0.041343   0.369545  -0.026020   0.576134  -0.038087   0.001798
     5  H   -0.039351   0.382094  -0.027059  -0.038087   0.548123  -0.000153
     6  F    0.208502  -0.027735   0.001060   0.001798  -0.000153   9.273026
     7  H    0.369545  -0.041343   0.001798   0.003750  -0.001592  -0.026020
     8  H    0.382094  -0.039351  -0.000153  -0.001592   0.004200  -0.027059
              7          8
     1  C    0.369545   0.382094
     2  C   -0.041343  -0.039351
     3  F    0.001798  -0.000153
     4  H    0.003750  -0.001592
     5  H   -0.001592   0.004200
     6  F   -0.026020  -0.027059
     7  H    0.576134  -0.038087
     8  H   -0.038087   0.548123
 Mulliken atomic charges:
              1
     1  C    0.075779
     2  C    0.075779
     3  F   -0.403420
     4  H    0.155815
     5  H    0.171825
     6  F   -0.403420
     7  H    0.155815
     8  H    0.171825
 Sum of Mulliken charges=   0.00000
 Atomic charges with hydrogens summed into heavy atoms:
              1
     1  C    0.403420
     2  C    0.403420
     3  F   -0.403420
     4  H    0.000000
     5  H    0.000000
     6  F   -0.403420
     7  H    0.000000
     8  H    0.000000
 Sum of Mulliken charges=   0.00000
 Electronic spatial extent (au):  <R**2>=   284.2601
 Charge=     0.0000 electrons
 Dipole moment (field-independent basis, Debye):
    X=     0.0000    Y=     0.0000    Z=     3.1994  Tot=     3.1994
 Quadrupole moment (field-independent basis, Debye-Ang):
   XX=   -21.5026   YY=   -25.8766   ZZ=   -22.0411
   XY=     1.5254   XZ=     0.0000   YZ=     0.0000
 Traceless Quadrupole moment (field-independent basis, Debye-Ang):
   XX=     1.6375   YY=    -2.7365   ZZ=     1.0990
   XY=     1.5254   XZ=     0.0000   YZ=     0.0000
 Octapole moment (field-independent basis, Debye-Ang**2):
  XXX=     0.0000  YYY=     0.0000  ZZZ=    -6.4742  XYY=     0.0000
  XXY=     0.0000  XXZ=    -2.2231  XZZ=     0.0000  YZZ=     0.0000
  YYZ=     1.8185  XYZ=    -0.4448
 Hexadecapole moment (field-independent basis, Debye-Ang**3):
 XXXX=   -37.2990 YYYY=  -187.3222 ZZZZ=   -73.8364 XXXY=     1.7838
 XXXZ=     0.0000 YYYX=     1.6409 YYYZ=     0.0000 ZZZX=     0.0000
 ZZZY=     0.0000 XXYY=   -36.5289 XXZZ=   -19.5586 YYZZ=   -41.6569
 XXYZ=     0.0000 YYXZ=     0.0000 ZZXY=    -0.5444
 N-N= 1.267565310592D+02 E-N=-9.116617286509D+02  KE= 2.761648122814D+02
 Symmetry A    KE= 1.392888121284D+02
 Symmetry B    KE= 1.368760001530D+02
 ***** Axes restored to original set *****
 -------------------------------------------------------------------
 Center     Atomic                   Forces (Hartrees/Bohr)
 Number     Number              X              Y              Z
 -------------------------------------------------------------------
    1          6           0.002385125    0.004947445    0.000433521
    2          6          -0.003092050   -0.004539302   -0.000433521
    3          9          -0.027376694    0.001065761   -0.008526491
    4          1           0.013314981   -0.015839098   -0.007394459
    5          1           0.015398878    0.016273088   -0.006118108
    6          9          -0.014611323    0.023176032    0.008526491
    7          1           0.020374552   -0.003611563    0.007394459
    8          1          -0.006393469   -0.021472363    0.006118108
 -------------------------------------------------------------------
 Cartesian Forces:  Max     0.027376694 RMS     0.012502960

 GradGradGradGradGradGradGradGradGradGradGradGradGradGradGradGradGradGrad
 Berny optimization.
 Internal  Forces:  Max     0.028651791 RMS     0.012247228
 Search for a local minimum.
 Step number   1 out of a maximum of  38
 All quantities printed in internal units (Hartrees-Bohrs-Radians)
 Second derivative matrix not updated -- first step.
     Eigenvalues ---    0.00255   0.05647   0.05647   0.05916   0.05916
     Eigenvalues ---    0.16000   0.16000   0.16000   0.16000   0.22374
     Eigenvalues ---    0.22374   0.28643   0.32122   0.32122   0.32122
     Eigenvalues ---    0.32122   0.46524   0.465241000.000001000.00000
     Eigenvalues --- 1000.000001000.000001000.000001000.000001000.00000
     Eigenvalues --- 1000.000001000.000001000.00000
 RFO step:  Lambda=-1.22676660D-02.
 Linear search not attempted -- first point.
 Iteration  1 RMS(Cart)=  0.04543413 RMS(Int)=  0.00113561
 Iteration  2 RMS(Cart)=  0.00112474 RMS(Int)=  0.00018981
 Iteration  3 RMS(Cart)=  0.00000080 RMS(Int)=  0.00018981
 Variable       Old X    -DE/DX   Delta X   Delta X   Delta X     New X
                                 (Linear)    (Quad)   (Total)
    R1        2.90753  -0.02247   0.00000  -0.07523  -0.07523   2.83230
    R2        2.63545  -0.02865   0.00000  -0.06000  -0.06000   2.57545
    R3        2.10621  -0.02170   0.00000  -0.06508  -0.06508   2.04114
    R4        2.10621  -0.02261   0.00000  -0.06779  -0.06779   2.03842
    R5        2.63545  -0.02865   0.00000  -0.06000  -0.06000   2.57545
    R6        2.10621  -0.02170   0.00000  -0.06508  -0.06508   2.04114
    R7        2.10621  -0.02261   0.00000  -0.06779  -0.06779   2.03842
    A1        1.91187   0.00050   0.00000  -0.00503  -0.00503   1.90684
    A2        1.92147  -0.00020   0.00000   0.00165   0.00134   1.92282
    A3        1.92147   0.00304   0.00000   0.02399   0.02377   1.94525
    A4        1.91123  -0.00208   0.00000  -0.02587  -0.02595   1.88528
    A5        1.91140  -0.00272   0.00000  -0.02257  -0.02249   1.88891
    A6        1.88619   0.00142   0.00000   0.02774   0.02725   1.91344
    A7        1.91187   0.00050   0.00000  -0.00503  -0.00503   1.90684
    A8        1.92147  -0.00020   0.00000   0.00165   0.00134   1.92282
    A9        1.92147   0.00304   0.00000   0.02399   0.02377   1.94525
   A10        1.91123  -0.00208   0.00000  -0.02587  -0.02595   1.88528
   A11        1.91140  -0.00272   0.00000  -0.02257  -0.02249   1.88891
   A12        1.88619   0.00142   0.00000   0.02774   0.02725   1.91344
    D1        1.04720   0.00147   0.00000   0.05521   0.05512   1.10232
    D2       -3.13337  -0.00091   0.00000   0.02109   0.02094  -3.11242
    D3       -1.05563   0.00260   0.00000   0.07123   0.07134  -0.98429
    D4       -3.13337  -0.00091   0.00000   0.02109   0.02094  -3.11242
    D5       -1.03075  -0.00329   0.00000  -0.01302  -0.01323  -1.04398
    D6        1.04699   0.00022   0.00000   0.03712   0.03716   1.08415
    D7       -1.05563   0.00260   0.00000   0.07123   0.07134  -0.98429
    D8        1.04699   0.00022   0.00000   0.03712   0.03716   1.08415
    D9        3.12473   0.00374   0.00000   0.08726   0.08756  -3.07090
         Item               Value     Threshold  Converged?
 Maximum Force            0.028652     0.000450     NO 
 RMS     Force            0.012247     0.000300     NO 
 Maximum Displacement     0.084493     0.001800     NO 
 RMS     Displacement     0.045798     0.001200     NO 
 Predicted change in Energy=-6.509164D-03
 GradGradGradGradGradGradGradGradGradGradGradGradGradGradGradGradGradGrad

                          Input orientation:                          
 ---------------------------------------------------------------------
 Center     Atomic     Atomic              Coordinates (Angstroms)
 Number     Number      Type              X           Y           Z
 ---------------------------------------------------------------------
    1          6             0       -0.002139    0.013351    0.019980
    2          6             0       -0.012632   -0.004823    1.518620
    3          9             0        1.270338    0.025125    1.977425
    4          1             0       -0.523619    0.867854    1.898084
    5          1             0       -0.486276   -0.896158    1.899074
    6          9             0        0.613410   -1.112708   -0.438825
    7          1             0       -1.013393    0.019540   -0.359484
    8          1             0        0.532958    0.869206   -0.360474
 ---------------------------------------------------------------------
                    Distance matrix (angstroms):
                    1          2          3          4          5
     1  C    0.000000
     2  C    1.498788   0.000000
     3  F    2.334722   1.362868   0.000000
     4  H    2.128237   1.080123   1.983625   0.000000
     5  H    2.143033   1.078685   1.985093   1.764407   0.000000
     6  F    1.362868   2.334722   2.750359   3.267507   2.592676
     7  H    1.080123   2.128237   3.267507   2.460920   2.493479
     8  H    1.078685   2.143033   2.592676   2.493479   3.043173
                    6          7          8
     6  F    0.000000
     7  H    1.983625   0.000000
     8  H    1.985093   1.764407   0.000000
 Stoichiometry    C2H4F2
 Framework group  C2[X(C2H4F2)]
 Deg. of freedom    10
 Full point group                 C2
 Largest Abelian subgroup         C2      NOp   2
 Largest concise Abelian subgroup C2      NOp   2
                         Standard orientation:                         
 ---------------------------------------------------------------------
 Center     Atomic     Atomic              Coordinates (Angstroms)
 Number     Number      Type              X           Y           Z
 ---------------------------------------------------------------------
    1          6             0       -0.623436   -0.415835    0.530682
    2          6             0        0.623436    0.415835    0.530682
    3          9             0        0.623436    1.225743   -0.565427
    4          1             0        0.652745    1.043051    1.409549
    5          1             0        1.508396   -0.199915    0.495203
    6          9             0       -0.623436   -1.225743   -0.565427
    7          1             0       -0.652745   -1.043051    1.409549
    8          1             0       -1.508396    0.199915    0.495203
 ---------------------------------------------------------------------
 Rotational constants (GHZ):     16.9924373      5.4310805      4.6198197
 Standard basis: 6-31G(d) (6D, 7F)
 There are    34 symmetry adapted basis functions of A   symmetry.
 There are    34 symmetry adapted basis functions of B   symmetry.
 Integral buffers will be    131072 words long.
 Raffenetti 1 integral format.
 Two-electron integral symmetry is turned on.
    68 basis functions,   128 primitive gaussians,    68 cartesian basis functions
    17 alpha electrons       17 beta electrons
       nuclear repulsion energy       130.0237838043 Hartrees.
 NAtoms=    8 NActive=    8 NUniq=    4 SFac= 3.00D+00 NAtFMM=   80 NAOKFM=F Big=F
 One-electron integrals computed using PRISM.
 NBasis=    68 RedAO= T  NBF=    34    34
 NBsUse=    68 1.00D-06 NBFU=    34    34
 Initial guess read from the read-write file:
 Initial guess orbital symmetries:
       Occupied  (B) (A) (A) (B) (A) (B) (A) (B) (A) (B) (A) (A)
                 (B) (B) (B) (A) (A)
       Virtual   (A) (B) (A) (B) (A) (B) (B) (A) (B) (A) (B) (B)
                 (A) (A) (B) (A) (A) (B) (B) (A) (B) (A) (B) (A)
                 (B) (A) (B) (B) (A) (B) (A) (A) (B) (A) (A) (B)
                 (B) (B) (A) (A) (A) (B) (B) (A) (B) (B) (A) (B)
                 (A) (A) (B)
 Harris functional with IExCor=  205 diagonalized for initial guess.
 ExpMin= 1.61D-01 ExpMax= 7.00D+03 ExpMxC= 1.05D+03 IAcc=1 IRadAn=         1 AccDes= 1.00D-06
 HarFok:  IExCor= 205 AccDes= 1.00D-06 IRadAn=         1 IDoV=1
 ScaDFX=  1.000000  1.000000  1.000000  1.000000
 Requested convergence on RMS density matrix=1.00D-08 within 128 cycles.
 Requested convergence on MAX density matrix=1.00D-06.
 Requested convergence on             energy=1.00D-06.
 No special actions if energy rises.
 Keep R1 integrals in memory in canonical form, NReq=     3771471.
 SCF Done:  E(RHF) =  -276.921041675     A.U. after   12 cycles
             Convg  =    0.5002D-08             -V/T =  2.0011
             S**2   =   0.0000
 ***** Axes restored to original set *****
 -------------------------------------------------------------------
 Center     Atomic                   Forces (Hartrees/Bohr)
 Number     Number              X              Y              Z
 -------------------------------------------------------------------
    1          6          -0.001752132   -0.003448941   -0.001474953
    2          6           0.002110805    0.003241861    0.001474953
    3          9           0.003378394    0.000175163    0.001687273
    4          1          -0.002821126    0.001333877    0.000799354
    5          1          -0.001169494   -0.002155288   -0.000565608
    6          9           0.001537501   -0.003013356   -0.001687273
    7          1          -0.002565735    0.001776229   -0.000799354
    8          1           0.001281787    0.002090456    0.000565608
 -------------------------------------------------------------------
 Cartesian Forces:  Max     0.003448941 RMS     0.002002948

 GradGradGradGradGradGradGradGradGradGradGradGradGradGradGradGradGradGrad
 Berny optimization.
 Internal  Forces:  Max     0.003752198 RMS     0.001756177
 Search for a local minimum.
 Step number   2 out of a maximum of  38
 All quantities printed in internal units (Hartrees-Bohrs-Radians)
 Update second derivatives using D2CorX and points  1  2
 Trust test= 8.59D-01 RLast= 2.45D-01 DXMaxT set to 4.24D-01
     Eigenvalues ---    0.00257   0.05648   0.05657   0.05774   0.06073
     Eigenvalues ---    0.15998   0.16000   0.16000   0.16135   0.22257
     Eigenvalues ---    0.22366   0.29121   0.32093   0.32122   0.32122
     Eigenvalues ---    0.34059   0.46524   0.486531000.000001000.00000
     Eigenvalues --- 1000.000001000.000001000.000001000.000001000.00000
     Eigenvalues --- 1000.000001000.000001000.00000
 RFO step:  Lambda=-7.94743705D-04.
 Quartic linear search produced a step of -0.10144.
 Maximum step size (   0.424) exceeded in Quadratic search.
    -- Step size scaled by   0.928
 Iteration  1 RMS(Cart)=  0.06623785 RMS(Int)=  0.00224842
 Iteration  2 RMS(Cart)=  0.00228807 RMS(Int)=  0.00001489
 Iteration  3 RMS(Cart)=  0.00000218 RMS(Int)=  0.00001479
 Iteration  4 RMS(Cart)=  0.00000000 RMS(Int)=  0.00001479
 Variable       Old X    -DE/DX   Delta X   Delta X   Delta X     New X
                                 (Linear)    (Quad)   (Total)
    R1        2.83230   0.00335   0.00763   0.00190   0.00953   2.84183
    R2        2.57545   0.00375   0.00609   0.00070   0.00679   2.58224
    R3        2.04114   0.00269   0.00660   0.00027   0.00687   2.04801
    R4        2.03842   0.00209   0.00688  -0.00155   0.00532   2.04374
    R5        2.57545   0.00375   0.00609   0.00070   0.00679   2.58224
    R6        2.04114   0.00269   0.00660   0.00027   0.00687   2.04801
    R7        2.03842   0.00209   0.00688  -0.00155   0.00532   2.04374
    A1        1.90684   0.00149   0.00051   0.00679   0.00729   1.91413
    A2        1.92282   0.00002  -0.00014   0.00096   0.00080   1.92361
    A3        1.94525  -0.00242  -0.00241  -0.01230  -0.01471   1.93054
    A4        1.88528   0.00019   0.00263   0.00506   0.00766   1.89294
    A5        1.88891   0.00045   0.00228   0.00028   0.00258   1.89149
    A6        1.91344   0.00037  -0.00276  -0.00022  -0.00300   1.91044
    A7        1.90684   0.00149   0.00051   0.00679   0.00729   1.91413
    A8        1.92282   0.00002  -0.00014   0.00096   0.00080   1.92361
    A9        1.94525  -0.00242  -0.00241  -0.01230  -0.01471   1.93054
   A10        1.88528   0.00019   0.00263   0.00506   0.00766   1.89294
   A11        1.88891   0.00045   0.00228   0.00028   0.00258   1.89149
   A12        1.91344   0.00037  -0.00276  -0.00022  -0.00300   1.91044
    D1        1.10232  -0.00037  -0.00559   0.13190   0.12628   1.22860
    D2       -3.11242   0.00079  -0.00212   0.14277   0.14064  -2.97178
    D3       -0.98429  -0.00037  -0.00724   0.13481   0.12757  -0.85672
    D4       -3.11242   0.00079  -0.00212   0.14277   0.14064  -2.97178
    D5       -1.04398   0.00194   0.00134   0.15365   0.15500  -0.88898
    D6        1.08415   0.00078  -0.00377   0.14569   0.14193   1.22609
    D7       -0.98429  -0.00037  -0.00724   0.13481   0.12757  -0.85672
    D8        1.08415   0.00078  -0.00377   0.14569   0.14193   1.22609
    D9       -3.07090  -0.00038  -0.00888   0.13773   0.12886  -2.94203
         Item               Value     Threshold  Converged?
 Maximum Force            0.003752     0.000450     NO 
 RMS     Force            0.001756     0.000300     NO 
 Maximum Displacement     0.155551     0.001800     NO 
 RMS     Displacement     0.066327     0.001200     NO 
 Predicted change in Energy=-4.455914D-04
 GradGradGradGradGradGradGradGradGradGradGradGradGradGradGradGradGradGrad

                          Input orientation:                          
 ---------------------------------------------------------------------
 Center     Atomic     Atomic              Coordinates (Angstroms)
 Number     Number      Type              X           Y           Z
 ---------------------------------------------------------------------
    1          6             0        0.000585    0.008770    0.017427
    2          6             0       -0.007303   -0.004892    1.521173
    3          9             0        1.271684    0.107439    1.988922
    4          1             0       -0.585792    0.829496    1.900226
    5          1             0       -0.425564   -0.931015    1.891310
    6          9             0        0.542797   -1.155030   -0.450322
    7          1             0       -1.011261    0.092563   -0.361626
    8          1             0        0.593500    0.834057   -0.352710
 ---------------------------------------------------------------------
                    Distance matrix (angstroms):
                    1          2          3          4          5
     1  C    0.000000
     2  C    1.503829   0.000000
     3  F    2.347812   1.366460   0.000000
     4  H    2.135969   1.083759   1.994856   0.000000
     5  H    2.139214   1.081503   1.992126   1.767810   0.000000
     6  F    1.366460   2.347812   2.841658   3.276757   2.543845
     7  H    1.083759   2.135969   3.276757   2.416623   2.542926
     8  H    1.081503   2.139214   2.543845   2.542926   3.031435
                    6          7          8
     6  F    0.000000
     7  H    1.994856   0.000000
     8  H    1.992126   1.767810   0.000000
 Stoichiometry    C2H4F2
 Framework group  C2[X(C2H4F2)]
 Deg. of freedom    10
 Full point group                 C2
 Largest Abelian subgroup         C2      NOp   2
 Largest concise Abelian subgroup C2      NOp   2
                         Standard orientation:                         
 ---------------------------------------------------------------------
 Center     Atomic     Atomic              Coordinates (Angstroms)
 Number     Number      Type              X           Y           Z
 ---------------------------------------------------------------------
    1          6             0       -0.638986   -0.396324    0.508581
    2          6             0        0.638986    0.396324    0.508581
    3          9             0        0.638986    1.269036   -0.542888
    4          1             0        0.726729    0.965340    1.426762
    5          1             0        1.493431   -0.258965    0.407745
    6          9             0       -0.638986   -1.269036   -0.542888
    7          1             0       -0.726729   -0.965340    1.426762
    8          1             0       -1.493431    0.258965    0.407745
 ---------------------------------------------------------------------
 Rotational constants (GHZ):     17.5531839      5.1648934      4.5094576
 Standard basis: 6-31G(d) (6D, 7F)
 There are    34 symmetry adapted basis functions of A   symmetry.
 There are    34 symmetry adapted basis functions of B   symmetry.
 Integral buffers will be    131072 words long.
 Raffenetti 1 integral format.
 Two-electron integral symmetry is turned on.
    68 basis functions,   128 primitive gaussians,    68 cartesian basis functions
    17 alpha electrons       17 beta electrons
       nuclear repulsion energy       129.2066849065 Hartrees.
 NAtoms=    8 NActive=    8 NUniq=    4 SFac= 3.00D+00 NAtFMM=   80 NAOKFM=F Big=F
 One-electron integrals computed using PRISM.
 NBasis=    68 RedAO= T  NBF=    34    34
 NBsUse=    68 1.00D-06 NBFU=    34    34
 Initial guess read from the read-write file:
 Initial guess orbital symmetries:
       Occupied  (B) (A) (A) (B) (A) (B) (A) (B) (B) (A) (A) (A)
                 (B) (B) (B) (A) (A)
       Virtual   (A) (B) (A) (B) (A) (B) (B) (A) (A) (B) (B) (B)
                 (A) (A) (B) (A) (A) (B) (B) (A) (B) (A) (B) (A)
                 (B) (A) (B) (B) (A) (B) (A) (A) (B) (A) (B) (A)
                 (B) (B) (A) (A) (A) (B) (B) (A) (B) (B) (A) (B)
                 (A) (A) (B)
 Harris functional with IExCor=  205 diagonalized for initial guess.
 ExpMin= 1.61D-01 ExpMax= 7.00D+03 ExpMxC= 1.05D+03 IAcc=1 IRadAn=         1 AccDes= 1.00D-06
 HarFok:  IExCor= 205 AccDes= 1.00D-06 IRadAn=         1 IDoV=1
 ScaDFX=  1.000000  1.000000  1.000000  1.000000
 Requested convergence on RMS density matrix=1.00D-08 within 128 cycles.
 Requested convergence on MAX density matrix=1.00D-06.
 Requested convergence on             energy=1.00D-06.
 No special actions if energy rises.
 Keep R1 integrals in memory in canonical form, NReq=     3771471.
 SCF Done:  E(RHF) =  -276.921389603     A.U. after   10 cycles
             Convg  =    0.5630D-08             -V/T =  2.0013
             S**2   =   0.0000
 ***** Axes restored to original set *****
 -------------------------------------------------------------------
 Center     Atomic                   Forces (Hartrees/Bohr)
 Number     Number              X              Y              Z
 -------------------------------------------------------------------
    1          6          -0.000626695   -0.000736634    0.000166229
    2          6           0.000324597    0.000911051   -0.000166229
    3          9          -0.000199596    0.000000266    0.000469246
    4          1           0.000446605   -0.000078403   -0.000016830
    5          1          -0.000138193   -0.000082219   -0.000270802
    6          9          -0.000100028    0.000172722   -0.000469246
    7          1           0.000291202   -0.000347570    0.000016830
    8          1           0.000002107    0.000160788    0.000270802
 -------------------------------------------------------------------
 Cartesian Forces:  Max     0.000911051 RMS     0.000356852

 GradGradGradGradGradGradGradGradGradGradGradGradGradGradGradGradGradGrad
 Berny optimization.
 Internal  Forces:  Max     0.000991078 RMS     0.000355908
 Search for a local minimum.
 Step number   3 out of a maximum of  38
 All quantities printed in internal units (Hartrees-Bohrs-Radians)
 Update second derivatives using D2CorX and points  1  2  3
 Trust test= 7.81D-01 RLast= 4.12D-01 DXMaxT set to 6.00D-01
     Eigenvalues ---    0.00354   0.05668   0.05668   0.05802   0.06114
     Eigenvalues ---    0.15546   0.16000   0.16000   0.16015   0.21778
     Eigenvalues ---    0.22384   0.29089   0.32122   0.32122   0.32134
     Eigenvalues ---    0.34242   0.46524   0.486971000.000001000.00000
     Eigenvalues --- 1000.000001000.000001000.000001000.000001000.00000
     Eigenvalues --- 1000.000001000.000001000.00000
 RFO step:  Lambda=-2.50141575D-05.
 Quartic linear search produced a step of -0.09561.
 Iteration  1 RMS(Cart)=  0.01079485 RMS(Int)=  0.00005991
 Iteration  2 RMS(Cart)=  0.00006426 RMS(Int)=  0.00000189
 Iteration  3 RMS(Cart)=  0.00000000 RMS(Int)=  0.00000189
 Variable       Old X    -DE/DX   Delta X   Delta X   Delta X     New X
                                 (Linear)    (Quad)   (Total)
    R1        2.84183   0.00001  -0.00091   0.00083  -0.00008   2.84174
    R2        2.58224  -0.00003  -0.00065   0.00046  -0.00018   2.58205
    R3        2.04801  -0.00030  -0.00066  -0.00034  -0.00100   2.04701
    R4        2.04374   0.00003  -0.00051   0.00035  -0.00016   2.04358
    R5        2.58224  -0.00003  -0.00065   0.00046  -0.00018   2.58205
    R6        2.04801  -0.00030  -0.00066  -0.00034  -0.00100   2.04701
    R7        2.04374   0.00003  -0.00051   0.00035  -0.00016   2.04358
    A1        1.91413   0.00099  -0.00070   0.00508   0.00438   1.91851
    A2        1.92361   0.00004  -0.00008   0.00049   0.00041   1.92403
    A3        1.93054  -0.00059   0.00141  -0.00502  -0.00361   1.92693
    A4        1.89294  -0.00049  -0.00073  -0.00104  -0.00177   1.89117
    A5        1.89149  -0.00015  -0.00025   0.00029   0.00005   1.89154
    A6        1.91044   0.00019   0.00029   0.00027   0.00056   1.91101
    A7        1.91413   0.00099  -0.00070   0.00508   0.00438   1.91851
    A8        1.92361   0.00004  -0.00008   0.00049   0.00041   1.92403
    A9        1.93054  -0.00059   0.00141  -0.00502  -0.00361   1.92693
   A10        1.89294  -0.00049  -0.00073  -0.00104  -0.00177   1.89117
   A11        1.89149  -0.00015  -0.00025   0.00029   0.00005   1.89154
   A12        1.91044   0.00019   0.00029   0.00027   0.00056   1.91101
    D1        1.22860  -0.00006  -0.01207  -0.00996  -0.02203   1.20657
    D2       -2.97178  -0.00002  -0.01345  -0.00777  -0.02122  -2.99300
    D3       -0.85672  -0.00014  -0.01220  -0.01041  -0.02261  -0.87932
    D4       -2.97178  -0.00002  -0.01345  -0.00777  -0.02122  -2.99300
    D5       -0.88898   0.00003  -0.01482  -0.00559  -0.02040  -0.90938
    D6        1.22609  -0.00009  -0.01357  -0.00822  -0.02179   1.20429
    D7       -0.85672  -0.00014  -0.01220  -0.01041  -0.02261  -0.87932
    D8        1.22609  -0.00009  -0.01357  -0.00822  -0.02179   1.20429
    D9       -2.94203  -0.00022  -0.01232  -0.01086  -0.02318  -2.96521
         Item               Value     Threshold  Converged?
 Maximum Force            0.000991     0.000450     NO 
 RMS     Force            0.000356     0.000300     NO 
 Maximum Displacement     0.024332     0.001800     NO 
 RMS     Displacement     0.010797     0.001200     NO 
 Predicted change in Energy=-1.582173D-05
 GradGradGradGradGradGradGradGradGradGradGradGradGradGradGradGradGradGrad

                          Input orientation:                          
 ---------------------------------------------------------------------
 Center     Atomic     Atomic              Coordinates (Angstroms)
 Number     Number      Type              X           Y           Z
 ---------------------------------------------------------------------
    1          6             0       -0.000340    0.007112    0.017431
    2          6             0       -0.006329   -0.003261    1.521169
    3          9             0        1.272318    0.095760    1.992552
    4          1             0       -0.575400    0.837249    1.899437
    5          1             0       -0.435317   -0.924828    1.890154
    6          9             0        0.553228   -1.149740   -0.453952
    7          1             0       -1.012779    0.079687   -0.360837
    8          1             0        0.583266    0.839410   -0.351554
 ---------------------------------------------------------------------
                    Distance matrix (angstroms):
                    1          2          3          4          5
     1  C    0.000000
     2  C    1.503785   0.000000
     3  F    2.351302   1.366363   0.000000
     4  H    2.135829   1.083229   1.993123   0.000000
     5  H    2.136541   1.081418   1.992010   1.767661   0.000000
     6  F    1.366363   2.351302   2.837911   3.280300   2.553946
     7  H    1.083229   2.135829   3.280300   2.423641   2.531693
     8  H    1.081418   2.136541   2.553946   2.531693   3.029076
                    6          7          8
     6  F    0.000000
     7  H    1.993123   0.000000
     8  H    1.992010   1.767661   0.000000
 Stoichiometry    C2H4F2
 Framework group  C2[X(C2H4F2)]
 Deg. of freedom    10
 Full point group                 C2
 Largest Abelian subgroup         C2      NOp   2
 Largest concise Abelian subgroup C2      NOp   2
                         Standard orientation:                         
 ---------------------------------------------------------------------
 Center     Atomic     Atomic              Coordinates (Angstroms)
 Number     Number      Type              X           Y           Z
 ---------------------------------------------------------------------
    1          6             0       -0.633631   -0.404788    0.511568
    2          6             0        0.633631    0.404788    0.511568
    3          9             0        0.633631    1.269625   -0.546262
    4          1             0        0.709112    0.982685    1.424653
    5          1             0        1.494908   -0.243054    0.422299
    6          9             0       -0.633631   -1.269625   -0.546262
    7          1             0       -0.709112   -0.982685    1.424653
    8          1             0       -1.494908    0.243054    0.422299
 ---------------------------------------------------------------------
 Rotational constants (GHZ):     17.5054744      5.1751008      4.5026476
 Standard basis: 6-31G(d) (6D, 7F)
 There are    34 symmetry adapted basis functions of A   symmetry.
 There are    34 symmetry adapted basis functions of B   symmetry.
 Integral buffers will be    131072 words long.
 Raffenetti 1 integral format.
 Two-electron integral symmetry is turned on.
    68 basis functions,   128 primitive gaussians,    68 cartesian basis functions
    17 alpha electrons       17 beta electrons
       nuclear repulsion energy       129.1889465481 Hartrees.
 NAtoms=    8 NActive=    8 NUniq=    4 SFac= 3.00D+00 NAtFMM=   80 NAOKFM=F Big=F
 One-electron integrals computed using PRISM.
 NBasis=    68 RedAO= T  NBF=    34    34
 NBsUse=    68 1.00D-06 NBFU=    34    34
 Initial guess read from the read-write file:
 Initial guess orbital symmetries:
       Occupied  (B) (A) (A) (B) (A) (B) (A) (B) (B) (A) (A) (A)
                 (B) (B) (B) (A) (A)
       Virtual   (A) (B) (A) (B) (A) (B) (B) (A) (A) (B) (B) (B)
                 (A) (A) (B) (A) (A) (B) (B) (A) (B) (A) (B) (B)
                 (A) (A) (B) (B) (A) (B) (A) (A) (B) (A) (B) (A)
                 (B) (B) (A) (A) (A) (B) (B) (A) (B) (B) (A) (B)
                 (A) (A) (B)
 Harris functional with IExCor=  205 diagonalized for initial guess.
 ExpMin= 1.61D-01 ExpMax= 7.00D+03 ExpMxC= 1.05D+03 IAcc=1 IRadAn=         1 AccDes= 1.00D-06
 HarFok:  IExCor= 205 AccDes= 1.00D-06 IRadAn=         1 IDoV=1
 ScaDFX=  1.000000  1.000000  1.000000  1.000000
 Requested convergence on RMS density matrix=1.00D-08 within 128 cycles.
 Requested convergence on MAX density matrix=1.00D-06.
 Requested convergence on             energy=1.00D-06.
 No special actions if energy rises.
 Keep R1 integrals in memory in canonical form, NReq=     3771471.
 SCF Done:  E(RHF) =  -276.921400890     A.U. after    9 cycles
             Convg  =    0.6704D-08             -V/T =  2.0013
             S**2   =   0.0000
 ***** Axes restored to original set *****
 -------------------------------------------------------------------
 Center     Atomic                   Forces (Hartrees/Bohr)
 Number     Number              X              Y              Z
 -------------------------------------------------------------------
    1          6           0.000440938    0.000216153   -0.000033907
    2          6           0.000033275   -0.000489940    0.000033907
    3          9          -0.000220282    0.000045335   -0.000242107
    4          1          -0.000044484    0.000083424   -0.000180406
    5          1          -0.000057031   -0.000138556    0.000245386
    6          9          -0.000149402    0.000168102    0.000242107
    7          1          -0.000094490   -0.000003188    0.000180406
    8          1           0.000091477    0.000118669   -0.000245386
 -------------------------------------------------------------------
 Cartesian Forces:  Max     0.000489940 RMS     0.000199090

 GradGradGradGradGradGradGradGradGradGradGradGradGradGradGradGradGradGrad
 Berny optimization.
 Internal  Forces:  Max     0.000384402 RMS     0.000196607
 Search for a local minimum.
 Step number   4 out of a maximum of  38
 All quantities printed in internal units (Hartrees-Bohrs-Radians)
 Update second derivatives using D2CorX and points  1  2  3  4
 Trust test= 7.13D-01 RLast= 6.62D-02 DXMaxT set to 6.00D-01
     Eigenvalues ---    0.00350   0.05640   0.05649   0.05813   0.06274
     Eigenvalues ---    0.15451   0.16000   0.16000   0.17786   0.22387
     Eigenvalues ---    0.24972   0.29538   0.32098   0.32122   0.32122
     Eigenvalues ---    0.34645   0.46524   0.499591000.000001000.00000
     Eigenvalues --- 1000.000001000.000001000.000001000.000001000.00000
     Eigenvalues --- 1000.000001000.000001000.00000
 RFO step:  Lambda=-2.26703591D-06.
 Quartic linear search produced a step of -0.23110.
 Iteration  1 RMS(Cart)=  0.00145722 RMS(Int)=  0.00000150
 Iteration  2 RMS(Cart)=  0.00000152 RMS(Int)=  0.00000076
 Iteration  3 RMS(Cart)=  0.00000000 RMS(Int)=  0.00000076
 Variable       Old X    -DE/DX   Delta X   Delta X   Delta X     New X
                                 (Linear)    (Quad)   (Total)
    R1        2.84174  -0.00014   0.00002  -0.00026  -0.00024   2.84150
    R2        2.58205  -0.00029   0.00004  -0.00041  -0.00037   2.58168
    R3        2.04701   0.00003   0.00023  -0.00013   0.00010   2.04710
    R4        2.04358   0.00022   0.00004   0.00060   0.00064   2.04422
    R5        2.58205  -0.00029   0.00004  -0.00041  -0.00037   2.58168
    R6        2.04701   0.00003   0.00023  -0.00013   0.00010   2.04710
    R7        2.04358   0.00022   0.00004   0.00060   0.00064   2.04422
    A1        1.91851  -0.00029  -0.00101   0.00029  -0.00072   1.91780
    A2        1.92403  -0.00031  -0.00010  -0.00167  -0.00176   1.92227
    A3        1.92693   0.00038   0.00083   0.00100   0.00183   1.92876
    A4        1.89117   0.00019   0.00041  -0.00055  -0.00014   1.89102
    A5        1.89154   0.00002  -0.00001   0.00053   0.00052   1.89206
    A6        1.91101   0.00001  -0.00013   0.00040   0.00027   1.91127
    A7        1.91851  -0.00029  -0.00101   0.00029  -0.00072   1.91780
    A8        1.92403  -0.00031  -0.00010  -0.00167  -0.00176   1.92227
    A9        1.92693   0.00038   0.00083   0.00100   0.00183   1.92876
   A10        1.89117   0.00019   0.00041  -0.00055  -0.00014   1.89102
   A11        1.89154   0.00002  -0.00001   0.00053   0.00052   1.89206
   A12        1.91101   0.00001  -0.00013   0.00040   0.00027   1.91127
    D1        1.20657   0.00017   0.00509  -0.00106   0.00403   1.21060
    D2       -2.99300   0.00002   0.00490  -0.00259   0.00231  -2.99069
    D3       -0.87932   0.00009   0.00522  -0.00254   0.00269  -0.87664
    D4       -2.99300   0.00002   0.00490  -0.00259   0.00231  -2.99069
    D5       -0.90938  -0.00012   0.00472  -0.00413   0.00059  -0.90879
    D6        1.20429  -0.00006   0.00504  -0.00407   0.00097   1.20526
    D7       -0.87932   0.00009   0.00522  -0.00254   0.00269  -0.87664
    D8        1.20429  -0.00006   0.00504  -0.00407   0.00097   1.20526
    D9       -2.96521   0.00000   0.00536  -0.00401   0.00134  -2.96387
         Item               Value     Threshold  Converged?
 Maximum Force            0.000384     0.000450     YES
 RMS     Force            0.000197     0.000300     YES
 Maximum Displacement     0.002589     0.001800     NO 
 RMS     Displacement     0.001458     0.001200     NO 
 Predicted change in Energy=-2.254973D-06
 GradGradGradGradGradGradGradGradGradGradGradGradGradGradGradGradGradGrad

                          Input orientation:                          
 ---------------------------------------------------------------------
 Center     Atomic     Atomic              Coordinates (Angstroms)
 Number     Number      Type              X           Y           Z
 ---------------------------------------------------------------------
    1          6             0        0.000378    0.007622    0.017501
    2          6             0       -0.006412   -0.004138    1.521099
    3          9             0        1.271932    0.097049    1.992284
    4          1             0       -0.576320    0.836456    1.898067
    5          1             0       -0.434828   -0.926006    1.890985
    6          9             0        0.551919   -1.150049   -0.453684
    7          1             0       -1.012552    0.080880   -0.359467
    8          1             0        0.584530    0.839575   -0.352385
 ---------------------------------------------------------------------
                    Distance matrix (angstroms):
                    1          2          3          4          5
     1  C    0.000000
     2  C    1.503659   0.000000
     3  F    2.350450   1.366168   0.000000
     4  H    2.134496   1.083281   1.992896   0.000000
     5  H    2.137991   1.081756   1.992468   1.768146   0.000000
     6  F    1.366168   2.350450   2.838386   3.278698   2.553691
     7  H    1.083281   2.134496   3.278698   2.420259   2.532216
     8  H    1.081756   2.137991   2.553691   2.532216   3.031348
                    6          7          8
     6  F    0.000000
     7  H    1.992896   0.000000
     8  H    1.992468   1.768146   0.000000
 Stoichiometry    C2H4F2
 Framework group  C2[X(C2H4F2)]
 Deg. of freedom    10
 Full point group                 C2
 Largest Abelian subgroup         C2      NOp   2
 Largest concise Abelian subgroup C2      NOp   2
                         Standard orientation:                         
 ---------------------------------------------------------------------
 Center     Atomic     Atomic              Coordinates (Angstroms)
 Number     Number      Type              X           Y           Z
 ---------------------------------------------------------------------
    1          6             0       -0.634524   -0.403270    0.510848
    2          6             0        0.634524    0.403270    0.510848
    3          9             0        0.634524    1.269444   -0.545636
    4          1             0        0.709839    0.980072    1.424701
    5          1             0        1.495716   -0.245159    0.420934
    6          9             0       -0.634524   -1.269444   -0.545636
    7          1             0       -0.709839   -0.980072    1.424701
    8          1             0       -1.495716    0.245159    0.420934
 ---------------------------------------------------------------------
 Rotational constants (GHZ):     17.5167724      5.1739362      4.5046408
 Standard basis: 6-31G(d) (6D, 7F)
 There are    34 symmetry adapted basis functions of A   symmetry.
 There are    34 symmetry adapted basis functions of B   symmetry.
 Integral buffers will be    131072 words long.
 Raffenetti 1 integral format.
 Two-electron integral symmetry is turned on.
    68 basis functions,   128 primitive gaussians,    68 cartesian basis functions
    17 alpha electrons       17 beta electrons
       nuclear repulsion energy       129.2011229933 Hartrees.
 NAtoms=    8 NActive=    8 NUniq=    4 SFac= 3.00D+00 NAtFMM=   80 NAOKFM=F Big=F
 One-electron integrals computed using PRISM.
 NBasis=    68 RedAO= T  NBF=    34    34
 NBsUse=    68 1.00D-06 NBFU=    34    34
 Initial guess read from the read-write file:
 Initial guess orbital symmetries:
       Occupied  (B) (A) (A) (B) (A) (B) (A) (B) (B) (A) (A) (A)
                 (B) (B) (B) (A) (A)
       Virtual   (A) (B) (A) (B) (A) (B) (B) (A) (A) (B) (B) (B)
                 (A) (A) (B) (A) (A) (B) (B) (A) (B) (A) (B) (B)
                 (A) (A) (B) (B) (A) (B) (A) (A) (B) (A) (B) (A)
                 (B) (B) (A) (A) (A) (B) (B) (A) (B) (B) (A) (B)
                 (A) (A) (B)
 Requested convergence on RMS density matrix=1.00D-08 within 128 cycles.
 Requested convergence on MAX density matrix=1.00D-06.
 Requested convergence on             energy=1.00D-06.
 No special actions if energy rises.
 Keep R1 integrals in memory in canonical form, NReq=     3771471.
 SCF Done:  E(RHF) =  -276.921403036     A.U. after    8 cycles
             Convg  =    0.5169D-08             -V/T =  2.0013
             S**2   =   0.0000
 ***** Axes restored to original set *****
 -------------------------------------------------------------------
 Center     Atomic                   Forces (Hartrees/Bohr)
 Number     Number              X              Y              Z
 -------------------------------------------------------------------
    1          6           0.000021048   -0.000055286   -0.000004222
    2          6           0.000058403    0.000009415    0.000004222
    3          9          -0.000039150   -0.000055575   -0.000003463
    4          1          -0.000060152    0.000010123   -0.000009669
    5          1           0.000052334    0.000055843   -0.000011345
    6          9           0.000028554    0.000061693    0.000003463
    7          1          -0.000038843    0.000047031    0.000009669
    8          1          -0.000022194   -0.000073244    0.000011345
 -------------------------------------------------------------------
 Cartesian Forces:  Max     0.000073244 RMS     0.000038677

 GradGradGradGradGradGradGradGradGradGradGradGradGradGradGradGradGradGrad
 Berny optimization.
 Internal  Forces:  Max     0.000072194 RMS     0.000033488
 Search for a local minimum.
 Step number   5 out of a maximum of  38
 All quantities printed in internal units (Hartrees-Bohrs-Radians)
 Update second derivatives using D2CorX and points  1  2  3  4  5

 Trust test= 9.52D-01 RLast= 7.83D-03 DXMaxT set to 6.00D-01
     Eigenvalues ---    0.00355   0.05652   0.05814   0.05829   0.07097
     Eigenvalues ---    0.14521   0.16000   0.16000   0.16528   0.22388
     Eigenvalues ---    0.24472   0.29261   0.32122   0.32122   0.33604
     Eigenvalues ---    0.35698   0.46524   0.485031000.000001000.00000
     Eigenvalues --- 1000.000001000.000001000.000001000.000001000.00000
     Eigenvalues --- 1000.000001000.000001000.00000
 RFO step:  Lambda=-1.89333243D-07.
 Quartic linear search produced a step of -0.04620.
 Iteration  1 RMS(Cart)=  0.00025453 RMS(Int)=  0.00000006
 Iteration  2 RMS(Cart)=  0.00000005 RMS(Int)=  0.00000004
 Variable       Old X    -DE/DX   Delta X   Delta X   Delta X     New X
                                 (Linear)    (Quad)   (Total)
    R1        2.84150  -0.00002   0.00001  -0.00010  -0.00009   2.84141
    R2        2.58168  -0.00004   0.00002  -0.00013  -0.00012   2.58157
    R3        2.04710   0.00004   0.00000   0.00010   0.00010   2.04720
    R4        2.04422  -0.00007  -0.00003  -0.00015  -0.00018   2.04404
    R5        2.58168  -0.00004   0.00002  -0.00013  -0.00012   2.58157
    R6        2.04710   0.00004   0.00000   0.00010   0.00010   2.04720
    R7        2.04422  -0.00007  -0.00003  -0.00015  -0.00018   2.04404
    A1        1.91780   0.00003   0.00003   0.00009   0.00013   1.91792
    A2        1.92227  -0.00003   0.00008  -0.00026  -0.00018   1.92209
    A3        1.92876   0.00001  -0.00008   0.00010   0.00001   1.92878
    A4        1.89102   0.00003   0.00001   0.00048   0.00049   1.89151
    A5        1.89206  -0.00004  -0.00002  -0.00035  -0.00037   1.89169
    A6        1.91127   0.00000  -0.00001  -0.00005  -0.00006   1.91121
    A7        1.91780   0.00003   0.00003   0.00009   0.00013   1.91792
    A8        1.92227  -0.00003   0.00008  -0.00026  -0.00018   1.92209
    A9        1.92876   0.00001  -0.00008   0.00010   0.00001   1.92878
   A10        1.89102   0.00003   0.00001   0.00048   0.00049   1.89151
   A11        1.89206  -0.00004  -0.00002  -0.00035  -0.00037   1.89169
   A12        1.91127   0.00000  -0.00001  -0.00005  -0.00006   1.91121
    D1        1.21060  -0.00004  -0.00019  -0.00032  -0.00051   1.21009
    D2       -2.99069   0.00000  -0.00011   0.00016   0.00006  -2.99064
    D3       -0.87664  -0.00002  -0.00012  -0.00001  -0.00014  -0.87677
    D4       -2.99069   0.00000  -0.00011   0.00016   0.00006  -2.99064
    D5       -0.90879   0.00004  -0.00003   0.00065   0.00062  -0.90817
    D6        1.20526   0.00002  -0.00004   0.00047   0.00043   1.20569
    D7       -0.87664  -0.00002  -0.00012  -0.00001  -0.00014  -0.87677
    D8        1.20526   0.00002  -0.00004   0.00047   0.00043   1.20569
    D9       -2.96387   0.00001  -0.00006   0.00030   0.00024  -2.96363
         Item               Value     Threshold  Converged?
 Maximum Force            0.000072     0.000450     YES
 RMS     Force            0.000033     0.000300     YES
 Maximum Displacement     0.000498     0.001800     YES
 RMS     Displacement     0.000255     0.001200     YES
 Predicted change in Energy=-9.970216D-08
 Optimization completed.
    -- Stationary point found.
                           ----------------------------
                           !   Optimized Parameters   !
                           ! (Angstroms and Degrees)  !
 --------------------------                            --------------------------
 ! Name  Definition              Value          Derivative Info.                !
 --------------------------------------------------------------------------------
 ! R1    R(1,2)                  1.5037         -DE/DX =    0.0                 !
 ! R2    R(1,6)                  1.3662         -DE/DX =    0.0                 !
 ! R3    R(1,7)                  1.0833         -DE/DX =    0.0                 !
 ! R4    R(1,8)                  1.0818         -DE/DX =   -0.0001              !
 ! R5    R(2,3)                  1.3662         -DE/DX =    0.0                 !
 ! R6    R(2,4)                  1.0833         -DE/DX =    0.0                 !
 ! R7    R(2,5)                  1.0818         -DE/DX =   -0.0001              !
 ! A1    A(2,1,6)              109.8816         -DE/DX =    0.0                 !
 ! A2    A(2,1,7)              110.1378         -DE/DX =    0.0                 !
 ! A3    A(2,1,8)              110.5099         -DE/DX =    0.0                 !
 ! A4    A(6,1,7)              108.3477         -DE/DX =    0.0                 !
 ! A5    A(6,1,8)              108.4071         -DE/DX =    0.0                 !
 ! A6    A(7,1,8)              109.5079         -DE/DX =    0.0                 !
 ! A7    A(1,2,3)              109.8816         -DE/DX =    0.0                 !
 ! A8    A(1,2,4)              110.1378         -DE/DX =    0.0                 !
 ! A9    A(1,2,5)              110.5099         -DE/DX =    0.0                 !
 ! A10   A(3,2,4)              108.3477         -DE/DX =    0.0                 !
 ! A11   A(3,2,5)              108.4071         -DE/DX =    0.0                 !
 ! A12   A(4,2,5)              109.5079         -DE/DX =    0.0                 !
 ! D1    D(6,1,2,3)             69.362          -DE/DX =    0.0                 !
 ! D2    D(6,1,2,4)           -171.354          -DE/DX =    0.0                 !
 ! D3    D(6,1,2,5)            -50.2276         -DE/DX =    0.0                 !
 ! D4    D(7,1,2,3)           -171.354          -DE/DX =    0.0                 !
 ! D5    D(7,1,2,4)            -52.07           -DE/DX =    0.0                 !
 ! D6    D(7,1,2,5)             69.0564         -DE/DX =    0.0                 !
 ! D7    D(8,1,2,3)            -50.2276         -DE/DX =    0.0                 !
 ! D8    D(8,1,2,4)             69.0564         -DE/DX =    0.0                 !
 ! D9    D(8,1,2,5)           -169.8172         -DE/DX =    0.0                 !
 --------------------------------------------------------------------------------
 GradGradGradGradGradGradGradGradGradGradGradGradGradGradGradGradGradGrad

                          Input orientation:                          
 ---------------------------------------------------------------------
 Center     Atomic     Atomic              Coordinates (Angstroms)
 Number     Number      Type              X           Y           Z
 ---------------------------------------------------------------------
    1          6             0        0.000378    0.007622    0.017501
    2          6             0       -0.006412   -0.004138    1.521099
    3          9             0        1.271932    0.097049    1.992284
    4          1             0       -0.576320    0.836456    1.898067
    5          1             0       -0.434828   -0.926006    1.890985
    6          9             0        0.551919   -1.150049   -0.453684
    7          1             0       -1.012552    0.080880   -0.359467
    8          1             0        0.584530    0.839575   -0.352385
 ---------------------------------------------------------------------
                    Distance matrix (angstroms):
                    1          2          3          4          5
     1  C    0.000000
     2  C    1.503659   0.000000
     3  F    2.350450   1.366168   0.000000
     4  H    2.134496   1.083281   1.992896   0.000000
     5  H    2.137991   1.081756   1.992468   1.768146   0.000000
     6  F    1.366168   2.350450   2.838386   3.278698   2.553691
     7  H    1.083281   2.134496   3.278698   2.420259   2.532216
     8  H    1.081756   2.137991   2.553691   2.532216   3.031348
                    6          7          8
     6  F    0.000000
     7  H    1.992896   0.000000
     8  H    1.992468   1.768146   0.000000
 Stoichiometry    C2H4F2
 Framework group  C2[X(C2H4F2)]
 Deg. of freedom    10
 Full point group                 C2
 Largest Abelian subgroup         C2      NOp   2
 Largest concise Abelian subgroup C2      NOp   2
                         Standard orientation:                         
 ---------------------------------------------------------------------
 Center     Atomic     Atomic              Coordinates (Angstroms)
 Number     Number      Type              X           Y           Z
 ---------------------------------------------------------------------
    1          6             0       -0.634524   -0.403270    0.510848
    2          6             0        0.634524    0.403270    0.510848
    3          9             0        0.634524    1.269444   -0.545636
    4          1             0        0.709839    0.980072    1.424701
    5          1             0        1.495716   -0.245159    0.420934
    6          9             0       -0.634524   -1.269444   -0.545636
    7          1             0       -0.709839   -0.980072    1.424701
    8          1             0       -1.495716    0.245159    0.420934
 ---------------------------------------------------------------------
 Rotational constants (GHZ):     17.5167724      5.1739362      4.5046408

 **********************************************************************

            Population analysis using the SCF density.

 **********************************************************************

 Orbital symmetries:
       Occupied  (B) (A) (A) (B) (A) (B) (A) (B) (B) (A) (A) (A)
                 (B) (B) (B) (A) (A)
       Virtual   (A) (B) (A) (B) (A) (B) (B) (A) (A) (B) (B) (B)
                 (A) (A) (B) (A) (A) (B) (B) (A) (B) (A) (B) (B)
                 (A) (A) (B) (B) (A) (B) (A) (A) (B) (A) (B) (A)
                 (B) (B) (A) (A) (A) (B) (B) (A) (B) (B) (A) (B)
                 (A) (A) (B)
 The electronic state is 1-A.
 Alpha  occ. eigenvalues --  -26.28187 -26.28187 -11.31501 -11.31432  -1.60057
 Alpha  occ. eigenvalues --   -1.58821  -1.04544  -0.88032  -0.73272  -0.73235
 Alpha  occ. eigenvalues --   -0.70132  -0.67295  -0.66623  -0.61557  -0.53788
 Alpha  occ. eigenvalues --   -0.52343  -0.50164
 Alpha virt. eigenvalues --    0.24416   0.27145   0.29342   0.30625   0.33147
 Alpha virt. eigenvalues --    0.36171   0.40581   0.71776   0.78678   0.79164
 Alpha virt. eigenvalues --    0.81805   0.86341   0.88455   1.03657   1.09844
 Alpha virt. eigenvalues --    1.12069   1.16094   1.18422   1.31360   1.43289
 Alpha virt. eigenvalues --    1.51425   1.54085   1.59329   1.69500   1.70091
 Alpha virt. eigenvalues --    1.71849   1.74246   1.97201   2.00844   2.06328
 Alpha virt. eigenvalues --    2.09495   2.12146   2.13544   2.17598   2.30288
 Alpha virt. eigenvalues --    2.36134   2.45287   2.46803   2.51802   2.55318
 Alpha virt. eigenvalues --    2.71422   2.77621   2.83391   2.92983   3.06114
 Alpha virt. eigenvalues --    3.38516   3.41993   4.47414   4.55128   4.79593
 Alpha virt. eigenvalues --    4.83894
          Condensed to atoms (all electrons):
              1          2          3          4          5          6
     1  C    4.714785   0.350523  -0.029670  -0.044708  -0.040613   0.210316
     2  C    0.350523   4.714785   0.210316   0.374792   0.388291  -0.029670
     3  F   -0.029670   0.210316   9.276732  -0.029336  -0.030239   0.000948
     4  H   -0.044708   0.374792  -0.029336   0.579066  -0.037526   0.002243
     5  H   -0.040613   0.388291  -0.030239  -0.037526   0.544875  -0.000251
     6  F    0.210316  -0.029670   0.000948   0.002243  -0.000251   9.276732
     7  H    0.374792  -0.044708   0.002243   0.003905  -0.001219  -0.029336
     8  H    0.388291  -0.040613  -0.000251  -0.001219   0.005005  -0.030239
              7          8
     1  C    0.374792   0.388291
     2  C   -0.044708  -0.040613
     3  F    0.002243  -0.000251
     4  H    0.003905  -0.001219
     5  H   -0.001219   0.005005
     6  F   -0.029336  -0.030239
     7  H    0.579066  -0.037526
     8  H   -0.037526   0.544875
 Mulliken atomic charges:
              1
     1  C    0.076285
     2  C    0.076285
     3  F   -0.400744
     4  H    0.152782
     5  H    0.171677
     6  F   -0.400744
     7  H    0.152782
     8  H    0.171677
 Sum of Mulliken charges=   0.00000
 Atomic charges with hydrogens summed into heavy atoms:
              1
     1  C    0.400744
     2  C    0.400744
     3  F   -0.400744
     4  H    0.000000
     5  H    0.000000
     6  F   -0.400744
     7  H    0.000000
     8  H    0.000000
 Sum of Mulliken charges=   0.00000
 Electronic spatial extent (au):  <R**2>=   278.1841
 Charge=     0.0000 electrons
 Dipole moment (field-independent basis, Debye):
    X=     0.0000    Y=     0.0000    Z=     2.8777  Tot=     2.8777
 Quadrupole moment (field-independent basis, Debye-Ang):
   XX=   -21.4682   YY=   -25.8709   ZZ=   -21.9940
   XY=    -1.7548   XZ=     0.0000   YZ=     0.0000
 Traceless Quadrupole moment (field-independent basis, Debye-Ang):
   XX=     1.6428   YY=    -2.7598   ZZ=     1.1170
   XY=    -1.7548   XZ=     0.0000   YZ=     0.0000
 Octapole moment (field-independent basis, Debye-Ang**2):
  XXX=     0.0000  YYY=     0.0000  ZZZ=    -5.9684  XYY=     0.0000
  XXY=     0.0000  XXZ=    -1.2944  XZZ=     0.0000  YZZ=     0.0000
  YYZ=     0.7705  XYZ=     1.7621
 Hexadecapole moment (field-independent basis, Debye-Ang**3):
 XXXX=   -85.8769 YYYY=  -134.6320 ZZZZ=   -66.4652 XXXY=   -34.2133
 XXXZ=     0.0000 YYYX=   -35.3671 YYYZ=     0.0000 ZZZX=     0.0000
 ZZZY=     0.0000 XXYY=   -37.3122 XXZZ=   -26.6129 YYZZ=   -32.0569
 XXYZ=     0.0000 YYXZ=     0.0000 ZZXY=   -10.4797
 N-N= 1.292011229933D+02 E-N=-9.168271076410D+02  KE= 2.765654574719D+02
 Symmetry A    KE= 1.395465717700D+02
 Symmetry B    KE= 1.370188857019D+02
 Atom   5 needs variable   3=   1.0817561064 but is    1.0832813061
 Input z-matrix variables are not compatible with final structure.
 1\1\GINC-DCOPT154\FOpt\RHF\6-31G(d)\C2H4F2\WSCHNEI1\18-Oct-2007\0\\#N 
 G2\\C2H4F2 Scan\\0,1\C,0.0003775452,0.0076215707,0.0175009704\C,-0.006
 4117012,-0.0041377491,1.5210990296\F,1.2719316531,0.0970486926,1.99228
 41099\H,-0.5763203394,0.8364559107,1.8980669743\H,-0.4348279228,-0.926
 0055956,1.8909848072\F,0.5519191934,-1.1500494697,-0.4536841099\H,-1.0
 125522375,0.0808800992,-0.3594669743\H,0.5845304085,0.8395748252,-0.35
 23848072\\Version=AM64L-G03RevD.01\State=1-A\HF=-276.921403\RMSD=5.169
 e-09\RMSF=3.868e-05\Thermal=0.\Dipole=-0.9804932,0.566088,0.\PG=C02 [X
 (C2H4F2)]\\@


 The best way to pay for a lovely moment is to enjoy it.
 -- Richard Bach
 Job cpu time:  0 days  0 hours  0 minutes  8.8 seconds.
 File lengths (MBytes):  RWF=     18 Int=      0 D2E=      0 Chk=     10 Scr=      1
 Normal termination of Gaussian 03 at Thu Oct 18 11:32:59 2007.
 Link1:  Proceeding to internal job step number  2.
 -------------------------------------------------------
 #N Geom=AllCheck Guess=Read SCRF=Check HF/6-31G(d) Freq
 -------------------------------------------------------
 1/10=4,29=7,30=1,38=1,40=1,46=1/1,3;
 2/40=1/2;
 3/5=1,6=6,7=1,11=9,16=1,25=1,30=1,70=2,71=2/1,2,3;
 4/5=1/1;
 5/5=2,38=6/2;
 8/6=4,10=90,11=11/1;
 10/13=10/2;
 11/6=2,8=1,9=11,15=111,16=1/1,2,10;
 10/6=1/2;
 6/7=2,8=2,9=2,10=2,18=1,28=1/1;
 7/8=1,10=1,25=1/1,2,3,16;
 1/10=4,30=1,46=1/3;
 99//99;
 -----------
 C2H4F2 Scan
 -----------
 Redundant internal coordinates taken from checkpoint file:
 g-C2H4F2-g2.chk
 Charge =  0 Multiplicity = 1
 C,0,0.0003775452,0.0076215707,0.0175009704
 C,0,-0.0064117012,-0.0041377491,1.5210990296
 F,0,1.2719316531,0.0970486926,1.9922841099
 H,0,-0.5763203394,0.8364559107,1.8980669743
 H,0,-0.4348279228,-0.9260055956,1.8909848072
 F,0,0.5519191934,-1.1500494697,-0.4536841099
 H,0,-1.0125522375,0.0808800992,-0.3594669743
 H,0,0.5845304085,0.8395748252,-0.3523848072
 Recover connectivity data from disk.

 GradGradGradGradGradGradGradGradGradGradGradGradGradGradGradGradGradGrad
 Berny optimization.
 Initialization pass.
                           ----------------------------
                           !    Initial Parameters    !
                           ! (Angstroms and Degrees)  !
 --------------------------                            --------------------------
 ! Name  Definition              Value          Derivative Info.                !
 --------------------------------------------------------------------------------
 ! R1    R(1,2)                  1.5037         calculate D2E/DX2 analytically  !
 ! R2    R(1,6)                  1.3662         calculate D2E/DX2 analytically  !
 ! R3    R(1,7)                  1.0833         calculate D2E/DX2 analytically  !
 ! R4    R(1,8)                  1.0818         calculate D2E/DX2 analytically  !
 ! R5    R(2,3)                  1.3662         calculate D2E/DX2 analytically  !
 ! R6    R(2,4)                  1.0833         calculate D2E/DX2 analytically  !
 ! R7    R(2,5)                  1.0818         calculate D2E/DX2 analytically  !
 ! A1    A(2,1,6)              109.8816         calculate D2E/DX2 analytically  !
 ! A2    A(2,1,7)              110.1378         calculate D2E/DX2 analytically  !
 ! A3    A(2,1,8)              110.5099         calculate D2E/DX2 analytically  !
 ! A4    A(6,1,7)              108.3477         calculate D2E/DX2 analytically  !
 ! A5    A(6,1,8)              108.4071         calculate D2E/DX2 analytically  !
 ! A6    A(7,1,8)              109.5079         calculate D2E/DX2 analytically  !
 ! A7    A(1,2,3)              109.8816         calculate D2E/DX2 analytically  !
 ! A8    A(1,2,4)              110.1378         calculate D2E/DX2 analytically  !
 ! A9    A(1,2,5)              110.5099         calculate D2E/DX2 analytically  !
 ! A10   A(3,2,4)              108.3477         calculate D2E/DX2 analytically  !
 ! A11   A(3,2,5)              108.4071         calculate D2E/DX2 analytically  !
 ! A12   A(4,2,5)              109.5079         calculate D2E/DX2 analytically  !
 ! D1    D(6,1,2,3)             69.362          calculate D2E/DX2 analytically  !
 ! D2    D(6,1,2,4)           -171.354          calculate D2E/DX2 analytically  !
 ! D3    D(6,1,2,5)            -50.2276         calculate D2E/DX2 analytically  !
 ! D4    D(7,1,2,3)           -171.354          calculate D2E/DX2 analytically  !
 ! D5    D(7,1,2,4)            -52.07           calculate D2E/DX2 analytically  !
 ! D6    D(7,1,2,5)             69.0564         calculate D2E/DX2 analytically  !
 ! D7    D(8,1,2,3)            -50.2276         calculate D2E/DX2 analytically  !
 ! D8    D(8,1,2,4)             69.0564         calculate D2E/DX2 analytically  !
 ! D9    D(8,1,2,5)           -169.8172         calculate D2E/DX2 analytically  !
 --------------------------------------------------------------------------------
 Trust Radius=3.00D-01 FncErr=1.00D-07 GrdErr=1.00D-07
 Number of steps in this run=   2 maximum allowed number of steps=   2.
 GradGradGradGradGradGradGradGradGradGradGradGradGradGradGradGradGradGrad

                          Input orientation:                          
 ---------------------------------------------------------------------
 Center     Atomic     Atomic              Coordinates (Angstroms)
 Number     Number      Type              X           Y           Z
 ---------------------------------------------------------------------
    1          6             0        0.000378    0.007622    0.017501
    2          6             0       -0.006412   -0.004138    1.521099
    3          9             0        1.271932    0.097049    1.992284
    4          1             0       -0.576320    0.836456    1.898067
    5          1             0       -0.434828   -0.926006    1.890985
    6          9             0        0.551919   -1.150049   -0.453684
    7          1             0       -1.012552    0.080880   -0.359467
    8          1             0        0.584530    0.839575   -0.352385
 ---------------------------------------------------------------------
                    Distance matrix (angstroms):
                    1          2          3          4          5
     1  C    0.000000
     2  C    1.503659   0.000000
     3  F    2.350450   1.366168   0.000000
     4  H    2.134496   1.083281   1.992896   0.000000
     5  H    2.137991   1.081756   1.992468   1.768146   0.000000
     6  F    1.366168   2.350450   2.838386   3.278698   2.553691
     7  H    1.083281   2.134496   3.278698   2.420259   2.532216
     8  H    1.081756   2.137991   2.553691   2.532216   3.031348
                    6          7          8
     6  F    0.000000
     7  H    1.992896   0.000000
     8  H    1.992468   1.768146   0.000000
 Stoichiometry    C2H4F2
 Framework group  C2[X(C2H4F2)]
 Deg. of freedom    10
 Full point group                 C2
 Largest Abelian subgroup         C2      NOp   2
 Largest concise Abelian subgroup C2      NOp   2
                         Standard orientation:                         
 ---------------------------------------------------------------------
 Center     Atomic     Atomic              Coordinates (Angstroms)
 Number     Number      Type              X           Y           Z
 ---------------------------------------------------------------------
    1          6             0       -0.634524   -0.403270    0.510848
    2          6             0        0.634524    0.403270    0.510848
    3          9             0        0.634524    1.269444   -0.545636
    4          1             0        0.709839    0.980072    1.424701
    5          1             0        1.495716   -0.245159    0.420934
    6          9             0       -0.634524   -1.269444   -0.545636
    7          1             0       -0.709839   -0.980072    1.424701
    8          1             0       -1.495716    0.245159    0.420934
 ---------------------------------------------------------------------
 Rotational constants (GHZ):     17.5167724      5.1739362      4.5046408
 Standard basis: 6-31G(d) (6D, 7F)
 There are    34 symmetry adapted basis functions of A   symmetry.
 There are    34 symmetry adapted basis functions of B   symmetry.
 Integral buffers will be    131072 words long.
 Raffenetti 1 integral format.
 Two-electron integral symmetry is turned on.
    68 basis functions,   128 primitive gaussians,    68 cartesian basis functions
    17 alpha electrons       17 beta electrons
       nuclear repulsion energy       129.2011229933 Hartrees.
 NAtoms=    8 NActive=    8 NUniq=    4 SFac= 3.00D+00 NAtFMM=   80 NAOKFM=F Big=F
 One-electron integrals computed using PRISM.
 NBasis=    68 RedAO= T  NBF=    34    34
 NBsUse=    68 1.00D-06 NBFU=    34    34
 Initial guess read from the checkpoint file:
 g-C2H4F2-g2.chk
 Initial guess orbital symmetries:
       Occupied  (B) (A) (A) (B) (A) (B) (A) (B) (B) (A) (A) (A)
                 (B) (B) (B) (A) (A)
       Virtual   (A) (B) (A) (B) (A) (B) (B) (A) (A) (B) (B) (B)
                 (A) (A) (B) (A) (A) (B) (B) (A) (B) (A) (B) (B)
                 (A) (A) (B) (B) (A) (B) (A) (A) (B) (A) (B) (A)
                 (B) (B) (A) (A) (A) (B) (B) (A) (B) (B) (A) (B)
                 (A) (A) (B)
 Requested convergence on RMS density matrix=1.00D-08 within 128 cycles.
 Requested convergence on MAX density matrix=1.00D-06.
 Requested convergence on             energy=1.00D-06.
 No special actions if energy rises.
 Keep R1 integrals in memory in canonical form, NReq=     3771471.
 SCF Done:  E(RHF) =  -276.921403036     A.U. after    1 cycles
[...]
    1          6             0       -0.003392    0.010232    0.018889
    2          6             0       -0.010557   -0.002179    1.519711
    3          9             0        1.295407    0.096247    1.991420
    4          1             0       -0.585860    0.846629    1.904035
    5          1             0       -0.443494   -0.935389    1.889196
    6          9             0        0.564351   -1.169979   -0.452820
    7          1             0       -1.026132    0.084055   -0.365435
    8          1             0        0.588324    0.851772   -0.350596
 ---------------------------------------------------------------------
                    Distance matrix (angstroms):
                    1          2          3          4          5
     1  C    0.000000
     2  C    1.500890   0.000000
     3  F    2.363293   1.392027   0.000000
     4  H    2.143036   1.095059   2.027283   0.000000
     5  H    2.141480   1.093085   2.024475   1.787758   0.000000
     6  F    1.392027   2.363293   2.848171   3.308241   2.560434
     7  H    1.095059   2.143036   3.308241   2.434308   2.542065
     8  H    1.093085   2.141480   2.560434   2.542065   3.045531
                    6          7          8
     6  F    0.000000
     7  H    2.027283   0.000000
     8  H    2.024475   1.787758   0.000000
 Stoichiometry    C2H4F2
 Framework group  C2[X(C2H4F2)]
 Deg. of freedom    10
 Full point group                 C2
 Largest Abelian subgroup         C2      NOp   2
 Largest concise Abelian subgroup C2      NOp   2
                         Standard orientation:                         
 ---------------------------------------------------------------------
 Center     Atomic     Atomic              Coordinates (Angstroms)
 Number     Number      Type              X           Y           Z
 ---------------------------------------------------------------------
    1          6             0       -0.636200   -0.398016    0.523830
    2          6             0        0.636200    0.398016    0.523830
    3          9             0        0.636200    1.274076   -0.557956
    4          1             0        0.719135    0.981992    1.446461
    5          1             0        1.499269   -0.266472    0.432159
    6          9             0       -0.636200   -1.274076   -0.557956
    7          1             0       -0.719135   -0.981992    1.446461
    8          1             0       -1.499269    0.266472    0.432159
 ---------------------------------------------------------------------
 Rotational constants (GHZ):     16.8560413      5.1446275      4.4503850
 Standard basis: 6-311+G(3df,2p) (5D, 7F)
 There are    96 symmetry adapted basis functions of A   symmetry.
 There are    96 symmetry adapted basis functions of B   symmetry.
 Integral buffers will be    131072 words long.
 Raffenetti 1 integral format.
 Two-electron integral symmetry is turned on.
   192 basis functions,   276 primitive gaussians,   216 cartesian basis functions
    17 alpha electrons       17 beta electrons
       nuclear repulsion energy       127.9201037347 Hartrees.
 NAtoms=    8 NActive=    8 NUniq=    4 SFac= 3.00D+00 NAtFMM=   80 NAOKFM=F Big=F
 One-electron integrals computed using PRISM.
 NBasis=   192 RedAO= T  NBF=    96    96
 NBsUse=   192 1.00D-06 NBFU=    96    96
 Initial guess read from the checkpoint file:
 g-C2H4F2-g2.chk
 Initial guess orbital symmetries:
       Occupied  (B) (A) (A) (B) (A) (B) (A) (B) (B) (A) (A) (A)
                 (B) (B) (B) (A) (A)
       Virtual   (A) (B) (B) (A) (A) (B) (B) (A) (B) (A) (A) (B)
                 (B) (A) (B) (A) (B) (A) (B) (A) (B) (B) (A) (A)
                 (B) (A) (B) (A) (B) (A) (B) (A) (B) (B) (A) (A)
                 (B) (B) (B) (A) (A) (A) (B) (B) (B) (A) (A) (B)
                 (A) (A) (B) (A) (B) (B) (A) (A) (B) (A) (B) (A)
                 (B) (A) (B) (A) (B) (A) (A) (B) (A) (B) (A) (A)
                 (B) (B) (B) (A) (A) (B) (B) (A) (B) (A) (B) (B)
                 (A) (A) (B) (A) (B) (A) (A) (B) (B) (A) (B) (A)
                 (B) (B) (A) (A) (B) (B) (A) (A) (A) (B) (B) (A)
                 (B) (B) (A) (B) (A) (A) (B) (B) (A) (A) (B) (B)
                 (A) (A) (B) (A) (B) (B) (A) (A) (A) (A) (A) (A)
                 (A) (A) (A) (A) (A) (A) (A) (A) (A) (A) (A) (A)
                 (A) (A) (A) (A) (A) (A) (A) (B) (B) (B) (B) (B)
                 (B) (B) (B) (B) (B) (B) (B) (B) (B) (B) (B) (B)
                 (B) (B) (B) (B) (B) (B) (B)
 Requested convergence on RMS density matrix=1.00D-08 within 128 cycles.
 Requested convergence on MAX density matrix=1.00D-06.
 Requested convergence on             energy=1.00D-06.
 No special actions if energy rises.
 SCF Done:  E(RHF) =  -277.029319050     A.U. after   10 cycles
             Convg  =    0.3028D-08             -V/T =  2.0011
             S**2   =   0.0000
 ExpMin= 4.38D-02 ExpMax= 1.14D+04 ExpMxC= 1.72D+03 IAcc=3 IRadAn=         5 AccDes= 0.00D+00
 HarFok:  IExCor= 205 AccDes= 0.00D+00 IRadAn=         5 IDoV=1
 ScaDFX=  1.000000  1.000000  1.000000  1.000000
 Range of M.O.s used for correlation:     5   192
 NBasis=   192 NAE=    17 NBE=    17 NFC=     4 NFV=     0
 NROrb=    188 NOA=    13 NOB=    13 NVA=   175 NVB=   175

 **** Warning!!: The largest alpha MO coefficient is  0.42259599D+02

 Disk-based method using OVN memory for 13 occupieds at a time.
 Estimated scratch disk usage=    72464357 words.
 Actual    scratch disk usage=    72264165 words.
 JobTyp=1 Pass  1:  I=   1 to  13 NPSUse=  1 ParTrn=F ParDer=F DoDerP=F.
 Spin components of T(2) and E(2):
     alpha-alpha T2 =       0.2428505564D-01 E2=     -0.1043361225D+00
     alpha-beta  T2 =       0.1436575947D+00 E2=     -0.6356589639D+00
     beta-beta   T2 =       0.2428505564D-01 E2=     -0.1043361225D+00
 ANorm=    0.1091891801D+01
 E2 =    -0.8443312089D+00 EUMP2 =    -0.27787365025871D+03

 **********************************************************************

            Population analysis using the SCF density.

 **********************************************************************

 Orbital symmetries:
       Occupied  (B) (A) (A) (B) (A) (B) (A) (B) (A) (B) (A) (A)
                 (B) (B) (B) (A) (A)
       Virtual   (A) (B) (B) (A) (A) (B) (A) (B) (A) (B) (B) (A)
                 (A) (B) (B) (B) (A) (A) (B) (A) (B) (A) (A) (B)
                 (A) (B) (A) (B) (B) (B) (A) (A) (B) (A) (B) (B)
                 (A) (B) (A) (A) (B) (A) (A) (B) (A) (B) (B) (A)
                 (B) (B) (A) (A) (B) (B) (A) (A) (B) (A) (B) (B)
                 (A) (A) (B) (B) (A) (B) (A) (A) (B) (B) (A) (A)
                 (B) (B) (A) (B) (A) (A) (A) (B) (B) (B) (A) (B)
                 (A) (B) (A) (A) (B) (A) (B) (A) (B) (A) (B) (B)
                 (A) (A) (B) (A) (B) (A) (A) (B) (B) (A) (A) (B)
                 (B) (A) (A) (B) (B) (A) (A) (B) (B) (A) (B) (A)
                 (B) (A) (B) (B) (A) (A) (B) (A) (B) (B) (A) (A)
                 (B) (B) (A) (A) (B) (B) (A) (A) (B) (A) (B) (B)
                 (A) (A) (B) (A) (B) (B) (A) (B) (A) (B) (A) (A)
                 (B) (A) (B) (A) (B) (A) (A) (B) (B) (A) (B) (B)
                 (A) (B) (A) (A) (B) (B) (A)
 The electronic state is 1-A.
 Alpha  occ. eigenvalues --  -26.28745 -26.28745 -11.32401 -11.32330  -1.60084
 Alpha  occ. eigenvalues --   -1.58899  -1.05112  -0.88173  -0.73399  -0.73392
 Alpha  occ. eigenvalues --   -0.70379  -0.67623  -0.66932  -0.62404  -0.54802
 Alpha  occ. eigenvalues --   -0.53321  -0.51568
 Alpha virt. eigenvalues --    0.06399   0.08203   0.09321   0.09927   0.12219
 Alpha virt. eigenvalues --    0.12415   0.13700   0.18684   0.25199   0.25347
 Alpha virt. eigenvalues --    0.27449   0.27585   0.29789   0.32677   0.35704
 Alpha virt. eigenvalues --    0.37321   0.38243   0.39081   0.40386   0.40796
 Alpha virt. eigenvalues --    0.41828   0.45421   0.47453   0.50447   0.52138
 Alpha virt. eigenvalues --    0.54243   0.57130   0.58717   0.62615   0.64931
 Alpha virt. eigenvalues --    0.64976   0.70970   0.74739   0.77906   0.80507
 Alpha virt. eigenvalues --    0.81094   0.82707   0.90441   0.91555   0.95565
 Alpha virt. eigenvalues --    0.98550   1.03236   1.04519   1.04949   1.16028
 Alpha virt. eigenvalues --    1.22156   1.26445   1.26593   1.29331   1.30411
 Alpha virt. eigenvalues --    1.32306   1.37729   1.41503   1.45768   1.47289
 Alpha virt. eigenvalues --    1.48366   1.52816   1.54433   1.57253   1.57984
 Alpha virt. eigenvalues --    1.58587   1.60644   1.61018   1.62153   1.63897
 Alpha virt. eigenvalues --    1.64244   1.64503   1.70707   1.71993   1.84408
 Alpha virt. eigenvalues --    1.89786   1.97955   1.99192   2.06778   2.11097
 Alpha virt. eigenvalues --    2.21734   2.23738   2.27431   2.42081   2.47502
 Alpha virt. eigenvalues --    2.51804   2.57056   2.58496   2.80113   2.85428
 Alpha virt. eigenvalues --    2.90339   2.99337   3.05325   3.15945   3.25959
 Alpha virt. eigenvalues --    3.29155   3.32994   3.35824   3.39823   3.43875
 Alpha virt. eigenvalues --    3.60824   3.61079   3.62100   3.73156   3.78853
 Alpha virt. eigenvalues --    3.79954   3.83777   3.97131   4.05250   4.15352
 Alpha virt. eigenvalues --    4.26166   4.47759   4.52453   4.60724   4.61590
 Alpha virt. eigenvalues --    4.64892   4.67191   4.77274   4.82739   4.88517
 Alpha virt. eigenvalues --    4.97343   5.00189   5.08141   5.12875   5.15357
 Alpha virt. eigenvalues --    5.19588   5.21947   5.27166   5.29440   5.35854
 Alpha virt. eigenvalues --    5.60935   5.61604   5.74135   5.94570   6.06556
 Alpha virt. eigenvalues --    6.09164   7.01225   7.04990   7.10928   7.16645
 Alpha virt. eigenvalues --    7.17338   7.18061   7.18930   7.19262   7.21933
 Alpha virt. eigenvalues --    7.22569   7.29116   7.29448   7.30315   7.32612
 Alpha virt. eigenvalues --    7.36643   7.38067   7.44912   7.50326   7.85531
 Alpha virt. eigenvalues --    7.87867   7.93364   7.94185   8.11821   8.18024
 Alpha virt. eigenvalues --    8.44694   8.59230   8.63490   8.84823   9.09992
 Alpha virt. eigenvalues --    9.41682  20.15296  20.17995  20.18043  20.21090
 Alpha virt. eigenvalues --   20.24594  20.25826  20.27937  20.32141  20.54190
 Alpha virt. eigenvalues --   20.54237  25.37741  25.67363  68.96114  69.00444
          Condensed to atoms (all electrons):
              1          2          3          4          5          6
     1  C    5.052618  -0.135227  -0.122712  -0.043260  -0.052246   0.065782
     2  C   -0.135227   5.052618   0.065782   0.456489   0.477783  -0.122712
     3  F   -0.122712   0.065782   9.676275  -0.034706  -0.029728   0.009075
     4  H   -0.043260   0.456489  -0.034706   0.514222  -0.020417   0.005404
     5  H   -0.052246   0.477783  -0.029728  -0.020417   0.499596  -0.007181
     6  F    0.065782  -0.122712   0.009075   0.005404  -0.007181   9.676275
     7  H    0.456489  -0.043260   0.005404  -0.003416  -0.003463  -0.034706
     8  H    0.477783  -0.052246  -0.007181  -0.003463   0.003366  -0.029728
              7          8
     1  C    0.456489   0.477783
     2  C   -0.043260  -0.052246
     3  F    0.005404  -0.007181
     4  H   -0.003416  -0.003463
     5  H   -0.003463   0.003366
     6  F   -0.034706  -0.029728
     7  H    0.514222  -0.020417
     8  H   -0.020417   0.499596
 Mulliken atomic charges:
              1
     1  C    0.300772
     2  C    0.300772
     3  F   -0.562209
     4  H    0.129148
     5  H    0.132290
     6  F   -0.562209
     7  H    0.129148
     8  H    0.132290
 Sum of Mulliken charges=   0.00000
 Atomic charges with hydrogens summed into heavy atoms:
              1
     1  C    0.562209
     2  C    0.562209
     3  F   -0.562209
     4  H    0.000000
     5  H    0.000000
     6  F   -0.562209
     7  H    0.000000
     8  H    0.000000
 Sum of Mulliken charges=   0.00000
 Electronic spatial extent (au):  <R**2>=   282.0118
 Charge=     0.0000 electrons
 Dipole moment (field-independent basis, Debye):
    X=     0.0000    Y=     0.0000    Z=     3.1821  Tot=     3.1821
 Quadrupole moment (field-independent basis, Debye-Ang):
   XX=   -21.5083   YY=   -26.4905   ZZ=   -22.3872
   XY=    -1.8543   XZ=     0.0000   YZ=     0.0000
 Traceless Quadrupole moment (field-independent basis, Debye-Ang):
   XX=     1.9537   YY=    -3.0285   ZZ=     1.0748
   XY=    -1.8543   XZ=     0.0000   YZ=     0.0000
 Octapole moment (field-independent basis, Debye-Ang**2):
  XXX=     0.0000  YYY=     0.0000  ZZZ=    -4.7369  XYY=     0.0000
  XXY=     0.0000  XXZ=    -0.9143  XZZ=     0.0000  YZZ=     0.0000
  YYZ=     1.9753  XYZ=     2.2709
 Hexadecapole moment (field-independent basis, Debye-Ang**3):
 XXXX=   -86.7691 YYYY=  -142.0453 ZZZZ=   -70.3782 XXXY=   -35.7410
 XXXZ=     0.0000 YYYX=   -36.5083 YYYZ=     0.0000 ZZZX=     0.0000
 ZZZY=     0.0000 XXYY=   -38.7826 XXZZ=   -27.9422 YYZZ=   -33.0762
 XXYZ=     0.0000 YYXZ=     0.0000 ZZXY=   -10.3407
 N-N= 1.279201037347D+02 E-N=-9.144697435774D+02  KE= 2.767370380583D+02
 Symmetry A    KE= 1.396035553685D+02
 Symmetry B    KE= 1.371334826898D+02
 1\1\GINC-DCOPT154\SP\RMP2-FC\6-311+G(3df,2p)\C2H4F2\WSCHNEI1\18-Oct-20
 07\0\\#N Geom=AllCheck Guess=Read SCRF=Check MP2/6-311+G(3df,2p)\\C2H4
 F2 Scan\\0,1\C,0,-0.0033918764,0.0102324008,0.0188892889\C,0,-0.010557
 4572,-0.0021787493,1.5197107111\F,0,1.2954070817,0.0962469686,1.991419
 8876\H,0,-0.5858598887,0.8466293144,1.9040351271\H,0,-0.4434939079,-0.
 9353892108,1.8891957083\F,0,0.564351221,-1.1699789253,-0.4528198876\H,
 0,-1.0261324382,0.0840548895,-0.3654351271\H,0,0.588323865,0.851771596
 ,-0.3505957083\\Version=AM64L-G03RevD.01\State=1-A\HF=-277.029319\MP2=
 -277.8736503\RMSD=3.028e-09\Thermal=0.\PG=C02 [X(C2H4F2)]\\@


 HE THAT IS UNAWARE OF HIS IGNORANCE WILL BE MISLED BY HIS KNOWLEDGE.

                                        -- WHATLEY
 Diagonal vibrational polarizability:
        0.0000000       0.0000000       0.0000000

 Temperature=              298.150000 Pressure=                      1.000000
 E(ZPE)=                     0.059189 E(Thermal)=                    0.063583
 E(QCISD(T))=             -277.750811 E(Empiric)=                   -0.079820
 DE(Plus)=                  -0.017586 DE(2DF)=                      -0.141259
 G1(0 K)=                 -277.930287 G1 Energy=                  -277.925893
 G1 Enthalpy=             -277.924949 G1 Free Energy=             -277.956712
 E(Delta-G2)=               -0.019056 E(G2-Empiric)=                 0.014820
 G2(0 K)=                 -277.934523 G2 Energy=                  -277.930129
 G2 Enthalpy=             -277.929185 G2 Free Energy=             -277.960949
 DE(MP2)=                   -0.170294
 G2MP2(0 K)=              -277.926916 G2MP2 Energy=               -277.922523
 G2MP2 Enthalpy=          -277.921578 G2MP2 Free Energy=          -277.953342
 1\1\GINC-DCOPT154\Mixed\G2\G2\C2H4F2\WSCHNEI1\18-Oct-2007\0\\#N G2\\C2
 H4F2 Scan\\0,1\C,0,-0.0033918764,0.0102324008,0.0188892889\C,0,-0.0105
 574572,-0.0021787493,1.5197107111\F,0,1.2954070817,0.0962469686,1.9914
 198876\H,0,-0.5858598887,0.8466293144,1.9040351271\H,0,-0.4434939079,-
 0.9353892108,1.8891957083\F,0,0.564351221,-1.1699789253,-0.4528198876\
 H,0,-1.0261324382,0.0840548895,-0.3654351271\H,0,0.588323865,0.8517715
 96,-0.3505957083\\Version=AM64L-G03RevD.01\State=1-A\MP2/6-311G(d,p)=-
 277.703356\QCISD(T)/6-311G(d,p)=-277.7508111\MP4/6-311G(d,p)=-277.7522
 668\MP2/6-311+G(d,p)=-277.7198751\MP4/6-311+G(d,p)=-277.7698528\MP2/6-
 311G(2df,p)=-277.838075\MP4/6-311G(2df,p)=-277.8935258\MP2/6-311+G(3df
 ,2p)=-277.8736503\G1=-277.9302872\G2MP2=-277.9269165\G2=-277.9345233\F
 reqCoord=0.0007134571,0.0144026814,0.0330720412,-0.0121163594,-0.00781
 92127,2.8744605884,2.4036024854,0.1833954506,3.7648713487,-1.089087606
 8,1.5806725943,3.5868267652,-0.8217056894,-1.7498969742,3.5734434091,1
 .0429761236,-2.1732785383,-0.857338719,-1.9134464252,0.1528412373,-0.6
 792941355,1.104602389,1.5865664886,-0.6659107794\PG=C02 [X(C2H4F2)]\NI
 mag=0\\0.70843793,0.04367309,0.64186395,0.01101279,-0.03209540,0.61517
 109,-0.09108502,-0.00835316,-0.00397568,0.62068544,-0.00716232,-0.1000
 4289,0.02391215,-0.00699083,0.72961644,0.02269637,0.00851303,-0.261413
 31,-0.03330182,-0.00651034,0.61517109,-0.02710875,0.00277420,-0.008355
 18,-0.30021341,-0.01780482,-0.08100541,0.39607367,0.00030112,0.0027241
 6,-0.00072938,-0.01758300,-0.08387709,-0.00507507,0.02515789,0.0576670
 5,-0.06127085,-0.00217549,-0.01678202,-0.07663677,-0.00485590,-0.10603
 568,0.12501875,0.00706284,0.10808230,0.00160948,0.00105995,0.00145830,
 -0.12672839,0.10377957,0.05163668,-0.04246479,0.02917519,0.00446154,0.
 15441051,-0.00095859,0.00068440,0.00292425,0.11120976,-0.24772412,-0.0
 8152313,-0.00082737,0.01216639,0.00428515,-0.12434702,0.25458058,0.018
 76184,-0.03245313,-0.00283757,0.05582087,-0.08098212,-0.11046851,-0.01
 601968,0.01311943,0.00869569,-0.05195566,0.08985562,0.10539969,0.00411
 709,-0.00034182,0.00120536,-0.09772679,-0.08177024,0.03760920,-0.03685
 464,-0.03737165,0.00460481,0.01120214,0.01527567,-0.00732238,0.1186346
 8,0.00110851,-0.00058022,-0.00275002,-0.09127271,-0.28435031,0.0898020
 8,-0.00579669,0.00663911,-0.00322243,-0.00928198,-0.02220976,0.0117438
 2,0.10449263,0.29651247,0.01610349,0.03886058,-0.01301353,0.04122566,0
 .08918810,-0.10462045,-0.01371824,-0.01499155,0.00782574,-0.00520461,-
 0.01342685,0.00847649,-0.03628766,-0.09633109,0.10298303,-0.12263780,0
 .08494033,0.03610757,-0.00606572,0.01245032,0.00354593,0.00636055,-0.0
 0106813,0.00283666,0.00162312,-0.00007019,0.00196104,-0.00045324,-0.00
 029492,-0.00130607,0.12048134,0.08471851,-0.26145271,-0.07269028,0.014
 92340,-0.01831887,-0.00760049,-0.00524798,0.00271394,0.00004465,0.0000
 9393,0.00201896,-0.00318615,-0.00010284,0.00298495,-0.00167871,-0.1339
 5542,0.33325939,0.03411305,-0.06879734,-0.10603568,0.02875139,-0.05414
 986,-0.01678202,-0.00137966,0.00247894,0.00451702,-0.00096500,-0.00007
 877,-0.01155021,-0.00051417,0.00036314,0.00524717,-0.05639277,0.111800
 83,0.10808230,-0.31056830,0.00506974,-0.09641944,0.00087178,-0.0013845
 0,0.00180332,0.00190972,0.00009528,0.00041429,0.00061361,-0.00019694,-
 0.00132841,0.00016594,0.00016389,-0.00071943,-0.01376637,0.01574167,0.
 00148028,0.33722574,-0.00236045,-0.06388421,0.00395711,0.00063403,0.00
 142210,0.00272506,0.00025939,0.00173236,-0.00087510,-0.00078265,0.0000
 4804,0.00016889,0.00055222,0.00000388,-0.00069448,0.04574423,-0.016532
 03,0.00600638,-0.01879860,0.07176535,-0.09804301,0.00785123,-0.1104685
 1,-0.03748616,0.00002166,-0.00283757,-0.00373981,0.00010524,-0.0115502
 1,0.00081046,-0.00106599,0.00115698,0.00146020,0.00093817,0.00112743,0
 .01937160,-0.00731373,0.00869569,0.10379508,-0.00006711,0.10539969,-0.
 16276463,-0.12882233,0.05896628,0.00026212,-0.00111716,-0.00298427,0.0
 0229764,0.00129330,0.00057157,-0.00026569,-0.00008531,0.00008237,0.000
 91482,0.00088129,-0.00009315,0.01445811,0.02382874,-0.00509312,-0.0164
 5213,-0.02524818,0.01383164,0.16154975,-0.11931986,-0.21931247,0.07747
 156,-0.00256749,0.00327475,-0.00033113,0.00148538,0.00023407,-0.000263
 72,0.00030302,0.00043551,0.00173365,-0.00073395,0.00099988,-0.00092600
 ,-0.00774621,-0.04467364,0.00237667,-0.00069053,0.00544451,-0.00046946
 ,0.12926965,0.25359740,0.05662633,0.08029652,-0.10462045,0.02560250,0.
 03337632,-0.01301353,-0.00080077,-0.00197044,0.00524717,-0.00024173,-0
 .00097028,0.00112743,-0.00075536,-0.00054367,-0.00802588,-0.00612395,-
 0.01937612,0.00782574,-0.00902569,-0.01122075,0.00847649,-0.06528134,-
 0.07959158,0.10298303\\-0.00002105,0.00005528,0.00000422,-0.00005840,-
 0.00000941,-0.00000422,0.00003915,0.00005558,0.00000347,0.00006015,-0.
 00001012,0.00000967,-0.00005233,-0.00005584,0.00001135,-0.00002855,-0.
 00006169,-0.00000347,0.00003884,-0.00004703,-0.00000967,0.00002219,0.0
 0007324,-0.00001135\\\@
 Job cpu time:  0 days  0 hours  0 minutes  1.9 seconds.
 File lengths (MBytes):  RWF=    779 Int=      0 D2E=      0 Chk=     12 Scr=      1
 Normal termination of Gaussian 03 at Thu Oct 18 11:54:20 2007.
