 Entering Gaussian System, Link 0=g03
 Input=t-C2H4F2-G2.com
 Output=t-C2H4F2-G2.log
 Initial command:
 /opt/und/gaussian/03D01/linux86-64/g03/l1.exe /scratch/Gau-17162.inp -scrdir=/scratch/
 Entering Link 1 = /opt/und/gaussian/03D01/linux86-64/g03/l1.exe PID=     17163.
  
 Copyright (c) 1988,1990,1992,1993,1995,1998,2003,2004, Gaussian, Inc.
                  All Rights Reserved.
  
 This is the Gaussian(R) 03 program.  It is based on the
 the Gaussian(R) 98 system (copyright 1998, Gaussian, Inc.),
 the Gaussian(R) 94 system (copyright 1995, Gaussian, Inc.),
 the Gaussian 92(TM) system (copyright 1992, Gaussian, Inc.),
 the Gaussian 90(TM) system (copyright 1990, Gaussian, Inc.),
 the Gaussian 88(TM) system (copyright 1988, Gaussian, Inc.),
 the Gaussian 86(TM) system (copyright 1986, Carnegie Mellon
 University), and the Gaussian 82(TM) system (copyright 1983,
 Carnegie Mellon University). Gaussian is a federally registered
 trademark of Gaussian, Inc.
  
 This software contains proprietary and confidential information,
 including trade secrets, belonging to Gaussian, Inc.
  
 This software is provided under written license and may be
 used, copied, transmitted, or stored only in accord with that
 written license.
  
 The following legend is applicable only to US Government
 contracts under FAR:
  
                    RESTRICTED RIGHTS LEGEND
  
 Use, reproduction and disclosure by the US Government is
 subject to restrictions as set forth in subparagraphs (a)
 and (c) of the Commercial Computer Software - Restricted
 Rights clause in FAR 52.227-19.
  
 Gaussian, Inc.
 340 Quinnipiac St., Bldg. 40, Wallingford CT 06492
  
  
 ---------------------------------------------------------------
 Warning -- This program may not be used in any manner that
 competes with the business of Gaussian, Inc. or will provide
 assistance to any competitor of Gaussian, Inc.  The licensee
 of this program is prohibited from giving any competitor of
 Gaussian, Inc. access to this program.  By using this program,
 the user acknowledges that Gaussian, Inc. is engaged in the
 business of creating and licensing software in the field of
 computational chemistry and represents and warrants to the
 licensee that it is not a competitor of Gaussian, Inc. and that
 it will not use this program in any manner prohibited above.
 ---------------------------------------------------------------
  

 Cite this work as:
 Gaussian 03, Revision D.01,
 M. J. Frisch, G. W. Trucks, H. B. Schlegel, G. E. Scuseria, 
 M. A. Robb, J. R. Cheeseman, J. A. Montgomery, Jr., T. Vreven, 
 K. N. Kudin, J. C. Burant, J. M. Millam, S. S. Iyengar, J. Tomasi, 
 V. Barone, B. Mennucci, M. Cossi, G. Scalmani, N. Rega, 
 G. A. Petersson, H. Nakatsuji, M. Hada, M. Ehara, K. Toyota, 
 R. Fukuda, J. Hasegawa, M. Ishida, T. Nakajima, Y. Honda, O. Kitao, 
 H. Nakai, M. Klene, X. Li, J. E. Knox, H. P. Hratchian, J. B. Cross, 
 V. Bakken, C. Adamo, J. Jaramillo, R. Gomperts, R. E. Stratmann, 
 O. Yazyev, A. J. Austin, R. Cammi, C. Pomelli, J. W. Ochterski, 
 P. Y. Ayala, K. Morokuma, G. A. Voth, P. Salvador, J. J. Dannenberg, 
 V. G. Zakrzewski, S. Dapprich, A. D. Daniels, M. C. Strain, 
 O. Farkas, D. K. Malick, A. D. Rabuck, K. Raghavachari, 
 J. B. Foresman, J. V. Ortiz, Q. Cui, A. G. Baboul, S. Clifford, 
 J. Cioslowski, B. B. Stefanov, G. Liu, A. Liashenko, P. Piskorz, 
 I. Komaromi, R. L. Martin, D. J. Fox, T. Keith, M. A. Al-Laham, 
 C. Y. Peng, A. Nanayakkara, M. Challacombe, P. M. W. Gill, 
 B. Johnson, W. Chen, M. W. Wong, C. Gonzalez, and J. A. Pople, 
 Gaussian, Inc., Wallingford CT, 2004.
 
 ******************************************
 Gaussian 03:  AM64L-G03RevD.01 13-Oct-2005
                18-Oct-2007 
 ******************************************
 %chk=t-C2H4F2-G2.chk
 %mem=6MW
 %nproc=1
 Will use up to    1 processors via shared memory.
 -----
 #N G2
 -----
 1/18=20,38=1/1,3;
 2/9=110,17=6,18=5,40=1/2;
 3/5=1,6=6,7=1,11=9,16=1,25=1,30=1/1,2,3;
 4//1;
 5/5=2,38=5/2;
 6/7=2,8=2,9=2,10=2,28=1/1;
 7//1,2,3,16;
 1/18=20/3(3);
 2/9=110/2;
 6/7=2,8=2,9=2,10=2,19=2,28=1/1;
 99//99;
 2/9=110/2;
 3/5=1,6=6,7=1,11=9,16=1,25=1,30=1/1,2,3;
 4/5=5,16=3/1;
 5/5=2,38=5/2;
 7//1,2,3,16;
 1/18=20/3(-5);
 2/9=110/2;
 6/7=2,8=2,9=2,10=2,19=2,28=1/1;
 99/9=1/99;
 -----------
 t-C2H4F2 G2
 -----------
 Symbolic Z-matrix:
 Charge =  0 Multiplicity = 1
 C
 C                    1    r1
 F                    2    r2       1    A1
 H                    2    r3       1    A2       3    D1       0
 H                    2    r3       1    A2       3    D2       0
 F                    1    r2       2    A1       3    D3       0
 H                    1    r3       2    A2       6    D1       0
 H                    1    r3       2    A2       6    D2       0
       Variables:
  r1                    1.5386                   
  r2                    1.39462                  
  r3                    1.11456                  
  D1                  120.47127                  
  D2                 -120.48305                  
  A1                  109.54214                  
  D3                  180.                       
  A2                  110.09239                  
 

 GradGradGradGradGradGradGradGradGradGradGradGradGradGradGradGradGradGrad
 Berny optimization.
 Initialization pass.
                           ----------------------------
                           !    Initial Parameters    !
                           ! (Angstroms and Degrees)  !
 --------------------------                            --------------------------
 ! Name  Definition              Value          Derivative Info.                !
 --------------------------------------------------------------------------------
 ! R1    R(1,2)                  1.5386         estimate D2E/DX2                !
 ! R2    R(1,6)                  1.3946         estimate D2E/DX2                !
 ! R3    R(1,7)                  1.1146         estimate D2E/DX2                !
 ! R4    R(1,8)                  1.1146         estimate D2E/DX2                !
 ! R5    R(2,3)                  1.3946         estimate D2E/DX2                !
 ! R6    R(2,4)                  1.1146         estimate D2E/DX2                !
 ! R7    R(2,5)                  1.1146         estimate D2E/DX2                !
 ! A1    A(2,1,6)              109.5421         estimate D2E/DX2                !
 ! A2    A(2,1,7)              110.0924         estimate D2E/DX2                !
 ! A3    A(2,1,8)              110.0924         estimate D2E/DX2                !
 ! A4    A(6,1,7)              109.5055         estimate D2E/DX2                !
 ! A5    A(6,1,8)              109.515          estimate D2E/DX2                !
 ! A6    A(7,1,8)              108.0709         estimate D2E/DX2                !
 ! A7    A(1,2,3)              109.5421         estimate D2E/DX2                !
 ! A8    A(1,2,4)              110.0924         estimate D2E/DX2                !
 ! A9    A(1,2,5)              110.0924         estimate D2E/DX2                !
 ! A10   A(3,2,4)              109.5055         estimate D2E/DX2                !
 ! A11   A(3,2,5)              109.515          estimate D2E/DX2                !
 ! A12   A(4,2,5)              108.0709         estimate D2E/DX2                !
 ! D1    D(6,1,2,3)            180.0            estimate D2E/DX2                !
 ! D2    D(6,1,2,4)            -59.5287         estimate D2E/DX2                !
 ! D3    D(6,1,2,5)             59.5169         estimate D2E/DX2                !
 ! D4    D(7,1,2,3)            -59.5287         estimate D2E/DX2                !
 ! D5    D(7,1,2,4)             60.9425         estimate D2E/DX2                !
 ! D6    D(7,1,2,5)            179.9882         estimate D2E/DX2                !
 ! D7    D(8,1,2,3)             59.5169         estimate D2E/DX2                !
 ! D8    D(8,1,2,4)            179.9882         estimate D2E/DX2                !
 ! D9    D(8,1,2,5)            -60.9661         estimate D2E/DX2                !
 --------------------------------------------------------------------------------
 Trust Radius=3.00D-01 FncErr=1.00D-07 GrdErr=1.00D-07
 Number of steps in this run=  38 maximum allowed number of steps= 100.
 GradGradGradGradGradGradGradGradGradGradGradGradGradGradGradGradGradGrad

                          Input orientation:                          
 ---------------------------------------------------------------------
 Center     Atomic     Atomic              Coordinates (Angstroms)
 Number     Number      Type              X           Y           Z
 ---------------------------------------------------------------------
    1          6             0        0.000000    0.000000    0.000000
    2          6             0        0.000000    0.000000    1.538600
    3          9             0        1.314284    0.000000    2.005100
    4          1             0       -0.530802    0.902157    1.921490
    5          1             0       -0.530988   -0.902048    1.921490
    6          9             0       -1.314284    0.000000   -0.466500
    7          1             0        0.530802    0.902157   -0.382890
    8          1             0        0.530988   -0.902048   -0.382890
 ---------------------------------------------------------------------
                    Distance matrix (angstroms):
                    1          2          3          4          5
     1  C    0.000000
     2  C    1.538600   0.000000
     3  F    2.397451   1.394620   0.000000
     4  H    2.188096   1.114560   2.055534   0.000000
     5  H    2.188096   1.114560   2.055653   1.804206   0.000000
     6  F    1.394620   2.397451   3.608072   2.670249   2.670158
     7  H    1.114560   2.188096   2.670249   2.537159   3.113314
     8  H    1.114560   2.188096   2.670158   3.113314   2.537314
                    6          7          8
     6  F    0.000000
     7  H    2.055534   0.000000
     8  H    2.055653   1.804206   0.000000
 Stoichiometry    C2H4F2
 Framework group  C2[X(C2H4F2)]
 Deg. of freedom    10
 Full point group                 C2
 Largest Abelian subgroup         C2      NOp   2
 Largest concise Abelian subgroup C2      NOp   2
                         Standard orientation:                         
 ---------------------------------------------------------------------
 Center     Atomic     Atomic              Coordinates (Angstroms)
 Number     Number      Type              X           Y           Z
 ---------------------------------------------------------------------
    1          6             0        0.421731    0.643402   -0.000006
    2          6             0       -0.421731   -0.643402   -0.000006
    3          9             0        0.421731   -1.754049   -0.000006
    4          1             0       -1.075566   -0.672645    0.902151
    5          1             0       -1.075721   -0.672543   -0.902055
    6          9             0       -0.421731    1.754049   -0.000006
    7          1             0        1.075566    0.672645    0.902151
    8          1             0        1.075721    0.672543   -0.902055
 ---------------------------------------------------------------------
 Rotational constants (GHZ):     31.6590595      3.7448772      3.5009698
 Standard basis: 6-31G(d) (6D, 7F)
 There are    34 symmetry adapted basis functions of A   symmetry.
 There are    34 symmetry adapted basis functions of B   symmetry.
 Integral buffers will be    131072 words long.
 Raffenetti 1 integral format.
 Two-electron integral symmetry is turned on.
    68 basis functions,   128 primitive gaussians,    68 cartesian basis functions
    17 alpha electrons       17 beta electrons
       nuclear repulsion energy       124.0242934875 Hartrees.
 NAtoms=    8 NActive=    8 NUniq=    4 SFac= 3.00D+00 NAtFMM=   80 NAOKFM=F Big=F
 One-electron integrals computed using PRISM.
 NBasis=    68 RedAO= T  NBF=    34    34
 NBsUse=    68 1.00D-06 NBFU=    34    34
 Harris functional with IExCor=  205 diagonalized for initial guess.
 ExpMin= 1.61D-01 ExpMax= 7.00D+03 ExpMxC= 1.05D+03 IAcc=1 IRadAn=         1 AccDes= 1.00D-06
 HarFok:  IExCor= 205 AccDes= 1.00D-06 IRadAn=         1 IDoV=1
 ScaDFX=  1.000000  1.000000  1.000000  1.000000
 Initial guess orbital symmetries:
       Occupied  (B) (A) (A) (B) (A) (B) (A) (B) (B) (A) (A) (A)
                 (B) (B) (A) (A) (B)
       Virtual   (B) (A) (A) (B) (A) (B) (B) (B) (A) (A) (A) (B)
                 (B) (A) (A) (B) (B) (A) (B) (A) (A) (B) (A) (B)
                 (B) (B) (A) (A) (A) (B) (B) (A) (A) (B) (A) (B)
                 (A) (A) (B) (B) (B) (B) (A) (B) (A) (A) (B) (A)
                 (A) (B) (B)
 The electronic state of the initial guess is 1-A.
 Requested convergence on RMS density matrix=1.00D-08 within 128 cycles.
 Requested convergence on MAX density matrix=1.00D-06.
 Requested convergence on             energy=1.00D-06.
 No special actions if energy rises.
 Keep R1 integrals in memory in canonical form, NReq=     3771471.
 SCF Done:  E(RHF) =  -276.916623421     A.U. after   11 cycles
             Convg  =    0.1804D-08             -V/T =  2.0027
             S**2   =   0.0000

 **********************************************************************

            Population analysis using the SCF density.

 **********************************************************************

 Orbital symmetries:
       Occupied  (A) (B) (A) (B) (A) (B) (A) (B) (A) (B) (A) (B)
                 (A) (B) (A) (A) (B)
       Virtual   (A) (B) (A) (B) (B) (A) (B) (A) (A) (B) (A) (B)
                 (B) (A) (A) (B) (A) (B) (B) (A) (B) (A) (B) (A)
                 (B) (B) (A) (A) (A) (B) (B) (A) (B) (A) (B) (A)
                 (A) (A) (B) (B) (B) (B) (A) (B) (A) (A) (B) (A)
                 (A) (B) (B)
 The electronic state is 1-A.
 Alpha  occ. eigenvalues --  -26.29199 -26.29198 -11.33007 -11.32949  -1.59407
 Alpha  occ. eigenvalues --   -1.58916  -1.03276  -0.87537  -0.72640  -0.71476
 Alpha  occ. eigenvalues --   -0.70188  -0.67890  -0.65547  -0.62002  -0.55840
 Alpha  occ. eigenvalues --   -0.50479  -0.50133
 Alpha virt. eigenvalues --    0.23617   0.24417   0.27659   0.28993   0.33442
 Alpha virt. eigenvalues --    0.39193   0.41648   0.70905   0.74473   0.77042
 Alpha virt. eigenvalues --    0.79787   0.85189   0.92088   1.02109   1.07098
 Alpha virt. eigenvalues --    1.11038   1.13004   1.13622   1.29241   1.42446
 Alpha virt. eigenvalues --    1.50450   1.51517   1.63404   1.66171   1.69748
 Alpha virt. eigenvalues --    1.71783   1.73409   1.91506   2.04479   2.08256
 Alpha virt. eigenvalues --    2.09826   2.12251   2.13072   2.13160   2.28413
 Alpha virt. eigenvalues --    2.28779   2.35675   2.39896   2.42422   2.54184
 Alpha virt. eigenvalues --    2.64296   2.67847   2.79627   2.93868   2.94331
 Alpha virt. eigenvalues --    3.36645   3.38436   4.33676   4.59396   4.71960
 Alpha virt. eigenvalues --    4.83492
          Condensed to atoms (all electrons):
              1          2          3          4          5          6
     1  C    4.749355   0.328941  -0.022589  -0.042369  -0.042372   0.196231
     2  C    0.328941   4.749355   0.196231   0.383204   0.383190  -0.022589
     3  F   -0.022589   0.196231   9.280171  -0.025229  -0.025219   0.000234
     4  H   -0.042369   0.383204  -0.025229   0.551730  -0.039902   0.002744
     5  H   -0.042372   0.383190  -0.025219  -0.039902   0.551729   0.002744
     6  F    0.196231  -0.022589   0.000234   0.002744   0.002744   9.280171
     7  H    0.383204  -0.042369   0.002744  -0.006072   0.004557  -0.025229
     8  H    0.383190  -0.042372   0.002744   0.004557  -0.006069  -0.025219
              7          8
     1  C    0.383204   0.383190
     2  C   -0.042369  -0.042372
     3  F    0.002744   0.002744
     4  H   -0.006072   0.004557
     5  H    0.004557  -0.006069
     6  F   -0.025229  -0.025219
     7  H    0.551730  -0.039902
     8  H   -0.039902   0.551729
 Mulliken atomic charges:
              1
     1  C    0.066408
     2  C    0.066408
     3  F   -0.409086
     4  H    0.171337
     5  H    0.171341
     6  F   -0.409086
     7  H    0.171337
     8  H    0.171341
 Sum of Mulliken charges=   0.00000
 Atomic charges with hydrogens summed into heavy atoms:
              1
     1  C    0.409086
     2  C    0.409086
     3  F   -0.409086
     4  H    0.000000
     5  H    0.000000
     6  F   -0.409086
     7  H    0.000000
     8  H    0.000000
 Sum of Mulliken charges=   0.00000
 Electronic spatial extent (au):  <R**2>=   323.3788
 Charge=     0.0000 electrons
 Dipole moment (field-independent basis, Debye):
    X=     0.0000    Y=     0.0000    Z=     0.0000  Tot=     0.0000
 Quadrupole moment (field-independent basis, Debye-Ang):
   XX=   -21.6983   YY=   -29.7789   ZZ=   -21.4301
   XY=     3.0558   XZ=     0.0000   YZ=     0.0000
 Traceless Quadrupole moment (field-independent basis, Debye-Ang):
   XX=     2.6041   YY=    -5.4765   ZZ=     2.8724
   XY=     3.0558   XZ=     0.0000   YZ=     0.0000
 Octapole moment (field-independent basis, Debye-Ang**2):
  XXX=     0.0000  YYY=     0.0000  ZZZ=     0.0002  XYY=     0.0000
  XXY=     0.0000  XXZ=    -0.0004  XZZ=     0.0000  YZZ=     0.0000
  YYZ=     0.0002  XYZ=     0.0000
 Hexadecapole moment (field-independent basis, Debye-Ang**3):
 XXXX=   -58.3090 YYYY=  -251.0766 ZZZZ=   -30.7629 XXXY=     6.8425
 XXXZ=     0.0000 YYYX=    11.6839 YYYZ=     0.0000 ZZZX=     0.0000
 ZZZY=     0.0000 XXYY=   -48.1889 XXZZ=   -13.1297 YYZZ=   -43.0250
 XXYZ=     0.0000 YYXZ=     0.0000 ZZXY=     3.1506
 N-N= 1.240242934875D+02 E-N=-9.060616200500D+02  KE= 2.761734776347D+02
 Symmetry A    KE= 1.396307215091D+02
 Symmetry B    KE= 1.365427561256D+02
 ***** Axes restored to original set *****
 -------------------------------------------------------------------
 Center     Atomic                   Forces (Hartrees/Bohr)
 Number     Number              X              Y              Z
 -------------------------------------------------------------------
    1          6           0.014685079    0.000020972   -0.007117502
    2          6          -0.014685079    0.000020972    0.007117502
    3          9          -0.024856336   -0.000012297   -0.012483133
    4          1           0.014038605   -0.017171516   -0.006373159
    5          1           0.014057484    0.017162842   -0.006367059
    6          9           0.024856336   -0.000012297    0.012483133
    7          1          -0.014038605   -0.017171516    0.006373159
    8          1          -0.014057484    0.017162842    0.006367059
 -------------------------------------------------------------------
 Cartesian Forces:  Max     0.024856336 RMS     0.013245292

 GradGradGradGradGradGradGradGradGradGradGradGradGradGradGradGradGradGrad
 Berny optimization.
 Internal  Forces:  Max     0.027600114 RMS     0.012234728
 Search for a local minimum.
 Step number   1 out of a maximum of  38
 All quantities printed in internal units (Hartrees-Bohrs-Radians)
 Second derivative matrix not updated -- first step.
     Eigenvalues ---    0.00255   0.05647   0.05647   0.05916   0.05916
     Eigenvalues ---    0.16000   0.16000   0.16000   0.16000   0.22374
     Eigenvalues ---    0.22374   0.28643   0.32122   0.32122   0.32122
     Eigenvalues ---    0.32122   0.46524   0.465241000.000001000.00000
     Eigenvalues --- 1000.000001000.000001000.000001000.000001000.00000
     Eigenvalues --- 1000.000001000.000001000.00000
 RFO step:  Lambda=-1.24298072D-02.
 Linear search not attempted -- first point.
 Iteration  1 RMS(Cart)=  0.04152132 RMS(Int)=  0.00106965
 Iteration  2 RMS(Cart)=  0.00090113 RMS(Int)=  0.00044067
 Iteration  3 RMS(Cart)=  0.00000063 RMS(Int)=  0.00044067
 Variable       Old X    -DE/DX   Delta X   Delta X   Delta X     New X
                                 (Linear)    (Quad)   (Total)
    R1        2.90753  -0.01811   0.00000  -0.06058  -0.06058   2.84695
    R2        2.63545  -0.02760   0.00000  -0.05778  -0.05778   2.57767
    R3        2.10621  -0.02277   0.00000  -0.06826  -0.06826   2.03795
    R4        2.10621  -0.02277   0.00000  -0.06826  -0.06826   2.03795
    R5        2.63545  -0.02760   0.00000  -0.05778  -0.05778   2.57767
    R6        2.10621  -0.02277   0.00000  -0.06826  -0.06826   2.03795
    R7        2.10621  -0.02277   0.00000  -0.06826  -0.06826   2.03795
    A1        1.91187  -0.00848   0.00000  -0.04407  -0.04395   1.86792
    A2        1.92147   0.00364   0.00000   0.02414   0.02356   1.94503
    A3        1.92147   0.00364   0.00000   0.02412   0.02354   1.94501
    A4        1.91123   0.00060   0.00000  -0.01390  -0.01378   1.89745
    A5        1.91140   0.00058   0.00000  -0.01410  -0.01398   1.89742
    A6        1.88619   0.00016   0.00000   0.02445   0.02330   1.90949
    A7        1.91187  -0.00848   0.00000  -0.04407  -0.04395   1.86792
    A8        1.92147   0.00364   0.00000   0.02414   0.02356   1.94503
    A9        1.92147   0.00364   0.00000   0.02412   0.02354   1.94501
   A10        1.91123   0.00060   0.00000  -0.01390  -0.01378   1.89745
   A11        1.91140   0.00058   0.00000  -0.01410  -0.01398   1.89742
   A12        1.88619   0.00016   0.00000   0.02445   0.02330   1.90949
    D1        3.14159  -0.00001   0.00000  -0.00016  -0.00016   3.14143
    D2       -1.03897  -0.00236   0.00000  -0.03011  -0.03044  -1.06941
    D3        1.03877   0.00236   0.00000   0.03004   0.03037   1.06914
    D4       -1.03897  -0.00236   0.00000  -0.03011  -0.03044  -1.06941
    D5        1.06365  -0.00471   0.00000  -0.06005  -0.06072   1.00293
    D6        3.14139   0.00001   0.00000   0.00010   0.00010   3.14148
    D7        1.03877   0.00236   0.00000   0.03004   0.03037   1.06914
    D8        3.14139   0.00001   0.00000   0.00010   0.00010   3.14148
    D9       -1.06406   0.00472   0.00000   0.06025   0.06091  -1.00315
         Item               Value     Threshold  Converged?
 Maximum Force            0.027600     0.000450     NO 
 RMS     Force            0.012235     0.000300     NO 
 Maximum Displacement     0.085294     0.001800     NO 
 RMS     Displacement     0.042069     0.001200     NO 
 Predicted change in Energy=-6.533226D-03
 GradGradGradGradGradGradGradGradGradGradGradGradGradGradGradGradGradGrad

                          Input orientation:                          
 ---------------------------------------------------------------------
 Center     Atomic     Atomic              Coordinates (Angstroms)
 Number     Number      Type              X           Y           Z
 ---------------------------------------------------------------------
    1          6             0        0.022263    0.000042    0.016358
    2          6             0       -0.022263    0.000042    1.522242
    3          9             0        1.269640   -0.000062    1.959965
    4          1             0       -0.516241    0.880251    1.902041
    5          1             0       -0.516341   -0.880121    1.902018
    6          9             0       -1.269640   -0.000062   -0.421365
    7          1             0        0.516241    0.880251   -0.363441
    8          1             0        0.516341   -0.880121   -0.363418
 ---------------------------------------------------------------------
                    Distance matrix (angstroms):
                    1          2          3          4          5
     1  C    0.000000
     2  C    1.506541   0.000000
     3  F    2.309449   1.364044   0.000000
     4  H    2.149548   1.078439   1.991904   0.000000
     5  H    2.149533   1.078438   1.991881   1.760372   0.000000
     6  F    1.364044   2.309449   3.481188   2.596301   2.596164
     7  H    1.078439   2.149548   2.596301   2.489665   3.049171
     8  H    1.078438   2.149533   2.596164   3.049171   2.489705
                    6          7          8
     6  F    0.000000
     7  H    1.991904   0.000000
     8  H    1.991881   1.760372   0.000000
 Stoichiometry    C2H4F2
 Framework group  C2[X(C2H4F2)]
 Deg. of freedom    10
 Full point group                 C2
 Largest Abelian subgroup         C2      NOp   2
 Largest concise Abelian subgroup C2      NOp   2
                         Standard orientation:                         
 ---------------------------------------------------------------------
 Center     Atomic     Atomic              Coordinates (Angstroms)
 Number     Number      Type              X           Y           Z
 ---------------------------------------------------------------------
    1          6             0       -0.720265   -0.220534    0.000052
    2          6             0        0.720265    0.220534    0.000052
    3          9             0        0.720265    1.584578   -0.000052
    4          1             0        1.238496   -0.125441    0.880262
    5          1             0        1.238506   -0.125543   -0.880110
    6          9             0       -0.720265   -1.584578   -0.000052
    7          1             0       -1.238496    0.125441    0.880262
    8          1             0       -1.238506    0.125543   -0.880110
 ---------------------------------------------------------------------
 Rotational constants (GHZ):     32.2069000      4.0257236      3.7440265
 Standard basis: 6-31G(d) (6D, 7F)
 There are    34 symmetry adapted basis functions of A   symmetry.
 There are    34 symmetry adapted basis functions of B   symmetry.
 Integral buffers will be    131072 words long.
 Raffenetti 1 integral format.
 Two-electron integral symmetry is turned on.
    68 basis functions,   128 primitive gaussians,    68 cartesian basis functions
    17 alpha electrons       17 beta electrons
       nuclear repulsion energy       127.5628762399 Hartrees.
 NAtoms=    8 NActive=    8 NUniq=    4 SFac= 3.00D+00 NAtFMM=   80 NAOKFM=F Big=F
 One-electron integrals computed using PRISM.
 NBasis=    68 RedAO= T  NBF=    34    34
 NBsUse=    68 1.00D-06 NBFU=    34    34
 Initial guess read from the read-write file:
 Initial guess orbital symmetries:
       Occupied  (A) (B) (A) (B) (A) (B) (A) (B) (A) (B) (A) (B)
                 (A) (B) (A) (A) (B)
       Virtual   (A) (B) (A) (B) (B) (A) (B) (A) (A) (B) (A) (B)
                 (B) (A) (A) (B) (A) (B) (B) (A) (B) (A) (B) (A)
                 (B) (B) (A) (A) (A) (B) (B) (A) (B) (A) (B) (A)
                 (A) (A) (B) (B) (B) (B) (A) (B) (A) (A) (B) (A)
                 (A) (B) (B)
 Harris functional with IExCor=  205 diagonalized for initial guess.
 ExpMin= 1.61D-01 ExpMax= 7.00D+03 ExpMxC= 1.05D+03 IAcc=1 IRadAn=         1 AccDes= 1.00D-06
 HarFok:  IExCor= 205 AccDes= 1.00D-06 IRadAn=         1 IDoV=1
 ScaDFX=  1.000000  1.000000  1.000000  1.000000
 Requested convergence on RMS density matrix=1.00D-08 within 128 cycles.
 Requested convergence on MAX density matrix=1.00D-06.
 Requested convergence on             energy=1.00D-06.
 No special actions if energy rises.
 Keep R1 integrals in memory in canonical form, NReq=     3771471.
 SCF Done:  E(RHF) =  -276.921878269     A.U. after   12 cycles
             Convg  =    0.2860D-08             -V/T =  2.0011
             S**2   =   0.0000
 ***** Axes restored to original set *****
 -------------------------------------------------------------------
 Center     Atomic                   Forces (Hartrees/Bohr)
 Number     Number              X              Y              Z
 -------------------------------------------------------------------
    1          6          -0.004161478   -0.000004133   -0.000028408
    2          6           0.004161478   -0.000004133    0.000028408
    3          9           0.005350349    0.000003539    0.004145731
    4          1          -0.001725040    0.001709914   -0.000317798
    5          1          -0.001728472   -0.001709319   -0.000319378
    6          9          -0.005350349    0.000003539   -0.004145731
    7          1           0.001725040    0.001709914    0.000317798
    8          1           0.001728472   -0.001709319    0.000319378
 -------------------------------------------------------------------
 Cartesian Forces:  Max     0.005350349 RMS     0.002502399

 GradGradGradGradGradGradGradGradGradGradGradGradGradGradGradGradGradGrad
 Berny optimization.
 Internal  Forces:  Max     0.006397753 RMS     0.002603311
 Search for a local minimum.
 Step number   2 out of a maximum of  38
 All quantities printed in internal units (Hartrees-Bohrs-Radians)
 Update second derivatives using D2CorX and points  1  2
 Trust test= 8.04D-01 RLast= 2.19D-01 DXMaxT set to 4.24D-01
     Eigenvalues ---    0.00255   0.05635   0.05895   0.05895   0.06010
     Eigenvalues ---    0.16000   0.16000   0.16000   0.16138   0.22354
     Eigenvalues ---    0.23024   0.29056   0.32122   0.32122   0.32122
     Eigenvalues ---    0.33058   0.46524   0.507341000.000001000.00000
     Eigenvalues --- 1000.000001000.000001000.000001000.000001000.00000
     Eigenvalues --- 1000.000001000.000001000.00000
 RFO step:  Lambda=-1.74614835D-04.
 Quartic linear search produced a step of -0.14869.
 Iteration  1 RMS(Cart)=  0.01019293 RMS(Int)=  0.00007476
 Iteration  2 RMS(Cart)=  0.00005708 RMS(Int)=  0.00001631
 Iteration  3 RMS(Cart)=  0.00000000 RMS(Int)=  0.00001631
 Variable       Old X    -DE/DX   Delta X   Delta X   Delta X     New X
                                 (Linear)    (Quad)   (Total)
    R1        2.84695   0.00336   0.00901  -0.00124   0.00777   2.85472
    R2        2.57767   0.00640   0.00859   0.00144   0.01003   2.58770
    R3        2.03795   0.00207   0.01015  -0.00699   0.00316   2.04112
    R4        2.03795   0.00207   0.01015  -0.00699   0.00316   2.04112
    R5        2.57767   0.00640   0.00859   0.00144   0.01003   2.58770
    R6        2.03795   0.00207   0.01015  -0.00699   0.00316   2.04112
    R7        2.03795   0.00207   0.01015  -0.00699   0.00316   2.04112
    A1        1.86792   0.00491   0.00654   0.01258   0.01913   1.88705
    A2        1.94503  -0.00209  -0.00350  -0.00692  -0.01039   1.93464
    A3        1.94501  -0.00209  -0.00350  -0.00692  -0.01039   1.93462
    A4        1.89745  -0.00078   0.00205  -0.00057   0.00150   1.89895
    A5        1.89742  -0.00078   0.00208  -0.00056   0.00154   1.89895
    A6        1.90949   0.00093  -0.00346   0.00280  -0.00064   1.90885
    A7        1.86792   0.00491   0.00654   0.01258   0.01913   1.88705
    A8        1.94503  -0.00209  -0.00350  -0.00692  -0.01039   1.93464
    A9        1.94501  -0.00209  -0.00350  -0.00692  -0.01039   1.93462
   A10        1.89745  -0.00078   0.00205  -0.00057   0.00150   1.89895
   A11        1.89742  -0.00078   0.00208  -0.00056   0.00154   1.89895
   A12        1.90949   0.00093  -0.00346   0.00280  -0.00064   1.90885
    D1        3.14143   0.00000   0.00002   0.00016   0.00019  -3.14157
    D2       -1.06941   0.00090   0.00453   0.00331   0.00784  -1.06157
    D3        1.06914  -0.00090  -0.00452  -0.00299  -0.00751   1.06163
    D4       -1.06941   0.00090   0.00453   0.00331   0.00784  -1.06157
    D5        1.00293   0.00179   0.00903   0.00646   0.01549   1.01842
    D6        3.14148   0.00000  -0.00001   0.00016   0.00014  -3.14156
    D7        1.06914  -0.00090  -0.00452  -0.00299  -0.00751   1.06163
    D8        3.14148   0.00000  -0.00001   0.00016   0.00014  -3.14156
    D9       -1.00315  -0.00179  -0.00906  -0.00614  -0.01520  -1.01836
         Item               Value     Threshold  Converged?
 Maximum Force            0.006398     0.000450     NO 
 RMS     Force            0.002603     0.000300     NO 
 Maximum Displacement     0.028853     0.001800     NO 
 RMS     Displacement     0.010199     0.001200     NO 
 Predicted change in Energy=-2.806202D-04
 GradGradGradGradGradGradGradGradGradGradGradGradGradGradGradGradGradGrad

                          Input orientation:                          
 ---------------------------------------------------------------------
 Center     Atomic     Atomic              Coordinates (Angstroms)
 Number     Number      Type              X           Y           Z
 ---------------------------------------------------------------------
    1          6             0        0.014477    0.000029    0.014112
    2          6             0       -0.014477    0.000029    1.524488
    3          9             0        1.278564    0.000046    1.975233
    4          1             0       -0.513827    0.881369    1.899361
    5          1             0       -0.513800   -0.881335    1.899342
    6          9             0       -1.278564    0.000046   -0.436633
    7          1             0        0.513827    0.881369   -0.360761
    8          1             0        0.513800   -0.881335   -0.360742
 ---------------------------------------------------------------------
                    Distance matrix (angstroms):
                    1          2          3          4          5
     1  C    0.000000
     2  C    1.510654   0.000000
     3  F    2.333220   1.369352   0.000000
     4  H    2.147098   1.080112   1.998788   0.000000
     5  H    2.147084   1.080112   1.998790   1.762704   0.000000
     6  F    1.369352   2.333220   3.515111   2.611210   2.611221
     7  H    1.080112   2.147098   2.611210   2.482785   3.044866
     8  H    1.080112   2.147084   2.611221   3.044866   2.482729
                    6          7          8
     6  F    0.000000
     7  H    1.998788   0.000000
     8  H    1.998790   1.762704   0.000000
 Stoichiometry    C2H4F2
 Framework group  C2[X(C2H4F2)]
 Deg. of freedom    10
 Full point group                 C2
 Largest Abelian subgroup         C2      NOp   2
 Largest concise Abelian subgroup C2      NOp   2
                         Standard orientation:                         
 ---------------------------------------------------------------------
 Center     Atomic     Atomic              Coordinates (Angstroms)
 Number     Number      Type              X           Y           Z
 ---------------------------------------------------------------------
    1          6             0       -0.421312    0.626909    0.000008
    2          6             0        0.421312   -0.626909    0.000008
    3          9             0       -0.421312   -1.706311   -0.000009
    4          1             0        1.044125   -0.671460   -0.881332
    5          1             0        1.044092   -0.671459    0.881371
    6          9             0        0.421312    1.706311   -0.000009
    7          1             0       -1.044125    0.671460   -0.881332
    8          1             0       -1.044092    0.671459    0.881371
 ---------------------------------------------------------------------
 Rotational constants (GHZ):     32.5588450      3.9477246      3.6814559
 Standard basis: 6-31G(d) (6D, 7F)
 There are    34 symmetry adapted basis functions of A   symmetry.
 There are    34 symmetry adapted basis functions of B   symmetry.
 Integral buffers will be    131072 words long.
 Raffenetti 1 integral format.
 Two-electron integral symmetry is turned on.
    68 basis functions,   128 primitive gaussians,    68 cartesian basis functions
    17 alpha electrons       17 beta electrons
       nuclear repulsion energy       126.9093654195 Hartrees.
 NAtoms=    8 NActive=    8 NUniq=    4 SFac= 3.00D+00 NAtFMM=   80 NAOKFM=F Big=F
 One-electron integrals computed using PRISM.
 NBasis=    68 RedAO= T  NBF=    34    34
 NBsUse=    68 1.00D-06 NBFU=    34    34
 Initial guess read from the read-write file:
 Initial guess orbital symmetries:
       Occupied  (A) (B) (A) (B) (A) (B) (A) (B) (A) (B) (A) (B)
                 (A) (B) (A) (B) (A)
       Virtual   (A) (B) (A) (B) (B) (A) (B) (A) (A) (B) (A) (B)
                 (B) (A) (A) (B) (A) (B) (B) (A) (B) (A) (B) (A)
                 (B) (B) (A) (A) (A) (B) (B) (A) (A) (B) (B) (A)
                 (A) (A) (B) (B) (B) (B) (A) (B) (A) (B) (A) (A)
                 (A) (B) (B)
 Harris functional with IExCor=  205 diagonalized for initial guess.
 ExpMin= 1.61D-01 ExpMax= 7.00D+03 ExpMxC= 1.05D+03 IAcc=1 IRadAn=         1 AccDes= 1.00D-06
 HarFok:  IExCor= 205 AccDes= 1.00D-06 IRadAn=         1 IDoV=1
 ScaDFX=  1.000000  1.000000  1.000000  1.000000
 Requested convergence on RMS density matrix=1.00D-08 within 128 cycles.
 Requested convergence on MAX density matrix=1.00D-06.
 Requested convergence on             energy=1.00D-06.
 No special actions if energy rises.
 Keep R1 integrals in memory in canonical form, NReq=     3771471.
 SCF Done:  E(RHF) =  -276.922110156     A.U. after   12 cycles
             Convg  =    0.2411D-08             -V/T =  2.0013
             S**2   =   0.0000
 ***** Axes restored to original set *****
 -------------------------------------------------------------------
 Center     Atomic                   Forces (Hartrees/Bohr)
 Number     Number              X              Y              Z
 -------------------------------------------------------------------
    1          6          -0.000289222   -0.000000004   -0.000705314
    2          6           0.000289222   -0.000000004    0.000705314
    3          9          -0.000618263   -0.000000393   -0.000832937
    4          1          -0.000417850    0.000595757    0.000384874
    5          1          -0.000417813   -0.000595359    0.000386483
    6          9           0.000618263   -0.000000393    0.000832937
    7          1           0.000417850    0.000595757   -0.000384874
    8          1           0.000417813   -0.000595359   -0.000386483
 -------------------------------------------------------------------
 Cartesian Forces:  Max     0.000832937 RMS     0.000501098

 GradGradGradGradGradGradGradGradGradGradGradGradGradGradGradGradGradGrad
 Berny optimization.
 Internal  Forces:  Max     0.001149233 RMS     0.000542951
 Search for a local minimum.
 Step number   3 out of a maximum of  38
 All quantities printed in internal units (Hartrees-Bohrs-Radians)
 Update second derivatives using D2CorX and points  1  2  3
 Trust test= 8.26D-01 RLast= 4.67D-02 DXMaxT set to 4.24D-01
     Eigenvalues ---    0.00255   0.05742   0.05809   0.05809   0.06331
     Eigenvalues ---    0.16000   0.16000   0.16000   0.16152   0.22378
     Eigenvalues ---    0.26896   0.28744   0.32122   0.32122   0.32122
     Eigenvalues ---    0.32207   0.46524   0.541571000.000001000.00000
     Eigenvalues --- 1000.000001000.000001000.000001000.000001000.00000
     Eigenvalues --- 1000.000001000.000001000.00000
 RFO step:  Lambda=-1.74313669D-05.
 Quartic linear search produced a step of -0.11063.
 Iteration  1 RMS(Cart)=  0.00235742 RMS(Int)=  0.00000624
 Iteration  2 RMS(Cart)=  0.00000232 RMS(Int)=  0.00000580
 Iteration  3 RMS(Cart)=  0.00000000 RMS(Int)=  0.00000580
 Variable       Old X    -DE/DX   Delta X   Delta X   Delta X     New X
                                 (Linear)    (Quad)   (Total)
    R1        2.85472   0.00067  -0.00086   0.00338   0.00252   2.85724
    R2        2.58770  -0.00086  -0.00111   0.00004  -0.00107   2.58663
    R3        2.04112   0.00081  -0.00035   0.00296   0.00261   2.04373
    R4        2.04112   0.00081  -0.00035   0.00296   0.00261   2.04373
    R5        2.58770  -0.00086  -0.00111   0.00004  -0.00107   2.58663
    R6        2.04112   0.00081  -0.00035   0.00296   0.00261   2.04373
    R7        2.04112   0.00081  -0.00035   0.00296   0.00261   2.04373
    A1        1.88705  -0.00115  -0.00212  -0.00181  -0.00393   1.88312
    A2        1.93464   0.00030   0.00115  -0.00002   0.00114   1.93578
    A3        1.93462   0.00031   0.00115   0.00000   0.00116   1.93577
    A4        1.89895   0.00036  -0.00017   0.00118   0.00101   1.89996
    A5        1.89895   0.00035  -0.00017   0.00118   0.00101   1.89996
    A6        1.90885  -0.00017   0.00007  -0.00049  -0.00041   1.90844
    A7        1.88705  -0.00115  -0.00212  -0.00181  -0.00393   1.88312
    A8        1.93464   0.00030   0.00115  -0.00002   0.00114   1.93578
    A9        1.93462   0.00031   0.00115   0.00000   0.00116   1.93577
   A10        1.89895   0.00036  -0.00017   0.00118   0.00101   1.89996
   A11        1.89895   0.00035  -0.00017   0.00118   0.00101   1.89996
   A12        1.90885  -0.00017   0.00007  -0.00049  -0.00041   1.90844
    D1       -3.14157   0.00000  -0.00002  -0.00004  -0.00006   3.14156
    D2       -1.06157  -0.00010  -0.00087   0.00027  -0.00059  -1.06216
    D3        1.06163   0.00010   0.00083  -0.00037   0.00046   1.06209
    D4       -1.06157  -0.00010  -0.00087   0.00027  -0.00059  -1.06216
    D5        1.01842  -0.00020  -0.00171   0.00058  -0.00112   1.01730
    D6       -3.14156   0.00000  -0.00002  -0.00006  -0.00007   3.14156
    D7        1.06163   0.00010   0.00083  -0.00037   0.00046   1.06209
    D8       -3.14156   0.00000  -0.00002  -0.00006  -0.00007   3.14156
    D9       -1.01836   0.00020   0.00168  -0.00069   0.00098  -1.01737
         Item               Value     Threshold  Converged?
 Maximum Force            0.001149     0.000450     NO 
 RMS     Force            0.000543     0.000300     NO 
 Maximum Displacement     0.005211     0.001800     NO 
 RMS     Displacement     0.002358     0.001200     NO 
 Predicted change in Energy=-1.227916D-05
 GradGradGradGradGradGradGradGradGradGradGradGradGradGradGradGradGradGrad

                          Input orientation:                          
 ---------------------------------------------------------------------
 Center     Atomic     Atomic              Coordinates (Angstroms)
 Number     Number      Type              X           Y           Z
 ---------------------------------------------------------------------
    1          6             0        0.015582    0.000029    0.013468
    2          6             0       -0.015582    0.000029    1.525132
    3          9             0        1.278039    0.000006    1.972475
    4          1             0       -0.515428    0.882389    1.900927
    5          1             0       -0.515461   -0.882314    1.900925
    6          9             0       -1.278039    0.000006   -0.433875
    7          1             0        0.515428    0.882389   -0.362327
    8          1             0        0.515461   -0.882314   -0.362325
 ---------------------------------------------------------------------
                    Distance matrix (angstroms):
                    1          2          3          4          5
     1  C    0.000000
     2  C    1.511986   0.000000
     3  F    2.330560   1.368785   0.000000
     4  H    2.150124   1.081493   2.000061   0.000000
     5  H    2.150123   1.081494   2.000063   1.764704   0.000000
     6  F    1.368785   2.330560   3.510564   2.609881   2.609848
     7  H    1.081493   2.150124   2.609881   2.486963   3.049462
     8  H    1.081494   2.150123   2.609848   3.049462   2.486986
                    6          7          8
     6  F    0.000000
     7  H    2.000061   0.000000
     8  H    2.000063   1.764704   0.000000
 Stoichiometry    C2H4F2
 Framework group  C2[X(C2H4F2)]
 Deg. of freedom    10
 Full point group                 C2
 Largest Abelian subgroup         C2      NOp   2
 Largest concise Abelian subgroup C2      NOp   2
                         Standard orientation:                         
 ---------------------------------------------------------------------
 Center     Atomic     Atomic              Coordinates (Angstroms)
 Number     Number      Type              X           Y           Z
 ---------------------------------------------------------------------
    1          6             0        0.422530    0.626892    0.000011
    2          6             0       -0.422530   -0.626892    0.000011
    3          9             0        0.422530   -1.703668   -0.000012
    4          1             0       -1.046254   -0.672010    0.882372
    5          1             0       -1.046281   -0.671991   -0.882332
    6          9             0       -0.422530    1.703668   -0.000012
    7          1             0        1.046254    0.672010    0.882372
    8          1             0        1.046281    0.671991   -0.882332
 ---------------------------------------------------------------------
 Rotational constants (GHZ):     32.4036058      3.9575642      3.6883918
 Standard basis: 6-31G(d) (6D, 7F)
 There are    34 symmetry adapted basis functions of A   symmetry.
 There are    34 symmetry adapted basis functions of B   symmetry.
 Integral buffers will be    131072 words long.
 Raffenetti 1 integral format.
 Two-electron integral symmetry is turned on.
    68 basis functions,   128 primitive gaussians,    68 cartesian basis functions
    17 alpha electrons       17 beta electrons
       nuclear repulsion energy       126.9317122062 Hartrees.
 NAtoms=    8 NActive=    8 NUniq=    4 SFac= 3.00D+00 NAtFMM=   80 NAOKFM=F Big=F
 One-electron integrals computed using PRISM.
 NBasis=    68 RedAO= T  NBF=    34    34
 NBsUse=    68 1.00D-06 NBFU=    34    34
 Initial guess read from the read-write file:
 Initial guess orbital symmetries:
       Occupied  (A) (B) (A) (B) (A) (B) (A) (B) (A) (B) (A) (B)
                 (A) (B) (A) (B) (A)
       Virtual   (A) (B) (A) (B) (B) (A) (B) (A) (A) (B) (A) (B)
                 (B) (A) (A) (B) (A) (B) (B) (A) (B) (A) (B) (A)
                 (B) (B) (A) (A) (A) (B) (B) (A) (A) (B) (B) (A)
                 (A) (A) (B) (B) (B) (B) (A) (B) (A) (B) (A) (A)
                 (A) (B) (B)
 Requested convergence on RMS density matrix=1.00D-08 within 128 cycles.
 Requested convergence on MAX density matrix=1.00D-06.
 Requested convergence on             energy=1.00D-06.
 No special actions if energy rises.
 Keep R1 integrals in memory in canonical form, NReq=     3771471.
 SCF Done:  E(RHF) =  -276.922120643     A.U. after   13 cycles
             Convg  =    0.4868D-08             -V/T =  2.0013
             S**2   =   0.0000
 ***** Axes restored to original set *****
 -------------------------------------------------------------------
 Center     Atomic                   Forces (Hartrees/Bohr)
 Number     Number              X              Y              Z
 -------------------------------------------------------------------
    1          6          -0.000207818   -0.000000190   -0.000020405
    2          6           0.000207818   -0.000000190    0.000020405
    3          9          -0.000217512    0.000000178   -0.000014626
    4          1           0.000078638   -0.000184614   -0.000089828
    5          1           0.000078996    0.000184626   -0.000090134
    6          9           0.000217512    0.000000178    0.000014626
    7          1          -0.000078638   -0.000184614    0.000089828
    8          1          -0.000078996    0.000184626    0.000090134
 -------------------------------------------------------------------
 Cartesian Forces:  Max     0.000217512 RMS     0.000125139

 GradGradGradGradGradGradGradGradGradGradGradGradGradGradGradGradGradGrad
 Berny optimization.
 Internal  Forces:  Max     0.000218460 RMS     0.000112679
 Search for a local minimum.
 Step number   4 out of a maximum of  38
 All quantities printed in internal units (Hartrees-Bohrs-Radians)
 Update second derivatives using D2CorX and points  1  2  3  4
 Trust test= 8.54D-01 RLast= 8.94D-03 DXMaxT set to 4.24D-01
     Eigenvalues ---    0.00255   0.05733   0.05828   0.05828   0.06312
     Eigenvalues ---    0.16000   0.16000   0.16000   0.16038   0.22377
     Eigenvalues ---    0.28228   0.28746   0.32122   0.32122   0.32122
     Eigenvalues ---    0.37854   0.46524   0.526861000.000001000.00000
     Eigenvalues --- 1000.000001000.000001000.000001000.000001000.00000
     Eigenvalues --- 1000.000001000.000001000.00000
 RFO step:  Lambda=-4.75940569D-07.
 Quartic linear search produced a step of -0.12962.
 Iteration  1 RMS(Cart)=  0.00035344 RMS(Int)=  0.00000006
 Iteration  2 RMS(Cart)=  0.00000005 RMS(Int)=  0.00000004
 Variable       Old X    -DE/DX   Delta X   Delta X   Delta X     New X
                                 (Linear)    (Quad)   (Total)
    R1        2.85724  -0.00018  -0.00033  -0.00016  -0.00049   2.85675
    R2        2.58663  -0.00021   0.00014  -0.00058  -0.00044   2.58619
    R3        2.04373  -0.00022  -0.00034  -0.00020  -0.00054   2.04319
    R4        2.04373  -0.00022  -0.00034  -0.00020  -0.00054   2.04319
    R5        2.58663  -0.00021   0.00014  -0.00058  -0.00044   2.58619
    R6        2.04373  -0.00022  -0.00034  -0.00020  -0.00054   2.04319
    R7        2.04373  -0.00022  -0.00034  -0.00020  -0.00054   2.04319
    A1        1.88312   0.00012   0.00051  -0.00006   0.00045   1.88357
    A2        1.93578  -0.00004  -0.00015  -0.00006  -0.00021   1.93557
    A3        1.93577  -0.00004  -0.00015  -0.00006  -0.00021   1.93556
    A4        1.89996  -0.00003  -0.00013   0.00025   0.00011   1.90008
    A5        1.89996  -0.00002  -0.00013   0.00025   0.00011   1.90008
    A6        1.90844   0.00001   0.00005  -0.00029  -0.00023   1.90821
    A7        1.88312   0.00012   0.00051  -0.00006   0.00045   1.88357
    A8        1.93578  -0.00004  -0.00015  -0.00006  -0.00021   1.93557
    A9        1.93577  -0.00004  -0.00015  -0.00006  -0.00021   1.93556
   A10        1.89996  -0.00003  -0.00013   0.00025   0.00011   1.90008
   A11        1.89996  -0.00002  -0.00013   0.00025   0.00011   1.90008
   A12        1.90844   0.00001   0.00005  -0.00029  -0.00023   1.90821
    D1        3.14156   0.00000   0.00001   0.00003   0.00004  -3.14159
    D2       -1.06216   0.00002   0.00008   0.00025   0.00033  -1.06183
    D3        1.06209  -0.00002  -0.00006  -0.00019  -0.00025   1.06184
    D4       -1.06216   0.00002   0.00008   0.00025   0.00033  -1.06183
    D5        1.01730   0.00005   0.00015   0.00048   0.00062   1.01793
    D6        3.14156   0.00000   0.00001   0.00003   0.00004  -3.14159
    D7        1.06209  -0.00002  -0.00006  -0.00019  -0.00025   1.06184
    D8        3.14156   0.00000   0.00001   0.00003   0.00004  -3.14159
    D9       -1.01737  -0.00005  -0.00013  -0.00042  -0.00055  -1.01792
         Item               Value     Threshold  Converged?
 Maximum Force            0.000218     0.000450     YES
 RMS     Force            0.000113     0.000300     YES
 Maximum Displacement     0.000599     0.001800     YES
 RMS     Displacement     0.000353     0.001200     YES
 Predicted change in Energy=-4.756583D-07
 Optimization completed.
    -- Stationary point found.
                           ----------------------------
                           !   Optimized Parameters   !
                           ! (Angstroms and Degrees)  !
 --------------------------                            --------------------------
 ! Name  Definition              Value          Derivative Info.                !
 --------------------------------------------------------------------------------
 ! R1    R(1,2)                  1.512          -DE/DX =   -0.0002              !
 ! R2    R(1,6)                  1.3688         -DE/DX =   -0.0002              !
 ! R3    R(1,7)                  1.0815         -DE/DX =   -0.0002              !
 ! R4    R(1,8)                  1.0815         -DE/DX =   -0.0002              !
 ! R5    R(2,3)                  1.3688         -DE/DX =   -0.0002              !
 ! R6    R(2,4)                  1.0815         -DE/DX =   -0.0002              !
 ! R7    R(2,5)                  1.0815         -DE/DX =   -0.0002              !
 ! A1    A(2,1,6)              107.8947         -DE/DX =    0.0001              !
 ! A2    A(2,1,7)              110.9118         -DE/DX =    0.0                 !
 ! A3    A(2,1,8)              110.9117         -DE/DX =    0.0                 !
 ! A4    A(6,1,7)              108.8598         -DE/DX =    0.0                 !
 ! A5    A(6,1,8)              108.8599         -DE/DX =    0.0                 !
 ! A6    A(7,1,8)              109.3458         -DE/DX =    0.0                 !
 ! A7    A(1,2,3)              107.8947         -DE/DX =    0.0001              !
 ! A8    A(1,2,4)              110.9118         -DE/DX =    0.0                 !
 ! A9    A(1,2,5)              110.9117         -DE/DX =    0.0                 !
 ! A10   A(3,2,4)              108.8598         -DE/DX =    0.0                 !
 ! A11   A(3,2,5)              108.8599         -DE/DX =    0.0                 !
 ! A12   A(4,2,5)              109.3458         -DE/DX =    0.0                 !
 ! D1    D(6,1,2,3)           -180.002          -DE/DX =    0.0                 !
 ! D2    D(6,1,2,4)            -60.8575         -DE/DX =    0.0                 !
 ! D3    D(6,1,2,5)             60.8533         -DE/DX =    0.0                 !
 ! D4    D(7,1,2,3)            -60.8575         -DE/DX =    0.0                 !
 ! D5    D(7,1,2,4)             58.2871         -DE/DX =    0.0                 !
 ! D6    D(7,1,2,5)           -180.0021         -DE/DX =    0.0                 !
 ! D7    D(8,1,2,3)             60.8533         -DE/DX =    0.0                 !
 ! D8    D(8,1,2,4)           -180.0021         -DE/DX =    0.0                 !
 ! D9    D(8,1,2,5)            -58.2913         -DE/DX =    0.0                 !
 --------------------------------------------------------------------------------
 GradGradGradGradGradGradGradGradGradGradGradGradGradGradGradGradGradGrad

                          Input orientation:                          
 ---------------------------------------------------------------------
 Center     Atomic     Atomic              Coordinates (Angstroms)
 Number     Number      Type              X           Y           Z
 ---------------------------------------------------------------------
    1          6             0        0.015582    0.000029    0.013468
    2          6             0       -0.015582    0.000029    1.525132
    3          9             0        1.278039    0.000006    1.972475
    4          1             0       -0.515428    0.882389    1.900927
    5          1             0       -0.515461   -0.882314    1.900925
    6          9             0       -1.278039    0.000006   -0.433875
    7          1             0        0.515428    0.882389   -0.362327
    8          1             0        0.515461   -0.882314   -0.362325
 ---------------------------------------------------------------------
                    Distance matrix (angstroms):
                    1          2          3          4          5
     1  C    0.000000
     2  C    1.511986   0.000000
     3  F    2.330560   1.368785   0.000000
     4  H    2.150124   1.081493   2.000061   0.000000
     5  H    2.150123   1.081494   2.000063   1.764704   0.000000
     6  F    1.368785   2.330560   3.510564   2.609881   2.609848
     7  H    1.081493   2.150124   2.609881   2.486963   3.049462
     8  H    1.081494   2.150123   2.609848   3.049462   2.486986
                    6          7          8
     6  F    0.000000
     7  H    2.000061   0.000000
     8  H    2.000063   1.764704   0.000000
 Stoichiometry    C2H4F2
 Framework group  C2[X(C2H4F2)]
 Deg. of freedom    10
 Full point group                 C2
 Largest Abelian subgroup         C2      NOp   2
 Largest concise Abelian subgroup C2      NOp   2
                         Standard orientation:                         
 ---------------------------------------------------------------------
 Center     Atomic     Atomic              Coordinates (Angstroms)
 Number     Number      Type              X           Y           Z
 ---------------------------------------------------------------------
    1          6             0        0.422530    0.626892    0.000011
    2          6             0       -0.422530   -0.626892    0.000011
    3          9             0        0.422530   -1.703668   -0.000012
    4          1             0       -1.046254   -0.672010    0.882372
    5          1             0       -1.046281   -0.671991   -0.882332
    6          9             0       -0.422530    1.703668   -0.000012
    7          1             0        1.046254    0.672010    0.882372
    8          1             0        1.046281    0.671991   -0.882332
 ---------------------------------------------------------------------
 Rotational constants (GHZ):     32.4036058      3.9575642      3.6883918

 **********************************************************************

            Population analysis using the SCF density.

 **********************************************************************

 Orbital symmetries:
       Occupied  (A) (B) (A) (B) (A) (B) (A) (B) (A) (B) (A) (B)
                 (A) (B) (A) (B) (A)
       Virtual   (A) (B) (A) (B) (B) (A) (B) (A) (A) (B) (A) (B)
                 (B) (A) (A) (B) (A) (B) (B) (A) (B) (A) (B) (A)
                 (B) (B) (A) (A) (A) (B) (B) (A) (A) (B) (B) (A)
                 (A) (A) (B) (B) (B) (B) (A) (B) (A) (B) (A) (A)
                 (A) (B) (B)
 The electronic state is 1-A.
 Alpha  occ. eigenvalues --  -26.28878 -26.28878 -11.31474 -11.31409  -1.60312
 Alpha  occ. eigenvalues --   -1.59705  -1.04018  -0.88469  -0.73942  -0.72372
 Alpha  occ. eigenvalues --   -0.71029  -0.68540  -0.66047  -0.61995  -0.55891
 Alpha  occ. eigenvalues --   -0.50575  -0.50416
 Alpha virt. eigenvalues --    0.24243   0.25242   0.28634   0.30550   0.34599
 Alpha virt. eigenvalues --    0.40330   0.43607   0.69416   0.74289   0.78109
 Alpha virt. eigenvalues --    0.81833   0.86470   0.92771   1.02629   1.09240
 Alpha virt. eigenvalues --    1.14247   1.16118   1.16722   1.29063   1.42979
 Alpha virt. eigenvalues --    1.49794   1.52800   1.63878   1.67344   1.70203
 Alpha virt. eigenvalues --    1.71375   1.73564   1.94423   2.06284   2.08126
 Alpha virt. eigenvalues --    2.10799   2.12785   2.13643   2.14304   2.30815
 Alpha virt. eigenvalues --    2.31992   2.40208   2.44326   2.50814   2.58931
 Alpha virt. eigenvalues --    2.70264   2.71441   2.82975   2.95760   2.98883
 Alpha virt. eigenvalues --    3.39522   3.40418   4.38066   4.61679   4.80470
 Alpha virt. eigenvalues --    4.85299
          Condensed to atoms (all electrons):
              1          2          3          4          5          6
     1  C    4.720396   0.348639  -0.027021  -0.042652  -0.042653   0.195894
     2  C    0.348639   4.720396   0.195894   0.389300   0.389300  -0.027021
     3  F   -0.027021   0.195894   9.286571  -0.027407  -0.027407   0.000353
     4  H   -0.042652   0.389300  -0.027407   0.551958  -0.041720   0.003153
     5  H   -0.042653   0.389300  -0.027407  -0.041720   0.551957   0.003153
     6  F    0.195894  -0.027021   0.000353   0.003153   0.003153   9.286571
     7  H    0.389300  -0.042652   0.003153  -0.007063   0.005185  -0.027407
     8  H    0.389300  -0.042653   0.003153   0.005185  -0.007063  -0.027407
              7          8
     1  C    0.389300   0.389300
     2  C   -0.042652  -0.042653
     3  F    0.003153   0.003153
     4  H   -0.007063   0.005185
     5  H    0.005185  -0.007063
     6  F   -0.027407  -0.027407
     7  H    0.551958  -0.041720
     8  H   -0.041720   0.551957
 Mulliken atomic charges:
              1
     1  C    0.068798
     2  C    0.068798
     3  F   -0.407290
     4  H    0.169246
     5  H    0.169246
     6  F   -0.407290
     7  H    0.169246
     8  H    0.169246
 Sum of Mulliken charges=   0.00000
 Atomic charges with hydrogens summed into heavy atoms:
              1
     1  C    0.407290
     2  C    0.407290
     3  F   -0.407290
     4  H    0.000000
     5  H    0.000000
     6  F   -0.407290
     7  H    0.000000
     8  H    0.000000
 Sum of Mulliken charges=   0.00000
 Electronic spatial extent (au):  <R**2>=   309.3400
 Charge=     0.0000 electrons
 Dipole moment (field-independent basis, Debye):
    X=     0.0000    Y=     0.0000    Z=     0.0001  Tot=     0.0001
 Quadrupole moment (field-independent basis, Debye-Ang):
   XX=   -21.6630   YY=   -29.1558   ZZ=   -21.2687
   XY=     3.0353   XZ=     0.0000   YZ=     0.0000
 Traceless Quadrupole moment (field-independent basis, Debye-Ang):
   XX=     2.3662   YY=    -5.1267   ZZ=     2.7605
   XY=     3.0353   XZ=     0.0000   YZ=     0.0000
 Octapole moment (field-independent basis, Debye-Ang**2):
  XXX=     0.0000  YYY=     0.0000  ZZZ=    -0.0001  XYY=     0.0000
  XXY=     0.0000  XXZ=    -0.0001  XZZ=     0.0000  YZZ=     0.0000
  YYZ=     0.0001  XYZ=     0.0000
 Hexadecapole moment (field-independent basis, Debye-Ang**3):
 XXXX=   -56.8187 YYYY=  -236.4564 ZZZZ=   -29.5730 XXXY=     6.7480
 XXXZ=     0.0000 YYYX=    11.6266 YYYZ=     0.0000 ZZZX=     0.0000
 ZZZY=     0.0000 XXYY=   -45.7546 XXZZ=   -12.9627 YYZZ=   -40.6620
 XXYZ=     0.0000 YYXZ=     0.0000 ZZXY=     3.0644
 N-N= 1.269317122062D+02 E-N=-9.121863737634D+02  KE= 2.765576889127D+02
 Symmetry A    KE= 1.398642564469D+02
 Symmetry B    KE= 1.366934324658D+02
 Atom   5 needs variable   8= 110.9116912190 but is  110.9117912783
 Input z-matrix variables are not compatible with final structure.
 1\1\GINC-DCOPT154\FOpt\RHF\6-31G(d)\C2H4F2\WSCHNEI1\18-Oct-2007\0\\#N 
 G2\\t-C2H4F2 G2\\0,1\C,0.0155821603,0.0000288117,0.0134677268\C,-0.015
 5821603,0.0000288117,1.5251322732\F,1.2780392954,0.0000055663,1.972475
 4415\H,-0.5154281084,0.8823891416,1.9009271555\H,-0.5154608397,-0.8823
 143677,1.9009248335\F,-1.2780392954,0.0000055663,-0.4338754415\H,0.515
 4281084,0.8823891416,-0.3623271555\H,0.5154608397,-0.8823143677,-0.362
 3248335\\Version=AM64L-G03RevD.01\State=1-A\HF=-276.9221206\RMSD=4.868
 e-09\RMSF=1.251e-04\Thermal=0.\Dipole=0.,0.000025,0.\PG=C02 [X(C2H4F2)
 ]\\@


 If your ship doesn't come in, swim out to it!
                          -- Jonathan Winters
 Job cpu time:  0 days  0 hours  0 minutes  8.3 seconds.
 File lengths (MBytes):  RWF=     18 Int=      0 D2E=      0 Chk=     10 Scr=      1
 Normal termination of Gaussian 03 at Thu Oct 18 10:56:35 2007.
 Link1:  Proceeding to internal job step number  2.
 -------------------------------------------------------
 #N Geom=AllCheck Guess=Read SCRF=Check HF/6-31G(d) Freq
 -------------------------------------------------------
 1/10=4,29=7,30=1,38=1,40=1,46=1/1,3;
 2/40=1/2;
 3/5=1,6=6,7=1,11=9,16=1,25=1,30=1,70=2,71=2/1,2,3;
 4/5=1/1;
 5/5=2,38=6/2;
 8/6=4,10=90,11=11/1;
 10/13=10/2;
 11/6=2,8=1,9=11,15=111,16=1/1,2,10;
 10/6=1/2;
 6/7=2,8=2,9=2,10=2,18=1,28=1/1;
 7/8=1,10=1,25=1/1,2,3,16;
 1/10=4,30=1,46=1/3;
 99//99;
 -----------
 t-C2H4F2 G2
 -----------
 Redundant internal coordinates taken from checkpoint file:
 t-C2H4F2-G2.chk
 Charge =  0 Multiplicity = 1
 C,0,0.0155821603,0.0000288117,0.0134677268
 C,0,-0.0155821603,0.0000288117,1.5251322732
 F,0,1.2780392954,0.0000055663,1.9724754415
 H,0,-0.5154281084,0.8823891416,1.9009271555
 H,0,-0.5154608397,-0.8823143677,1.9009248335
 F,0,-1.2780392954,0.0000055663,-0.4338754415
 H,0,0.5154281084,0.8823891416,-0.3623271555
 H,0,0.5154608397,-0.8823143677,-0.3623248335
 Recover connectivity data from disk.

 GradGradGradGradGradGradGradGradGradGradGradGradGradGradGradGradGradGrad
 Berny optimization.
 Initialization pass.
                           ----------------------------
                           !    Initial Parameters    !
                           ! (Angstroms and Degrees)  !
 --------------------------                            --------------------------
 ! Name  Definition              Value          Derivative Info.                !
 --------------------------------------------------------------------------------
 ! R1    R(1,2)                  1.512          calculate D2E/DX2 analytically  !
 ! R2    R(1,6)                  1.3688         calculate D2E/DX2 analytically  !
 ! R3    R(1,7)                  1.0815         calculate D2E/DX2 analytically  !
 ! R4    R(1,8)                  1.0815         calculate D2E/DX2 analytically  !
 ! R5    R(2,3)                  1.3688         calculate D2E/DX2 analytically  !
 ! R6    R(2,4)                  1.0815         calculate D2E/DX2 analytically  !
 ! R7    R(2,5)                  1.0815         calculate D2E/DX2 analytically  !
 ! A1    A(2,1,6)              107.8947         calculate D2E/DX2 analytically  !
 ! A2    A(2,1,7)              110.9118         calculate D2E/DX2 analytically  !
 ! A3    A(2,1,8)              110.9117         calculate D2E/DX2 analytically  !
 ! A4    A(6,1,7)              108.8598         calculate D2E/DX2 analytically  !
 ! A5    A(6,1,8)              108.8599         calculate D2E/DX2 analytically  !
 ! A6    A(7,1,8)              109.3458         calculate D2E/DX2 analytically  !
 ! A7    A(1,2,3)              107.8947         calculate D2E/DX2 analytically  !
 ! A8    A(1,2,4)              110.9118         calculate D2E/DX2 analytically  !
 ! A9    A(1,2,5)              110.9117         calculate D2E/DX2 analytically  !
 ! A10   A(3,2,4)              108.8598         calculate D2E/DX2 analytically  !
 ! A11   A(3,2,5)              108.8599         calculate D2E/DX2 analytically  !
 ! A12   A(4,2,5)              109.3458         calculate D2E/DX2 analytically  !
 ! D1    D(6,1,2,3)            179.998          calculate D2E/DX2 analytically  !
 ! D2    D(6,1,2,4)            -60.8575         calculate D2E/DX2 analytically  !
 ! D3    D(6,1,2,5)             60.8533         calculate D2E/DX2 analytically  !
 ! D4    D(7,1,2,3)            -60.8575         calculate D2E/DX2 analytically  !
 ! D5    D(7,1,2,4)             58.2871         calculate D2E/DX2 analytically  !
 ! D6    D(7,1,2,5)            179.9979         calculate D2E/DX2 analytically  !
 ! D7    D(8,1,2,3)             60.8533         calculate D2E/DX2 analytically  !
 ! D8    D(8,1,2,4)            179.9979         calculate D2E/DX2 analytically  !
 ! D9    D(8,1,2,5)            -58.2913         calculate D2E/DX2 analytically  !
 --------------------------------------------------------------------------------
 Trust Radius=3.00D-01 FncErr=1.00D-07 GrdErr=1.00D-07
 Number of steps in this run=   2 maximum allowed number of steps=   2.
 GradGradGradGradGradGradGradGradGradGradGradGradGradGradGradGradGradGrad

                          Input orientation:                          
 ---------------------------------------------------------------------
 Center     Atomic     Atomic              Coordinates (Angstroms)
 Number     Number      Type              X           Y           Z
 ---------------------------------------------------------------------
    1          6             0        0.015582    0.000029    0.013468
    2          6             0       -0.015582    0.000029    1.525132
    3          9             0        1.278039    0.000006    1.972475
    4          1             0       -0.515428    0.882389    1.900927
    5          1             0       -0.515461   -0.882314    1.900925
    6          9             0       -1.278039    0.000006   -0.433875
    7          1             0        0.515428    0.882389   -0.362327
    8          1             0        0.515461   -0.882314   -0.362325
 ---------------------------------------------------------------------
                    Distance matrix (angstroms):
                    1          2          3          4          5
     1  C    0.000000
     2  C    1.511986   0.000000
     3  F    2.330560   1.368785   0.000000
     4  H    2.150124   1.081493   2.000061   0.000000
     5  H    2.150123   1.081494   2.000063   1.764704   0.000000
     6  F    1.368785   2.330560   3.510564   2.609881   2.609848
     7  H    1.081493   2.150124   2.609881   2.486963   3.049462
     8  H    1.081494   2.150123   2.609848   3.049462   2.486986
                    6          7          8
     6  F    0.000000
     7  H    2.000061   0.000000
     8  H    2.000063   1.764704   0.000000
 Stoichiometry    C2H4F2
 Framework group  C2[X(C2H4F2)]
 Deg. of freedom    10
 Full point group                 C2
 Largest Abelian subgroup         C2      NOp   2
 Largest concise Abelian subgroup C2      NOp   2
                         Standard orientation:                         
 ---------------------------------------------------------------------
 Center     Atomic     Atomic              Coordinates (Angstroms)
 Number     Number      Type              X           Y           Z
 ---------------------------------------------------------------------
    1          6             0        0.422530    0.626892    0.000011
    2          6             0       -0.422530   -0.626892    0.000011
    3          9             0        0.422530   -1.703668   -0.000012
    4          1             0       -1.046254   -0.672010    0.882372
    5          1             0       -1.046281   -0.671991   -0.882332
    6          9             0       -0.422530    1.703668   -0.000012
    7          1             0        1.046254    0.672010    0.882372
    8          1             0        1.046281    0.671991   -0.882332
 ---------------------------------------------------------------------
 Rotational constants (GHZ):     32.4036058      3.9575642      3.6883918
 Standard basis: 6-31G(d) (6D, 7F)
 There are    34 symmetry adapted basis functions of A   symmetry.
 There are    34 symmetry adapted basis functions of B   symmetry.
 Integral buffers will be    131072 words long.
 Raffenetti 1 integral format.
 Two-electron integral symmetry is turned on.
    68 basis functions,   128 primitive gaussians,    68 cartesian basis functions
    17 alpha electrons       17 beta electrons
       nuclear repulsion energy       126.9317122062 Hartrees.
 NAtoms=    8 NActive=    8 NUniq=    4 SFac= 3.00D+00 NAtFMM=   80 NAOKFM=F Big=F
 One-electron integrals computed using PRISM.
 NBasis=    68 RedAO= T  NBF=    34    34
 NBsUse=    68 1.00D-06 NBFU=    34    34
 Initial guess read from the checkpoint file:
 t-C2H4F2-G2.chk
 Initial guess orbital symmetries:
       Occupied  (A) (B) (A) (B) (A) (B) (A) (B) (A) (B) (A) (B)
                 (A) (B) (A) (B) (A)
       Virtual   (A) (B) (A) (B) (B) (A) (B) (A) (A) (B) (A) (B)
                 (B) (A) (A) (B) (A) (B) (B) (A) (B) (A) (B) (A)
                 (B) (B) (A) (A) (A) (B) (B) (A) (A) (B) (B) (A)
                 (A) (A) (B) (B) (B) (B) (A) (B) (A) (B) (A) (A)
                 (A) (B) (B)
 Requested convergence on RMS density matrix=1.00D-08 within 128 cycles.
 Requested convergence on MAX density matrix=1.00D-06.
 Requested convergence on             energy=1.00D-06.
 No special actions if energy rises.
 Keep R1 integrals in memory in canonical form, NReq=     3771471.
 SCF Done:  E(RHF) =  -276.922120643     A.U. after    1 cycles
             Convg  =    0.5387D-09             -V/T =  2.0013
             S**2   =   0.0000
 Range of M.O.s used for correlation:     1    68
 NBasis=    68 NAE=    17 NBE=    17 NFC=     0 NFV=     0
 NROrb=     68 NOA=    17 NOB=    17 NVA=    51 NVB=    51
          Differentiating once with respect to electric field.
                with respect to dipole field.
          Electric field/nuclear overlap derivatives assumed to be zero.
          Store integrals in memory, NReq=     3573653.
          There are   3 degrees of freedom in the 1st order CPHF.
     3 vectors were produced by pass  0.
 AX will form   3 AO Fock derivatives at one time.
     3 vectors were produced by pass  1.
     3 vectors were produced by pass  2.
     3 vectors were produced by pass  3.
     3 vectors were produced by pass  4.
     3 vectors were produced by pass  5.
     3 vectors were produced by pass  6.
     3 vectors were produced by pass  7.
     3 vectors were produced by pass  8.
     1 vectors were produced by pass  9.
 Inv2:  IOpt= 1 Iter= 1 AM= 5.43D-16 Conv= 1.00D-12.
 Inverted reduced A of dimension   28 with in-core refinement.
 End of Minotr Frequency-dependent properties file   721 does not exist.
 Symmetrizing basis deriv contribution to polar:
 IMax=3 JMax=2 DiffMx= 0.00D+00
 G2DrvN: will do    9 centers at a time, making    1 passes doing MaxLOS=2.
 FoFDir/FoFCou used for L=0 through L=2.
 DoAtom=TTTTTTTT
          Differentiating once with respect to electric field.
                with respect to dipole field.
          Differentiating once with respect to nuclear coordinates.
          Store integrals in memory, NReq=     3573821.
          There are  15 degrees of freedom in the 1st order CPHF.
    15 vectors were produced by pass  0.
 AX will form  15 AO Fock derivatives at one time.
    15 vectors were produced by pass  1.
    15 vectors were produced by pass  2.
    15 vectors were produced by pass  3.
    15 vectors were produced by pass  4.
    15 vectors were produced by pass  5.
    13 vectors were produced by pass  6.
     5 vectors were produced by pass  7.
 Inv2:  IOpt= 1 Iter= 1 AM= 2.15D-15 Conv= 1.00D-12.
 Inverted reduced A of dimension  108 with in-core refinement.
 Isotropic polarizability for W=    0.000000       21.70 Bohr**3.
 End of Minotr Frequency-dependent properties file   721 does not exist.

 **********************************************************************

            Population analysis using the SCF density.

 **********************************************************************

 Orbital symmetries:
       Occupied  (A) (B) (A) (B) (A) (B) (A) (B) (A) (B) (A) (B)
                 (A) (B) (A) (B) (A)
       Virtual   (A) (B) (A) (B) (B) (A) (B) (A) (A) (B) (A) (B)
                 (B) (A) (A) (B) (A) (B) (B) (A) (B) (A) (B) (A)
                 (B) (B) (A) (A) (A) (B) (B) (A) (A) (B) (B) (A)
                 (A) (A) (B) (B) (B) (B) (A) (B) (A) (B) (A) (A)
                 (A) (B) (B)
 The electronic state is 1-A.
 Alpha  occ. eigenvalues --  -26.28878 -26.28878 -11.31474 -11.31409  -1.60312
 Alpha  occ. eigenvalues --   -1.59705  -1.04018  -0.88469  -0.73942  -0.72372
 Alpha  occ. eigenvalues --   -0.71029  -0.68540  -0.66047  -0.61995  -0.55891
 Alpha  occ. eigenvalues --   -0.50575  -0.50416
 Alpha virt. eigenvalues --    0.24243   0.25242   0.28634   0.30550   0.34599
 Alpha virt. eigenvalues --    0.40330   0.43607   0.69416   0.74289   0.78109
 Alpha virt. eigenvalues --    0.81833   0.86470   0.92771   1.02629   1.09240
 Alpha virt. eigenvalues --    1.14247   1.16118   1.16722   1.29063   1.42979
 Alpha virt. eigenvalues --    1.49794   1.52800   1.63878   1.67344   1.70203
 Alpha virt. eigenvalues --    1.71375   1.73564   1.94423   2.06284   2.08126
 Alpha virt. eigenvalues --    2.10799   2.12785   2.13643   2.14304   2.30815
 Alpha virt. eigenvalues --    2.31992   2.40208   2.44326   2.50814   2.58931
 Alpha virt. eigenvalues --    2.70264   2.71441   2.82975   2.95760   2.98883
 Alpha virt. eigenvalues --    3.39522   3.40418   4.38066   4.61679   4.80470
 Alpha virt. eigenvalues --    4.85299
          Condensed to atoms (all electrons):
              1          2          3          4          5          6
     1  C    4.720396   0.348639  -0.027021  -0.042652  -0.042653   0.195894
     2  C    0.348639   4.720396   0.195894   0.389300   0.389300  -0.027021
     3  F   -0.027021   0.195894   9.286571  -0.027407  -0.027407   0.000353
     4  H   -0.042652   0.389300  -0.027407   0.551958  -0.041720   0.003153
     5  H   -0.042653   0.389300  -0.027407  -0.041720   0.551957   0.003153
     6  F    0.195894  -0.027021   0.000353   0.003153   0.003153   9.286571
     7  H    0.389300  -0.042652   0.003153  -0.007063   0.005185  -0.027407
     8  H    0.389300  -0.042653   0.003153   0.005185  -0.007063  -0.027407
              7          8
     1  C    0.389300   0.389300
     2  C   -0.042652  -0.042653
     3  F    0.003153   0.003153
     4  H   -0.007063   0.005185
     5  H    0.005185  -0.007063
     6  F   -0.027407  -0.027407
     7  H    0.551958  -0.041720
     8  H   -0.041720   0.551957
 Mulliken atomic charges:
              1
     1  C    0.068798
     2  C    0.068798
     3  F   -0.407290
     4  H    0.169246
     5  H    0.169246
     6  F   -0.407290
     7  H    0.169246
     8  H    0.169246
 Sum of Mulliken charges=   0.00000
 Atomic charges with hydrogens summed into heavy atoms:
              1
     1  C    0.407290
     2  C    0.407290
     3  F   -0.407290
     4  H    0.000000
     5  H    0.000000
     6  F   -0.407290
     7  H    0.000000
     8  H    0.000000
 Sum of Mulliken charges=   0.00000
 APT atomic charges:
              1
     1  C    0.663612
     2  C    0.663612
     3  F   -0.551248
     4  H   -0.056182
     5  H   -0.056181
     6  F   -0.551248
     7  H   -0.056182
     8  H   -0.056181
 Sum of APT charges=   0.00000
 APT Atomic charges with hydrogens summed into heavy atoms:
              1
     1  C    0.551248
     2  C    0.551248
     3  F   -0.551248
     4  H    0.000000
     5  H    0.000000
     6  F   -0.551248
     7  H    0.000000
     8  H    0.000000
 Sum of APT charges=   0.00000
 Electronic spatial extent (au):  <R**2>=   309.3400
 Charge=     0.0000 electrons
 Dipole moment (field-independent basis, Debye):
    X=     0.0000    Y=     0.0000    Z=     0.0001  Tot=     0.0001
 Quadrupole moment (field-independent basis, Debye-Ang):
   XX=   -21.6630   YY=   -29.1558   ZZ=   -21.2687
   XY=     3.0353   XZ=     0.0000   YZ=     0.0000
 Traceless Quadrupole moment (field-independent basis, Debye-Ang):
   XX=     2.3662   YY=    -5.1267   ZZ=     2.7605
   XY=     3.0353   XZ=     0.0000   YZ=     0.0000
 Octapole moment (field-independent basis, Debye-Ang**2):
  XXX=     0.0000  YYY=     0.0000  ZZZ=    -0.0001  XYY=     0.0000
  XXY=     0.0000  XXZ=    -0.0001  XZZ=     0.0000  YZZ=     0.0000
  YYZ=     0.0001  XYZ=     0.0000
 Hexadecapole moment (field-independent basis, Debye-Ang**3):
 XXXX=   -56.8187 YYYY=  -236.4564 ZZZZ=   -29.5730 XXXY=     6.7480
 XXXZ=     0.0000 YYYX=    11.6266 YYYZ=     0.0000 ZZZX=     0.0000
 ZZZY=     0.0000 XXYY=   -45.7546 XXZZ=   -12.9627 YYZZ=   -40.6620
 XXYZ=     0.0000 YYXZ=     0.0000 ZZXY=     3.0644
 N-N= 1.269317122062D+02 E-N=-9.121863737255D+02  KE= 2.765576888863D+02
 Symmetry A    KE= 1.398642564291D+02
 Symmetry B    KE= 1.366934324572D+02
  Exact polarizability:  22.102   0.335  21.275   0.000   0.000  21.729
 Approx polarizability:  18.812  -0.549  17.459   0.000   0.000  18.868
 Full mass-weighted force constant matrix:
 Low frequencies ---    0.0005    0.0015    0.0015   10.6772   10.7682   35.2134
 Low frequencies ---  146.7111  306.1159  497.1025
 Diagonal vibrational polarizability:
        6.0543779       6.0426942      20.1646069
 Diagonal vibrational hyperpolarizability:
        0.0000003       0.0000003      -0.0010947
 Harmonic frequencies (cm**-1), IR intensities (KM/Mole), Raman scattering
 activities (A**4/AMU), depolarization ratios for plane and unpolarized
 incident light, reduced masses (AMU), force constants (mDyne/A),
 and normal coordinates:
                     1                      2                      3
                     A                      B                      A
 Frequencies --   146.7111               306.1159               497.1025
 Red. masses --     3.4703                 4.7457                 9.5353
 Frc consts  --     0.0440                 0.2620                 1.3883
 IR Inten    --    15.8530                23.5351                 0.0000
 Raman Activ --     0.0000                 0.0000                 2.5911
 Depolar (P) --     0.6141                 0.7500                 0.4637
 Depolar (U) --     0.7610                 0.8571                 0.6336
 Atom AN      X      Y      Z        X      Y      Z        X      Y      Z
   1   6     0.00   0.00   0.23     0.24   0.16   0.00     0.14  -0.22   0.00
   2   6     0.00   0.00   0.23     0.24   0.16   0.00    -0.14   0.22   0.00
   3   9     0.00   0.00  -0.19    -0.18  -0.14   0.00    -0.02   0.44   0.00
   4   1     0.19  -0.20   0.36     0.22   0.37  -0.01    -0.14   0.31   0.01
   5   1    -0.19   0.20   0.36     0.22   0.37   0.01    -0.14   0.31  -0.01
   6   9     0.00   0.00  -0.19    -0.18  -0.14   0.00     0.02  -0.44   0.00
   7   1    -0.19   0.20   0.36     0.22   0.37   0.01     0.14  -0.31   0.01
   8   1     0.19  -0.20   0.36     0.22   0.37  -0.01     0.14  -0.31  -0.01
                     4                      5                      6
                     A                      A                      A
[...]
 ---------------------------------------------------------------------
    1          6             0        0.017383    0.000027    0.014013
    2          6             0       -0.017383    0.000027    1.524587
    3          9             0        1.301633    0.000036    1.977898
    4          1             0       -0.524104    0.891792    1.900433
    5          1             0       -0.524091   -0.891746    1.900435
    6          9             0       -1.301633    0.000036   -0.439298
    7          1             0        0.524104    0.891792   -0.361833
    8          1             0        0.524091   -0.891746   -0.361835
 ---------------------------------------------------------------------
                    Distance matrix (angstroms):
                    1          2          3          4          5
     1  C    0.000000
     2  C    1.510975   0.000000
     3  F    2.346518   1.394738   0.000000
     4  H    2.155699   1.092370   2.033359   0.000000
     5  H    2.155700   1.092371   2.033358   1.783538   0.000000
     6  F    1.394738   2.346518   3.552440   2.621855   2.621869
     7  H    1.092370   2.155699   2.621855   2.493309   3.065547
     8  H    1.092371   2.155700   2.621869   3.065547   2.493302
                    6          7          8
     6  F    0.000000
     7  H    2.033359   0.000000
     8  H    2.033358   1.783538   0.000000
 Stoichiometry    C2H4F2
 Framework group  C2[X(C2H4F2)]
 Deg. of freedom    10
 Full point group                 C2
 Largest Abelian subgroup         C2      NOp   2
 Largest concise Abelian subgroup C2      NOp   2
                         Standard orientation:                         
 ---------------------------------------------------------------------
 Center     Atomic     Atomic              Coordinates (Angstroms)
 Number     Number      Type              X           Y           Z
 ---------------------------------------------------------------------
    1          6             0       -0.427917    0.622614    0.000005
    2          6             0        0.427917   -0.622614    0.000005
    3          9             0       -0.427917   -1.723904   -0.000005
    4          1             0        1.057712   -0.659844   -0.891761
    5          1             0        1.057702   -0.659852    0.891777
    6          9             0        0.427917    1.723904   -0.000005
    7          1             0       -1.057712    0.659844   -0.891761
    8          1             0       -1.057702    0.659852    0.891777
 ---------------------------------------------------------------------
 Rotational constants (GHZ):     31.8141936      3.8765486      3.6139333
 Standard basis: 6-311+G(3df,2p) (5D, 7F)
 There are    96 symmetry adapted basis functions of A   symmetry.
 There are    96 symmetry adapted basis functions of B   symmetry.
 Integral buffers will be    131072 words long.
 Raffenetti 1 integral format.
 Two-electron integral symmetry is turned on.
   192 basis functions,   276 primitive gaussians,   216 cartesian basis functions
    17 alpha electrons       17 beta electrons
       nuclear repulsion energy       125.5217020767 Hartrees.
 NAtoms=    8 NActive=    8 NUniq=    4 SFac= 3.00D+00 NAtFMM=   80 NAOKFM=F Big=F
 One-electron integrals computed using PRISM.
 NBasis=   192 RedAO= T  NBF=    96    96
 NBsUse=   192 1.00D-06 NBFU=    96    96
 Initial guess read from the checkpoint file:
 t-C2H4F2-G2.chk
 Initial guess orbital symmetries:
       Occupied  (A) (B) (A) (B) (A) (B) (A) (B) (A) (B) (A) (B)
                 (A) (B) (A) (A) (B)
       Virtual   (A) (B) (A) (B) (B) (A) (B) (A) (A) (B) (B) (B)
                 (A) (A) (B) (A) (B) (A) (A) (B) (B) (A) (B) (B)
                 (A) (B) (A) (B) (A) (A) (B) (A) (B) (A) (B) (B)
                 (B) (A) (A) (A) (A) (B) (A) (B) (A) (B) (B) (B)
                 (A) (B) (A) (A) (B) (A) (B) (A) (B) (B) (A) (A)
                 (B) (A) (B) (B) (A) (A) (B) (A) (B) (A) (B) (A)
                 (B) (A) (A) (B) (A) (B) (B) (A) (B) (B) (A) (A)
                 (B) (A) (B) (A) (B) (A) (B) (A) (B) (B) (A) (A)
                 (B) (A) (B) (A) (A) (B) (B) (B) (B) (A) (A) (A)
                 (A) (B) (B) (A) (B) (A) (B) (A) (B) (B) (A) (A)
                 (B) (B) (A) (A) (B) (B) (A) (A) (A) (A) (A) (A)
                 (A) (A) (A) (A) (A) (A) (A) (A) (A) (A) (A) (A)
                 (A) (A) (A) (A) (A) (A) (A) (B) (B) (B) (B) (B)
                 (B) (B) (B) (B) (B) (B) (B) (B) (B) (B) (B) (B)
                 (B) (B) (B) (B) (B) (B) (B)
 Requested convergence on RMS density matrix=1.00D-08 within 128 cycles.
 Requested convergence on MAX density matrix=1.00D-06.
 Requested convergence on             energy=1.00D-06.
 No special actions if energy rises.
 SCF Done:  E(RHF) =  -277.028740293     A.U. after   10 cycles
             Convg  =    0.2046D-08             -V/T =  2.0011
             S**2   =   0.0000
 ExpMin= 4.38D-02 ExpMax= 1.14D+04 ExpMxC= 1.72D+03 IAcc=3 IRadAn=         5 AccDes= 0.00D+00
 HarFok:  IExCor= 205 AccDes= 0.00D+00 IRadAn=         5 IDoV=1
 ScaDFX=  1.000000  1.000000  1.000000  1.000000
 Range of M.O.s used for correlation:     5   192
 NBasis=   192 NAE=    17 NBE=    17 NFC=     4 NFV=     0
 NROrb=    188 NOA=    13 NOB=    13 NVA=   175 NVB=   175

 **** Warning!!: The largest alpha MO coefficient is  0.42857105D+02

 Disk-based method using OVN memory for 13 occupieds at a time.
 Estimated scratch disk usage=    71465487 words.
 Actual    scratch disk usage=    71272975 words.
 JobTyp=1 Pass  1:  I=   1 to  13 NPSUse=  1 ParTrn=F ParDer=F DoDerP=F.
 Spin components of T(2) and E(2):
     alpha-alpha T2 =       0.2417190513D-01 E2=     -0.1040391028D+00
     alpha-beta  T2 =       0.1435707361D+00 E2=     -0.6354580471D+00
     beta-beta   T2 =       0.2417190513D-01 E2=     -0.1040391028D+00
 ANorm=    0.1091748390D+01
 E2 =    -0.8435362528D+00 EUMP2 =    -0.27787227654609D+03

 **********************************************************************

            Population analysis using the SCF density.

 **********************************************************************

 Orbital symmetries:
       Occupied  (A) (B) (A) (B) (A) (B) (A) (B) (A) (B) (A) (B)
                 (A) (B) (A) (A) (B)
       Virtual   (A) (B) (A) (B) (B) (A) (A) (B) (A) (B) (B) (A)
                 (B) (B) (A) (A) (B) (A) (B) (B) (A) (A) (A) (A)
                 (B) (B) (B) (A) (B) (B) (A) (A) (A) (B) (A) (B)
                 (B) (B) (B) (A) (A) (A) (B) (A) (B) (A) (B) (A)
                 (A) (B) (B) (B) (A) (B) (A) (B) (A) (A) (B) (A)
                 (B) (A) (B) (B) (A) (A) (A) (B) (B) (B) (A) (A)
                 (A) (B) (A) (B) (A) (B) (B) (B) (B) (A) (A) (B)
                 (A) (B) (A) (B) (A) (A) (A) (B) (B) (A) (A) (B)
                 (A) (B) (A) (A) (B) (B) (B) (A) (B) (A) (B) (A)
                 (B) (A) (A) (B) (B) (A) (B) (A) (B) (A) (B) (B)
                 (A) (A) (A) (B) (B) (A) (B) (A) (B) (A) (B) (A)
                 (B) (B) (A) (A) (A) (B) (B) (B) (B) (A) (A) (A)
                 (B) (B) (A) (B) (A) (A) (A) (B) (A) (B) (B) (A)
                 (A) (B) (B) (A) (B) (A) (B) (B) (A) (A) (B) (A)
                 (B) (B) (A) (A) (B) (B) (A)
 The electronic state is 1-A.
 Alpha  occ. eigenvalues --  -26.29490 -26.29489 -11.32374 -11.32307  -1.60381
 Alpha  occ. eigenvalues --   -1.59816  -1.04650  -0.88606  -0.74032  -0.72686
 Alpha  occ. eigenvalues --   -0.71302  -0.68877  -0.66370  -0.62952  -0.57044
 Alpha  occ. eigenvalues --   -0.51765  -0.51452
 Alpha virt. eigenvalues --    0.07389   0.08182   0.09014   0.09314   0.12376
 Alpha virt. eigenvalues --    0.12780   0.13646   0.18654   0.25535   0.26325
 Alpha virt. eigenvalues --    0.26510   0.27048   0.29724   0.35394   0.36442
 Alpha virt. eigenvalues --    0.37217   0.37747   0.38829   0.39864   0.40293
 Alpha virt. eigenvalues --    0.42756   0.43273   0.43706   0.50160   0.50521
 Alpha virt. eigenvalues --    0.51881   0.57011   0.57071   0.65919   0.66073
 Alpha virt. eigenvalues --    0.71213   0.71993   0.75163   0.76313   0.79044
 Alpha virt. eigenvalues --    0.79763   0.81976   0.90569   0.91565   0.93003
 Alpha virt. eigenvalues --    0.97585   0.98867   1.02462   1.12308   1.18434
 Alpha virt. eigenvalues --    1.23549   1.24600   1.25724   1.31068   1.32755
 Alpha virt. eigenvalues --    1.32959   1.37382   1.38330   1.42132   1.45465
 Alpha virt. eigenvalues --    1.47695   1.50292   1.51853   1.55005   1.58771
 Alpha virt. eigenvalues --    1.59981   1.60638   1.62648   1.62757   1.63630
 Alpha virt. eigenvalues --    1.65982   1.66096   1.70531   1.71086   1.83706
 Alpha virt. eigenvalues --    1.88686   2.01567   2.02186   2.02310   2.12425
 Alpha virt. eigenvalues --    2.13564   2.24980   2.30726   2.39754   2.47099
 Alpha virt. eigenvalues --    2.47673   2.51378   2.66299   2.79000   2.80931
 Alpha virt. eigenvalues --    2.87653   3.04640   3.05728   3.15687   3.29730
 Alpha virt. eigenvalues --    3.31973   3.32201   3.35164   3.35456   3.43257
 Alpha virt. eigenvalues --    3.53685   3.61094   3.61687   3.71494   3.81827
 Alpha virt. eigenvalues --    3.84796   3.86409   3.92297   4.08456   4.18963
 Alpha virt. eigenvalues --    4.22533   4.42165   4.52495   4.59747   4.61231
 Alpha virt. eigenvalues --    4.67022   4.74319   4.76125   4.81840   4.90056
 Alpha virt. eigenvalues --    4.94743   5.02112   5.09662   5.10472   5.12479
 Alpha virt. eigenvalues --    5.19802   5.20226   5.27741   5.29877   5.32628
 Alpha virt. eigenvalues --    5.59214   5.60661   5.74975   5.92238   6.02865
 Alpha virt. eigenvalues --    6.11724   7.03305   7.03608   7.10594   7.13709
 Alpha virt. eigenvalues --    7.17203   7.17224   7.17870   7.17936   7.22342
 Alpha virt. eigenvalues --    7.22513   7.22856   7.28295   7.30616   7.32265
 Alpha virt. eigenvalues --    7.35692   7.35766   7.39846   7.52348   7.81740
 Alpha virt. eigenvalues --    7.84184   7.86674   8.06490   8.08986   8.20470
 Alpha virt. eigenvalues --    8.40913   8.54728   8.67263   8.72780   9.25307
 Alpha virt. eigenvalues --    9.35693  20.15527  20.16430  20.18279  20.19631
 Alpha virt. eigenvalues --   20.23638  20.25747  20.26738  20.29139  20.51884
 Alpha virt. eigenvalues --   20.53706  25.37534  25.63368  68.95359  69.00045
          Condensed to atoms (all electrons):
              1          2          3          4          5          6
     1  C    5.053741  -0.120183  -0.112127  -0.049573  -0.049574   0.039800
     2  C   -0.120183   5.053741   0.039800   0.470015   0.470015  -0.112127
     3  F   -0.112127   0.039800   9.687331  -0.029921  -0.029921   0.004443
     4  H   -0.049573   0.470015  -0.029921   0.506732  -0.022843  -0.000658
     5  H   -0.049574   0.470015  -0.029921  -0.022843   0.506733  -0.000658
     6  F    0.039800  -0.112127   0.004443  -0.000658  -0.000658   9.687331
     7  H    0.470015  -0.049573  -0.000658  -0.007542   0.003588  -0.029921
     8  H    0.470015  -0.049574  -0.000658   0.003588  -0.007542  -0.029921
              7          8
     1  C    0.470015   0.470015
     2  C   -0.049573  -0.049574
     3  F   -0.000658  -0.000658
     4  H   -0.007542   0.003588
     5  H    0.003588  -0.007542
     6  F   -0.029921  -0.029921
     7  H    0.506732  -0.022843
     8  H   -0.022843   0.506733
 Mulliken atomic charges:
              1
     1  C    0.297886
     2  C    0.297886
     3  F   -0.558289
     4  H    0.130202
     5  H    0.130202
     6  F   -0.558289
     7  H    0.130202
     8  H    0.130202
 Sum of Mulliken charges=   0.00000
 Atomic charges with hydrogens summed into heavy atoms:
              1
     1  C    0.558289
     2  C    0.558289
     3  F   -0.558289
     4  H    0.000000
     5  H    0.000000
     6  F   -0.558289
     7  H    0.000000
     8  H    0.000000
 Sum of Mulliken charges=   0.00000
 Electronic spatial extent (au):  <R**2>=   315.5264
 Charge=     0.0000 electrons
 Dipole moment (field-independent basis, Debye):
    X=     0.0000    Y=     0.0000    Z=     0.0000  Tot=     0.0000
 Quadrupole moment (field-independent basis, Debye-Ang):
   XX=   -21.9551   YY=   -30.3247   ZZ=   -21.3073
   XY=    -3.6320   XZ=     0.0000   YZ=     0.0000
 Traceless Quadrupole moment (field-independent basis, Debye-Ang):
   XX=     2.5739   YY=    -5.7957   ZZ=     3.2217
   XY=    -3.6320   XZ=     0.0000   YZ=     0.0000
 Octapole moment (field-independent basis, Debye-Ang**2):
  XXX=     0.0000  YYY=     0.0000  ZZZ=     0.0000  XYY=     0.0000
  XXY=     0.0000  XXZ=     0.0000  XZZ=     0.0000  YZZ=     0.0000
  YYZ=     0.0000  XYZ=     0.0000
 Hexadecapole moment (field-independent basis, Debye-Ang**3):
 XXXX=   -59.7507 YYYY=  -253.6014 ZZZZ=   -30.0598 XXXY=    -9.2408
 XXXZ=     0.0000 YYYX=   -14.7446 YYYZ=     0.0000 ZZZX=     0.0000
 ZZZY=     0.0000 XXYY=   -48.4455 XXZZ=   -12.9261 YYZZ=   -42.9504
 XXYZ=     0.0000 YYXZ=     0.0000 ZZXY=    -4.3430
 N-N= 1.255217020767D+02 E-N=-9.095622898791D+02  KE= 2.767332861215D+02
 Symmetry A    KE= 1.399507357207D+02
 Symmetry B    KE= 1.367825504008D+02
 1\1\GINC-DCOPT154\SP\RMP2-FC\6-311+G(3df,2p)\C2H4F2\WSCHNEI1\18-Oct-20
 07\0\\#N Geom=AllCheck Guess=Read SCRF=Check MP2/6-311+G(3df,2p)\\t-C2
 H4F2 G2\\0,1\C,0,0.0173826203,0.0000266017,0.0140126041\C,0,-0.0173826
 203,0.0000266017,1.5245873959\F,0,1.3016332269,0.0000359242,1.97789796
 26\H,0,-0.5241041906,0.8917924641,1.9004333197\H,0,-0.5240913627,-0.89
 17458381,1.9004350936\F,0,-1.3016332269,0.0000359242,-0.4392979626\H,0
 ,0.5241041906,0.8917924641,-0.3618333197\H,0,0.5240913627,-0.891745838
 1,-0.3618350936\\Version=AM64L-G03RevD.01\State=1-A\HF=-277.0287403\MP
 2=-277.8722765\RMSD=2.046e-09\Thermal=0.\PG=C02 [X(C2H4F2)]\\@


 KINETICS       FACT
 ---------  =  -------
 MECHANISM     FICTION
 Diagonal vibrational polarizability:
        0.0000000       0.0000000       0.0000000

 Temperature=              298.150000 Pressure=                      1.000000
 E(ZPE)=                     0.059194 E(Thermal)=                    0.063672
 E(QCISD(T))=             -277.750582 E(Empiric)=                   -0.079820
 DE(Plus)=                  -0.016825 DE(2DF)=                      -0.140696
 G1(0 K)=                 -277.928728 G1 Energy=                  -277.924250
 G1 Enthalpy=             -277.923306 G1 Free Energy=             -277.955177
 E(Delta-G2)=               -0.019433 E(G2-Empiric)=                 0.014820
 G2(0 K)=                 -277.933341 G2 Energy=                  -277.928863
 G2 Enthalpy=             -277.927919 G2 Free Energy=             -277.959790
 DE(MP2)=                   -0.169349
 G2MP2(0 K)=              -277.925736 G2MP2 Energy=               -277.921259
 G2MP2 Enthalpy=          -277.920314 G2MP2 Free Energy=          -277.952186
 1\1\GINC-DCOPT154\Mixed\G2\G2\C2H4F2\WSCHNEI1\18-Oct-2007\0\\#N G2\\t-
 C2H4F2 G2\\0,1\C,0,0.0173826203,0.0000266017,0.0140126041\C,0,-0.01738
 26203,0.0000266017,1.5245873959\F,0,1.3016332269,0.0000359242,1.977897
 9626\H,0,-0.5241041906,0.8917924641,1.9004333197\H,0,-0.5240913627,-0.
 8917458381,1.9004350936\F,0,-1.3016332269,0.0000359242,-0.4392979626\H
 ,0,0.5241041906,0.8917924641,-0.3618333197\H,0,0.5240913627,-0.8917458
 381,-0.3618350936\\Version=AM64L-G03RevD.01\State=1-A\MP2/6-311G(d,p)=
 -277.7029275\QCISD(T)/6-311G(d,p)=-277.7505816\MP4/6-311G(d,p)=-277.75
 19891\MP2/6-311+G(d,p)=-277.7186871\MP4/6-311+G(d,p)=-277.7688138\MP2/
 6-311G(2df,p)=-277.8370839\MP4/6-311G(2df,p)=-277.8926846\MP2/6-311+G(
 3df,2p)=-277.8722765\G1=-277.9287275\G2MP2=-277.9257362\G2=-277.933340
 7\FreqCoord=0.0294460156,0.0000544462,0.0254503153,-0.0294460156,0.000
 0544462,2.8820823144,2.4151442567,0.0000105187,3.7274383903,-0.9740179
 665,1.6674738211,3.5922317244,-0.9740798198,-1.6673325189,3.5922273365
 ,-2.4151442567,0.0000105187,-0.8199057606,0.9740179665,1.6674738211,-0
 .6846990948,0.9740798198,-1.6673325189,-0.6846947068\PG=C02 [X(C2H4F2)
 ]\NImag=0\\0.62610166,-0.00000190,0.73142235,-0.04241750,-0.00000121,0
 .61532355,-0.07877665,-0.00000024,0.03425644,0.62610166,0.00000024,-0.
 11150294,0.00000022,0.00000190,0.73142235,0.03425644,-0.00000022,-0.26
 635043,-0.04241750,0.00000121,0.61532355,-0.02537952,0.00000045,-0.003
 64468,-0.30007638,0.00000388,-0.07959962,0.39854088,0.00000044,0.00220
 609,-0.00000013,0.00000418,-0.08269383,0.00000148,-0.00000613,0.056647
 98,-0.05372070,0.00000068,-0.00312324,-0.07485905,0.00000117,-0.107581
 81,0.12178609,-0.00000177,0.10331408,0.00142985,0.00214101,0.00083795,
 -0.11236063,0.09383269,0.04486325,-0.03857275,0.03334989,0.00588407,0.
 13518747,0.00017992,0.00256898,0.00298185,0.10318065,-0.27228835,-0.08
 593170,0.00195702,0.01003303,0.00364137,-0.11616006,0.27956495,0.01990
 046,-0.03691557,-0.01230947,0.04846810,-0.08626850,-0.10682478,-0.0143
 7300,0.01496170,0.00882596,-0.04684412,0.09223481,0.10459468,0.0014294
 5,-0.00214127,0.00083787,-0.11236779,-0.09383853,0.04486629,-0.0385738
 1,-0.03334804,0.00588384,0.01223707,0.01285713,-0.00539791,0.13519599,
 -0.00018010,0.00256885,-0.00298163,-0.10318623,-0.27228113,0.08592931,
 -0.00195518,0.01003438,-0.00364156,-0.01285837,-0.02311530,0.01213622,
 0.11616521,0.27955659,0.01990117,0.03691510,-0.01230936,0.04847109,0.0
 8626613,-0.10682445,-0.01437349,-0.01496120,0.00882600,-0.00539840,-0.
 01213610,0.00809713,-0.04684700,-0.09223257,0.10459394,-0.30007638,-0.
 00000388,-0.07959962,-0.02537952,-0.00000045,-0.00364468,0.00008034,-0
 .00000005,-0.00746027,0.00199058,-0.00181361,-0.00116761,0.00199067,0.
 00181369,-0.00116740,0.39854088,-0.00000418,-0.08269383,-0.00000148,-0
 .00000044,0.00220609,0.00000013,0.00000005,0.00303627,0.,-0.00051576,0
 .00036802,0.00238016,0.00051605,0.00036805,-0.00238009,0.00000613,0.05
 664798,-0.07485905,-0.00000117,-0.10758181,-0.05372070,-0.00000068,-0.
 00312324,-0.00746027,0.,-0.01721130,0.00124318,-0.00076266,0.00347496,
 0.00124284,0.00076257,0.00347536,0.12178609,0.00000177,0.10331408,-0.1
 1236063,-0.09383269,0.04486325,0.00142985,-0.00214101,0.00083795,0.001
 99058,0.00051576,0.00124318,0.00008481,-0.00020580,-0.00007699,0.00000
 361,-0.00000481,-0.00050894,-0.03857275,-0.03334989,0.00588407,0.13518
 747,-0.10318065,-0.27228835,0.08593170,-0.00017992,0.00256898,-0.00298
 185,0.00181361,0.00036802,0.00076266,0.00020580,0.00120744,0.00074940,
 -0.00000475,0.00166123,-0.00072185,-0.00195702,0.01003303,-0.00364137,
 0.11616006,0.27956495,0.04846810,0.08626850,-0.10682478,0.01990046,0.0
 3691557,-0.01230947,-0.00116761,-0.00238016,0.00347496,-0.00007699,-0.
 00074940,0.00230211,-0.00050892,-0.00072178,-0.00816059,-0.01437300,-0
 .01496170,0.00882596,-0.04684412,-0.09223481,0.10459468,-0.11236779,0.
 09383853,0.04486629,0.00142945,0.00214127,0.00083787,0.00199067,-0.000
 51605,0.00124284,0.00000361,0.00000475,-0.00050892,0.00008482,0.000205
 79,-0.00007702,-0.03857381,0.03334804,0.00588384,0.01223707,-0.0128571
 3,-0.00539791,0.13519599,0.10318623,-0.27228113,-0.08592931,0.00018010
 ,0.00256885,0.00298163,-0.00181369,0.00036805,-0.00076257,0.00000481,0
 .00166123,0.00072178,-0.00020579,0.00120734,-0.00074943,0.00195518,0.0
 1003438,0.00364156,0.01285837,-0.02311530,-0.01213622,-0.11616521,0.27
 955659,0.04847109,-0.08626613,-0.10682445,0.01990117,-0.03691510,-0.01
 230936,-0.00116740,0.00238009,0.00347536,-0.00050894,0.00072185,-0.008
 16059,-0.00007702,0.00074943,0.00230197,-0.01437349,0.01496120,0.00882
 600,-0.00539840,0.01213610,0.00809713,-0.04684700,0.09223257,0.1045939
 4\\0.00020782,0.00000019,0.00002041,-0.00020782,0.00000019,-0.00002041
 ,0.00021751,-0.00000018,0.00001463,-0.00007864,0.00018461,0.00008983,-
 0.00007900,-0.00018463,0.00009013,-0.00021751,-0.00000018,-0.00001463,
 0.00007864,0.00018461,-0.00008983,0.00007900,-0.00018463,-0.00009013\\
 \@
 Job cpu time:  0 days  0 hours  0 minutes  2.0 seconds.
 File lengths (MBytes):  RWF=    766 Int=      0 D2E=      0 Chk=     12 Scr=      1
 Normal termination of Gaussian 03 at Thu Oct 18 11:17:35 2007.
