 Entering Gaussian System, Link 0=g03
 Input=C2H4F2-opt2.com
 Output=C2H4F2-opt2.log
 Initial command:
 /opt/und/gaussian/03D01/linux86-64/g03/l1.exe /scratch/Gau-8588.inp -scrdir=/scratch/
 Entering Link 1 = /opt/und/gaussian/03D01/linux86-64/g03/l1.exe PID=      8589.
  
 Copyright (c) 1988,1990,1992,1993,1995,1998,2003,2004, Gaussian, Inc.
                  All Rights Reserved.
  
 This is the Gaussian(R) 03 program.  It is based on the
 the Gaussian(R) 98 system (copyright 1998, Gaussian, Inc.),
 the Gaussian(R) 94 system (copyright 1995, Gaussian, Inc.),
 the Gaussian 92(TM) system (copyright 1992, Gaussian, Inc.),
 the Gaussian 90(TM) system (copyright 1990, Gaussian, Inc.),
 the Gaussian 88(TM) system (copyright 1988, Gaussian, Inc.),
 the Gaussian 86(TM) system (copyright 1986, Carnegie Mellon
 University), and the Gaussian 82(TM) system (copyright 1983,
 Carnegie Mellon University). Gaussian is a federally registered
 trademark of Gaussian, Inc.
  
 This software contains proprietary and confidential information,
 including trade secrets, belonging to Gaussian, Inc.
  
 This software is provided under written license and may be
 used, copied, transmitted, or stored only in accord with that
 written license.
  
 The following legend is applicable only to US Government
 contracts under FAR:
  
                    RESTRICTED RIGHTS LEGEND
  
 Use, reproduction and disclosure by the US Government is
 subject to restrictions as set forth in subparagraphs (a)
 and (c) of the Commercial Computer Software - Restricted
 Rights clause in FAR 52.227-19.
  
 Gaussian, Inc.
 340 Quinnipiac St., Bldg. 40, Wallingford CT 06492
  
  
 ---------------------------------------------------------------
 Warning -- This program may not be used in any manner that
 competes with the business of Gaussian, Inc. or will provide
 assistance to any competitor of Gaussian, Inc.  The licensee
 of this program is prohibited from giving any competitor of
 Gaussian, Inc. access to this program.  By using this program,
 the user acknowledges that Gaussian, Inc. is engaged in the
 business of creating and licensing software in the field of
 computational chemistry and represents and warrants to the
 licensee that it is not a competitor of Gaussian, Inc. and that
 it will not use this program in any manner prohibited above.
 ---------------------------------------------------------------
  

 Cite this work as:
 Gaussian 03, Revision D.01,
 M. J. Frisch, G. W. Trucks, H. B. Schlegel, G. E. Scuseria, 
 M. A. Robb, J. R. Cheeseman, J. A. Montgomery, Jr., T. Vreven, 
 K. N. Kudin, J. C. Burant, J. M. Millam, S. S. Iyengar, J. Tomasi, 
 V. Barone, B. Mennucci, M. Cossi, G. Scalmani, N. Rega, 
 G. A. Petersson, H. Nakatsuji, M. Hada, M. Ehara, K. Toyota, 
 R. Fukuda, J. Hasegawa, M. Ishida, T. Nakajima, Y. Honda, O. Kitao, 
 H. Nakai, M. Klene, X. Li, J. E. Knox, H. P. Hratchian, J. B. Cross, 
 V. Bakken, C. Adamo, J. Jaramillo, R. Gomperts, R. E. Stratmann, 
 O. Yazyev, A. J. Austin, R. Cammi, C. Pomelli, J. W. Ochterski, 
 P. Y. Ayala, K. Morokuma, G. A. Voth, P. Salvador, J. J. Dannenberg, 
 V. G. Zakrzewski, S. Dapprich, A. D. Daniels, M. C. Strain, 
 O. Farkas, D. K. Malick, A. D. Rabuck, K. Raghavachari, 
 J. B. Foresman, J. V. Ortiz, Q. Cui, A. G. Baboul, S. Clifford, 
 J. Cioslowski, B. B. Stefanov, G. Liu, A. Liashenko, P. Piskorz, 
 I. Komaromi, R. L. Martin, D. J. Fox, T. Keith, M. A. Al-Laham, 
 C. Y. Peng, A. Nanayakkara, M. Challacombe, P. M. W. Gill, 
 B. Johnson, W. Chen, M. W. Wong, C. Gonzalez, and J. A. Pople, 
 Gaussian, Inc., Wallingford CT, 2004.
 
 ******************************************
 Gaussian 03:  AM64L-G03RevD.01 13-Oct-2005
                 3-Oct-2007 
 ******************************************
 %chk=C2H4F2-opt2.chk
 %mem=6MW
 %nproc=1
 Will use up to    1 processors via shared memory.
 ---------------
 #P HF/3-21G opt
 ---------------
 1/18=20,38=1/1,3;
 2/9=110,17=6,18=5,40=1/2;
 3/5=5,11=9,16=1,25=1,30=1/1,2,3;
 4//1;
 5/5=2,38=5/2;
 6/7=2,8=2,9=2,10=2,28=1/1;
 7//1,2,3,16;
 1/18=20/3(3);
 2/9=110/2;
 6/7=2,8=2,9=2,10=2,19=2,28=1/1;
 99//99;
 2/9=110/2;
 3/5=5,11=9,16=1,25=1,30=1/1,2,3;
 4/5=5,16=3/1;
 5/5=2,38=5/2;
 7//1,2,3,16;
 1/18=20/3(-5);
 2/9=110/2;
 6/7=2,8=2,9=2,10=2,19=2,28=1/1;
 99/9=1/99;
 Leave Link    1 at Wed Oct  3 22:57:09 2007, MaxMem=    6291456 cpu:       0.8
 (Enter /opt/und/gaussian/03D01/linux86-64/g03/l101.exe)
 -----------
 C2H4F2 Scan
 -----------
 Symbolic Z-matrix:
 Charge =  0 Multiplicity = 1
 C
 C                    1    r1
 F                    2    r2       1    A1
 H                    2    r3       1    A2       3    D1       0
 H                    2    r3       1    A2       3    D2       0
 F                    1    r2       2    A1       3    D3       0
 H                    1    r3       2    A2       6    D1       0
 H                    1    r3       2    A2       6    D2       0
       Variables:
  r1                    1.5386                   
  r2                    1.39462                  
  r3                    1.11456                  
  D1                  120.47127                  
  D2                 -120.48305                  
  A1                  109.54214                  
  D3                  180.                       
  A2                  110.09239                  
 
                    Isotopes and Nuclear Properties:
 (Nuclear quadrupole moments (NQMom) in fm**2, nuclear magnetic moments (NMagM)
  in nuclear magnetons)

  Atom         1           2           3           4           5           6           7           8
 IAtWgt=          12          12          19           1           1          19           1           1
 AtmWgt=  12.0000000  12.0000000  18.9984033   1.0078250   1.0078250  18.9984033   1.0078250   1.0078250
 NucSpn=           0           0           1           1           1           1           1           1
 AtZEff=   0.0000000   0.0000000   0.0000000   0.0000000   0.0000000   0.0000000   0.0000000   0.0000000
 NQMom=    0.0000000   0.0000000  -9.4200000   0.0000000   0.0000000  -9.4200000   0.0000000   0.0000000
 NMagM=    0.0000000   0.0000000   2.6288670   2.7928460   2.7928460   2.6288670   2.7928460   2.7928460
 Leave Link  101 at Wed Oct  3 22:57:10 2007, MaxMem=    6291456 cpu:       0.6
 (Enter /opt/und/gaussian/03D01/linux86-64/g03/l103.exe)

 GradGradGradGradGradGradGradGradGradGradGradGradGradGradGradGradGradGrad
 Berny optimization.
 Initialization pass.
                           ----------------------------
                           !    Initial Parameters    !
                           ! (Angstroms and Degrees)  !
 --------------------------                            --------------------------
 ! Name  Definition              Value          Derivative Info.                !
 --------------------------------------------------------------------------------
 ! R1    R(1,2)                  1.5386         estimate D2E/DX2                !
 ! R2    R(1,6)                  1.3946         estimate D2E/DX2                !
 ! R3    R(1,7)                  1.1146         estimate D2E/DX2                !
 ! R4    R(1,8)                  1.1146         estimate D2E/DX2                !
 ! R5    R(2,3)                  1.3946         estimate D2E/DX2                !
 ! R6    R(2,4)                  1.1146         estimate D2E/DX2                !
 ! R7    R(2,5)                  1.1146         estimate D2E/DX2                !
 ! A1    A(2,1,6)              109.5421         estimate D2E/DX2                !
 ! A2    A(2,1,7)              110.0924         estimate D2E/DX2                !
 ! A3    A(2,1,8)              110.0924         estimate D2E/DX2                !
 ! A4    A(6,1,7)              109.5055         estimate D2E/DX2                !
 ! A5    A(6,1,8)              109.515          estimate D2E/DX2                !
 ! A6    A(7,1,8)              108.0709         estimate D2E/DX2                !
 ! A7    A(1,2,3)              109.5421         estimate D2E/DX2                !
 ! A8    A(1,2,4)              110.0924         estimate D2E/DX2                !
 ! A9    A(1,2,5)              110.0924         estimate D2E/DX2                !
 ! A10   A(3,2,4)              109.5055         estimate D2E/DX2                !
 ! A11   A(3,2,5)              109.515          estimate D2E/DX2                !
 ! A12   A(4,2,5)              108.0709         estimate D2E/DX2                !
 ! D1    D(6,1,2,3)            180.0            estimate D2E/DX2                !
 ! D2    D(6,1,2,4)            -59.5287         estimate D2E/DX2                !
 ! D3    D(6,1,2,5)             59.5169         estimate D2E/DX2                !
 ! D4    D(7,1,2,3)            -59.5287         estimate D2E/DX2                !
 ! D5    D(7,1,2,4)             60.9425         estimate D2E/DX2                !
 ! D6    D(7,1,2,5)            179.9882         estimate D2E/DX2                !
 ! D7    D(8,1,2,3)             59.5169         estimate D2E/DX2                !
 ! D8    D(8,1,2,4)            179.9882         estimate D2E/DX2                !
 ! D9    D(8,1,2,5)            -60.9661         estimate D2E/DX2                !
 --------------------------------------------------------------------------------
 Trust Radius=3.00D-01 FncErr=1.00D-07 GrdErr=1.00D-07
 Number of steps in this run=  38 maximum allowed number of steps= 100.
 GradGradGradGradGradGradGradGradGradGradGradGradGradGradGradGradGradGrad

 Leave Link  103 at Wed Oct  3 22:57:10 2007, MaxMem=    6291456 cpu:       0.1
 (Enter /opt/und/gaussian/03D01/linux86-64/g03/l202.exe)
                          Input orientation:                          
 ---------------------------------------------------------------------
 Center     Atomic     Atomic              Coordinates (Angstroms)
 Number     Number      Type              X           Y           Z
 ---------------------------------------------------------------------
    1          6             0        0.000000    0.000000    0.000000
    2          6             0        0.000000    0.000000    1.538600
    3          9             0        1.314284    0.000000    2.005100
    4          1             0       -0.530802    0.902157    1.921490
    5          1             0       -0.530988   -0.902048    1.921490
    6          9             0       -1.314284    0.000000   -0.466500
    7          1             0        0.530802    0.902157   -0.382890
    8          1             0        0.530988   -0.902048   -0.382890
 ---------------------------------------------------------------------
                    Distance matrix (angstroms):
                    1          2          3          4          5
     1  C    0.000000
     2  C    1.538600   0.000000
     3  F    2.397451   1.394620   0.000000
     4  H    2.188096   1.114560   2.055534   0.000000
     5  H    2.188096   1.114560   2.055653   1.804206   0.000000
     6  F    1.394620   2.397451   3.608072   2.670249   2.670158
     7  H    1.114560   2.188096   2.670249   2.537159   3.113314
     8  H    1.114560   2.188096   2.670158   3.113314   2.537314
                    6          7          8
     6  F    0.000000
     7  H    2.055534   0.000000
     8  H    2.055653   1.804206   0.000000
 Stoichiometry    C2H4F2
 Framework group  C2[X(C2H4F2)]
 Deg. of freedom    10
 Full point group                 C2
 Largest Abelian subgroup         C2      NOp   2
 Largest concise Abelian subgroup C2      NOp   2
                         Standard orientation:                         
 ---------------------------------------------------------------------
 Center     Atomic     Atomic              Coordinates (Angstroms)
 Number     Number      Type              X           Y           Z
 ---------------------------------------------------------------------
    1          6             0        0.421731    0.643402   -0.000006
    2          6             0       -0.421731   -0.643402   -0.000006
    3          9             0        0.421731   -1.754049   -0.000006
    4          1             0       -1.075566   -0.672645    0.902151
    5          1             0       -1.075721   -0.672543   -0.902055
    6          9             0       -0.421731    1.754049   -0.000006
    7          1             0        1.075566    0.672645    0.902151
    8          1             0        1.075721    0.672543   -0.902055
 ---------------------------------------------------------------------
 Rotational constants (GHZ):     31.6590595      3.7448772      3.5009698
 Leave Link  202 at Wed Oct  3 22:57:11 2007, MaxMem=    6291456 cpu:       0.6
 (Enter /opt/und/gaussian/03D01/linux86-64/g03/l301.exe)
 Standard basis: 3-21G (6D, 7F)
 There are    22 symmetry adapted basis functions of A   symmetry.
 There are    22 symmetry adapted basis functions of B   symmetry.
 Integral buffers will be    131072 words long.
 Raffenetti 1 integral format.
 Two-electron integral symmetry is turned on.
    44 basis functions,    72 primitive gaussians,    44 cartesian basis functions
    17 alpha electrons       17 beta electrons
       nuclear repulsion energy       124.0242934875 Hartrees.
 IExCor=   0 DFT=F Ex=HF Corr=None ExCW=0 ScaHFX=  1.000000
 ScaDFX=  1.000000  1.000000  1.000000  1.000000
 IRadAn=      0 IRanWt=     -1 IRanGd=            0 ICorTp=0
 NAtoms=    8 NActive=    8 NUniq=    4 SFac= 3.00D+00 NAtFMM=   80 NAOKFM=F Big=F
 Leave Link  301 at Wed Oct  3 22:57:11 2007, MaxMem=    6291456 cpu:       0.1
 (Enter /opt/und/gaussian/03D01/linux86-64/g03/linda-exe/l302.exel)
 NPDir=0 NMtPBC=     1 NCelOv=     1 NCel=       1 NClECP=     1 NCelD=      1
         NCelK=      1 NCelE2=     1 NClLst=     1 CellRange=     0.0.
 One-electron integrals computed using PRISM.
 One-electron integral symmetry used in STVInt
 NBasis=    44 RedAO= T  NBF=    22    22
 NBsUse=    44 1.00D-06 NBFU=    22    22
 Leave Link  302 at Wed Oct  3 22:57:12 2007, MaxMem=    6291456 cpu:       0.1
 (Enter /opt/und/gaussian/03D01/linux86-64/g03/l303.exe)
 DipDrv:  MaxL=1.
 Leave Link  303 at Wed Oct  3 22:57:13 2007, MaxMem=    6291456 cpu:       0.0
 (Enter /opt/und/gaussian/03D01/linux86-64/g03/l401.exe)
 Harris functional with IExCor=  205 diagonalized for initial guess.
 ExpMin= 1.83D-01 ExpMax= 4.14D+02 ExpMxC= 4.14D+02 IAcc=1 IRadAn=         1 AccDes= 1.00D-06
 HarFok:  IExCor= 205 AccDes= 1.00D-06 IRadAn=         1 IDoV=1
 ScaDFX=  1.000000  1.000000  1.000000  1.000000
 Harris En= -275.508095487934    
 Initial guess orbital symmetries:
       Occupied  (B) (A) (B) (A) (A) (B) (A) (B) (A) (B) (A) (A)
                 (B) (B) (A) (A) (B)
       Virtual   (B) (A) (A) (B) (A) (B) (B) (B) (A) (A) (B) (A)
                 (B) (A) (A) (B) (B) (A) (A) (B) (B) (A) (A) (B)
                 (B) (A) (B)
 The electronic state of the initial guess is 1-A.
 Leave Link  401 at Wed Oct  3 22:57:13 2007, MaxMem=    6291456 cpu:       0.1
 (Enter /opt/und/gaussian/03D01/linux86-64/g03/linda-exe/l502.exel)
 Closed shell SCF:
 Requested convergence on RMS density matrix=1.00D-08 within 128 cycles.
 Requested convergence on MAX density matrix=1.00D-06.
 Requested convergence on             energy=1.00D-06.
 No special actions if energy rises.
 Using DIIS extrapolation, IDIIS=  1040.
 Integral symmetry usage will be decided dynamically.
 Keep R1 integrals in memory in canonical form, NReq=     1360589.
 IEnd=     24490 IEndB=     24490 NGot=   6291456 MDV=   5795028
 LenX=   5795028
 Symmetry not used in FoFDir.
 MinBra= 0 MaxBra= 1 Meth= 1.
 IRaf=       0 NMat=   1 IRICut=       1 DoRegI=T DoRafI=F ISym2E= 0 JSym2E=0.

 Cycle   1  Pass 1  IDiag  1:
 E= -275.342014858311    
 DIIS: error= 4.80D-02 at cycle   1 NSaved=   1.
 NSaved= 1 IEnMin= 1 EnMin= -275.342014858311     IErMin= 1 ErrMin= 4.80D-02
 ErrMax= 4.80D-02 EMaxC= 1.00D-01 BMatC= 1.59D-01 BMatP= 1.59D-01
 IDIUse=3 WtCom= 5.20D-01 WtEn= 4.80D-01
 Coeff-Com:  0.100D+01
 Coeff-En:   0.100D+01
 Coeff:      0.100D+01
 Gap=     0.756 Goal=   None    Shift=    0.000
 GapD=    0.756 DampG=2.000 DampE=0.500 DampFc=1.0000 IDamp=-1.
 RMSDP=6.19D-03 MaxDP=4.95D-02              OVMax= 4.96D-02

 Cycle   2  Pass 1  IDiag  1:
 E= -275.410307832352     Delta-E=       -0.068292974041 Rises=F Damp=F
 DIIS: error= 1.07D-02 at cycle   2 NSaved=   2.
 NSaved= 2 IEnMin= 2 EnMin= -275.410307832352     IErMin= 2 ErrMin= 1.07D-02
 ErrMax= 1.07D-02 EMaxC= 1.00D-01 BMatC= 6.80D-03 BMatP= 1.59D-01
 IDIUse=3 WtCom= 8.93D-01 WtEn= 1.07D-01
 Coeff-Com:  0.715D-01 0.929D+00
 Coeff-En:   0.000D+00 0.100D+01
 Coeff:      0.638D-01 0.936D+00
 Gap=     0.758 Goal=   None    Shift=    0.000
 RMSDP=1.67D-03 MaxDP=1.32D-02 DE=-6.83D-02 OVMax= 1.66D-02

 Cycle   3  Pass 1  IDiag  1:
 E= -275.415185157829     Delta-E=       -0.004877325477 Rises=F Damp=F
 DIIS: error= 3.23D-03 at cycle   3 NSaved=   3.
 NSaved= 3 IEnMin= 3 EnMin= -275.415185157829     IErMin= 3 ErrMin= 3.23D-03
 ErrMax= 3.23D-03 EMaxC= 1.00D-01 BMatC= 2.99D-04 BMatP= 6.80D-03
 IDIUse=3 WtCom= 9.68D-01 WtEn= 3.23D-02
 Coeff-Com: -0.175D-01 0.131D+00 0.886D+00
 Coeff-En:   0.000D+00 0.000D+00 0.100D+01
 Coeff:     -0.169D-01 0.127D+00 0.890D+00
 Gap=     0.753 Goal=   None    Shift=    0.000
 RMSDP=3.56D-04 MaxDP=3.06D-03 DE=-4.88D-03 OVMax= 3.43D-03

 Cycle   4  Pass 1  IDiag  1:
 E= -275.415481391988     Delta-E=       -0.000296234158 Rises=F Damp=F
 DIIS: error= 4.37D-04 at cycle   4 NSaved=   4.
 NSaved= 4 IEnMin= 4 EnMin= -275.415481391988     IErMin= 4 ErrMin= 4.37D-04
 ErrMax= 4.37D-04 EMaxC= 1.00D-01 BMatC= 8.21D-06 BMatP= 2.99D-04
 IDIUse=3 WtCom= 9.96D-01 WtEn= 4.37D-03
 Coeff-Com: -0.304D-02 0.907D-02 0.110D+00 0.884D+00
 Coeff-En:   0.000D+00 0.000D+00 0.000D+00 0.100D+01
 Coeff:     -0.303D-02 0.903D-02 0.110D+00 0.884D+00
 Gap=     0.753 Goal=   None    Shift=    0.000
 RMSDP=6.33D-05 MaxDP=4.67D-04 DE=-2.96D-04 OVMax= 6.62D-04

 Cycle   5  Pass 1  IDiag  1:
 E= -275.415488410619     Delta-E=       -0.000007018632 Rises=F Damp=F
 DIIS: error= 1.69D-04 at cycle   5 NSaved=   5.
 NSaved= 5 IEnMin= 5 EnMin= -275.415488410619     IErMin= 5 ErrMin= 1.69D-04
 ErrMax= 1.69D-04 EMaxC= 1.00D-01 BMatC= 1.31D-06 BMatP= 8.21D-06
 IDIUse=3 WtCom= 9.98D-01 WtEn= 1.69D-03
 Coeff-Com:  0.177D-02-0.179D-01-0.981D-01 0.196D+00 0.919D+00
 Coeff-En:   0.000D+00 0.000D+00 0.000D+00 0.000D+00 0.100D+01
 Coeff:      0.176D-02-0.179D-01-0.979D-01 0.195D+00 0.919D+00
 Gap=     0.753 Goal=   None    Shift=    0.000
 RMSDP=3.13D-05 MaxDP=1.74D-04 DE=-7.02D-06 OVMax= 2.29D-04

 Cycle   6  Pass 1  IDiag  1:
 E= -275.415489543685     Delta-E=       -0.000001133065 Rises=F Damp=F
 DIIS: error= 2.15D-05 at cycle   6 NSaved=   6.
 NSaved= 6 IEnMin= 6 EnMin= -275.415489543685     IErMin= 6 ErrMin= 2.15D-05
 ErrMax= 2.15D-05 EMaxC= 1.00D-01 BMatC= 1.89D-08 BMatP= 1.31D-06
 IDIUse=1 WtCom= 1.00D+00 WtEn= 0.00D+00
 Coeff-Com: -0.506D-03 0.570D-02 0.314D-01-0.696D-01-0.368D+00 0.140D+01
 Coeff:     -0.506D-03 0.570D-02 0.314D-01-0.696D-01-0.368D+00 0.140D+01
 Gap=     0.753 Goal=   None    Shift=    0.000
 RMSDP=6.38D-06 MaxDP=3.16D-05 DE=-1.13D-06 OVMax= 7.95D-05

 Cycle   7  Pass 1  IDiag  1:
 E= -275.415489583899     Delta-E=       -0.000000040215 Rises=F Damp=F
 DIIS: error= 3.56D-06 at cycle   7 NSaved=   7.
 NSaved= 7 IEnMin= 7 EnMin= -275.415489583899     IErMin= 7 ErrMin= 3.56D-06
 ErrMax= 3.56D-06 EMaxC= 1.00D-01 BMatC= 6.57D-10 BMatP= 1.89D-08
 IDIUse=1 WtCom= 1.00D+00 WtEn= 0.00D+00
 Coeff-Com:  0.134D-03-0.158D-02-0.857D-02 0.208D-01 0.104D+00-0.529D+00
 Coeff-Com:  0.141D+01
 Coeff:      0.134D-03-0.158D-02-0.857D-02 0.208D-01 0.104D+00-0.529D+00
 Coeff:      0.141D+01
 Gap=     0.753 Goal=   None    Shift=    0.000
 RMSDP=1.35D-06 MaxDP=1.11D-05 DE=-4.02D-08 OVMax= 1.83D-05

 Cycle   8  Pass 1  IDiag  1:
 E= -275.415489585412     Delta-E=       -0.000000001513 Rises=F Damp=F
 DIIS: error= 3.48D-07 at cycle   8 NSaved=   8.
 NSaved= 8 IEnMin= 8 EnMin= -275.415489585412     IErMin= 8 ErrMin= 3.48D-07
 ErrMax= 3.48D-07 EMaxC= 1.00D-01 BMatC= 7.37D-12 BMatP= 6.57D-10
 IDIUse=1 WtCom= 1.00D+00 WtEn= 0.00D+00
 Coeff-Com: -0.196D-04 0.237D-03 0.124D-02-0.285D-02-0.164D-01 0.876D-01
 Coeff-Com: -0.297D+00 0.123D+01
 Coeff:     -0.196D-04 0.237D-03 0.124D-02-0.285D-02-0.164D-01 0.876D-01
 Coeff:     -0.297D+00 0.123D+01
 Gap=     0.753 Goal=   None    Shift=    0.000
 RMSDP=1.43D-07 MaxDP=1.35D-06 DE=-1.51D-09 OVMax= 1.77D-06

 Cycle   9  Pass 1  IDiag  1:
 E= -275.415489585427     Delta-E=       -0.000000000015 Rises=F Damp=F
 DIIS: error= 5.58D-08 at cycle   9 NSaved=   9.
 NSaved= 9 IEnMin= 9 EnMin= -275.415489585427     IErMin= 9 ErrMin= 5.58D-08
 ErrMax= 5.58D-08 EMaxC= 1.00D-01 BMatC= 1.00D-13 BMatP= 7.37D-12
 IDIUse=1 WtCom= 1.00D+00 WtEn= 0.00D+00
 Coeff-Com:  0.413D-05-0.502D-04-0.261D-03 0.593D-03 0.356D-02-0.197D-01
 Coeff-Com:  0.702D-01-0.367D+00 0.131D+01
 Coeff:      0.413D-05-0.502D-04-0.261D-03 0.593D-03 0.356D-02-0.197D-01
 Coeff:      0.702D-01-0.367D+00 0.131D+01
 Gap=     0.753 Goal=   None    Shift=    0.000
 RMSDP=1.94D-08 MaxDP=9.90D-08 DE=-1.51D-11 OVMax= 2.98D-07

 Cycle  10  Pass 1  IDiag  1:
 E= -275.415489585426     Delta-E=        0.000000000001 Rises=F Damp=F
 DIIS: error= 1.13D-08 at cycle  10 NSaved=  10.
 NSaved=10 IEnMin= 9 EnMin= -275.415489585427     IErMin=10 ErrMin= 1.13D-08
 ErrMax= 1.13D-08 EMaxC= 1.00D-01 BMatC= 3.38D-15 BMatP= 1.00D-13
 IDIUse=1 WtCom= 1.00D+00 WtEn= 0.00D+00
 Coeff-Com: -0.131D-05 0.159D-04 0.830D-04-0.191D-03-0.113D-02 0.634D-02
 Coeff-Com: -0.227D-01 0.126D+00-0.531D+00 0.142D+01
 Coeff:     -0.131D-05 0.159D-04 0.830D-04-0.191D-03-0.113D-02 0.634D-02
 Coeff:     -0.227D-01 0.126D+00-0.531D+00 0.142D+01
 Gap=     0.753 Goal=   None    Shift=    0.000
 RMSDP=3.24D-09 MaxDP=1.86D-08 DE= 1.36D-12 OVMax= 5.11D-08

 SCF Done:  E(RHF) =  -275.415489585     A.U. after   10 cycles
             Convg  =    0.3241D-08             -V/T =  2.0035
             S**2   =   0.0000
 KE= 2.744440912937D+02 PE=-9.023575065652D+02 EE= 2.284736321986D+02
 Leave Link  502 at Wed Oct  3 22:57:14 2007, MaxMem=    6291456 cpu:       0.2
 (Enter /opt/und/gaussian/03D01/linux86-64/g03/l601.exe)
 Copying SCF densities to generalized density rwf, ISCF=0 IROHF=0.

 **********************************************************************

            Population analysis using the SCF density.

 **********************************************************************

 Orbital symmetries:
       Occupied  (B) (A) (B) (A) (A) (B) (A) (B) (A) (B) (A) (B)
                 (A) (B) (A) (A) (B)
       Virtual   (B) (A) (A) (B) (B) (B) (A) (A) (B) (A) (A) (B)
                 (B) (A) (A) (B) (B) (A) (B) (A) (B) (A) (B) (A)
                 (B) (A) (B)
 The electronic state is 1-A.
 Alpha  occ. eigenvalues --  -26.14844 -26.14839 -11.27536 -11.27496  -1.58207
 Alpha  occ. eigenvalues --   -1.57621  -1.03614  -0.87300  -0.72631  -0.69854
 Alpha  occ. eigenvalues --   -0.69354  -0.66887  -0.63428  -0.60532  -0.54872
 Alpha  occ. eigenvalues --   -0.49711  -0.49581
 Alpha virt. eigenvalues --    0.25746   0.26366   0.29223   0.32092   0.35677
 Alpha virt. eigenvalues --    0.42458   0.43715   0.90877   0.95151   0.96881
 Alpha virt. eigenvalues --    0.99100   0.99791   1.13684   1.20759   1.27702
 Alpha virt. eigenvalues --    1.30847   1.32887   1.76254   2.16534   2.31357
 Alpha virt. eigenvalues --    2.35199   2.36669   2.46689   2.47760   2.48147
 Alpha virt. eigenvalues --    3.94466   4.02707
          Condensed to atoms (all electrons):
              1          2          3          4          5          6
     1  C    5.100389   0.160207  -0.026584  -0.050376  -0.050380   0.197274
     2  C    0.160207   5.100389   0.197274   0.350174   0.350160  -0.026584
     3  F   -0.026584   0.197274   9.275490  -0.025093  -0.025085   0.000030
     4  H   -0.050376   0.350174  -0.025093   0.546002  -0.037034   0.001953
     5  H   -0.050380   0.350160  -0.025085  -0.037034   0.546012   0.001954
     6  F    0.197274  -0.026584   0.000030   0.001953   0.001954   9.275490
     7  H    0.350174  -0.050376   0.001953  -0.004682   0.003653  -0.025093
     8  H    0.350160  -0.050380   0.001954   0.003653  -0.004680  -0.025085
              7          8
     1  C    0.350174   0.350160
     2  C   -0.050376  -0.050380
     3  F    0.001953   0.001954
     4  H   -0.004682   0.003653
     5  H    0.003653  -0.004680
     6  F   -0.025093  -0.025085
     7  H    0.546002  -0.037034
     8  H   -0.037034   0.546012
 Mulliken atomic charges:
              1
     1  C   -0.030863
     2  C   -0.030863
     3  F   -0.399939
     4  H    0.215401
     5  H    0.215400
     6  F   -0.399939
     7  H    0.215401
     8  H    0.215400
 Sum of Mulliken charges=   0.00000
 Atomic charges with hydrogens summed into heavy atoms:
              1
     1  C    0.399939
     2  C    0.399939
     3  F   -0.399939
     4  H    0.000000
     5  H    0.000000
     6  F   -0.399939
     7  H    0.000000
     8  H    0.000000
 Sum of Mulliken charges=   0.00000
 Electronic spatial extent (au):  <R**2>=   324.1655
 Charge=     0.0000 electrons
 Dipole moment (field-independent basis, Debye):
    X=     0.0000    Y=     0.0000    Z=     0.0000  Tot=     0.0000
 Quadrupole moment (field-independent basis, Debye-Ang):
   XX=   -21.7520   YY=   -30.8055   ZZ=   -21.4080
   XY=     3.5201   XZ=     0.0000   YZ=     0.0000
 Traceless Quadrupole moment (field-independent basis, Debye-Ang):
   XX=     2.9031   YY=    -6.1503   ZZ=     3.2472
   XY=     3.5201   XZ=     0.0000   YZ=     0.0000
 Octapole moment (field-independent basis, Debye-Ang**2):
  XXX=     0.0000  YYY=     0.0000  ZZZ=     0.0003  XYY=     0.0000
  XXY=     0.0000  XXZ=    -0.0003  XZZ=     0.0000  YZZ=     0.0000
  YYZ=     0.0002  XYZ=     0.0001
 Hexadecapole moment (field-independent basis, Debye-Ang**3):
 XXXX=   -56.9796 YYYY=  -252.3374 ZZZZ=   -29.8398 XXXY=     6.3291
 XXXZ=     0.0000 YYYX=    13.3525 YYYZ=     0.0000 ZZZX=     0.0000
 ZZZY=     0.0000 XXYY=   -47.8771 XXZZ=   -12.5988 YYZZ=   -41.8366
 XXYZ=     0.0000 YYXZ=     0.0000 ZZXY=     2.8986
 N-N= 1.240242934875D+02 E-N=-9.023575065517D+02  KE= 2.744440912937D+02
 Symmetry A    KE= 1.387842043220D+02
 Symmetry B    KE= 1.356598869717D+02
 No NMR shielding tensors so no spin-rotation constants.
 Leave Link  601 at Wed Oct  3 22:57:14 2007, MaxMem=    6291456 cpu:       0.2
 (Enter /opt/und/gaussian/03D01/linux86-64/g03/linda-exe/l701.exel)
 Compute integral first derivatives.
 ... and contract with generalized density number  0.
 Leave Link  701 at Wed Oct  3 22:57:15 2007, MaxMem=    6291456 cpu:       0.2
 (Enter /opt/und/gaussian/03D01/linux86-64/g03/l702.exe)
 L702 exits ... SP integral derivatives will be done elsewhere.
 Leave Link  702 at Wed Oct  3 22:57:16 2007, MaxMem=    6291456 cpu:       0.0
 (Enter /opt/und/gaussian/03D01/linux86-64/g03/linda-exe/l703.exel)
 Compute integral first derivatives, UseDBF=F.
 Integral derivatives from FoFDir, PRISM(SPDF).
 Petite list used in FoFDir.
 MinBra= 0 MaxBra= 1 Meth= 1.
 IRaf=       0 NMat=   1 IRICut=       1 DoRegI=T DoRafI=F ISym2E= 1 JSym2E=1.
 Leave Link  703 at Wed Oct  3 22:57:16 2007, MaxMem=    6291456 cpu:       0.2
 (Enter /opt/und/gaussian/03D01/linux86-64/g03/l716.exe)
 Dipole        = 1.77635684D-15 1.95399252D-14 2.44256417D-06
 ***** Axes restored to original set *****
 -------------------------------------------------------------------
 Center     Atomic                   Forces (Hartrees/Bohr)
 Number     Number              X              Y              Z
 -------------------------------------------------------------------
    1          6           0.034526250    0.000020290   -0.007794667
    2          6          -0.034526250    0.000020290    0.007794667
    3          9           0.003266680   -0.000012609   -0.004126355
    4          1           0.011515898   -0.018688577   -0.008911308
    5          1           0.011535733    0.018680896   -0.008905745
    6          9          -0.003266680   -0.000012609    0.004126355
    7          1          -0.011515898   -0.018688577    0.008911308
    8          1          -0.011535733    0.018680896    0.008905745
 -------------------------------------------------------------------
 Cartesian Forces:  Max     0.034526250 RMS     0.014151469
 Leave Link  716 at Wed Oct  3 22:57:17 2007, MaxMem=    6291456 cpu:       0.0
 (Enter /opt/und/gaussian/03D01/linux86-64/g03/l103.exe)

 GradGradGradGradGradGradGradGradGradGradGradGradGradGradGradGradGradGrad
 Berny optimization.
 Internal  Forces:  Max     0.023674208 RMS     0.009807242
 Search for a local minimum.
 Step number   1 out of a maximum of  38
 All quantities printed in internal units (Hartrees-Bohrs-Radians)
 Second derivative matrix not updated -- first step.
     Eigenvalues ---    0.00255   0.05647   0.05647   0.05916   0.05916
     Eigenvalues ---    0.16000   0.16000   0.16000   0.16000   0.22374
     Eigenvalues ---    0.22374   0.28643   0.32122   0.32122   0.32122
     Eigenvalues ---    0.32122   0.46524   0.465241000.000001000.00000
     Eigenvalues --- 1000.000001000.000001000.000001000.000001000.00000
     Eigenvalues --- 1000.000001000.000001000.00000
 RFO step:  Lambda=-8.63871474D-03.
 Linear search not attempted -- first point.
 Iteration  1 RMS(Cart)=  0.03827645 RMS(Int)=  0.00032861
 Iteration  2 RMS(Cart)=  0.00024889 RMS(Int)=  0.00009746
 Iteration  3 RMS(Cart)=  0.00000007 RMS(Int)=  0.00009746
 Variable       Old X    -DE/DX   Delta X   Delta X   Delta X     New X
                                 (Linear)    (Quad)   (Total)
    R1        2.90753  -0.01415   0.00000  -0.04795  -0.04795   2.85958
    R2        2.63545   0.00170   0.00000   0.00358   0.00358   2.63903
    R3        2.10621  -0.02367   0.00000  -0.07177  -0.07177   2.03445
    R4        2.10621  -0.02367   0.00000  -0.07177  -0.07177   2.03444
    R5        2.63545   0.00170   0.00000   0.00358   0.00358   2.63903
    R6        2.10621  -0.02367   0.00000  -0.07177  -0.07177   2.03445
    R7        2.10621  -0.02367   0.00000  -0.07177  -0.07177   2.03444
    A1        1.91187  -0.00937   0.00000  -0.04315  -0.04333   1.86854
    A2        1.92147   0.00063   0.00000   0.00313   0.00301   1.92449
    A3        1.92147   0.00063   0.00000   0.00311   0.00299   1.92446
    A4        1.91123   0.00367   0.00000   0.01149   0.01131   1.92255
    A5        1.91140   0.00365   0.00000   0.01128   0.01110   1.92250
    A6        1.88619   0.00101   0.00000   0.01519   0.01512   1.90132
    A7        1.91187  -0.00937   0.00000  -0.04315  -0.04333   1.86854
    A8        1.92147   0.00063   0.00000   0.00313   0.00301   1.92449
    A9        1.92147   0.00063   0.00000   0.00311   0.00299   1.92446
   A10        1.91123   0.00367   0.00000   0.01149   0.01131   1.92255
   A11        1.91140   0.00365   0.00000   0.01128   0.01110   1.92250
   A12        1.88619   0.00101   0.00000   0.01519   0.01512   1.90132
    D1        3.14159  -0.00001   0.00000  -0.00017  -0.00017   3.14142
    D2       -1.03897  -0.00102   0.00000  -0.01133  -0.01130  -1.05027
    D3        1.03877   0.00101   0.00000   0.01127   0.01124   1.05000
    D4       -1.03897  -0.00102   0.00000  -0.01133  -0.01130  -1.05027
    D5        1.06365  -0.00202   0.00000  -0.02250  -0.02243   1.04122
    D6        3.14139   0.00001   0.00000   0.00011   0.00010   3.14149
    D7        1.03877   0.00101   0.00000   0.01127   0.01124   1.05000
    D8        3.14139   0.00001   0.00000   0.00011   0.00010   3.14149
    D9       -1.06406   0.00204   0.00000   0.02271   0.02264  -1.04142
         Item               Value     Threshold  Converged?
 Maximum Force            0.023674     0.000450     NO 
 RMS     Force            0.009807     0.000300     NO 
 Maximum Displacement     0.074053     0.001800     NO 
 RMS     Displacement     0.038432     0.001200     NO 
 Predicted change in Energy=-4.443395D-03
 GradGradGradGradGradGradGradGradGradGradGradGradGradGradGradGradGradGrad

 Leave Link  103 at Wed Oct  3 22:57:17 2007, MaxMem=    6291456 cpu:       0.3
 (Enter /opt/und/gaussian/03D01/linux86-64/g03/l202.exe)
                          Input orientation:                          
 ---------------------------------------------------------------------
 Center     Atomic     Atomic              Coordinates (Angstroms)
 Number     Number      Type              X           Y           Z
 ---------------------------------------------------------------------
    1          6             0        0.017349    0.000045    0.012886
    2          6             0       -0.017349    0.000045    1.525714
    3          9             0        1.307974   -0.000070    1.965913
    4          1             0       -0.528121    0.876187    1.886986
    5          1             0       -0.528212   -0.876053    1.886957
    6          9             0       -1.307974   -0.000070   -0.427313
    7          1             0        0.528121    0.876187   -0.348386
    8          1             0        0.528212   -0.876053   -0.348357
 ---------------------------------------------------------------------
                    Distance matrix (angstroms):
                    1          2          3          4          5
     1  C    0.000000
     2  C    1.513226   0.000000
     3  F    2.340946   1.396516   0.000000
     4  H    2.139489   1.076583   2.036001   0.000000
     5  H    2.139469   1.076581   2.035967   1.752241   0.000000
     6  F    1.396516   2.340946   3.545521   2.594606   2.594460
     7  H    1.076583   2.139489   2.594606   2.472355   3.030338
     8  H    1.076581   2.139469   2.594460   3.030338   2.472380
                    6          7          8
     6  F    0.000000
     7  H    2.036001   0.000000
     8  H    2.035967   1.752241   0.000000
 Stoichiometry    C2H4F2
 Framework group  C2[X(C2H4F2)]
 Deg. of freedom    10
 Full point group                 C2
 Largest Abelian subgroup         C2      NOp   2
 Largest concise Abelian subgroup C2      NOp   2
                         Standard orientation:                         
 ---------------------------------------------------------------------
 Center     Atomic     Atomic              Coordinates (Angstroms)
 Number     Number      Type              X           Y           Z
 ---------------------------------------------------------------------
    1          6             0       -0.723322   -0.221966    0.000058
    2          6             0        0.723322    0.221966    0.000058
    3          9             0        0.723322    1.618483   -0.000056
    4          1             0        1.227178   -0.148889    0.876200
    5          1             0        1.227179   -0.148985   -0.876040
    6          9             0       -0.723322   -1.618483   -0.000056
    7          1             0       -1.227178    0.148889    0.876200
    8          1             0       -1.227179    0.148985   -0.876040
 ---------------------------------------------------------------------
 Rotational constants (GHZ):     31.8539645      3.8984887      3.6276945
 Leave Link  202 at Wed Oct  3 22:57:18 2007, MaxMem=    6291456 cpu:       0.1
 (Enter /opt/und/gaussian/03D01/linux86-64/g03/l301.exe)
 Standard basis: 3-21G (6D, 7F)
 There are    22 symmetry adapted basis functions of A   symmetry.
 There are    22 symmetry adapted basis functions of B   symmetry.
 Integral buffers will be    131072 words long.
 Raffenetti 1 integral format.
 Two-electron integral symmetry is turned on.
    44 basis functions,    72 primitive gaussians,    44 cartesian basis functions
    17 alpha electrons       17 beta electrons
       nuclear repulsion energy       125.8301036934 Hartrees.
 IExCor=   0 DFT=F Ex=HF Corr=None ExCW=0 ScaHFX=  1.000000
 ScaDFX=  1.000000  1.000000  1.000000  1.000000
 IRadAn=      0 IRanWt=     -1 IRanGd=            0 ICorTp=0
 NAtoms=    8 NActive=    8 NUniq=    4 SFac= 3.00D+00 NAtFMM=   80 NAOKFM=F Big=F
 Leave Link  301 at Wed Oct  3 22:57:18 2007, MaxMem=    6291456 cpu:       0.1
 (Enter /opt/und/gaussian/03D01/linux86-64/g03/linda-exe/l302.exel)
 NPDir=0 NMtPBC=     1 NCelOv=     1 NCel=       1 NClECP=     1 NCelD=      1
         NCelK=      1 NCelE2=     1 NClLst=     1 CellRange=     0.0.
 One-electron integrals computed using PRISM.
 One-electron integral symmetry used in STVInt
 NBasis=    44 RedAO= T  NBF=    22    22
 NBsUse=    44 1.00D-06 NBFU=    22    22
 Leave Link  302 at Wed Oct  3 22:57:19 2007, MaxMem=    6291456 cpu:       0.1
 (Enter /opt/und/gaussian/03D01/linux86-64/g03/l303.exe)
 DipDrv:  MaxL=1.
 Leave Link  303 at Wed Oct  3 22:57:19 2007, MaxMem=    6291456 cpu:       0.0
 (Enter /opt/und/gaussian/03D01/linux86-64/g03/l401.exe)
 Initial guess read from the read-write file:
 Guess basis will be translated and rotated to current coordinates.
 Initial guess orbital symmetries:
       Occupied  (B) (A) (B) (A) (A) (B) (A) (B) (A) (B) (A) (B)
                 (A) (B) (A) (A) (B)
       Virtual   (B) (A) (A) (B) (B) (B) (A) (A) (B) (A) (A) (B)
                 (B) (A) (A) (B) (B) (A) (B) (A) (B) (A) (B) (A)
                 (B) (A) (B)
 The electronic state of the initial guess is 1-A.
 Generating alternative initial guess.
 Harris functional with IExCor=  205 diagonalized for initial guess.
 ExpMin= 1.83D-01 ExpMax= 4.14D+02 ExpMxC= 4.14D+02 IAcc=1 IRadAn=         1 AccDes= 1.00D-06
 HarFok:  IExCor= 205 AccDes= 1.00D-06 IRadAn=         1 IDoV=1
 ScaDFX=  1.000000  1.000000  1.000000  1.000000
 Harris En= -275.518927758223    
 Leave Link  401 at Wed Oct  3 22:57:20 2007, MaxMem=    6291456 cpu:       0.2
 (Enter /opt/und/gaussian/03D01/linux86-64/g03/linda-exe/l502.exel)
 Closed shell SCF:
 Requested convergence on RMS density matrix=1.00D-08 within 128 cycles.
 Requested convergence on MAX density matrix=1.00D-06.
 Requested convergence on             energy=1.00D-06.
 No special actions if energy rises.
 Using DIIS extrapolation, IDIIS=  1040.
 Integral symmetry usage will be decided dynamically.
 Keep R1 integrals in memory in canonical form, NReq=     1360589.
 IEnd=     24490 IEndB=     24490 NGot=   6291456 MDV=   5795028
 LenX=   5795028
 Symmetry not used in FoFDir.
 MinBra= 0 MaxBra= 1 Meth= 1.
 IRaf=       0 NMat=   1 IRICut=       1 DoRegI=T DoRafI=F ISym2E= 0 JSym2E=0.

 Cycle   1  Pass 1  IDiag  1:
 E= -273.147725483889    
 DIIS: error= 1.97D-01 at cycle   1 NSaved=   1.
 NSaved= 1 IEnMin= 1 EnMin= -273.147725483889     IErMin= 1 ErrMin= 1.97D-01
 ErrMax= 1.97D-01 EMaxC= 1.00D-01 BMatC= 1.23D+00 BMatP= 1.23D+00
 IDIUse=3 WtCom= 0.00D+00 WtEn= 1.00D+00
 Coeff-Com:  0.100D+01
 Coeff-En:   0.100D+01
 Coeff:      0.100D+01
 Recover alternate guess density for next cycle.
 RMSDP=4.50D-02 MaxDP=3.36D-01              OVMax= 0.00D+00

 Cycle   2  Pass 1  IDiag  1:
 E= -275.339401869151     Delta-E=       -2.191676385261 Rises=F Damp=F
 DIIS: error= 4.77D-02 at cycle   2 NSaved=   2.
 NSaved= 2 IEnMin= 2 EnMin= -275.339401869151     IErMin= 2 ErrMin= 4.77D-02
 ErrMax= 4.77D-02 EMaxC= 1.00D-01 BMatC= 1.65D-01 BMatP= 1.23D+00
 IDIUse=3 WtCom= 5.23D-01 WtEn= 4.77D-01
 Coeff-Com:  0.936D-01 0.906D+00
 Coeff-En:   0.000D+00 0.100D+01
 Coeff:      0.490D-01 0.951D+00
 Gap=     0.465 Goal=   None    Shift=    0.000
 RMSDP=6.51D-03 MaxDP=5.37D-02 DE=-2.19D+00 OVMax= 5.71D-01

 Cycle   3  Pass 1  IDiag  1:
 E= -275.413765713712     Delta-E=       -0.074363844561 Rises=F Damp=F
 DIIS: error= 1.17D-02 at cycle   3 NSaved=   3.
 NSaved= 3 IEnMin= 3 EnMin= -275.413765713712     IErMin= 3 ErrMin= 1.17D-02
 ErrMax= 1.17D-02 EMaxC= 1.00D-01 BMatC= 7.92D-03 BMatP= 1.65D-01
 IDIUse=3 WtCom= 8.83D-01 WtEn= 1.17D-01
 Coeff-Com: -0.198D-03 0.867D-01 0.914D+00
 Coeff-En:   0.000D+00 0.000D+00 0.100D+01
 Coeff:     -0.175D-03 0.765D-01 0.924D+00
 Gap=     0.771 Goal=   None    Shift=    0.000
 RMSDP=1.70D-03 MaxDP=1.40D-02 DE=-7.44D-02 OVMax= 1.67D-02

 Cycle   4  Pass 1  IDiag  1:
 E= -275.419466957619     Delta-E=       -0.005701243907 Rises=F Damp=F
 DIIS: error= 2.99D-03 at cycle   4 NSaved=   4.
 NSaved= 4 IEnMin= 4 EnMin= -275.419466957619     IErMin= 4 ErrMin= 2.99D-03
 ErrMax= 2.99D-03 EMaxC= 1.00D-01 BMatC= 2.82D-04 BMatP= 7.92D-03
 IDIUse=3 WtCom= 9.70D-01 WtEn= 2.99D-02
 Coeff-Com: -0.110D-02-0.172D-01 0.116D+00 0.902D+00
 Coeff-En:   0.000D+00 0.000D+00 0.000D+00 0.100D+01
 Coeff:     -0.107D-02-0.167D-01 0.113D+00 0.905D+00
 Gap=     0.763 Goal=   None    Shift=    0.000
 RMSDP=3.62D-04 MaxDP=2.80D-03 DE=-5.70D-03 OVMax= 3.05D-03

 Cycle   5  Pass 1  IDiag  1:
 E= -275.419743652982     Delta-E=       -0.000276695363 Rises=F Damp=F
 DIIS: error= 2.61D-04 at cycle   5 NSaved=   5.
 NSaved= 5 IEnMin= 5 EnMin= -275.419743652982     IErMin= 5 ErrMin= 2.61D-04
 ErrMax= 2.61D-04 EMaxC= 1.00D-01 BMatC= 4.57D-06 BMatP= 2.82D-04
 IDIUse=3 WtCom= 9.97D-01 WtEn= 2.61D-03
 Coeff-Com: -0.373D-03 0.898D-03-0.153D-01-0.776D-01 0.109D+01
 Coeff-En:   0.000D+00 0.000D+00 0.000D+00 0.000D+00 0.100D+01
 Coeff:     -0.372D-03 0.895D-03-0.152D-01-0.774D-01 0.109D+01
 Gap=     0.763 Goal=   None    Shift=    0.000
 RMSDP=7.38D-05 MaxDP=3.57D-04 DE=-2.77D-04 OVMax= 6.55D-04

 Cycle   6  Pass 1  IDiag  1:
 E= -275.419749547622     Delta-E=       -0.000005894640 Rises=F Damp=F
 DIIS: error= 1.45D-04 at cycle   6 NSaved=   6.
 NSaved= 6 IEnMin= 6 EnMin= -275.419749547622     IErMin= 6 ErrMin= 1.45D-04
 ErrMax= 1.45D-04 EMaxC= 1.00D-01 BMatC= 9.36D-07 BMatP= 4.57D-06
 IDIUse=3 WtCom= 9.99D-01 WtEn= 1.45D-03
 Coeff-Com:  0.817D-04 0.147D-02-0.141D-01-0.905D-01 0.337D+00 0.766D+00
 Coeff-En:   0.000D+00 0.000D+00 0.000D+00 0.000D+00 0.000D+00 0.100D+01
 Coeff:      0.816D-04 0.147D-02-0.141D-01-0.904D-01 0.337D+00 0.766D+00
 Gap=     0.763 Goal=   None    Shift=    0.000
 RMSDP=1.98D-05 MaxDP=8.76D-05 DE=-5.89D-06 OVMax= 1.95D-04

 Cycle   7  Pass 1  IDiag  1:
 E= -275.419750250588     Delta-E=       -0.000000702966 Rises=F Damp=F
 DIIS: error= 1.82D-05 at cycle   7 NSaved=   7.
 NSaved= 7 IEnMin= 7 EnMin= -275.419750250588     IErMin= 7 ErrMin= 1.82D-05
 ErrMax= 1.82D-05 EMaxC= 1.00D-01 BMatC= 1.51D-08 BMatP= 9.36D-07
 IDIUse=1 WtCom= 1.00D+00 WtEn= 0.00D+00
 Coeff-Com: -0.142D-04-0.282D-03 0.309D-02 0.208D-01-0.102D+00-0.216D+00
 Coeff-Com:  0.129D+01
 Coeff:     -0.142D-04-0.282D-03 0.309D-02 0.208D-01-0.102D+00-0.216D+00
 Coeff:      0.129D+01
 Gap=     0.763 Goal=   None    Shift=    0.000
 RMSDP=5.34D-06 MaxDP=2.73D-05 DE=-7.03D-07 OVMax= 7.28D-05

 Cycle   8  Pass 1  IDiag  1:
 E= -275.419750286173     Delta-E=       -0.000000035585 Rises=F Damp=F
 DIIS: error= 5.23D-06 at cycle   8 NSaved=   8.
 NSaved= 8 IEnMin= 8 EnMin= -275.419750286173     IErMin= 8 ErrMin= 5.23D-06
 ErrMax= 5.23D-06 EMaxC= 1.00D-01 BMatC= 8.08D-10 BMatP= 1.51D-08
 IDIUse=1 WtCom= 1.00D+00 WtEn= 0.00D+00
 Coeff-Com:  0.208D-05 0.864D-04-0.954D-03-0.668D-02 0.351D-01 0.730D-01
 Coeff-Com: -0.576D+00 0.148D+01
 Coeff:      0.208D-05 0.864D-04-0.954D-03-0.668D-02 0.351D-01 0.730D-01
 Coeff:     -0.576D+00 0.148D+01
 Gap=     0.763 Goal=   None    Shift=    0.000
 RMSDP=1.52D-06 MaxDP=1.02D-05 DE=-3.56D-08 OVMax= 2.13D-05

 Cycle   9  Pass 1  IDiag  1:
 E= -275.419750288463     Delta-E=       -0.000000002290 Rises=F Damp=F
 DIIS: error= 1.28D-06 at cycle   9 NSaved=   9.
 NSaved= 9 IEnMin= 9 EnMin= -275.419750288463     IErMin= 9 ErrMin= 1.28D-06
 ErrMax= 1.28D-06 EMaxC= 1.00D-01 BMatC= 2.78D-11 BMatP= 8.08D-10
 IDIUse=1 WtCom= 1.00D+00 WtEn= 0.00D+00
 Coeff-Com: -0.225D-06-0.193D-04 0.211D-03 0.150D-02-0.803D-02-0.181D-01
 Coeff-Com:  0.155D+00-0.526D+00 0.140D+01
 Coeff:     -0.225D-06-0.193D-04 0.211D-03 0.150D-02-0.803D-02-0.181D-01
 Coeff:      0.155D+00-0.526D+00 0.140D+01
 Gap=     0.763 Goal=   None    Shift=    0.000
 RMSDP=3.12D-07 MaxDP=1.96D-06 DE=-2.29D-09 OVMax= 5.37D-06

 Cycle  10  Pass 1  IDiag  1:
 E= -275.419750288544     Delta-E=       -0.000000000080 Rises=F Damp=F
 DIIS: error= 1.58D-07 at cycle  10 NSaved=  10.
 NSaved=10 IEnMin=10 EnMin= -275.419750288544     IErMin=10 ErrMin= 1.58D-07
 ErrMax= 1.58D-07 EMaxC= 1.00D-01 BMatC= 7.55D-13 BMatP= 2.78D-11
 IDIUse=1 WtCom= 1.00D+00 WtEn= 0.00D+00
 Coeff-Com:  0.397D-07 0.426D-05-0.465D-04-0.342D-03 0.184D-02 0.466D-02
 Coeff-Com: -0.411D-01 0.154D+00-0.525D+00 0.141D+01
 Coeff:      0.397D-07 0.426D-05-0.465D-04-0.342D-03 0.184D-02 0.466D-02
 Coeff:     -0.411D-01 0.154D+00-0.525D+00 0.141D+01
 Gap=     0.763 Goal=   None    Shift=    0.000
 RMSDP=4.47D-08 MaxDP=2.93D-07 DE=-8.04D-11 OVMax= 7.44D-07

 Cycle  11  Pass 1  IDiag  1:
 E= -275.419750288545     Delta-E=       -0.000000000001 Rises=F Damp=F
 DIIS: error= 2.16D-08 at cycle  11 NSaved=  11.
 NSaved=11 IEnMin=11 EnMin= -275.419750288545     IErMin=11 ErrMin= 2.16D-08
 ErrMax= 2.16D-08 EMaxC= 1.00D-01 BMatC= 2.05D-14 BMatP= 7.55D-13
 IDIUse=1 WtCom= 1.00D+00 WtEn= 0.00D+00
 Coeff-Com: -0.209D-07-0.130D-05 0.140D-04 0.105D-03-0.564D-03-0.137D-02
 Coeff-Com:  0.125D-01-0.475D-01 0.169D+00-0.543D+00 0.141D+01
 Coeff:     -0.209D-07-0.130D-05 0.140D-04 0.105D-03-0.564D-03-0.137D-02
 Coeff:      0.125D-01-0.475D-01 0.169D+00-0.543D+00 0.141D+01
 Gap=     0.763 Goal=   None    Shift=    0.000
 RMSDP=7.98D-09 MaxDP=3.72D-08 DE=-1.25D-12 OVMax= 1.24D-07

 SCF Done:  E(RHF) =  -275.419750289     A.U. after   11 cycles
             Convg  =    0.7977D-08             -V/T =  2.0025
             S**2   =   0.0000
 KE= 2.747286559589D+02 PE=-9.062457010019D+02 EE= 2.302671910611D+02
 Leave Link  502 at Wed Oct  3 22:57:20 2007, MaxMem=    6291456 cpu:       0.3
 (Enter /opt/und/gaussian/03D01/linux86-64/g03/linda-exe/l701.exel)
 Compute integral first derivatives.
 ... and contract with generalized density number  0.
 Leave Link  701 at Wed Oct  3 22:57:21 2007, MaxMem=    6291456 cpu:       0.2
 (Enter /opt/und/gaussian/03D01/linux86-64/g03/l702.exe)
 L702 exits ... SP integral derivatives will be done elsewhere.
 Leave Link  702 at Wed Oct  3 22:57:21 2007, MaxMem=    6291456 cpu:       0.0
 (Enter /opt/und/gaussian/03D01/linux86-64/g03/linda-exe/l703.exel)
 Compute integral first derivatives, UseDBF=F.
 Integral derivatives from FoFDir, PRISM(SPDF).
 Petite list used in FoFDir.
 MinBra= 0 MaxBra= 1 Meth= 1.
 IRaf=       0 NMat=   1 IRICut=       1 DoRegI=T DoRafI=F ISym2E= 1 JSym2E=1.
 Leave Link  703 at Wed Oct  3 22:57:22 2007, MaxMem=    6291456 cpu:       0.2
 (Enter /opt/und/gaussian/03D01/linux86-64/g03/l716.exe)
 Dipole        = 2.66453526D-15-1.01030295D-14 1.36635115D-04
 ***** Axes restored to original set *****
 -------------------------------------------------------------------
 Center     Atomic                   Forces (Hartrees/Bohr)
 Number     Number              X              Y              Z
 -------------------------------------------------------------------
    1          6           0.006018844   -0.000004106    0.002323570
    2          6          -0.006018844   -0.000004106   -0.002323570
    3          9           0.004889440    0.000004287    0.002618998
    4          1           0.000617605    0.001248997    0.000751705
    5          1           0.000612351   -0.001249178    0.000750062
    6          9          -0.004889440    0.000004287   -0.002618998
    7          1          -0.000617605    0.001248997   -0.000751705
    8          1          -0.000612351   -0.001249178   -0.000750062
 -------------------------------------------------------------------
 Cartesian Forces:  Max     0.006018844 RMS     0.002539616
 Leave Link  716 at Wed Oct  3 22:57:23 2007, MaxMem=    6291456 cpu:       0.0
 (Enter /opt/und/gaussian/03D01/linux86-64/g03/l103.exe)

 GradGradGradGradGradGradGradGradGradGradGradGradGradGradGradGradGradGrad
 Berny optimization.
 Internal  Forces:  Max     0.005465722 RMS     0.001670887
 Search for a local minimum.
 Step number   2 out of a maximum of  38
 All quantities printed in internal units (Hartrees-Bohrs-Radians)
 Update second derivatives using D2CorX and points  1  2
 Trust test= 9.59D-01 RLast= 1.71D-01 DXMaxT set to 4.24D-01
     Eigenvalues ---    0.00255   0.05800   0.05893   0.05927   0.05927
     Eigenvalues ---    0.16000   0.16000   0.16000   0.16045   0.22436
     Eigenvalues ---    0.23024   0.28940   0.32122   0.32122   0.32122
     Eigenvalues ---    0.32696   0.46524   0.482731000.000001000.00000
     Eigenvalues --- 1000.000001000.000001000.000001000.000001000.00000
     Eigenvalues --- 1000.000001000.000001000.00000
 RFO step:  Lambda=-2.09527290D-04.
 Quartic linear search produced a step of -0.04340.
 Iteration  1 RMS(Cart)=  0.00679074 RMS(Int)=  0.00002754
 Iteration  2 RMS(Cart)=  0.00002259 RMS(Int)=  0.00001898
 Iteration  3 RMS(Cart)=  0.00000000 RMS(Int)=  0.00001898
 Variable       Old X    -DE/DX   Delta X   Delta X   Delta X     New X
                                 (Linear)    (Quad)   (Total)
    R1        2.85958   0.00179   0.00208   0.00251   0.00459   2.86417
    R2        2.63903   0.00547  -0.00016   0.01148   0.01133   2.65036
    R3        2.03445   0.00098   0.00311  -0.00225   0.00086   2.03531
    R4        2.03444   0.00098   0.00311  -0.00225   0.00087   2.03531
    R5        2.63903   0.00547  -0.00016   0.01148   0.01133   2.65036
    R6        2.03445   0.00098   0.00311  -0.00225   0.00086   2.03531
    R7        2.03444   0.00098   0.00311  -0.00225   0.00087   2.03531
    A1        1.86854   0.00133   0.00188   0.00027   0.00216   1.87071
    A2        1.92449   0.00041  -0.00013   0.00443   0.00428   1.92877
    A3        1.92446   0.00041  -0.00013   0.00444   0.00429   1.92875
    A4        1.92255  -0.00117  -0.00049  -0.00869  -0.00917   1.91337
    A5        1.92250  -0.00116  -0.00048  -0.00864  -0.00911   1.91339
    A6        1.90132   0.00018  -0.00066   0.00792   0.00721   1.90853
    A7        1.86854   0.00133   0.00188   0.00027   0.00216   1.87071
    A8        1.92449   0.00041  -0.00013   0.00443   0.00428   1.92877
    A9        1.92446   0.00041  -0.00013   0.00444   0.00429   1.92875
   A10        1.92255  -0.00117  -0.00049  -0.00869  -0.00917   1.91337
   A11        1.92250  -0.00116  -0.00048  -0.00864  -0.00911   1.91339
   A12        1.90132   0.00018  -0.00066   0.00792   0.00721   1.90853
    D1        3.14142   0.00000   0.00001   0.00019   0.00020  -3.14157
    D2       -1.05027  -0.00037   0.00049  -0.00763  -0.00716  -1.05743
    D3        1.05000   0.00038  -0.00049   0.00794   0.00747   1.05747
    D4       -1.05027  -0.00037   0.00049  -0.00763  -0.00716  -1.05743
    D5        1.04122  -0.00075   0.00097  -0.01545  -0.01451   1.02670
    D6        3.14149   0.00000   0.00000   0.00012   0.00011  -3.14158
    D7        1.05000   0.00038  -0.00049   0.00794   0.00747   1.05747
    D8        3.14149   0.00000   0.00000   0.00012   0.00011  -3.14158
    D9       -1.04142   0.00075  -0.00098   0.01569   0.01474  -1.02668
         Item               Value     Threshold  Converged?
 Maximum Force            0.005466     0.000450     NO 
 RMS     Force            0.001671     0.000300     NO 
 Maximum Displacement     0.018358     0.001800     NO 
 RMS     Displacement     0.006795     0.001200     NO 
 Predicted change in Energy=-1.133142D-04
 GradGradGradGradGradGradGradGradGradGradGradGradGradGradGradGradGradGrad

 Leave Link  103 at Wed Oct  3 22:57:23 2007, MaxMem=    6291456 cpu:       0.1
 (Enter /opt/und/gaussian/03D01/linux86-64/g03/l202.exe)
                          Input orientation:                          
 ---------------------------------------------------------------------
 Center     Atomic     Atomic              Coordinates (Angstroms)
 Number     Number      Type              X           Y           Z
 ---------------------------------------------------------------------
    1          6             0        0.019535    0.000027    0.011724
    2          6             0       -0.019535    0.000027    1.526876
    3          9             0        1.309247    0.000043    1.975628
    4          1             0       -0.524501    0.878763    1.891350
    5          1             0       -0.524493   -0.878724    1.891330
    6          9             0       -1.309247    0.000043   -0.437028
    7          1             0        0.524501    0.878763   -0.352750
    8          1             0        0.524493   -0.878724   -0.352730
 ---------------------------------------------------------------------
                    Distance matrix (angstroms):
                    1          2          3          4          5
     1  C    0.000000
     2  C    1.515656   0.000000
     3  F    2.349526   1.402511   0.000000
     4  H    2.145029   1.077038   2.035161   0.000000
     5  H    2.145014   1.077039   2.035175   1.757488   0.000000
     6  F    1.402511   2.349526   3.560535   2.609467   2.609467
     7  H    1.077038   2.145029   2.609467   2.477174   3.037276
     8  H    1.077039   2.145014   2.609467   3.037276   2.477131
                    6          7          8
     6  F    0.000000
     7  H    2.035161   0.000000
     8  H    2.035175   1.757488   0.000000
 Stoichiometry    C2H4F2
 Framework group  C2[X(C2H4F2)]
 Deg. of freedom    10
 Full point group                 C2
 Largest Abelian subgroup         C2      NOp   2
 Largest concise Abelian subgroup C2      NOp   2
                         Standard orientation:                         
 ---------------------------------------------------------------------
 Center     Atomic     Atomic              Coordinates (Angstroms)
 Number     Number      Type              X           Y           Z
 ---------------------------------------------------------------------
    1          6             0       -0.432180    0.622514    0.000008
    2          6             0        0.432180   -0.622514    0.000008
    3          9             0       -0.432180   -1.727013   -0.000009
    4          1             0        1.054336   -0.649979   -0.878729
    5          1             0        1.054318   -0.649967    0.878759
    6          9             0        0.432180    1.727013   -0.000009
    7          1             0       -1.054336    0.649979   -0.878729
    8          1             0       -1.054318    0.649967    0.878759
 ---------------------------------------------------------------------
 Rotational constants (GHZ):     31.8053209      3.8658535      3.5997487
 Leave Link  202 at Wed Oct  3 22:57:23 2007, MaxMem=    6291456 cpu:       0.1
 (Enter /opt/und/gaussian/03D01/linux86-64/g03/l301.exe)
 Standard basis: 3-21G (6D, 7F)
 There are    22 symmetry adapted basis functions of A   symmetry.
 There are    22 symmetry adapted basis functions of B   symmetry.
 Integral buffers will be    131072 words long.
 Raffenetti 1 integral format.
 Two-electron integral symmetry is turned on.
    44 basis functions,    72 primitive gaussians,    44 cartesian basis functions
    17 alpha electrons       17 beta electrons
       nuclear repulsion energy       125.4328255562 Hartrees.
 IExCor=   0 DFT=F Ex=HF Corr=None ExCW=0 ScaHFX=  1.000000
 ScaDFX=  1.000000  1.000000  1.000000  1.000000
 IRadAn=      0 IRanWt=     -1 IRanGd=            0 ICorTp=0
 NAtoms=    8 NActive=    8 NUniq=    4 SFac= 3.00D+00 NAtFMM=   80 NAOKFM=F Big=F
 Leave Link  301 at Wed Oct  3 22:57:24 2007, MaxMem=    6291456 cpu:       0.1
 (Enter /opt/und/gaussian/03D01/linux86-64/g03/linda-exe/l302.exel)
 NPDir=0 NMtPBC=     1 NCelOv=     1 NCel=       1 NClECP=     1 NCelD=      1
         NCelK=      1 NCelE2=     1 NClLst=     1 CellRange=     0.0.
 One-electron integrals computed using PRISM.
 One-electron integral symmetry used in STVInt
 NBasis=    44 RedAO= T  NBF=    22    22
 NBsUse=    44 1.00D-06 NBFU=    22    22
 Leave Link  302 at Wed Oct  3 22:57:24 2007, MaxMem=    6291456 cpu:       0.1
 (Enter /opt/und/gaussian/03D01/linux86-64/g03/l303.exe)
 DipDrv:  MaxL=1.
 Leave Link  303 at Wed Oct  3 22:57:25 2007, MaxMem=    6291456 cpu:       0.0
 (Enter /opt/und/gaussian/03D01/linux86-64/g03/l401.exe)
 Initial guess read from the read-write file:
 Guess basis will be translated and rotated to current coordinates.
 Initial guess orbital symmetries:
       Occupied  (B) (A) (B) (A) (A) (B) (A) (B) (A) (B) (A) (B)
                 (A) (B) (A) (B) (A)
       Virtual   (B) (A) (A) (B) (B) (A) (B) (A) (A) (B) (A) (B)
                 (B) (A) (A) (B) (B) (A) (B) (A) (B) (A) (B) (A)
                 (B) (A) (B)
 The electronic state of the initial guess is 1-A.
 Leave Link  401 at Wed Oct  3 22:57:25 2007, MaxMem=    6291456 cpu:       0.0
 (Enter /opt/und/gaussian/03D01/linux86-64/g03/linda-exe/l502.exel)
 Closed shell SCF:
 Requested convergence on RMS density matrix=1.00D-08 within 128 cycles.
 Requested convergence on MAX density matrix=1.00D-06.
 Requested convergence on             energy=1.00D-06.
 No special actions if energy rises.
 Using DIIS extrapolation, IDIIS=  1040.
 Integral symmetry usage will be decided dynamically.
 Keep R1 integrals in memory in canonical form, NReq=     1360589.
 IEnd=     24490 IEndB=     24490 NGot=   6291456 MDV=   5795028
 LenX=   5795028
 Symmetry not used in FoFDir.
 MinBra= 0 MaxBra= 1 Meth= 1.
 IRaf=       0 NMat=   1 IRICut=       1 DoRegI=T DoRafI=F ISym2E= 0 JSym2E=0.

 Cycle   1  Pass 1  IDiag  1:
 E= -270.788286807166    
 DIIS: error= 1.59D-01 at cycle   1 NSaved=   1.
 NSaved= 1 IEnMin= 1 EnMin= -270.788286807166     IErMin= 1 ErrMin= 1.59D-01
 ErrMax= 1.59D-01 EMaxC= 1.00D-01 BMatC= 1.46D+00 BMatP= 1.46D+00
 IDIUse=3 WtCom= 0.00D+00 WtEn= 1.00D+00
 Coeff-Com:  0.100D+01
 Coeff-En:   0.100D+01
 Coeff:      0.100D+01
 Gap=     0.054 Goal=   None    Shift=    0.000
 GapD=    0.054 DampG=0.500 DampE=0.250 DampFc=0.2500 IDamp=-1.
 Damping current iteration by 2.50D-01
 RMSDP=6.18D-02 MaxDP=5.02D-01              OVMax= 8.76D-01

 Cycle   2  Pass 1  IDiag  1:
 E= -271.621212748991     Delta-E=       -0.832925941825 Rises=F Damp=T
 DIIS: error= 1.24D-01 at cycle   2 NSaved=   2.
 NSaved= 2 IEnMin= 2 EnMin= -271.621212748991     IErMin= 2 ErrMin= 1.24D-01
 ErrMax= 1.24D-01 EMaxC= 1.00D-01 BMatC= 9.00D-01 BMatP= 1.46D+00
 IDIUse=3 WtCom= 0.00D+00 WtEn= 1.00D+00
 Coeff-Com: -0.306D+01 0.406D+01
 Coeff-En:   0.000D+00 0.100D+01
 Coeff:      0.000D+00 0.100D+01
 Gap=     0.361 Goal=   None    Shift=    0.000
 RMSDP=4.85D-02 MaxDP=3.61D-01 DE=-8.33D-01 OVMax= 1.03D-01

 Cycle   3  Pass 1  IDiag  1:
 E= -275.255522161983     Delta-E=       -3.634309412992 Rises=F Damp=F
 DIIS: error= 4.65D-02 at cycle   3 NSaved=   3.
 NSaved= 3 IEnMin= 3 EnMin= -275.255522161983     IErMin= 3 ErrMin= 4.65D-02
 ErrMax= 4.65D-02 EMaxC= 1.00D-01 BMatC= 9.52D-02 BMatP= 9.00D-01
 IDIUse=3 WtCom= 5.35D-01 WtEn= 4.65D-01
 Coeff-Com:  0.121D+01-0.165D+01 0.143D+01
 Coeff-En:   0.000D+00 0.000D+00 0.100D+01
 Coeff:      0.649D+00-0.880D+00 0.123D+01
 Gap=     0.786 Goal=   None    Shift=    0.000
 RMSDP=1.14D-02 MaxDP=7.44D-02 DE=-3.63D+00 OVMax= 1.30D-01

 Cycle   4  Pass 1  IDiag  1:
 E= -275.406532407598     Delta-E=       -0.151010245615 Rises=F Damp=F
 DIIS: error= 2.23D-02 at cycle   4 NSaved=   4.
 NSaved= 4 IEnMin= 4 EnMin= -275.406532407598     IErMin= 4 ErrMin= 2.23D-02
 ErrMax= 2.23D-02 EMaxC= 1.00D-01 BMatC= 7.08D-03 BMatP= 9.52D-02
 IDIUse=3 WtCom= 7.77D-01 WtEn= 2.23D-01
 Coeff-Com:  0.288D+00-0.415D+00 0.147D+00 0.980D+00
 Coeff-En:   0.000D+00 0.000D+00 0.000D+00 0.100D+01
 Coeff:      0.224D+00-0.322D+00 0.114D+00 0.985D+00
 Gap=     0.765 Goal=   None    Shift=    0.000
 RMSDP=2.87D-03 MaxDP=1.42D-02 DE=-1.51D-01 OVMax= 3.07D-02

 Cycle   5  Pass 1  IDiag  1:
 E= -275.418363511849     Delta-E=       -0.011831104251 Rises=F Damp=F
 DIIS: error= 4.12D-03 at cycle   5 NSaved=   5.
 NSaved= 5 IEnMin= 5 EnMin= -275.418363511849     IErMin= 5 ErrMin= 4.12D-03
 ErrMax= 4.12D-03 EMaxC= 1.00D-01 BMatC= 6.90D-04 BMatP= 7.08D-03
 IDIUse=3 WtCom= 9.59D-01 WtEn= 4.12D-02
 Coeff-Com: -0.427D-01 0.556D-01-0.716D-01 0.308D-01 0.103D+01
 Coeff-En:   0.000D+00 0.000D+00 0.000D+00 0.000D+00 0.100D+01
 Coeff:     -0.410D-01 0.533D-01-0.687D-01 0.295D-01 0.103D+01
 Gap=     0.760 Goal=   None    Shift=    0.000
 RMSDP=9.31D-04 MaxDP=5.04D-03 DE=-1.18D-02 OVMax= 1.54D-02

 Cycle   6  Pass 1  IDiag  1:
 E= -275.419687303234     Delta-E=       -0.001323791385 Rises=F Damp=F
 DIIS: error= 1.77D-03 at cycle   6 NSaved=   6.
 NSaved= 6 IEnMin= 6 EnMin= -275.419687303234     IErMin= 6 ErrMin= 1.77D-03
 ErrMax= 1.77D-03 EMaxC= 1.00D-01 BMatC= 1.21D-04 BMatP= 6.90D-04
 IDIUse=3 WtCom= 9.82D-01 WtEn= 1.77D-02
 Coeff-Com: -0.109D-01 0.175D-01-0.197D-01-0.652D-01 0.198D+00 0.880D+00
 Coeff-En:   0.000D+00 0.000D+00 0.000D+00 0.000D+00 0.000D+00 0.100D+01
 Coeff:     -0.107D-01 0.172D-01-0.194D-01-0.641D-01 0.195D+00 0.882D+00
 Gap=     0.761 Goal=   None    Shift=    0.000
 RMSDP=3.18D-04 MaxDP=1.65D-03 DE=-1.32D-03 OVMax= 4.95D-03

 Cycle   7  Pass 1  IDiag  1:
 E= -275.419847720900     Delta-E=       -0.000160417665 Rises=F Damp=F
 DIIS: error= 6.76D-04 at cycle   7 NSaved=   7.
 NSaved= 7 IEnMin= 7 EnMin= -275.419847720900     IErMin= 7 ErrMin= 6.76D-04
 ErrMax= 6.76D-04 EMaxC= 1.00D-01 BMatC= 1.16D-05 BMatP= 1.21D-04
 IDIUse=3 WtCom= 9.93D-01 WtEn= 6.76D-03
 Coeff-Com:  0.222D-02-0.330D-02 0.115D-01-0.150D-02-0.187D+00-0.798D-01
 Coeff-Com:  0.126D+01
 Coeff-En:   0.000D+00 0.000D+00 0.000D+00 0.000D+00 0.000D+00 0.000D+00
 Coeff-En:   0.100D+01
 Coeff:      0.221D-02-0.328D-02 0.114D-01-0.149D-02-0.185D+00-0.792D-01
 Coeff:      0.126D+01
 Gap=     0.761 Goal=   None    Shift=    0.000
 RMSDP=1.75D-04 MaxDP=1.15D-03 DE=-1.60D-04 OVMax= 3.43D-03

 Cycle   8  Pass 1  IDiag  1:
 E= -275.419878512481     Delta-E=       -0.000030791582 Rises=F Damp=F
 DIIS: error= 1.20D-04 at cycle   8 NSaved=   8.
 NSaved= 8 IEnMin= 8 EnMin= -275.419878512481     IErMin= 8 ErrMin= 1.20D-04
 ErrMax= 1.20D-04 EMaxC= 1.00D-01 BMatC= 3.28D-07 BMatP= 1.16D-05
 IDIUse=3 WtCom= 9.99D-01 WtEn= 1.20D-03
 Coeff-Com: -0.118D-02 0.162D-02-0.333D-02 0.241D-02 0.541D-01-0.206D-01
 Coeff-Com: -0.381D+00 0.135D+01
 Coeff-En:   0.000D+00 0.000D+00 0.000D+00 0.000D+00 0.000D+00 0.000D+00
 Coeff-En:   0.000D+00 0.100D+01
 Coeff:     -0.118D-02 0.162D-02-0.332D-02 0.241D-02 0.540D-01-0.205D-01
 Coeff:     -0.381D+00 0.135D+01
 Gap=     0.761 Goal=   None    Shift=    0.000
 RMSDP=3.42D-05 MaxDP=2.77D-04 DE=-3.08D-05 OVMax= 4.75D-04

 Cycle   9  Pass 1  IDiag  1:
 E= -275.419879354649     Delta-E=       -0.000000842168 Rises=F Damp=F
 DIIS: error= 2.20D-05 at cycle   9 NSaved=   9.
 NSaved= 9 IEnMin= 9 EnMin= -275.419879354649     IErMin= 9 ErrMin= 2.20D-05
 ErrMax= 2.20D-05 EMaxC= 1.00D-01 BMatC= 1.04D-08 BMatP= 3.28D-07
 IDIUse=1 WtCom= 1.00D+00 WtEn= 0.00D+00
 Coeff-Com:  0.370D-04-0.688D-04 0.102D-02-0.128D-02-0.181D-01 0.140D-01
 Coeff-Com:  0.128D+00-0.577D+00 0.145D+01
 Coeff:      0.370D-04-0.688D-04 0.102D-02-0.128D-02-0.181D-01 0.140D-01
 Coeff:      0.128D+00-0.577D+00 0.145D+01
 Gap=     0.761 Goal=   None    Shift=    0.000
 RMSDP=5.40D-06 MaxDP=2.68D-05 DE=-8.42D-07 OVMax= 1.04D-04

 Cycle  10  Pass 1  IDiag  1:
 E= -275.419879383497     Delta-E=       -0.000000028848 Rises=F Damp=F
 DIIS: error= 2.79D-06 at cycle  10 NSaved=  10.
 NSaved=10 IEnMin=10 EnMin= -275.419879383497     IErMin=10 ErrMin= 2.79D-06
 ErrMax= 2.79D-06 EMaxC= 1.00D-01 BMatC= 3.13D-10 BMatP= 1.04D-08
 IDIUse=1 WtCom= 1.00D+00 WtEn= 0.00D+00
 Coeff-Com: -0.909D-05 0.153D-04-0.215D-03 0.239D-03 0.386D-02-0.321D-02
 Coeff-Com: -0.277D-01 0.130D+00-0.447D+00 0.134D+01
 Coeff:     -0.909D-05 0.153D-04-0.215D-03 0.239D-03 0.386D-02-0.321D-02
 Coeff:     -0.277D-01 0.130D+00-0.447D+00 0.134D+01
 Gap=     0.761 Goal=   None    Shift=    0.000
 RMSDP=9.70D-07 MaxDP=5.77D-06 DE=-2.88D-08 OVMax= 1.34D-05

 Cycle  11  Pass 1  IDiag  1:
 E= -275.419879384340     Delta-E=       -0.000000000843 Rises=F Damp=F
 DIIS: error= 5.58D-07 at cycle  11 NSaved=  11.
 NSaved=11 IEnMin=11 EnMin= -275.419879384340     IErMin=11 ErrMin= 5.58D-07
 ErrMax= 5.58D-07 EMaxC= 1.00D-01 BMatC= 8.95D-12 BMatP= 3.13D-10
 IDIUse=1 WtCom= 1.00D+00 WtEn= 0.00D+00
 Coeff-Com:  0.255D-05-0.418D-05 0.361D-04-0.229D-04-0.668D-03 0.611D-03
 Coeff-Com:  0.454D-02-0.214D-01 0.881D-01-0.377D+00 0.131D+01
 Coeff:      0.255D-05-0.418D-05 0.361D-04-0.229D-04-0.668D-03 0.611D-03
 Coeff:      0.454D-02-0.214D-01 0.881D-01-0.377D+00 0.131D+01
 Gap=     0.761 Goal=   None    Shift=    0.000
 RMSDP=1.52D-07 MaxDP=8.71D-07 DE=-8.43D-10 OVMax= 1.89D-06

 Cycle  12  Pass 1  IDiag  1:
 E= -275.419879384359     Delta-E=       -0.000000000019 Rises=F Damp=F
 DIIS: error= 7.34D-08 at cycle  12 NSaved=  12.
 NSaved=12 IEnMin=12 EnMin= -275.419879384359     IErMin=12 ErrMin= 7.34D-08
 ErrMax= 7.34D-08 EMaxC= 1.00D-01 BMatC= 1.90D-13 BMatP= 8.95D-12
 IDIUse=1 WtCom= 1.00D+00 WtEn= 0.00D+00
 Coeff-Com: -0.937D-06 0.127D-05-0.260D-05-0.232D-05 0.535D-04-0.379D-04
 Coeff-Com: -0.324D-03 0.127D-02-0.620D-02 0.364D-01-0.260D+00 0.123D+01
 Coeff:     -0.937D-06 0.127D-05-0.260D-05-0.232D-05 0.535D-04-0.379D-04
 Coeff:     -0.324D-03 0.127D-02-0.620D-02 0.364D-01-0.260D+00 0.123D+01
 Gap=     0.761 Goal=   None    Shift=    0.000
 RMSDP=2.25D-08 MaxDP=1.46D-07 DE=-1.91D-11 OVMax= 2.60D-07

 Cycle  13  Pass 1  IDiag  1:
 E= -275.419879384360     Delta-E=       -0.000000000001 Rises=F Damp=F
 DIIS: error= 8.46D-09 at cycle  13 NSaved=  13.
 NSaved=13 IEnMin=13 EnMin= -275.419879384360     IErMin=13 ErrMin= 8.46D-09
 ErrMax= 8.46D-09 EMaxC= 1.00D-01 BMatC= 3.31D-15 BMatP= 1.90D-13
 IDIUse=1 WtCom= 1.00D+00 WtEn= 0.00D+00
 Coeff-Com: -0.157D-06 0.212D-06-0.179D-06 0.969D-06 0.546D-07-0.134D-05
 Coeff-Com: -0.939D-05 0.966D-04-0.593D-04-0.246D-02 0.399D-01-0.298D+00
 Coeff-Com:  0.126D+01
 Coeff:     -0.157D-06 0.212D-06-0.179D-06 0.969D-06 0.546D-07-0.134D-05
 Coeff:     -0.939D-05 0.966D-04-0.593D-04-0.246D-02 0.399D-01-0.298D+00
 Coeff:      0.126D+01
 Gap=     0.761 Goal=   None    Shift=    0.000
 RMSDP=3.04D-09 MaxDP=2.27D-08 DE=-5.68D-13 OVMax= 3.71D-08

 SCF Done:  E(RHF) =  -275.419879384     A.U. after   13 cycles
             Convg  =    0.3037D-08             -V/T =  2.0026
             S**2   =   0.0000
 KE= 2.746995435004D+02 PE=-9.054570620053D+02 EE= 2.299048135644D+02
 Leave Link  502 at Wed Oct  3 22:57:26 2007, MaxMem=    6291456 cpu:       0.3
 (Enter /opt/und/gaussian/03D01/linux86-64/g03/linda-exe/l701.exel)
 Compute integral first derivatives.
 ... and contract with generalized density number  0.
 Leave Link  701 at Wed Oct  3 22:57:27 2007, MaxMem=    6291456 cpu:       0.2
 (Enter /opt/und/gaussian/03D01/linux86-64/g03/l702.exe)
 L702 exits ... SP integral derivatives will be done elsewhere.
 Leave Link  702 at Wed Oct  3 22:57:27 2007, MaxMem=    6291456 cpu:       0.0
 (Enter /opt/und/gaussian/03D01/linux86-64/g03/linda-exe/l703.exel)
 Compute integral first derivatives, UseDBF=F.
 Integral derivatives from FoFDir, PRISM(SPDF).
 Petite list used in FoFDir.
 MinBra= 0 MaxBra= 1 Meth= 1.
 IRaf=       0 NMat=   1 IRICut=       1 DoRegI=T DoRafI=F ISym2E= 1 JSym2E=1.
 Leave Link  703 at Wed Oct  3 22:57:28 2007, MaxMem=    6291456 cpu:       0.2
 (Enter /opt/und/gaussian/03D01/linux86-64/g03/l716.exe)
 Dipole        = 1.37667655D-14 2.22044605D-15 2.16280875D-05
 ***** Axes restored to original set *****
 -------------------------------------------------------------------
 Center     Atomic                   Forces (Hartrees/Bohr)
 Number     Number              X              Y              Z
 -------------------------------------------------------------------
    1          6           0.001637986    0.000001330    0.000864960
    2          6          -0.001637986    0.000001330   -0.000864960
    3          9           0.001437003   -0.000001636    0.000262554
    4          1          -0.000072616    0.000395235    0.000026327
    5          1          -0.000070696   -0.000394928    0.000028673
    6          9          -0.001437003   -0.000001636   -0.000262554
    7          1           0.000072616    0.000395235   -0.000026327
    8          1           0.000070696   -0.000394928   -0.000028673
 -------------------------------------------------------------------
 Cartesian Forces:  Max     0.001637986 RMS     0.000700538
 Leave Link  716 at Wed Oct  3 22:57:28 2007, MaxMem=    6291456 cpu:       0.0
 (Enter /opt/und/gaussian/03D01/linux86-64/g03/l103.exe)

 GradGradGradGradGradGradGradGradGradGradGradGradGradGradGradGradGradGrad
 Berny optimization.
 Internal  Forces:  Max     0.001445467 RMS     0.000446171
 Search for a local minimum.
 Step number   3 out of a maximum of  38
 All quantities printed in internal units (Hartrees-Bohrs-Radians)
 Update second derivatives using D2CorX and points  1  2  3
 Trust test= 1.14D+00 RLast= 3.80D-02 DXMaxT set to 4.24D-01
     Eigenvalues ---    0.00255   0.05253   0.05826   0.05918   0.05918
     Eigenvalues ---    0.16000   0.16000   0.16000   0.16431   0.22424
     Eigenvalues ---    0.24429   0.30120   0.32122   0.32122   0.32122
     Eigenvalues ---    0.32423   0.39749   0.465241000.000001000.00000
     Eigenvalues --- 1000.000001000.000001000.000001000.000001000.00000
     Eigenvalues --- 1000.000001000.000001000.00000
 RFO step:  Lambda=-1.47989168D-05.
 Quartic linear search produced a step of  0.17279.
 Iteration  1 RMS(Cart)=  0.00174207 RMS(Int)=  0.00000415
 Iteration  2 RMS(Cart)=  0.00000202 RMS(Int)=  0.00000389
 Iteration  3 RMS(Cart)=  0.00000000 RMS(Int)=  0.00000389
 Variable       Old X    -DE/DX   Delta X   Delta X   Delta X     New X
                                 (Linear)    (Quad)   (Total)
    R1        2.86417  -0.00054   0.00079  -0.00301  -0.00222   2.86196
    R2        2.65036   0.00145   0.00196   0.00252   0.00447   2.65484
    R3        2.03531   0.00037   0.00015   0.00078   0.00093   2.03624
    R4        2.03531   0.00037   0.00015   0.00078   0.00093   2.03624
    R5        2.65036   0.00145   0.00196   0.00252   0.00447   2.65484
    R6        2.03531   0.00037   0.00015   0.00078   0.00093   2.03624
    R7        2.03531   0.00037   0.00015   0.00078   0.00093   2.03624
    A1        1.87071  -0.00040   0.00037  -0.00306  -0.00268   1.86802
    A2        1.92877  -0.00005   0.00074  -0.00062   0.00011   1.92888
    A3        1.92875  -0.00005   0.00074  -0.00060   0.00014   1.92889
    A4        1.91337   0.00016  -0.00159   0.00119  -0.00040   1.91297
    A5        1.91339   0.00016  -0.00157   0.00115  -0.00043   1.91296
    A6        1.90853   0.00018   0.00125   0.00189   0.00312   1.91165
    A7        1.87071  -0.00040   0.00037  -0.00306  -0.00268   1.86802
    A8        1.92877  -0.00005   0.00074  -0.00062   0.00011   1.92888
    A9        1.92875  -0.00005   0.00074  -0.00060   0.00014   1.92889
   A10        1.91337   0.00016  -0.00159   0.00119  -0.00040   1.91297
   A11        1.91339   0.00016  -0.00157   0.00115  -0.00043   1.91296
   A12        1.90853   0.00018   0.00125   0.00189   0.00312   1.91165
    D1       -3.14157   0.00000   0.00003  -0.00008  -0.00005   3.14157
    D2       -1.05743  -0.00008  -0.00124  -0.00084  -0.00208  -1.05951
    D3        1.05747   0.00008   0.00129   0.00072   0.00201   1.05948
    D4       -1.05743  -0.00008  -0.00124  -0.00084  -0.00208  -1.05951
    D5        1.02670  -0.00016  -0.00251  -0.00160  -0.00412   1.02259
    D6       -3.14158   0.00000   0.00002  -0.00004  -0.00002   3.14158
    D7        1.05747   0.00008   0.00129   0.00072   0.00201   1.05948
    D8       -3.14158   0.00000   0.00002  -0.00004  -0.00002   3.14158
    D9       -1.02668   0.00016   0.00255   0.00152   0.00407  -1.02261
         Item               Value     Threshold  Converged?
 Maximum Force            0.001445     0.000450     NO 
 RMS     Force            0.000446     0.000300     NO 
 Maximum Displacement     0.002621     0.001800     NO 
 RMS     Displacement     0.001743     0.001200     NO 
 Predicted change in Energy=-1.015943D-05
 GradGradGradGradGradGradGradGradGradGradGradGradGradGradGradGradGradGrad

 Leave Link  103 at Wed Oct  3 22:57:28 2007, MaxMem=    6291456 cpu:       0.1
 (Enter /opt/und/gaussian/03D01/linux86-64/g03/l202.exe)
                          Input orientation:                          
 ---------------------------------------------------------------------
 Center     Atomic     Atomic              Coordinates (Angstroms)
 Number     Number      Type              X           Y           Z
 ---------------------------------------------------------------------
    1          6             0        0.020850    0.000030    0.012346
    2          6             0       -0.020850    0.000030    1.526254
    3          9             0        1.310590    0.000015    1.974530
    4          1             0       -0.524861    0.880150    1.890171
    5          1             0       -0.524869   -0.880086    1.890173
    6          9             0       -1.310590    0.000015   -0.435930
    7          1             0        0.524861    0.880150   -0.351571
    8          1             0        0.524869   -0.880086   -0.351573
 ---------------------------------------------------------------------
                    Distance matrix (angstroms):
                    1          2          3          4          5
     1  C    0.000000
     2  C    1.514483   0.000000
     3  F    2.348105   1.404878   0.000000
     4  H    2.144444   1.077532   2.037311   0.000000
     5  H    2.144446   1.077532   2.037303   1.760237   0.000000
     6  F    1.404878   2.348105   3.561025   2.608209   2.608197
     7  H    1.077532   2.144444   2.608209   2.475342   3.037397
     8  H    1.077532   2.144446   2.608197   3.037397   2.475354
                    6          7          8
     6  F    0.000000
     7  H    2.037311   0.000000
     8  H    2.037303   1.760237   0.000000
 Stoichiometry    C2H4F2
 Framework group  C2[X(C2H4F2)]
 Deg. of freedom    10
 Full point group                 C2
 Largest Abelian subgroup         C2      NOp   2
 Largest concise Abelian subgroup C2      NOp   2
                         Standard orientation:                         
 ---------------------------------------------------------------------
 Center     Atomic     Atomic              Coordinates (Angstroms)
 Number     Number      Type              X           Y           Z
 ---------------------------------------------------------------------
    1          6             0       -0.724038   -0.221773    0.000007
    2          6             0        0.724038    0.221773    0.000007
    3          9             0        0.724038    1.626651   -0.000007
    4          1             0        1.229754   -0.139772    0.880128
    5          1             0        1.229759   -0.139778   -0.880108
    6          9             0       -0.724038   -1.626651   -0.000007
    7          1             0       -1.229754    0.139772    0.880128
    8          1             0       -1.229759    0.139778   -0.880108
 ---------------------------------------------------------------------
 Rotational constants (GHZ):     31.7331505      3.8662623      3.5996763
 Leave Link  202 at Wed Oct  3 22:57:29 2007, MaxMem=    6291456 cpu:       0.1
 (Enter /opt/und/gaussian/03D01/linux86-64/g03/l301.exe)
 Standard basis: 3-21G (6D, 7F)
 There are    22 symmetry adapted basis functions of A   symmetry.
 There are    22 symmetry adapted basis functions of B   symmetry.
 Integral buffers will be    131072 words long.
 Raffenetti 1 integral format.
 Two-electron integral symmetry is turned on.
    44 basis functions,    72 primitive gaussians,    44 cartesian basis functions
    17 alpha electrons       17 beta electrons
       nuclear repulsion energy       125.3762215837 Hartrees.
 IExCor=   0 DFT=F Ex=HF Corr=None ExCW=0 ScaHFX=  1.000000
 ScaDFX=  1.000000  1.000000  1.000000  1.000000
 IRadAn=      0 IRanWt=     -1 IRanGd=            0 ICorTp=0
 NAtoms=    8 NActive=    8 NUniq=    4 SFac= 3.00D+00 NAtFMM=   80 NAOKFM=F Big=F
 Leave Link  301 at Wed Oct  3 22:57:29 2007, MaxMem=    6291456 cpu:       0.1
 (Enter /opt/und/gaussian/03D01/linux86-64/g03/linda-exe/l302.exel)
 NPDir=0 NMtPBC=     1 NCelOv=     1 NCel=       1 NClECP=     1 NCelD=      1
         NCelK=      1 NCelE2=     1 NClLst=     1 CellRange=     0.0.
 One-electron integrals computed using PRISM.
 One-electron integral symmetry used in STVInt
 NBasis=    44 RedAO= T  NBF=    22    22
 NBsUse=    44 1.00D-06 NBFU=    22    22
 Leave Link  302 at Wed Oct  3 22:57:30 2007, MaxMem=    6291456 cpu:       0.1
 (Enter /opt/und/gaussian/03D01/linux86-64/g03/l303.exe)
 DipDrv:  MaxL=1.
 Leave Link  303 at Wed Oct  3 22:57:30 2007, MaxMem=    6291456 cpu:       0.0
 (Enter /opt/und/gaussian/03D01/linux86-64/g03/l401.exe)
 Initial guess read from the read-write file:
 Guess basis will be translated and rotated to current coordinates.
 Initial guess orbital symmetries:
       Occupied  (B) (A) (B) (A) (A) (B) (A) (B) (A) (B) (A) (B)
                 (A) (B) (A) (B) (A)
       Virtual   (B) (A) (A) (B) (B) (A) (B) (A) (A) (B) (A) (B)
                 (B) (A) (A) (B) (B) (A) (B) (A) (B) (A) (B) (A)
                 (B) (A) (B)
 The electronic state of the initial guess is 1-A.
 Leave Link  401 at Wed Oct  3 22:57:30 2007, MaxMem=    6291456 cpu:       0.1
 (Enter /opt/und/gaussian/03D01/linux86-64/g03/linda-exe/l502.exel)
 Closed shell SCF:
 Requested convergence on RMS density matrix=1.00D-08 within 128 cycles.
 Requested convergence on MAX density matrix=1.00D-06.
 Requested convergence on             energy=1.00D-06.
 No special actions if energy rises.
 Using DIIS extrapolation, IDIIS=  1040.
 Integral symmetry usage will be decided dynamically.
 Keep R1 integrals in memory in canonical form, NReq=     1360589.
 IEnd=     24490 IEndB=     24490 NGot=   6291456 MDV=   5795028
 LenX=   5795028
 Symmetry not used in FoFDir.
 MinBra= 0 MaxBra= 1 Meth= 1.
 IRaf=       0 NMat=   1 IRICut=       1 DoRegI=T DoRafI=F ISym2E= 0 JSym2E=0.

 Cycle   1  Pass 1  IDiag  1:
 E= -270.793190412217    
 DIIS: error= 1.59D-01 at cycle   1 NSaved=   1.
 NSaved= 1 IEnMin= 1 EnMin= -270.793190412217     IErMin= 1 ErrMin= 1.59D-01
 ErrMax= 1.59D-01 EMaxC= 1.00D-01 BMatC= 1.44D+00 BMatP= 1.44D+00
 IDIUse=3 WtCom= 0.00D+00 WtEn= 1.00D+00
 Coeff-Com:  0.100D+01
 Coeff-En:   0.100D+01
 Coeff:      0.100D+01
 Gap=     0.056 Goal=   None    Shift=    0.000
 GapD=    0.056 DampG=0.500 DampE=0.250 DampFc=0.2500 IDamp=-1.
 Damping current iteration by 2.50D-01
 RMSDP=6.19D-02 MaxDP=5.03D-01              OVMax= 8.77D-01

 Cycle   2  Pass 1  IDiag  1:
 E= -271.625539861274     Delta-E=       -0.832349449057 Rises=F Damp=T
 DIIS: error= 1.25D-01 at cycle   2 NSaved=   2.
 NSaved= 2 IEnMin= 2 EnMin= -271.625539861274     IErMin= 2 ErrMin= 1.25D-01
 ErrMax= 1.25D-01 EMaxC= 1.00D-01 BMatC= 8.93D-01 BMatP= 1.44D+00
 IDIUse=3 WtCom= 0.00D+00 WtEn= 1.00D+00
 Coeff-Com: -0.306D+01 0.406D+01
 Coeff-En:   0.000D+00 0.100D+01
 Coeff:      0.000D+00 0.100D+01
 Gap=     0.361 Goal=   None    Shift=    0.000
 RMSDP=4.85D-02 MaxDP=3.62D-01 DE=-8.32D-01 OVMax= 1.02D-01

 Cycle   3  Pass 1  IDiag  1:
 E= -275.256102249392     Delta-E=       -3.630562388118 Rises=F Damp=F
 DIIS: error= 4.63D-02 at cycle   3 NSaved=   3.
 NSaved= 3 IEnMin= 3 EnMin= -275.256102249392     IErMin= 3 ErrMin= 4.63D-02
 ErrMax= 4.63D-02 EMaxC= 1.00D-01 BMatC= 9.50D-02 BMatP= 8.93D-01
 IDIUse=3 WtCom= 5.37D-01 WtEn= 4.63D-01
 Coeff-Com:  0.120D+01-0.162D+01 0.142D+01
 Coeff-En:   0.000D+00 0.000D+00 0.100D+01
 Coeff:      0.642D+00-0.869D+00 0.123D+01
 Gap=     0.787 Goal=   None    Shift=    0.000
 RMSDP=1.13D-02 MaxDP=7.48D-02 DE=-3.63D+00 OVMax= 1.29D-01

 Cycle   4  Pass 1  IDiag  1:
 E= -275.406494086111     Delta-E=       -0.150391836719 Rises=F Damp=F
 DIIS: error= 2.24D-02 at cycle   4 NSaved=   4.
 NSaved= 4 IEnMin= 4 EnMin= -275.406494086111     IErMin= 4 ErrMin= 2.24D-02
 ErrMax= 2.24D-02 EMaxC= 1.00D-01 BMatC= 7.11D-03 BMatP= 9.50D-02
 IDIUse=3 WtCom= 7.76D-01 WtEn= 2.24D-01
 Coeff-Com:  0.290D+00-0.417D+00 0.148D+00 0.980D+00
 Coeff-En:   0.000D+00 0.000D+00 0.000D+00 0.100D+01
 Coeff:      0.225D+00-0.324D+00 0.115D+00 0.984D+00
[...]
 DIIS: error= 5.70D-07 at cycle  11 NSaved=  11.
 NSaved=11 IEnMin=11 EnMin= -275.419888233553     IErMin=11 ErrMin= 5.70D-07
 ErrMax= 5.70D-07 EMaxC= 1.00D-01 BMatC= 9.33D-12 BMatP= 3.19D-10
 IDIUse=1 WtCom= 1.00D+00 WtEn= 0.00D+00
 Coeff-Com:  0.264D-05-0.430D-05 0.365D-04-0.228D-04-0.674D-03 0.583D-03
 Coeff-Com:  0.464D-02-0.215D-01 0.884D-01-0.379D+00 0.131D+01
 Coeff:      0.264D-05-0.430D-05 0.365D-04-0.228D-04-0.674D-03 0.583D-03
 Coeff:      0.464D-02-0.215D-01 0.884D-01-0.379D+00 0.131D+01
 Gap=     0.760 Goal=   None    Shift=    0.000
 RMSDP=1.54D-07 MaxDP=9.18D-07 DE=-8.61D-10 OVMax= 1.92D-06

 Cycle  12  Pass 1  IDiag  1:
 E= -275.419888233573     Delta-E=       -0.000000000020 Rises=F Damp=F
 DIIS: error= 7.45D-08 at cycle  12 NSaved=  12.
 NSaved=12 IEnMin=12 EnMin= -275.419888233573     IErMin=12 ErrMin= 7.45D-08
 ErrMax= 7.45D-08 EMaxC= 1.00D-01 BMatC= 1.95D-13 BMatP= 9.33D-12
 IDIUse=1 WtCom= 1.00D+00 WtEn= 0.00D+00
 Coeff-Com: -0.938D-06 0.127D-05-0.261D-05-0.236D-05 0.536D-04-0.360D-04
 Coeff-Com: -0.328D-03 0.127D-02-0.619D-02 0.364D-01-0.259D+00 0.123D+01
 Coeff:     -0.938D-06 0.127D-05-0.261D-05-0.236D-05 0.536D-04-0.360D-04
 Coeff:     -0.328D-03 0.127D-02-0.619D-02 0.364D-01-0.259D+00 0.123D+01
 Gap=     0.760 Goal=   None    Shift=    0.000
 RMSDP=2.28D-08 MaxDP=1.48D-07 DE=-1.97D-11 OVMax= 2.65D-07

 Cycle  13  Pass 1  IDiag  1:
 E= -275.419888233574     Delta-E=       -0.000000000001 Rises=F Damp=F
 DIIS: error= 8.52D-09 at cycle  13 NSaved=  13.
 NSaved=13 IEnMin=13 EnMin= -275.419888233574     IErMin=13 ErrMin= 8.52D-09
 ErrMax= 8.52D-09 EMaxC= 1.00D-01 BMatC= 3.39D-15 BMatP= 1.95D-13
 IDIUse=1 WtCom= 1.00D+00 WtEn= 0.00D+00
 Coeff-Com: -0.160D-06 0.216D-06-0.184D-06 0.971D-06 0.918D-07-0.118D-05
 Coeff-Com: -0.991D-05 0.970D-04-0.592D-04-0.245D-02 0.397D-01-0.298D+00
 Coeff-Com:  0.126D+01
 Coeff:     -0.160D-06 0.216D-06-0.184D-06 0.971D-06 0.918D-07-0.118D-05
 Coeff:     -0.991D-05 0.970D-04-0.592D-04-0.245D-02 0.397D-01-0.298D+00
 Coeff:      0.126D+01
 Gap=     0.760 Goal=   None    Shift=    0.000
 RMSDP=3.05D-09 MaxDP=2.27D-08 DE=-8.53D-13 OVMax= 3.71D-08

 SCF Done:  E(RHF) =  -275.419888234     A.U. after   13 cycles
             Convg  =    0.3048D-08             -V/T =  2.0027
             S**2   =   0.0000
 KE= 2.746906449350D+02 PE=-9.053465823672D+02 EE= 2.298598276149D+02
 Leave Link  502 at Wed Oct  3 22:57:31 2007, MaxMem=    6291456 cpu:       0.3
 (Enter /opt/und/gaussian/03D01/linux86-64/g03/linda-exe/l701.exel)
 Compute integral first derivatives.
 ... and contract with generalized density number  0.
 Leave Link  701 at Wed Oct  3 22:57:32 2007, MaxMem=    6291456 cpu:       0.2
 (Enter /opt/und/gaussian/03D01/linux86-64/g03/l702.exe)
 L702 exits ... SP integral derivatives will be done elsewhere.
 Leave Link  702 at Wed Oct  3 22:57:32 2007, MaxMem=    6291456 cpu:       0.0
 (Enter /opt/und/gaussian/03D01/linux86-64/g03/linda-exe/l703.exel)
 Compute integral first derivatives, UseDBF=F.
 Integral derivatives from FoFDir, PRISM(SPDF).
 Petite list used in FoFDir.
 MinBra= 0 MaxBra= 1 Meth= 1.
 IRaf=       0 NMat=   1 IRICut=       1 DoRegI=T DoRafI=F ISym2E= 1 JSym2E=1.
 Leave Link  703 at Wed Oct  3 22:57:33 2007, MaxMem=    6291456 cpu:       0.3
 (Enter /opt/und/gaussian/03D01/linux86-64/g03/l716.exe)
 Dipole        =-2.17603713D-14 1.66533454D-15 1.77537187D-05
 ***** Axes restored to original set *****
 -------------------------------------------------------------------
 Center     Atomic                   Forces (Hartrees/Bohr)
 Number     Number              X              Y              Z
 -------------------------------------------------------------------
    1          6           0.000004154   -0.000001368    0.000024149
    2          6          -0.000004154   -0.000001368   -0.000024149
    3          9          -0.000135623    0.000000985    0.000009340
    4          1           0.000053557   -0.000135033    0.000057941
    5          1           0.000052640    0.000135416    0.000056969
    6          9           0.000135623    0.000000985   -0.000009340
    7          1          -0.000053557   -0.000135033   -0.000057941
    8          1          -0.000052640    0.000135416   -0.000056969
 -------------------------------------------------------------------
 Cartesian Forces:  Max     0.000135623 RMS     0.000075220
 Leave Link  716 at Wed Oct  3 22:57:33 2007, MaxMem=    6291456 cpu:       0.0
 (Enter /opt/und/gaussian/03D01/linux86-64/g03/l103.exe)

 GradGradGradGradGradGradGradGradGradGradGradGradGradGradGradGradGradGrad
 Berny optimization.
 Internal  Forces:  Max     0.000125553 RMS     0.000085455
 Search for a local minimum.
 Step number   4 out of a maximum of  38
 All quantities printed in internal units (Hartrees-Bohrs-Radians)
 Update second derivatives using D2CorX and points  1  2  3  4
 Trust test= 8.71D-01 RLast= 1.15D-02 DXMaxT set to 4.24D-01
     Eigenvalues ---    0.00255   0.05111   0.05820   0.05940   0.05940
     Eigenvalues ---    0.16000   0.16000   0.16000   0.16622   0.22432
     Eigenvalues ---    0.24714   0.30975   0.32122   0.32122   0.32122
     Eigenvalues ---    0.33021   0.41073   0.465241000.000001000.00000
     Eigenvalues --- 1000.000001000.000001000.000001000.000001000.00000
     Eigenvalues --- 1000.000001000.000001000.00000
 RFO step:  Lambda=-4.45049083D-07.
 Quartic linear search produced a step of -0.11751.
 Iteration  1 RMS(Cart)=  0.00052679 RMS(Int)=  0.00000017
 Iteration  2 RMS(Cart)=  0.00000016 RMS(Int)=  0.00000006
 Variable       Old X    -DE/DX   Delta X   Delta X   Delta X     New X
                                 (Linear)    (Quad)   (Total)
    R1        2.86196   0.00010   0.00026  -0.00002   0.00024   2.86219
    R2        2.65484  -0.00013  -0.00053   0.00029  -0.00024   2.65460
    R3        2.03624  -0.00012  -0.00011  -0.00018  -0.00028   2.03596
    R4        2.03624  -0.00012  -0.00011  -0.00018  -0.00029   2.03596
    R5        2.65484  -0.00013  -0.00053   0.00029  -0.00024   2.65460
    R6        2.03624  -0.00012  -0.00011  -0.00018  -0.00028   2.03596
    R7        2.03624  -0.00012  -0.00011  -0.00018  -0.00029   2.03596
    A1        1.86802   0.00006   0.00032  -0.00015   0.00017   1.86819
    A2        1.92888   0.00011  -0.00001   0.00061   0.00059   1.92948
    A3        1.92889   0.00011  -0.00002   0.00061   0.00059   1.92948
    A4        1.91297  -0.00008   0.00005  -0.00039  -0.00034   1.91263
    A5        1.91296  -0.00008   0.00005  -0.00038  -0.00033   1.91264
    A6        1.91165  -0.00012  -0.00037  -0.00031  -0.00068   1.91097
    A7        1.86802   0.00006   0.00032  -0.00015   0.00017   1.86819
    A8        1.92888   0.00011  -0.00001   0.00061   0.00059   1.92948
    A9        1.92889   0.00011  -0.00002   0.00061   0.00059   1.92948
   A10        1.91297  -0.00008   0.00005  -0.00039  -0.00034   1.91263
   A11        1.91296  -0.00008   0.00005  -0.00038  -0.00033   1.91264
   A12        1.91165  -0.00012  -0.00037  -0.00031  -0.00068   1.91097
    D1        3.14157   0.00000   0.00001   0.00002   0.00003  -3.14158
    D2       -1.05951   0.00000   0.00024  -0.00019   0.00005  -1.05946
    D3        1.05948   0.00000  -0.00024   0.00022  -0.00001   1.05947
    D4       -1.05951   0.00000   0.00024  -0.00019   0.00005  -1.05946
    D5        1.02259   0.00000   0.00048  -0.00040   0.00008   1.02267
    D6        3.14158   0.00000   0.00000   0.00001   0.00001  -3.14159
    D7        1.05948   0.00000  -0.00024   0.00022  -0.00001   1.05947
    D8        3.14158   0.00000   0.00000   0.00001   0.00001  -3.14159
    D9       -1.02261   0.00000  -0.00048   0.00043  -0.00005  -1.02266
         Item               Value     Threshold  Converged?
 Maximum Force            0.000126     0.000450     YES
 RMS     Force            0.000085     0.000300     YES
 Maximum Displacement     0.001101     0.001800     YES
 RMS     Displacement     0.000527     0.001200     YES
 Predicted change in Energy=-3.816070D-07
 Optimization completed.
    -- Stationary point found.
                           ----------------------------
                           !   Optimized Parameters   !
                           ! (Angstroms and Degrees)  !
 --------------------------                            --------------------------
 ! Name  Definition              Value          Derivative Info.                !
 --------------------------------------------------------------------------------
 ! R1    R(1,2)                  1.5145         -DE/DX =    0.0001              !
 ! R2    R(1,6)                  1.4049         -DE/DX =   -0.0001              !
 ! R3    R(1,7)                  1.0775         -DE/DX =   -0.0001              !
 ! R4    R(1,8)                  1.0775         -DE/DX =   -0.0001              !
 ! R5    R(2,3)                  1.4049         -DE/DX =   -0.0001              !
 ! R6    R(2,4)                  1.0775         -DE/DX =   -0.0001              !
 ! R7    R(2,5)                  1.0775         -DE/DX =   -0.0001              !
 ! A1    A(2,1,6)              107.0298         -DE/DX =    0.0001              !
 ! A2    A(2,1,7)              110.5168         -DE/DX =    0.0001              !
 ! A3    A(2,1,8)              110.517          -DE/DX =    0.0001              !
 ! A4    A(6,1,7)              109.6053         -DE/DX =   -0.0001              !
 ! A5    A(6,1,8)              109.6046         -DE/DX =   -0.0001              !
 ! A6    A(7,1,8)              109.5296         -DE/DX =   -0.0001              !
 ! A7    A(1,2,3)              107.0298         -DE/DX =    0.0001              !
 ! A8    A(1,2,4)              110.5168         -DE/DX =    0.0001              !
 ! A9    A(1,2,5)              110.517          -DE/DX =    0.0001              !
 ! A10   A(3,2,4)              109.6053         -DE/DX =   -0.0001              !
 ! A11   A(3,2,5)              109.6046         -DE/DX =   -0.0001              !
 ! A12   A(4,2,5)              109.5296         -DE/DX =   -0.0001              !
 ! D1    D(6,1,2,3)           -180.0012         -DE/DX =    0.0                 !
 ! D2    D(6,1,2,4)            -60.7056         -DE/DX =    0.0                 !
 ! D3    D(6,1,2,5)             60.7039         -DE/DX =    0.0                 !
 ! D4    D(7,1,2,3)            -60.7056         -DE/DX =    0.0                 !
 ! D5    D(7,1,2,4)             58.59           -DE/DX =    0.0                 !
 ! D6    D(7,1,2,5)           -180.0005         -DE/DX =    0.0                 !
 ! D7    D(8,1,2,3)             60.7039         -DE/DX =    0.0                 !
 ! D8    D(8,1,2,4)           -180.0005         -DE/DX =    0.0                 !
 ! D9    D(8,1,2,5)            -58.5911         -DE/DX =    0.0                 !
 --------------------------------------------------------------------------------
 GradGradGradGradGradGradGradGradGradGradGradGradGradGradGradGradGradGrad

 Largest change from initial coordinates is atom    3       2.366 Angstoms.
 Leave Link  103 at Wed Oct  3 22:57:33 2007, MaxMem=    6291456 cpu:       0.1
 (Enter /opt/und/gaussian/03D01/linux86-64/g03/l202.exe)
                          Input orientation:                          
 ---------------------------------------------------------------------
 Center     Atomic     Atomic              Coordinates (Angstroms)
 Number     Number      Type              X           Y           Z
 ---------------------------------------------------------------------
    1          6             0        0.020850    0.000030    0.012346
    2          6             0       -0.020850    0.000030    1.526254
    3          9             0        1.310590    0.000015    1.974530
    4          1             0       -0.524861    0.880150    1.890171
    5          1             0       -0.524869   -0.880086    1.890173
    6          9             0       -1.310590    0.000015   -0.435930
    7          1             0        0.524861    0.880150   -0.351571
    8          1             0        0.524869   -0.880086   -0.351573
 ---------------------------------------------------------------------
                    Distance matrix (angstroms):
                    1          2          3          4          5
     1  C    0.000000
     2  C    1.514483   0.000000
     3  F    2.348105   1.404878   0.000000
     4  H    2.144444   1.077532   2.037311   0.000000
     5  H    2.144446   1.077532   2.037303   1.760237   0.000000
     6  F    1.404878   2.348105   3.561025   2.608209   2.608197
     7  H    1.077532   2.144444   2.608209   2.475342   3.037397
     8  H    1.077532   2.144446   2.608197   3.037397   2.475354
                    6          7          8
     6  F    0.000000
     7  H    2.037311   0.000000
     8  H    2.037303   1.760237   0.000000
 Stoichiometry    C2H4F2
 Framework group  C2[X(C2H4F2)]
 Deg. of freedom    10
 Full point group                 C2
 Largest Abelian subgroup         C2      NOp   2
 Largest concise Abelian subgroup C2      NOp   2
                         Standard orientation:                         
 ---------------------------------------------------------------------
 Center     Atomic     Atomic              Coordinates (Angstroms)
 Number     Number      Type              X           Y           Z
 ---------------------------------------------------------------------
    1          6             0       -0.724038   -0.221773    0.000007
    2          6             0        0.724038    0.221773    0.000007
    3          9             0        0.724038    1.626651   -0.000007
    4          1             0        1.229754   -0.139772    0.880128
    5          1             0        1.229759   -0.139778   -0.880108
    6          9             0       -0.724038   -1.626651   -0.000007
    7          1             0       -1.229754    0.139772    0.880128
    8          1             0       -1.229759    0.139778   -0.880108
 ---------------------------------------------------------------------
 Rotational constants (GHZ):     31.7331505      3.8662623      3.5996763
 Leave Link  202 at Wed Oct  3 22:57:34 2007, MaxMem=    6291456 cpu:       0.1
 (Enter /opt/und/gaussian/03D01/linux86-64/g03/l601.exe)
 Copying SCF densities to generalized density rwf, ISCF=0 IROHF=0.

 **********************************************************************

            Population analysis using the SCF density.

 **********************************************************************

 Orbital symmetries:
       Occupied  (B) (A) (B) (A) (A) (B) (A) (B) (A) (B) (A) (B)
                 (A) (B) (A) (B) (A)
       Virtual   (B) (A) (A) (B) (B) (A) (B) (A) (A) (B) (A) (B)
                 (B) (A) (A) (B) (B) (A) (B) (A) (B) (A) (B) (A)
                 (B) (A) (B)
 The electronic state is 1-A.
 Alpha  occ. eigenvalues --  -26.14272 -26.14258 -11.26411 -11.26372  -1.57571
 Alpha  occ. eigenvalues --   -1.56890  -1.04737  -0.88214  -0.73429  -0.69631
 Alpha  occ. eigenvalues --   -0.69106  -0.66632  -0.62859  -0.60134  -0.55323
 Alpha  occ. eigenvalues --   -0.50744  -0.50231
 Alpha virt. eigenvalues --    0.25813   0.26927   0.30442   0.33002   0.36821
 Alpha virt. eigenvalues --    0.42670   0.43753   0.89660   0.94415   0.95777
 Alpha virt. eigenvalues --    0.98887   1.00617   1.13696   1.22933   1.30598
 Alpha virt. eigenvalues --    1.33251   1.36790   1.78318   2.15851   2.32215
 Alpha virt. eigenvalues --    2.36042   2.38328   2.47185   2.48148   2.48772
 Alpha virt. eigenvalues --    3.92729   4.04859
          Condensed to atoms (all electrons):
              1          2          3          4          5          6
     1  C    5.110344   0.165570  -0.028522  -0.051465  -0.051465   0.195160
     2  C    0.165570   5.110344   0.195160   0.352397   0.352398  -0.028522
     3  F   -0.028522   0.195160   9.283599  -0.024969  -0.024969   0.000041
     4  H   -0.051465   0.352397  -0.024969   0.537305  -0.038755   0.002241
     5  H   -0.051465   0.352398  -0.024969  -0.038755   0.537303   0.002241
     6  F    0.195160  -0.028522   0.000041   0.002241   0.002241   9.283599
     7  H    0.352397  -0.051465   0.002241  -0.005624   0.004252  -0.024969
     8  H    0.352398  -0.051465   0.002241   0.004252  -0.005624  -0.024969
              7          8
     1  C    0.352397   0.352398
     2  C   -0.051465  -0.051465
     3  F    0.002241   0.002241
     4  H   -0.005624   0.004252
     5  H    0.004252  -0.005624
     6  F   -0.024969  -0.024969
     7  H    0.537305  -0.038755
     8  H   -0.038755   0.537303
 Mulliken atomic charges:
              1
     1  C   -0.044417
     2  C   -0.044417
     3  F   -0.404821
     4  H    0.224618
     5  H    0.224619
     6  F   -0.404821
     7  H    0.224618
     8  H    0.224619
 Sum of Mulliken charges=   0.00000
 Atomic charges with hydrogens summed into heavy atoms:
              1
     1  C    0.404821
     2  C    0.404821
     3  F   -0.404821
     4  H    0.000000
     5  H    0.000000
     6  F   -0.404821
     7  H    0.000000
     8  H    0.000000
 Sum of Mulliken charges=   0.00000
 Electronic spatial extent (au):  <R**2>=   315.8927
 Charge=     0.0000 electrons
 Dipole moment (field-independent basis, Debye):
    X=     0.0000    Y=     0.0000    Z=     0.0000  Tot=     0.0000
 Quadrupole moment (field-independent basis, Debye-Ang):
   XX=   -21.5042   YY=   -30.7325   ZZ=   -21.1954
   XY=    -3.5360   XZ=     0.0000   YZ=     0.0000
 Traceless Quadrupole moment (field-independent basis, Debye-Ang):
   XX=     2.9732   YY=    -6.2551   ZZ=     3.2819
   XY=    -3.5360   XZ=     0.0000   YZ=     0.0000
 Octapole moment (field-independent basis, Debye-Ang**2):
  XXX=     0.0000  YYY=     0.0000  ZZZ=    -0.0001  XYY=     0.0000
  XXY=     0.0000  XXZ=     0.0000  XZZ=     0.0000  YZZ=     0.0000
  YYZ=     0.0000  XYZ=     0.0000
 Hexadecapole moment (field-independent basis, Debye-Ang**3):
 XXXX=  -103.0529 YYYY=  -190.0761 ZZZZ=   -28.3520 XXXY=   -38.4241
 XXXZ=     0.0000 YYYX=   -47.1813 YYYZ=     0.0000 ZZZX=     0.0000
 ZZZY=     0.0000 XXYY=   -49.7609 XXZZ=   -19.9791 YYZZ=   -32.7460
 XXYZ=     0.0000 YYXZ=     0.0000 ZZXY=   -12.7628
 N-N= 1.253762215837D+02 E-N=-9.053465823775D+02  KE= 2.746906449350D+02
 Symmetry A    KE= 1.389353805452D+02
 Symmetry B    KE= 1.357552643897D+02
 No NMR shielding tensors so no spin-rotation constants.
 Leave Link  601 at Wed Oct  3 22:57:34 2007, MaxMem=    6291456 cpu:       0.2
 (Enter /opt/und/gaussian/03D01/linux86-64/g03/l9999.exe)
 Atom   5 needs variable   8= 110.5169727043 but is  110.5168122816
 Input z-matrix variables are not compatible with final structure.
 1\1\GINC-DCOPT140\FOpt\RHF\3-21G\C2H4F2\WSCHNEI1\03-Oct-2007\0\\#P HF/
 3-21G opt\\C2H4F2 Scan\\0,1\C,0.020849789,0.0000295258,0.0123456003\C,
 -0.020849789,0.0000295258,1.5262543997\F,1.310590291,0.0000152245,1.97
 4529571\H,-0.5248607007,0.8801504585,1.8901707618\H,-0.5248686977,-0.8
 80086057,1.8901734681\F,-1.310590291,0.0000152245,-0.435929571\H,0.524
 8607007,0.8801504585,-0.3515707618\H,0.5248686977,-0.880086057,-0.3515
 734681\\Version=AM64L-G03RevD.01\State=1-A\HF=-275.4198882\RMSD=3.048e
 -09\RMSF=7.522e-05\Thermal=0.\Dipole=0.,0.0000178,0.\PG=C02 [X(C2H4F2)
 ]\\@


 WE HAVE SEEN THAT MAN ON THE AVERAGE DOES NOT LIVE ABOVE
 TWO-AND-TWENTY YEARS.  DURING THESE TWO AND TWENTY
 YEARS HE IS LIABLE TO TWO AND TWENTY THOUSAND EVILS,
 MANY OF WHICH ARE INCURABLE.  YET EVEN IN THIS DREADFUL STATE
 MEN STILL STRUT AND POSE ON THE STAGE OF LIFE.
 THEY MAKE LOVE AT THE RISK OF DESTRUCTION,
 INTRIGUE, CARRY ON WAR, AND FORM PROJECTS, JUST AS IF THEY
 WERE TO LIVE IN LUXURY AND HAPPINESS FOR A THOUSAND
 AGES.

                                              -- VOLTAIRE
 Job cpu time:  0 days  0 hours  0 minutes 10.4 seconds.
 File lengths (MBytes):  RWF=     18 Int=      0 D2E=      0 Chk=     10 Scr=      1
 Normal termination of Gaussian 03 at Wed Oct  3 22:57:35 2007.
