 Entering Gaussian System, Link 0=g03
 Input=t-C2H4F2-mp2opt.com
 Output=t-C2H4F2-mp2opt.log
 Initial command:
 /opt/und/gaussian/03D01/linux86-64/g03/l1.exe /scratch/Gau-3187.inp -scrdir=/scratch/
 Entering Link 1 = /opt/und/gaussian/03D01/linux86-64/g03/l1.exe PID=      3188.
  
 Copyright (c) 1988,1990,1992,1993,1995,1998,2003,2004, Gaussian, Inc.
                  All Rights Reserved.
  
 This is the Gaussian(R) 03 program.  It is based on the
 the Gaussian(R) 98 system (copyright 1998, Gaussian, Inc.),
 the Gaussian(R) 94 system (copyright 1995, Gaussian, Inc.),
 the Gaussian 92(TM) system (copyright 1992, Gaussian, Inc.),
 the Gaussian 90(TM) system (copyright 1990, Gaussian, Inc.),
 the Gaussian 88(TM) system (copyright 1988, Gaussian, Inc.),
 the Gaussian 86(TM) system (copyright 1986, Carnegie Mellon
 University), and the Gaussian 82(TM) system (copyright 1983,
 Carnegie Mellon University). Gaussian is a federally registered
 trademark of Gaussian, Inc.
  
 This software contains proprietary and confidential information,
 including trade secrets, belonging to Gaussian, Inc.
  
 This software is provided under written license and may be
 used, copied, transmitted, or stored only in accord with that
 written license.
  
 The following legend is applicable only to US Government
 contracts under FAR:
  
                    RESTRICTED RIGHTS LEGEND
  
 Use, reproduction and disclosure by the US Government is
 subject to restrictions as set forth in subparagraphs (a)
 and (c) of the Commercial Computer Software - Restricted
 Rights clause in FAR 52.227-19.
  
 Gaussian, Inc.
 340 Quinnipiac St., Bldg. 40, Wallingford CT 06492
  
  
 ---------------------------------------------------------------
 Warning -- This program may not be used in any manner that
 competes with the business of Gaussian, Inc. or will provide
 assistance to any competitor of Gaussian, Inc.  The licensee
 of this program is prohibited from giving any competitor of
 Gaussian, Inc. access to this program.  By using this program,
 the user acknowledges that Gaussian, Inc. is engaged in the
 business of creating and licensing software in the field of
 computational chemistry and represents and warrants to the
 licensee that it is not a competitor of Gaussian, Inc. and that
 it will not use this program in any manner prohibited above.
 ---------------------------------------------------------------
  

 Cite this work as:
 Gaussian 03, Revision D.01,
 M. J. Frisch, G. W. Trucks, H. B. Schlegel, G. E. Scuseria, 
 M. A. Robb, J. R. Cheeseman, J. A. Montgomery, Jr., T. Vreven, 
 K. N. Kudin, J. C. Burant, J. M. Millam, S. S. Iyengar, J. Tomasi, 
 V. Barone, B. Mennucci, M. Cossi, G. Scalmani, N. Rega, 
 G. A. Petersson, H. Nakatsuji, M. Hada, M. Ehara, K. Toyota, 
 R. Fukuda, J. Hasegawa, M. Ishida, T. Nakajima, Y. Honda, O. Kitao, 
 H. Nakai, M. Klene, X. Li, J. E. Knox, H. P. Hratchian, J. B. Cross, 
 V. Bakken, C. Adamo, J. Jaramillo, R. Gomperts, R. E. Stratmann, 
 O. Yazyev, A. J. Austin, R. Cammi, C. Pomelli, J. W. Ochterski, 
 P. Y. Ayala, K. Morokuma, G. A. Voth, P. Salvador, J. J. Dannenberg, 
 V. G. Zakrzewski, S. Dapprich, A. D. Daniels, M. C. Strain, 
 O. Farkas, D. K. Malick, A. D. Rabuck, K. Raghavachari, 
 J. B. Foresman, J. V. Ortiz, Q. Cui, A. G. Baboul, S. Clifford, 
 J. Cioslowski, B. B. Stefanov, G. Liu, A. Liashenko, P. Piskorz, 
 I. Komaromi, R. L. Martin, D. J. Fox, T. Keith, M. A. Al-Laham, 
 C. Y. Peng, A. Nanayakkara, M. Challacombe, P. M. W. Gill, 
 B. Johnson, W. Chen, M. W. Wong, C. Gonzalez, and J. A. Pople, 
 Gaussian, Inc., Wallingford CT, 2004.
 
 ******************************************
 Gaussian 03:  AM64L-G03RevD.01 13-Oct-2005
                16-Oct-2007 
 ******************************************
 %chk=t-C2H4F2-mp2.chk
 %mem=6MW
 %nproc=1
 Will use up to    1 processors via shared memory.
 ----------------
 #P MP2/3-21G opt
 ----------------
 1/18=20,38=1/1,3;
 2/9=110,17=6,18=5,40=1/2;
 3/5=5,11=9,16=1,25=1,30=1/1,2,3;
 4//1;
 5/5=2,38=5/2;
 8/6=4,10=1/1;
 9/15=2,16=-3/6;
 10/5=1/2;
 6/7=2,8=2,9=2,10=2/1;
 7/12=2/1,2,3,16;
 1/18=20/3(3);
 2/9=110/2;
 6/7=2,8=2,9=2,10=2/1;
 99//99;
 2/9=110/2;
 3/5=5,11=9,16=1,25=1,30=1/1,2,3;
 4/5=5,16=3/1;
 5/5=2,38=5/2;
 8/6=4,10=1/1;
 9/15=2,16=-3/6;
 10/5=1/2;
 7/12=2/1,2,3,16;
 1/18=20/3(-8);
 2/9=110/2;
 6/7=2,8=2,9=2,10=2/1;
 99//99;
 Leave Link    1 at Tue Oct 16 12:30:18 2007, MaxMem=    6291456 cpu:       0.3
 (Enter /opt/und/gaussian/03D01/linux86-64/g03/l101.exe)
 -------------------------
 C2H4F2 trans optimization
 -------------------------
 Symbolic Z-matrix:
 Charge =  0 Multiplicity = 1
 C
 C                    1    r1
 F                    2    r2       1    A1
 H                    2    r3       1    A2       3    D1       0
 H                    2    r3       1    A2       3    D2       0
 F                    1    r2       2    A1       3    D3       0
 H                    1    r3       2    A2       6    D1       0
 H                    1    r3       2    A2       6    D2       0
       Variables:
  r1                    1.5386                   
  r2                    1.39462                  
  r3                    1.11456                  
  D1                  120.47127                  
  D2                 -120.48305                  
  A1                  109.54214                  
  D3                  180.                       
  A2                  110.09239                  
 
                    Isotopes and Nuclear Properties:
 (Nuclear quadrupole moments (NQMom) in fm**2, nuclear magnetic moments (NMagM)
  in nuclear magnetons)

  Atom         1           2           3           4           5           6           7           8
 IAtWgt=          12          12          19           1           1          19           1           1
 AtmWgt=  12.0000000  12.0000000  18.9984033   1.0078250   1.0078250  18.9984033   1.0078250   1.0078250
 NucSpn=           0           0           1           1           1           1           1           1
 AtZEff=   0.0000000   0.0000000   0.0000000   0.0000000   0.0000000   0.0000000   0.0000000   0.0000000
 NQMom=    0.0000000   0.0000000  -9.4200000   0.0000000   0.0000000  -9.4200000   0.0000000   0.0000000
 NMagM=    0.0000000   0.0000000   2.6288670   2.7928460   2.7928460   2.6288670   2.7928460   2.7928460
 Leave Link  101 at Tue Oct 16 12:30:18 2007, MaxMem=    6291456 cpu:       0.3
 (Enter /opt/und/gaussian/03D01/linux86-64/g03/l103.exe)

 GradGradGradGradGradGradGradGradGradGradGradGradGradGradGradGradGradGrad
 Berny optimization.
 Initialization pass.
                           ----------------------------
                           !    Initial Parameters    !
                           ! (Angstroms and Degrees)  !
 --------------------------                            --------------------------
 ! Name  Definition              Value          Derivative Info.                !
 --------------------------------------------------------------------------------
 ! R1    R(1,2)                  1.5386         estimate D2E/DX2                !
 ! R2    R(1,6)                  1.3946         estimate D2E/DX2                !
 ! R3    R(1,7)                  1.1146         estimate D2E/DX2                !
 ! R4    R(1,8)                  1.1146         estimate D2E/DX2                !
 ! R5    R(2,3)                  1.3946         estimate D2E/DX2                !
 ! R6    R(2,4)                  1.1146         estimate D2E/DX2                !
 ! R7    R(2,5)                  1.1146         estimate D2E/DX2                !
 ! A1    A(2,1,6)              109.5421         estimate D2E/DX2                !
 ! A2    A(2,1,7)              110.0924         estimate D2E/DX2                !
 ! A3    A(2,1,8)              110.0924         estimate D2E/DX2                !
 ! A4    A(6,1,7)              109.5055         estimate D2E/DX2                !
 ! A5    A(6,1,8)              109.515          estimate D2E/DX2                !
 ! A6    A(7,1,8)              108.0709         estimate D2E/DX2                !
 ! A7    A(1,2,3)              109.5421         estimate D2E/DX2                !
 ! A8    A(1,2,4)              110.0924         estimate D2E/DX2                !
 ! A9    A(1,2,5)              110.0924         estimate D2E/DX2                !
 ! A10   A(3,2,4)              109.5055         estimate D2E/DX2                !
 ! A11   A(3,2,5)              109.515          estimate D2E/DX2                !
 ! A12   A(4,2,5)              108.0709         estimate D2E/DX2                !
 ! D1    D(6,1,2,3)            180.0            estimate D2E/DX2                !
 ! D2    D(6,1,2,4)            -59.5287         estimate D2E/DX2                !
 ! D3    D(6,1,2,5)             59.5169         estimate D2E/DX2                !
 ! D4    D(7,1,2,3)            -59.5287         estimate D2E/DX2                !
 ! D5    D(7,1,2,4)             60.9425         estimate D2E/DX2                !
 ! D6    D(7,1,2,5)            179.9882         estimate D2E/DX2                !
 ! D7    D(8,1,2,3)             59.5169         estimate D2E/DX2                !
 ! D8    D(8,1,2,4)            179.9882         estimate D2E/DX2                !
 ! D9    D(8,1,2,5)            -60.9661         estimate D2E/DX2                !
 --------------------------------------------------------------------------------
 Trust Radius=3.00D-01 FncErr=1.00D-07 GrdErr=1.00D-07
 Number of steps in this run=  38 maximum allowed number of steps= 100.
 GradGradGradGradGradGradGradGradGradGradGradGradGradGradGradGradGradGrad

 Leave Link  103 at Tue Oct 16 12:30:19 2007, MaxMem=    6291456 cpu:       0.1
 (Enter /opt/und/gaussian/03D01/linux86-64/g03/l202.exe)
                          Input orientation:                          
 ---------------------------------------------------------------------
 Center     Atomic     Atomic              Coordinates (Angstroms)
 Number     Number      Type              X           Y           Z
 ---------------------------------------------------------------------
    1          6             0        0.000000    0.000000    0.000000
    2          6             0        0.000000    0.000000    1.538600
    3          9             0        1.314284    0.000000    2.005100
    4          1             0       -0.530802    0.902157    1.921490
    5          1             0       -0.530988   -0.902048    1.921490
    6          9             0       -1.314284    0.000000   -0.466500
    7          1             0        0.530802    0.902157   -0.382890
    8          1             0        0.530988   -0.902048   -0.382890
 ---------------------------------------------------------------------
                    Distance matrix (angstroms):
                    1          2          3          4          5
     1  C    0.000000
     2  C    1.538600   0.000000
     3  F    2.397451   1.394620   0.000000
     4  H    2.188096   1.114560   2.055534   0.000000
     5  H    2.188096   1.114560   2.055653   1.804206   0.000000
     6  F    1.394620   2.397451   3.608072   2.670249   2.670158
     7  H    1.114560   2.188096   2.670249   2.537159   3.113314
     8  H    1.114560   2.188096   2.670158   3.113314   2.537314
                    6          7          8
     6  F    0.000000
     7  H    2.055534   0.000000
     8  H    2.055653   1.804206   0.000000
 Stoichiometry    C2H4F2
 Framework group  C2[X(C2H4F2)]
 Deg. of freedom    10
 Full point group                 C2
 Largest Abelian subgroup         C2      NOp   2
 Largest concise Abelian subgroup C2      NOp   2
                         Standard orientation:                         
 ---------------------------------------------------------------------
 Center     Atomic     Atomic              Coordinates (Angstroms)
 Number     Number      Type              X           Y           Z
 ---------------------------------------------------------------------
    1          6             0        0.421731    0.643402   -0.000006
    2          6             0       -0.421731   -0.643402   -0.000006
    3          9             0        0.421731   -1.754049   -0.000006
    4          1             0       -1.075566   -0.672645    0.902151
    5          1             0       -1.075721   -0.672543   -0.902055
    6          9             0       -0.421731    1.754049   -0.000006
    7          1             0        1.075566    0.672645    0.902151
    8          1             0        1.075721    0.672543   -0.902055
 ---------------------------------------------------------------------
 Rotational constants (GHZ):     31.6590595      3.7448772      3.5009698
 Leave Link  202 at Tue Oct 16 12:30:19 2007, MaxMem=    6291456 cpu:       0.3
 (Enter /opt/und/gaussian/03D01/linux86-64/g03/l301.exe)
 Standard basis: 3-21G (6D, 7F)
 There are    22 symmetry adapted basis functions of A   symmetry.
 There are    22 symmetry adapted basis functions of B   symmetry.
 Integral buffers will be    131072 words long.
 Raffenetti 1 integral format.
 Two-electron integral symmetry is turned on.
    44 basis functions,    72 primitive gaussians,    44 cartesian basis functions
    17 alpha electrons       17 beta electrons
       nuclear repulsion energy       124.0242934875 Hartrees.
 IExCor=   0 DFT=F Ex=HF Corr=None ExCW=0 ScaHFX=  1.000000
 ScaDFX=  1.000000  1.000000  1.000000  1.000000
 IRadAn=      0 IRanWt=     -1 IRanGd=            0 ICorTp=0
 NAtoms=    8 NActive=    8 NUniq=    4 SFac= 3.00D+00 NAtFMM=   80 NAOKFM=F Big=F
 Leave Link  301 at Tue Oct 16 12:30:19 2007, MaxMem=    6291456 cpu:       0.1
 (Enter /opt/und/gaussian/03D01/linux86-64/g03/linda-exe/l302.exel)
 NPDir=0 NMtPBC=     1 NCelOv=     1 NCel=       1 NClECP=     1 NCelD=      1
         NCelK=      1 NCelE2=     1 NClLst=     1 CellRange=     0.0.
 One-electron integrals computed using PRISM.
 One-electron integral symmetry used in STVInt
 NBasis=    44 RedAO= T  NBF=    22    22
 NBsUse=    44 1.00D-06 NBFU=    22    22
 Leave Link  302 at Tue Oct 16 12:30:20 2007, MaxMem=    6291456 cpu:       0.1
 (Enter /opt/und/gaussian/03D01/linux86-64/g03/l303.exe)
 DipDrv:  MaxL=1.
 Leave Link  303 at Tue Oct 16 12:30:20 2007, MaxMem=    6291456 cpu:       0.0
 (Enter /opt/und/gaussian/03D01/linux86-64/g03/l401.exe)
 Harris functional with IExCor=  205 diagonalized for initial guess.
 ExpMin= 1.83D-01 ExpMax= 4.14D+02 ExpMxC= 4.14D+02 IAcc=1 IRadAn=         1 AccDes= 1.00D-06
 HarFok:  IExCor= 205 AccDes= 1.00D-06 IRadAn=         1 IDoV=1
 ScaDFX=  1.000000  1.000000  1.000000  1.000000
 Harris En= -275.508095487934    
 Initial guess orbital symmetries:
       Occupied  (B) (A) (B) (A) (A) (B) (A) (B) (A) (B) (A) (A)
                 (B) (B) (A) (A) (B)
       Virtual   (B) (A) (A) (B) (A) (B) (B) (B) (A) (A) (B) (A)
                 (B) (A) (A) (B) (B) (A) (A) (B) (B) (A) (A) (B)
                 (B) (A) (B)
 The electronic state of the initial guess is 1-A.
 Leave Link  401 at Tue Oct 16 12:30:20 2007, MaxMem=    6291456 cpu:       0.1
 (Enter /opt/und/gaussian/03D01/linux86-64/g03/linda-exe/l502.exel)
 Closed shell SCF:
 Requested convergence on RMS density matrix=1.00D-08 within 128 cycles.
 Requested convergence on MAX density matrix=1.00D-06.
 Requested convergence on             energy=1.00D-06.
 No special actions if energy rises.
 Using DIIS extrapolation, IDIIS=  1040.
 Integral symmetry usage will be decided dynamically.
 Keep R1 integrals in memory in canonical form, NReq=     1360589.
 IEnd=     24490 IEndB=     24490 NGot=   6291456 MDV=   5795028
 LenX=   5795028
 Symmetry not used in FoFDir.
 MinBra= 0 MaxBra= 1 Meth= 1.
 IRaf=       0 NMat=   1 IRICut=       1 DoRegI=T DoRafI=F ISym2E= 0 JSym2E=0.

 Cycle   1  Pass 1  IDiag  1:
 E= -275.342014858311    
 DIIS: error= 4.80D-02 at cycle   1 NSaved=   1.
 NSaved= 1 IEnMin= 1 EnMin= -275.342014858311     IErMin= 1 ErrMin= 4.80D-02
 ErrMax= 4.80D-02 EMaxC= 1.00D-01 BMatC= 1.59D-01 BMatP= 1.59D-01
 IDIUse=3 WtCom= 5.20D-01 WtEn= 4.80D-01
 Coeff-Com:  0.100D+01
 Coeff-En:   0.100D+01
 Coeff:      0.100D+01
 Gap=     0.756 Goal=   None    Shift=    0.000
 GapD=    0.756 DampG=2.000 DampE=0.500 DampFc=1.0000 IDamp=-1.
 RMSDP=6.19D-03 MaxDP=4.95D-02              OVMax= 4.96D-02

 Cycle   2  Pass 1  IDiag  1:
 E= -275.410307832352     Delta-E=       -0.068292974041 Rises=F Damp=F
 DIIS: error= 1.07D-02 at cycle   2 NSaved=   2.
 NSaved= 2 IEnMin= 2 EnMin= -275.410307832352     IErMin= 2 ErrMin= 1.07D-02
 ErrMax= 1.07D-02 EMaxC= 1.00D-01 BMatC= 6.80D-03 BMatP= 1.59D-01
 IDIUse=3 WtCom= 8.93D-01 WtEn= 1.07D-01
 Coeff-Com:  0.715D-01 0.929D+00
 Coeff-En:   0.000D+00 0.100D+01
 Coeff:      0.638D-01 0.936D+00
 Gap=     0.758 Goal=   None    Shift=    0.000
 RMSDP=1.67D-03 MaxDP=1.32D-02 DE=-6.83D-02 OVMax= 1.66D-02

 Cycle   3  Pass 1  IDiag  1:
 E= -275.415185157829     Delta-E=       -0.004877325477 Rises=F Damp=F
 DIIS: error= 3.23D-03 at cycle   3 NSaved=   3.
 NSaved= 3 IEnMin= 3 EnMin= -275.415185157829     IErMin= 3 ErrMin= 3.23D-03
 ErrMax= 3.23D-03 EMaxC= 1.00D-01 BMatC= 2.99D-04 BMatP= 6.80D-03
 IDIUse=3 WtCom= 9.68D-01 WtEn= 3.23D-02
 Coeff-Com: -0.175D-01 0.131D+00 0.886D+00
 Coeff-En:   0.000D+00 0.000D+00 0.100D+01
 Coeff:     -0.169D-01 0.127D+00 0.890D+00
 Gap=     0.753 Goal=   None    Shift=    0.000
 RMSDP=3.56D-04 MaxDP=3.06D-03 DE=-4.88D-03 OVMax= 3.43D-03

 Cycle   4  Pass 1  IDiag  1:
 E= -275.415481391988     Delta-E=       -0.000296234158 Rises=F Damp=F
 DIIS: error= 4.37D-04 at cycle   4 NSaved=   4.
 NSaved= 4 IEnMin= 4 EnMin= -275.415481391988     IErMin= 4 ErrMin= 4.37D-04
 ErrMax= 4.37D-04 EMaxC= 1.00D-01 BMatC= 8.21D-06 BMatP= 2.99D-04
 IDIUse=3 WtCom= 9.96D-01 WtEn= 4.37D-03
 Coeff-Com: -0.304D-02 0.907D-02 0.110D+00 0.884D+00
 Coeff-En:   0.000D+00 0.000D+00 0.000D+00 0.100D+01
 Coeff:     -0.303D-02 0.903D-02 0.110D+00 0.884D+00
 Gap=     0.753 Goal=   None    Shift=    0.000
 RMSDP=6.33D-05 MaxDP=4.67D-04 DE=-2.96D-04 OVMax= 6.62D-04

 Cycle   5  Pass 1  IDiag  1:
 E= -275.415488410619     Delta-E=       -0.000007018632 Rises=F Damp=F
 DIIS: error= 1.69D-04 at cycle   5 NSaved=   5.
 NSaved= 5 IEnMin= 5 EnMin= -275.415488410619     IErMin= 5 ErrMin= 1.69D-04
 ErrMax= 1.69D-04 EMaxC= 1.00D-01 BMatC= 1.31D-06 BMatP= 8.21D-06
 IDIUse=3 WtCom= 9.98D-01 WtEn= 1.69D-03
 Coeff-Com:  0.177D-02-0.179D-01-0.981D-01 0.196D+00 0.919D+00
 Coeff-En:   0.000D+00 0.000D+00 0.000D+00 0.000D+00 0.100D+01
 Coeff:      0.176D-02-0.179D-01-0.979D-01 0.195D+00 0.919D+00
 Gap=     0.753 Goal=   None    Shift=    0.000
 RMSDP=3.13D-05 MaxDP=1.74D-04 DE=-7.02D-06 OVMax= 2.29D-04

 Cycle   6  Pass 1  IDiag  1:
 E= -275.415489543685     Delta-E=       -0.000001133065 Rises=F Damp=F
 DIIS: error= 2.15D-05 at cycle   6 NSaved=   6.
 NSaved= 6 IEnMin= 6 EnMin= -275.415489543685     IErMin= 6 ErrMin= 2.15D-05
 ErrMax= 2.15D-05 EMaxC= 1.00D-01 BMatC= 1.89D-08 BMatP= 1.31D-06
 IDIUse=1 WtCom= 1.00D+00 WtEn= 0.00D+00
 Coeff-Com: -0.506D-03 0.570D-02 0.314D-01-0.696D-01-0.368D+00 0.140D+01
 Coeff:     -0.506D-03 0.570D-02 0.314D-01-0.696D-01-0.368D+00 0.140D+01
 Gap=     0.753 Goal=   None    Shift=    0.000
 RMSDP=6.38D-06 MaxDP=3.16D-05 DE=-1.13D-06 OVMax= 7.95D-05

 Cycle   7  Pass 1  IDiag  1:
 E= -275.415489583899     Delta-E=       -0.000000040215 Rises=F Damp=F
 DIIS: error= 3.56D-06 at cycle   7 NSaved=   7.
 NSaved= 7 IEnMin= 7 EnMin= -275.415489583899     IErMin= 7 ErrMin= 3.56D-06
 ErrMax= 3.56D-06 EMaxC= 1.00D-01 BMatC= 6.57D-10 BMatP= 1.89D-08
 IDIUse=1 WtCom= 1.00D+00 WtEn= 0.00D+00
 Coeff-Com:  0.134D-03-0.158D-02-0.857D-02 0.208D-01 0.104D+00-0.529D+00
 Coeff-Com:  0.141D+01
 Coeff:      0.134D-03-0.158D-02-0.857D-02 0.208D-01 0.104D+00-0.529D+00
 Coeff:      0.141D+01
 Gap=     0.753 Goal=   None    Shift=    0.000
 RMSDP=1.35D-06 MaxDP=1.11D-05 DE=-4.02D-08 OVMax= 1.83D-05

 Cycle   8  Pass 1  IDiag  1:
 E= -275.415489585412     Delta-E=       -0.000000001513 Rises=F Damp=F
 DIIS: error= 3.48D-07 at cycle   8 NSaved=   8.
 NSaved= 8 IEnMin= 8 EnMin= -275.415489585412     IErMin= 8 ErrMin= 3.48D-07
 ErrMax= 3.48D-07 EMaxC= 1.00D-01 BMatC= 7.37D-12 BMatP= 6.57D-10
 IDIUse=1 WtCom= 1.00D+00 WtEn= 0.00D+00
 Coeff-Com: -0.196D-04 0.237D-03 0.124D-02-0.285D-02-0.164D-01 0.876D-01
 Coeff-Com: -0.297D+00 0.123D+01
 Coeff:     -0.196D-04 0.237D-03 0.124D-02-0.285D-02-0.164D-01 0.876D-01
 Coeff:     -0.297D+00 0.123D+01
 Gap=     0.753 Goal=   None    Shift=    0.000
 RMSDP=1.43D-07 MaxDP=1.35D-06 DE=-1.51D-09 OVMax= 1.77D-06

 Cycle   9  Pass 1  IDiag  1:
 E= -275.415489585427     Delta-E=       -0.000000000015 Rises=F Damp=F
 DIIS: error= 5.58D-08 at cycle   9 NSaved=   9.
 NSaved= 9 IEnMin= 9 EnMin= -275.415489585427     IErMin= 9 ErrMin= 5.58D-08
 ErrMax= 5.58D-08 EMaxC= 1.00D-01 BMatC= 1.00D-13 BMatP= 7.37D-12
 IDIUse=1 WtCom= 1.00D+00 WtEn= 0.00D+00
 Coeff-Com:  0.413D-05-0.502D-04-0.261D-03 0.593D-03 0.356D-02-0.197D-01
 Coeff-Com:  0.702D-01-0.367D+00 0.131D+01
 Coeff:      0.413D-05-0.502D-04-0.261D-03 0.593D-03 0.356D-02-0.197D-01
 Coeff:      0.702D-01-0.367D+00 0.131D+01
 Gap=     0.753 Goal=   None    Shift=    0.000
 RMSDP=1.94D-08 MaxDP=9.90D-08 DE=-1.51D-11 OVMax= 2.98D-07

 Cycle  10  Pass 1  IDiag  1:
 E= -275.415489585426     Delta-E=        0.000000000001 Rises=F Damp=F
 DIIS: error= 1.13D-08 at cycle  10 NSaved=  10.
 NSaved=10 IEnMin= 9 EnMin= -275.415489585427     IErMin=10 ErrMin= 1.13D-08
 ErrMax= 1.13D-08 EMaxC= 1.00D-01 BMatC= 3.38D-15 BMatP= 1.00D-13
 IDIUse=1 WtCom= 1.00D+00 WtEn= 0.00D+00
 Coeff-Com: -0.131D-05 0.159D-04 0.830D-04-0.191D-03-0.113D-02 0.634D-02
 Coeff-Com: -0.227D-01 0.126D+00-0.531D+00 0.142D+01
 Coeff:     -0.131D-05 0.159D-04 0.830D-04-0.191D-03-0.113D-02 0.634D-02
 Coeff:     -0.227D-01 0.126D+00-0.531D+00 0.142D+01
 Gap=     0.753 Goal=   None    Shift=    0.000
 RMSDP=3.24D-09 MaxDP=1.86D-08 DE= 1.36D-12 OVMax= 5.11D-08

 SCF Done:  E(RHF) =  -275.415489585     A.U. after   10 cycles
             Convg  =    0.3241D-08             -V/T =  2.0035
             S**2   =   0.0000
 KE= 2.744440912937D+02 PE=-9.023575065652D+02 EE= 2.284736321986D+02
 Leave Link  502 at Tue Oct 16 12:30:21 2007, MaxMem=    6291456 cpu:       0.2
 (Enter /opt/und/gaussian/03D01/linux86-64/g03/l801.exe)
 ExpMin= 1.83D-01 ExpMax= 4.14D+02 ExpMxC= 4.14D+02 IAcc=1 IRadAn=         1 AccDes= 1.00D-06
 HarFok:  IExCor= 205 AccDes= 1.00D-06 IRadAn=         1 IDoV=1
 ScaDFX=  1.000000  1.000000  1.000000  1.000000
 Largest valence mixing into a core orbital is  3.16D-04
 Largest core mixing into a valence orbital is  9.48D-05
 Range of M.O.s used for correlation:     5    44
 NBasis=    44 NAE=    17 NBE=    17 NFC=     4 NFV=     0
 NROrb=     40 NOA=    13 NOB=    13 NVA=    27 NVB=    27
 Leave Link  801 at Tue Oct 16 12:30:21 2007, MaxMem=    6291456 cpu:       0.1
 (Enter /opt/und/gaussian/03D01/linux86-64/g03/linda-exe/l906.exel)
 Frozen-core derivative calculation, NFC=   4 NFV=   0.
 FulOut=F Deriv=T AODrv=T NAtomX=     8
   MMem=         112  MDisk=          13 MDiskD=          13
  W3Min=       32912 MinDsk=      100138 NBas6D=          44
 NBas2D=        1038    NTT=         990    LW2=     1571399
    MDV=     6285596 MDiskM=        1116 NBas2p=         532
 Fully direct method using O(ONN) memory.
 IMap=   1   2   3   4   5   6   7   8   9  10  11  12  13  14  15  16  17
 JobTyp=1 Pass  1:  I=   5 to  17 NPSUse=  1 ParTrn=F ParDer=F DoDerP=T.
 Spin components of T(2) and E(2):
     alpha-alpha T2 =       0.1240879314D-01 E2=     -0.4887674261D-01
     alpha-beta  T2 =       0.8592993886D-01 E2=     -0.3150262576D+00
     beta-beta   T2 =       0.1240879314D-01 E2=     -0.4887674261D-01
 The integrals were generated   1 times.
 ANorm=    0.1053920075D+01
 E2 =    -0.4127797428D+00 EUMP2 =    -0.27582826932822D+03
 Leave Link  906 at Tue Oct 16 12:30:22 2007, MaxMem=    6291456 cpu:       0.5
 (Enter /opt/und/gaussian/03D01/linux86-64/g03/linda-exe/l1002.exel)
 Minotr:  Closed-shell wavefunction.
          Computing MP2 derivatives.
          Using Z-Vector for PSCF gradient.
          Skipping F1 and S1 gradient terms here.
 DoAtom=TTTTTTTT
          Frozen-core window.
          Direct CPHF calculation.
          Solving linear equations simultaneously.
          Differentiating once with respect to electric field.
                with respect to dipole field.
          Differentiating once with respect to nuclear coordinates.
          Using symmetry in CPHF.
          Requested convergence is 1.0D-10 RMS, and 1.0D-09 maximum.
          Secondary convergence is 1.0D-12 RMS, and 1.0D-12 maximum.
          NewPWx=F KeepS1=T KeepF1=T KeepIn=T MapXYZ=F.
          MDV=       6291382 using IRadAn=       0.
          Store integrals in memory, NReq=     1291183.
 Symmetry not used in FoFDir.
 MinBra= 0 MaxBra= 1 Meth= 1.
 IRaf=       0 NMat=   1 IRICut=       1 DoRegI=T DoRafI=F ISym2E= 0 JSym2E=0.
          There are   1 degrees of freedom in the 1st order CPHF.
     1 vectors were produced by pass  0.
 AX will form   1 AO Fock derivatives at one time.
     1 vectors were produced by pass  1.
     1 vectors were produced by pass  2.
     1 vectors were produced by pass  3.
     1 vectors were produced by pass  4.
     1 vectors were produced by pass  5.
     1 vectors were produced by pass  6.
     1 vectors were produced by pass  7.
     1 vectors were produced by pass  8.
     1 vectors were produced by pass  9.
 Inv2:  IOpt= 1 Iter= 1 AM= 2.29D-16 Conv= 1.00D-12.
 Inverted reduced A of dimension   10 with in-core refinement.
 End of Minotr Frequency-dependent properties file   721 does not exist.
 Leave Link 1002 at Tue Oct 16 12:30:25 2007, MaxMem=    6291456 cpu:       0.2
 (Enter /opt/und/gaussian/03D01/linux86-64/g03/l601.exe)
 Copying SCF densities to generalized density rwf, ISCF=0 IROHF=0.

 **********************************************************************

            Population analysis using the SCF density.

 **********************************************************************

 Orbital symmetries:
       Occupied  (B) (A) (B) (A) (A) (B) (A) (B) (A) (B) (A) (B)
                 (A) (B) (A) (A) (B)
       Virtual   (B) (A) (A) (B) (B) (B) (A) (A) (B) (A) (A) (B)
                 (B) (A) (A) (B) (B) (A) (B) (A) (B) (A) (B) (A)
                 (B) (A) (B)
 The electronic state is 1-A.
 Alpha  occ. eigenvalues --  -26.14844 -26.14839 -11.27536 -11.27496  -1.58207
 Alpha  occ. eigenvalues --   -1.57621  -1.03614  -0.87300  -0.72631  -0.69854
 Alpha  occ. eigenvalues --   -0.69354  -0.66887  -0.63428  -0.60532  -0.54872
 Alpha  occ. eigenvalues --   -0.49711  -0.49581
 Alpha virt. eigenvalues --    0.25746   0.26366   0.29223   0.32092   0.35677
 Alpha virt. eigenvalues --    0.42458   0.43715   0.90877   0.95151   0.96881
 Alpha virt. eigenvalues --    0.99100   0.99791   1.13684   1.20759   1.27702
 Alpha virt. eigenvalues --    1.30847   1.32887   1.76254   2.16534   2.31357
 Alpha virt. eigenvalues --    2.35199   2.36669   2.46689   2.47760   2.48147
 Alpha virt. eigenvalues --    3.94466   4.02707
          Condensed to atoms (all electrons):
              1          2          3          4          5          6
     1  C    5.100389   0.160207  -0.026584  -0.050376  -0.050380   0.197274
     2  C    0.160207   5.100389   0.197274   0.350174   0.350160  -0.026584
     3  F   -0.026584   0.197274   9.275490  -0.025093  -0.025085   0.000030
     4  H   -0.050376   0.350174  -0.025093   0.546002  -0.037034   0.001953
     5  H   -0.050380   0.350160  -0.025085  -0.037034   0.546012   0.001954
     6  F    0.197274  -0.026584   0.000030   0.001953   0.001954   9.275490
     7  H    0.350174  -0.050376   0.001953  -0.004682   0.003653  -0.025093
     8  H    0.350160  -0.050380   0.001954   0.003653  -0.004680  -0.025085
              7          8
     1  C    0.350174   0.350160
     2  C   -0.050376  -0.050380
     3  F    0.001953   0.001954
     4  H   -0.004682   0.003653
     5  H    0.003653  -0.004680
     6  F   -0.025093  -0.025085
     7  H    0.546002  -0.037034
     8  H   -0.037034   0.546012
 Mulliken atomic charges:
              1
     1  C   -0.030863
     2  C   -0.030863
     3  F   -0.399939
     4  H    0.215401
     5  H    0.215400
     6  F   -0.399939
     7  H    0.215401
     8  H    0.215400
 Sum of Mulliken charges=   0.00000
 Atomic charges with hydrogens summed into heavy atoms:
              1
     1  C    0.399939
     2  C    0.399939
     3  F   -0.399939
     4  H    0.000000
     5  H    0.000000
     6  F   -0.399939
     7  H    0.000000
     8  H    0.000000
 Sum of Mulliken charges=   0.00000
 Electronic spatial extent (au):  <R**2>=   324.1655
 Charge=     0.0000 electrons
 Dipole moment (field-independent basis, Debye):
    X=     0.0000    Y=     0.0000    Z=     0.0000  Tot=     0.0000
 Quadrupole moment (field-independent basis, Debye-Ang):
   XX=   -21.7520   YY=   -30.8055   ZZ=   -21.4080
   XY=     3.5201   XZ=     0.0000   YZ=     0.0000
 Traceless Quadrupole moment (field-independent basis, Debye-Ang):
   XX=     2.9031   YY=    -6.1503   ZZ=     3.2472
   XY=     3.5201   XZ=     0.0000   YZ=     0.0000
 Octapole moment (field-independent basis, Debye-Ang**2):
  XXX=     0.0000  YYY=     0.0000  ZZZ=     0.0003  XYY=     0.0000
  XXY=     0.0000  XXZ=    -0.0003  XZZ=     0.0000  YZZ=     0.0000
  YYZ=     0.0002  XYZ=     0.0001
 Hexadecapole moment (field-independent basis, Debye-Ang**3):
 XXXX=   -56.9796 YYYY=  -252.3374 ZZZZ=   -29.8398 XXXY=     6.3291
 XXXZ=     0.0000 YYYX=    13.3525 YYYZ=     0.0000 ZZZX=     0.0000
 ZZZY=     0.0000 XXYY=   -47.8771 XXZZ=   -12.5988 YYZZ=   -41.8366
 XXYZ=     0.0000 YYXZ=     0.0000 ZZXY=     2.8986
 N-N= 1.240242934875D+02 E-N=-9.023575065517D+02  KE= 2.744440912937D+02
 Symmetry A    KE= 1.387842043220D+02
 Symmetry B    KE= 1.356598869717D+02
 No NMR shielding tensors so no spin-rotation constants.
 Leave Link  601 at Tue Oct 16 12:30:26 2007, MaxMem=    6291456 cpu:       0.1
 (Enter /opt/und/gaussian/03D01/linux86-64/g03/linda-exe/l701.exel)
 Compute integral first derivatives.
 ... and contract with generalized density number  2.
 Leave Link  701 at Tue Oct 16 12:30:26 2007, MaxMem=    6291456 cpu:       0.1
 (Enter /opt/und/gaussian/03D01/linux86-64/g03/l702.exe)
 L702 exits ... SP integral derivatives will be done elsewhere.
 Leave Link  702 at Tue Oct 16 12:30:26 2007, MaxMem=    6291456 cpu:       0.0
 (Enter /opt/und/gaussian/03D01/linux86-64/g03/linda-exe/l703.exel)
 Compute integral first derivatives, UseDBF=F.
 Integral derivatives from FoFDir, PRISM(SPDF).
 Use density number 2.
 Petite list used in FoFDir.
 MinBra= 0 MaxBra= 1 Meth= 1.
 IRaf=       0 NMat=   1 IRICut=       1 DoRegI=T DoRafI=F ISym2E= 1 JSym2E=1.
 Leave Link  703 at Tue Oct 16 12:30:27 2007, MaxMem=    6291456 cpu:       0.1
 (Enter /opt/und/gaussian/03D01/linux86-64/g03/l716.exe)
 Use density number 2.
 Dipole        = 1.06581410D-14 5.32907052D-15 5.18900430D-06
 ***** Axes restored to original set *****
 -------------------------------------------------------------------
 Center     Atomic                   Forces (Hartrees/Bohr)
 Number     Number              X              Y              Z
 -------------------------------------------------------------------
    1          6           0.034781608    0.000018347   -0.004152466
    2          6          -0.034781608    0.000018347    0.004152466
    3          9           0.023187632   -0.000012242    0.003692556
    4          1           0.004356176   -0.010624023   -0.006692757
    5          1           0.004374088    0.010617919   -0.006687762
    6          9          -0.023187632   -0.000012242   -0.003692556
    7          1          -0.004356176   -0.010624023    0.006692757
    8          1          -0.004374088    0.010617919    0.006687762
 -------------------------------------------------------------------
 Cartesian Forces:  Max     0.034781608 RMS     0.013327738
 Leave Link  716 at Tue Oct 16 12:30:27 2007, MaxMem=    6291456 cpu:       0.0
 (Enter /opt/und/gaussian/03D01/linux86-64/g03/l103.exe)

 GradGradGradGradGradGradGradGradGradGradGradGradGradGradGradGradGradGrad
 Berny optimization.
 Internal  Forces:  Max     0.023087085 RMS     0.008367486
 Search for a local minimum.
 Step number   1 out of a maximum of  38
 All quantities printed in internal units (Hartrees-Bohrs-Radians)
 Second derivative matrix not updated -- first step.
     Eigenvalues ---    0.00255   0.05647   0.05647   0.05916   0.05916
     Eigenvalues ---    0.16000   0.16000   0.16000   0.16000   0.22374
     Eigenvalues ---    0.22374   0.28643   0.32122   0.32122   0.32122
     Eigenvalues ---    0.32122   0.46524   0.465241000.000001000.00000
     Eigenvalues --- 1000.000001000.000001000.000001000.000001000.00000
     Eigenvalues --- 1000.000001000.000001000.00000
 RFO step:  Lambda=-5.41277533D-03.
 Linear search not attempted -- first point.
 Iteration  1 RMS(Cart)=  0.03151239 RMS(Int)=  0.00033732
 Iteration  2 RMS(Cart)=  0.00029282 RMS(Int)=  0.00011846
 Iteration  3 RMS(Cart)=  0.00000005 RMS(Int)=  0.00011846
 Variable       Old X    -DE/DX   Delta X   Delta X   Delta X     New X
                                 (Linear)    (Quad)   (Total)
    R1        2.90753  -0.00554   0.00000  -0.01897  -0.01897   2.88857
    R2        2.63545   0.02309   0.00000   0.04905   0.04905   2.68450
    R3        2.10621  -0.01297   0.00000  -0.03972  -0.03972   2.06650
    R4        2.10621  -0.01297   0.00000  -0.03972  -0.03972   2.06649
    R5        2.63545   0.02309   0.00000   0.04905   0.04905   2.68450
    R6        2.10621  -0.01297   0.00000  -0.03972  -0.03972   2.06650
    R7        2.10621  -0.01297   0.00000  -0.03972  -0.03972   2.06649
    A1        1.91187  -0.00659   0.00000  -0.02645  -0.02661   1.88526
    A2        1.92147  -0.00193   0.00000  -0.01482  -0.01500   1.90647
    A3        1.92147  -0.00192   0.00000  -0.01485  -0.01503   1.90644
    A4        1.91123   0.00457   0.00000   0.02674   0.02658   1.93781
    A5        1.91140   0.00455   0.00000   0.02652   0.02636   1.93776
    A6        1.88619   0.00153   0.00000   0.00383   0.00361   1.88981
    A7        1.91187  -0.00659   0.00000  -0.02645  -0.02661   1.88526
    A8        1.92147  -0.00193   0.00000  -0.01482  -0.01500   1.90647
    A9        1.92147  -0.00192   0.00000  -0.01485  -0.01503   1.90644
   A10        1.91123   0.00457   0.00000   0.02674   0.02658   1.93781
   A11        1.91140   0.00455   0.00000   0.02652   0.02636   1.93776
   A12        1.88619   0.00153   0.00000   0.00383   0.00361   1.88981
    D1        3.14159  -0.00001   0.00000  -0.00017  -0.00017   3.14143
    D2       -1.03897   0.00025   0.00000   0.00683   0.00682  -1.03216
    D3        1.03877  -0.00026   0.00000  -0.00688  -0.00686   1.03190
    D4       -1.03897   0.00025   0.00000   0.00683   0.00682  -1.03216
    D5        1.06365   0.00051   0.00000   0.01383   0.01380   1.07745
    D6        3.14139   0.00001   0.00000   0.00012   0.00012   3.14150
    D7        1.03877  -0.00026   0.00000  -0.00688  -0.00686   1.03190
    D8        3.14139   0.00001   0.00000   0.00012   0.00012   3.14150
    D9       -1.06406  -0.00050   0.00000  -0.01359  -0.01356  -1.07762
         Item               Value     Threshold  Converged?
 Maximum Force            0.023087     0.000450     NO 
 RMS     Force            0.008367     0.000300     NO 
 Maximum Displacement     0.061138     0.001800     NO 
 RMS     Displacement     0.031594     0.001200     NO 
 Predicted change in Energy=-2.751904D-03
 GradGradGradGradGradGradGradGradGradGradGradGradGradGradGradGradGradGrad

 Leave Link  103 at Tue Oct 16 12:30:28 2007, MaxMem=    6291456 cpu:       0.2
 (Enter /opt/und/gaussian/03D01/linux86-64/g03/l202.exe)
                          Input orientation:                          
 ---------------------------------------------------------------------
 Center     Atomic     Atomic              Coordinates (Angstroms)
 Number     Number      Type              X           Y           Z
 ---------------------------------------------------------------------
    1          6             0        0.006622    0.000046    0.005047
    2          6             0       -0.006622    0.000046    1.533553
    3          9             0        1.340435   -0.000067    1.984638
    4          1             0       -0.539442    0.886315    1.889172
    5          1             0       -0.539525   -0.886184    1.889138
    6          9             0       -1.340435   -0.000067   -0.446038
    7          1             0        0.539442    0.886315   -0.350572
    8          1             0        0.539525   -0.886184   -0.350538
 ---------------------------------------------------------------------
                    Distance matrix (angstroms):
                    1          2          3          4          5
     1  C    0.000000
     2  C    1.528563   0.000000
     3  F    2.387014   1.420578   0.000000
     4  H    2.152576   1.093542   2.080558   0.000000
     5  H    2.152551   1.093540   2.080522   1.772499   0.000000
     6  F    1.420578   2.387014   3.618736   2.623065   2.622920
     7  H    1.093542   2.152576   2.623065   2.486050   3.053231
     8  H    1.093540   2.152551   2.622920   3.053231   2.486060
                    6          7          8
     6  F    0.000000
     7  H    2.080558   0.000000
     8  H    2.080522   1.772499   0.000000
 Stoichiometry    C2H4F2
 Framework group  C2[X(C2H4F2)]
 Deg. of freedom    10
 Full point group                 C2
 Largest Abelian subgroup         C2      NOp   2
 Largest concise Abelian subgroup C2      NOp   2
                         Standard orientation:                         
 ---------------------------------------------------------------------
 Center     Atomic     Atomic              Coordinates (Angstroms)
 Number     Number      Type              X           Y           Z
 ---------------------------------------------------------------------
    1          6             0       -0.726803   -0.236399    0.000057
    2          6             0        0.726803    0.236399    0.000057
    3          9             0        0.726803    1.656976   -0.000055
    4          1             0        1.233207   -0.155924    0.886326
    5          1             0        1.233200   -0.156013   -0.886173
    6          9             0       -0.726803   -1.656976   -0.000055
    7          1             0       -1.233207    0.155924    0.886326
    8          1             0       -1.233200    0.156013   -0.886173
 ---------------------------------------------------------------------
 Rotational constants (GHZ):     31.4390081      3.7463213      3.4939918
 Leave Link  202 at Tue Oct 16 12:30:29 2007, MaxMem=    6291456 cpu:       0.1
 (Enter /opt/und/gaussian/03D01/linux86-64/g03/l301.exe)
 Standard basis: 3-21G (6D, 7F)
 There are    22 symmetry adapted basis functions of A   symmetry.
 There are    22 symmetry adapted basis functions of B   symmetry.
 Integral buffers will be    131072 words long.
 Raffenetti 1 integral format.
 Two-electron integral symmetry is turned on.
    44 basis functions,    72 primitive gaussians,    44 cartesian basis functions
    17 alpha electrons       17 beta electrons
       nuclear repulsion energy       123.7838892638 Hartrees.
 IExCor=   0 DFT=F Ex=HF Corr=None ExCW=0 ScaHFX=  1.000000
 ScaDFX=  1.000000  1.000000  1.000000  1.000000
 IRadAn=      0 IRanWt=     -1 IRanGd=            0 ICorTp=0
 NAtoms=    8 NActive=    8 NUniq=    4 SFac= 3.00D+00 NAtFMM=   80 NAOKFM=F Big=F
 Leave Link  301 at Tue Oct 16 12:30:29 2007, MaxMem=    6291456 cpu:       0.0
 (Enter /opt/und/gaussian/03D01/linux86-64/g03/linda-exe/l302.exel)
 NPDir=0 NMtPBC=     1 NCelOv=     1 NCel=       1 NClECP=     1 NCelD=      1
         NCelK=      1 NCelE2=     1 NClLst=     1 CellRange=     0.0.
 One-electron integrals computed using PRISM.
 One-electron integral symmetry used in STVInt
 NBasis=    44 RedAO= T  NBF=    22    22
 NBsUse=    44 1.00D-06 NBFU=    22    22
 Leave Link  302 at Tue Oct 16 12:30:29 2007, MaxMem=    6291456 cpu:       0.1
 (Enter /opt/und/gaussian/03D01/linux86-64/g03/l303.exe)
 DipDrv:  MaxL=1.
 Leave Link  303 at Tue Oct 16 12:30:30 2007, MaxMem=    6291456 cpu:       0.0
 (Enter /opt/und/gaussian/03D01/linux86-64/g03/l401.exe)
 Initial guess read from the read-write file:
 Guess basis will be translated and rotated to current coordinates.
 Initial guess orbital symmetries:
       Occupied  (B) (A) (B) (A) (A) (B) (A) (B) (A) (B) (A) (B)
                 (A) (B) (A) (A) (B)
       Virtual   (B) (A) (A) (B) (B) (B) (A) (A) (B) (A) (A) (B)
                 (B) (A) (A) (B) (B) (A) (B) (A) (B) (A) (B) (A)
                 (B) (A) (B)
 The electronic state of the initial guess is 1-A.
 Generating alternative initial guess.
 Harris functional with IExCor=  205 diagonalized for initial guess.
 ExpMin= 1.83D-01 ExpMax= 4.14D+02 ExpMxC= 4.14D+02 IAcc=1 IRadAn=         1 AccDes= 1.00D-06
 HarFok:  IExCor= 205 AccDes= 1.00D-06 IRadAn=         1 IDoV=1
 ScaDFX=  1.000000  1.000000  1.000000  1.000000
 Harris En= -275.515128227449    
 Leave Link  401 at Tue Oct 16 12:30:30 2007, MaxMem=    6291456 cpu:       0.1
 (Enter /opt/und/gaussian/03D01/linux86-64/g03/linda-exe/l502.exel)
 Closed shell SCF:
 Requested convergence on RMS density matrix=1.00D-08 within 128 cycles.
 Requested convergence on MAX density matrix=1.00D-06.
 Requested convergence on             energy=1.00D-06.
 No special actions if energy rises.
 Using DIIS extrapolation, IDIIS=  1040.
 Integral symmetry usage will be decided dynamically.
 Keep R1 integrals in memory in canonical form, NReq=     1360589.
 IEnd=     24490 IEndB=     24490 NGot=   6291456 MDV=   5795028
 LenX=   5795028
 Symmetry not used in FoFDir.
 MinBra= 0 MaxBra= 1 Meth= 1.
 IRaf=       0 NMat=   1 IRICut=       1 DoRegI=T DoRafI=F ISym2E= 0 JSym2E=0.

 Cycle   1  Pass 1  IDiag  1:
 E= -273.189006964438    
 DIIS: error= 1.92D-01 at cycle   1 NSaved=   1.
 NSaved= 1 IEnMin= 1 EnMin= -273.189006964438     IErMin= 1 ErrMin= 1.92D-01
 ErrMax= 1.92D-01 EMaxC= 1.00D-01 BMatC= 1.19D+00 BMatP= 1.19D+00
 IDIUse=3 WtCom= 0.00D+00 WtEn= 1.00D+00
 Coeff-Com:  0.100D+01
 Coeff-En:   0.100D+01
 Coeff:      0.100D+01
 Recover alternate guess density for next cycle.
 RMSDP=4.41D-02 MaxDP=3.28D-01              OVMax= 0.00D+00

 Cycle   2  Pass 1  IDiag  1:
 E= -275.342043750188     Delta-E=       -2.153036785750 Rises=F Damp=F
 DIIS: error= 5.06D-02 at cycle   2 NSaved=   2.
 NSaved= 2 IEnMin= 2 EnMin= -275.342043750188     IErMin= 2 ErrMin= 5.06D-02
 ErrMax= 5.06D-02 EMaxC= 1.00D-01 BMatC= 1.61D-01 BMatP= 1.19D+00
 IDIUse=3 WtCom= 4.94D-01 WtEn= 5.06D-01
 Coeff-Com:  0.908D-01 0.909D+00
 Coeff-En:   0.000D+00 0.100D+01
 Coeff:      0.449D-01 0.955D+00
 Gap=     0.462 Goal=   None    Shift=    0.000
 RMSDP=6.23D-03 MaxDP=5.10D-02 DE=-2.15D+00 OVMax= 5.83D-01

 Cycle   3  Pass 1  IDiag  1:
 E= -275.412123383349     Delta-E=       -0.070079633161 Rises=F Damp=F
 DIIS: error= 1.12D-02 at cycle   3 NSaved=   3.
 NSaved= 3 IEnMin= 3 EnMin= -275.412123383349     IErMin= 3 ErrMin= 1.12D-02
 ErrMax= 1.12D-02 EMaxC= 1.00D-01 BMatC= 7.48D-03 BMatP= 1.61D-01
 IDIUse=3 WtCom= 8.88D-01 WtEn= 1.12D-01
 Coeff-Com:  0.825D-03 0.802D-01 0.919D+00
 Coeff-En:   0.000D+00 0.000D+00 0.100D+01
 Coeff:      0.732D-03 0.713D-01 0.928D+00
 Gap=     0.762 Goal=   None    Shift=    0.000
 RMSDP=1.65D-03 MaxDP=1.36D-02 DE=-7.01D-02 OVMax= 1.68D-02

 Cycle   4  Pass 1  IDiag  1:
 E= -275.417475965532     Delta-E=       -0.005352582183 Rises=F Damp=F
 DIIS: error= 2.97D-03 at cycle   4 NSaved=   4.
 NSaved= 4 IEnMin= 4 EnMin= -275.417475965532     IErMin= 4 ErrMin= 2.97D-03
 ErrMax= 2.97D-03 EMaxC= 1.00D-01 BMatC= 2.83D-04 BMatP= 7.48D-03
 IDIUse=3 WtCom= 9.70D-01 WtEn= 2.97D-02
 Coeff-Com: -0.973D-03-0.171D-01 0.122D+00 0.897D+00
 Coeff-En:   0.000D+00 0.000D+00 0.000D+00 0.100D+01
 Coeff:     -0.944D-03-0.166D-01 0.118D+00 0.900D+00
 Gap=     0.757 Goal=   None    Shift=    0.000
 RMSDP=3.61D-04 MaxDP=2.82D-03 DE=-5.35D-03 OVMax= 3.12D-03

 Cycle   5  Pass 1  IDiag  1:
 E= -275.417755030976     Delta-E=       -0.000279065444 Rises=F Damp=F
 DIIS: error= 3.01D-04 at cycle   5 NSaved=   5.
 NSaved= 5 IEnMin= 5 EnMin= -275.417755030976     IErMin= 5 ErrMin= 3.01D-04
 ErrMax= 3.01D-04 EMaxC= 1.00D-01 BMatC= 5.14D-06 BMatP= 2.83D-04
 IDIUse=3 WtCom= 9.97D-01 WtEn= 3.01D-03
 Coeff-Com: -0.435D-03 0.250D-03-0.110D-01-0.424D-01 0.105D+01
 Coeff-En:   0.000D+00 0.000D+00 0.000D+00 0.000D+00 0.100D+01
 Coeff:     -0.434D-03 0.249D-03-0.110D-01-0.423D-01 0.105D+01
 Gap=     0.756 Goal=   None    Shift=    0.000
 RMSDP=7.24D-05 MaxDP=4.21D-04 DE=-2.79D-04 OVMax= 7.91D-04

 Cycle   6  Pass 1  IDiag  1:
 E= -275.417761552756     Delta-E=       -0.000006521780 Rises=F Damp=F
 DIIS: error= 1.67D-04 at cycle   6 NSaved=   6.
 NSaved= 6 IEnMin= 6 EnMin= -275.417761552756     IErMin= 6 ErrMin= 1.67D-04
 ErrMax= 1.67D-04 EMaxC= 1.00D-01 BMatC= 1.16D-06 BMatP= 5.14D-06
 IDIUse=3 WtCom= 9.98D-01 WtEn= 1.67D-03
 Coeff-Com:  0.793D-04 0.158D-02-0.156D-01-0.960D-01 0.324D+00 0.786D+00
 Coeff-En:   0.000D+00 0.000D+00 0.000D+00 0.000D+00 0.000D+00 0.100D+01
 Coeff:      0.791D-04 0.158D-02-0.155D-01-0.958D-01 0.323D+00 0.787D+00
 Gap=     0.756 Goal=   None    Shift=    0.000
 RMSDP=2.40D-05 MaxDP=1.14D-04 DE=-6.52D-06 OVMax= 2.31D-04

 Cycle   7  Pass 1  IDiag  1:
 E= -275.417762476418     Delta-E=       -0.000000923662 Rises=F Damp=F
 DIIS: error= 1.90D-05 at cycle   7 NSaved=   7.
 NSaved= 7 IEnMin= 7 EnMin= -275.417762476418     IErMin= 7 ErrMin= 1.90D-05
 ErrMax= 1.90D-05 EMaxC= 1.00D-01 BMatC= 2.28D-08 BMatP= 1.16D-06
 IDIUse=1 WtCom= 1.00D+00 WtEn= 0.00D+00
 Coeff-Com: -0.149D-04-0.333D-03 0.377D-02 0.243D-01-0.108D+00-0.269D+00
 Coeff-Com:  0.135D+01
 Coeff:     -0.149D-04-0.333D-03 0.377D-02 0.243D-01-0.108D+00-0.269D+00
 Coeff:      0.135D+01
 Gap=     0.756 Goal=   None    Shift=    0.000
 RMSDP=6.71D-06 MaxDP=3.13D-05 DE=-9.24D-07 OVMax= 1.01D-04

 Cycle   8  Pass 1  IDiag  1:
 E= -275.417762529846     Delta-E=       -0.000000053428 Rises=F Damp=F
 DIIS: error= 5.17D-06 at cycle   8 NSaved=   8.
 NSaved= 8 IEnMin= 8 EnMin= -275.417762529846     IErMin= 8 ErrMin= 5.17D-06
 ErrMax= 5.17D-06 EMaxC= 1.00D-01 BMatC= 1.02D-09 BMatP= 2.28D-08
 IDIUse=1 WtCom= 1.00D+00 WtEn= 0.00D+00
 Coeff-Com:  0.227D-05 0.969D-04-0.111D-02-0.739D-02 0.352D-01 0.845D-01
 Coeff-Com: -0.562D+00 0.145D+01
 Coeff:      0.227D-05 0.969D-04-0.111D-02-0.739D-02 0.352D-01 0.845D-01
 Coeff:     -0.562D+00 0.145D+01
 Gap=     0.756 Goal=   None    Shift=    0.000
 RMSDP=1.71D-06 MaxDP=9.76D-06 DE=-5.34D-08 OVMax= 2.60D-05

 Cycle   9  Pass 1  IDiag  1:
 E= -275.417762532658     Delta-E=       -0.000000002812 Rises=F Damp=F
 DIIS: error= 1.28D-06 at cycle   9 NSaved=   9.
 NSaved= 9 IEnMin= 9 EnMin= -275.417762532658     IErMin= 9 ErrMin= 1.28D-06
 ErrMax= 1.28D-06 EMaxC= 1.00D-01 BMatC= 3.18D-11 BMatP= 1.02D-09
 IDIUse=1 WtCom= 1.00D+00 WtEn= 0.00D+00
 Coeff-Com: -0.269D-06-0.217D-04 0.248D-03 0.167D-02-0.809D-02-0.211D-01
 Coeff-Com:  0.151D+00-0.504D+00 0.138D+01
 Coeff:     -0.269D-06-0.217D-04 0.248D-03 0.167D-02-0.809D-02-0.211D-01
 Coeff:      0.151D+00-0.504D+00 0.138D+01
 Gap=     0.756 Goal=   None    Shift=    0.000
 RMSDP=3.22D-07 MaxDP=1.85D-06 DE=-2.81D-09 OVMax= 5.95D-06

 Cycle  10  Pass 1  IDiag  1:
 E= -275.417762532750     Delta-E=       -0.000000000092 Rises=F Damp=F
 DIIS: error= 2.14D-07 at cycle  10 NSaved=  10.
 NSaved=10 IEnMin=10 EnMin= -275.417762532750     IErMin=10 ErrMin= 2.14D-07
 ErrMax= 2.14D-07 EMaxC= 1.00D-01 BMatC= 1.23D-12 BMatP= 3.18D-11
 IDIUse=1 WtCom= 1.00D+00 WtEn= 0.00D+00
 Coeff-Com:  0.335D-07 0.536D-05-0.612D-04-0.426D-03 0.205D-02 0.608D-02
 Coeff-Com: -0.446D-01 0.165D+00-0.592D+00 0.146D+01
 Coeff:      0.335D-07 0.536D-05-0.612D-04-0.426D-03 0.205D-02 0.608D-02
 Coeff:     -0.446D-01 0.165D+00-0.592D+00 0.146D+01
 Gap=     0.756 Goal=   None    Shift=    0.000
 RMSDP=6.00D-08 MaxDP=4.18D-07 DE=-9.19D-11 OVMax= 1.08D-06

 Cycle  11  Pass 1  IDiag  1:
 E= -275.417762532753     Delta-E=       -0.000000000003 Rises=F Damp=F
 DIIS: error= 4.03D-08 at cycle  11 NSaved=  11.
 NSaved=11 IEnMin=11 EnMin= -275.417762532753     IErMin=11 ErrMin= 4.03D-08
 ErrMax= 4.03D-08 EMaxC= 1.00D-01 BMatC= 4.36D-14 BMatP= 1.23D-12
 IDIUse=1 WtCom= 1.00D+00 WtEn= 0.00D+00
 Coeff-Com: -0.281D-07-0.185D-05 0.210D-04 0.148D-03-0.712D-03-0.204D-02
 Coeff-Com:  0.154D-01-0.578D-01 0.218D+00-0.654D+00 0.148D+01
 Coeff:     -0.281D-07-0.185D-05 0.210D-04 0.148D-03-0.712D-03-0.204D-02
 Coeff:      0.154D-01-0.578D-01 0.218D+00-0.654D+00 0.148D+01
 Gap=     0.756 Goal=   None    Shift=    0.000
 RMSDP=1.21D-08 MaxDP=5.77D-08 DE=-3.24D-12 OVMax= 2.26D-07

 Cycle  12  Pass 1  IDiag  1:
 E= -275.417762532753     Delta-E=        0.000000000000 Rises=F Damp=F
 DIIS: error= 4.10D-09 at cycle  12 NSaved=  12.
 NSaved=12 IEnMin=11 EnMin= -275.417762532753     IErMin=12 ErrMin= 4.10D-09
 ErrMax= 4.10D-09 EMaxC= 1.00D-01 BMatC= 8.06D-16 BMatP= 4.36D-14
 IDIUse=1 WtCom= 1.00D+00 WtEn= 0.00D+00
 Coeff-Com:  0.496D-08 0.358D-06-0.403D-05-0.294D-04 0.142D-03 0.408D-03
 Coeff-Com: -0.313D-02 0.118D-01-0.453D-01 0.143D+00-0.421D+00 0.131D+01
 Coeff:      0.496D-08 0.358D-06-0.403D-05-0.294D-04 0.142D-03 0.408D-03
 Coeff:     -0.313D-02 0.118D-01-0.453D-01 0.143D+00-0.421D+00 0.131D+01
 Gap=     0.756 Goal=   None    Shift=    0.000
 RMSDP=1.50D-09 MaxDP=1.03D-08 DE= 4.55D-13 OVMax= 2.31D-08

 SCF Done:  E(RHF) =  -275.417762533     A.U. after   12 cycles
             Convg  =    0.1504D-08             -V/T =  2.0034
             S**2   =   0.0000
 KE= 2.744734551000D+02 PE=-9.019736587839D+02 EE= 2.282985518873D+02
 Leave Link  502 at Tue Oct 16 12:30:30 2007, MaxMem=    6291456 cpu:       0.2
 (Enter /opt/und/gaussian/03D01/linux86-64/g03/l801.exe)
 ExpMin= 1.83D-01 ExpMax= 4.14D+02 ExpMxC= 4.14D+02 IAcc=1 IRadAn=         1 AccDes= 1.00D-06
 HarFok:  IExCor= 205 AccDes= 1.00D-06 IRadAn=         1 IDoV=1
 ScaDFX=  1.000000  1.000000  1.000000  1.000000
 Largest valence mixing into a core orbital is  3.15D-04
 Largest core mixing into a valence orbital is  9.38D-05
 Range of M.O.s used for correlation:     5    44
 NBasis=    44 NAE=    17 NBE=    17 NFC=     4 NFV=     0
 NROrb=     40 NOA=    13 NOB=    13 NVA=    27 NVB=    27
 Leave Link  801 at Tue Oct 16 12:30:31 2007, MaxMem=    6291456 cpu:       0.1
 (Enter /opt/und/gaussian/03D01/linux86-64/g03/linda-exe/l906.exel)
 Frozen-core derivative calculation, NFC=   4 NFV=   0.
 FulOut=F Deriv=T AODrv=T NAtomX=     8
   MMem=         112  MDisk=          13 MDiskD=          13
  W3Min=       32912 MinDsk=      100138 NBas6D=          44
 NBas2D=        1038    NTT=         990    LW2=     1571399
    MDV=     6285596 MDiskM=        1116 NBas2p=         532
 Fully direct method using O(ONN) memory.
 IMap=   1   2   3   4   5   6   7   8   9  10  11  12  13  14  15  16  17
 JobTyp=1 Pass  1:  I=   5 to  17 NPSUse=  1 ParTrn=F ParDer=F DoDerP=T.
 Spin components of T(2) and E(2):
     alpha-alpha T2 =       0.1247650303D-01 E2=     -0.4902798429D-01
     alpha-beta  T2 =       0.8591754127D-01 E2=     -0.3152079140D+00
     beta-beta   T2 =       0.1247650303D-01 E2=     -0.4902798429D-01
 The integrals were generated   1 times.
 ANorm=    0.1053978438D+01
 E2 =    -0.4132638826D+00 EUMP2 =    -0.27583102641534D+03
 Leave Link  906 at Tue Oct 16 12:30:31 2007, MaxMem=    6291456 cpu:       0.5
 (Enter /opt/und/gaussian/03D01/linux86-64/g03/linda-exe/l1002.exel)
 Minotr:  Closed-shell wavefunction.
          Computing MP2 derivatives.
          Using Z-Vector for PSCF gradient.
          Skipping F1 and S1 gradient terms here.
 DoAtom=TTTTTTTT
          Frozen-core window.
          Direct CPHF calculation.
          Solving linear equations simultaneously.
          Differentiating once with respect to electric field.
                with respect to dipole field.
          Differentiating once with respect to nuclear coordinates.
          Using symmetry in CPHF.
          Requested convergence is 1.0D-10 RMS, and 1.0D-09 maximum.
          Secondary convergence is 1.0D-12 RMS, and 1.0D-12 maximum.
          NewPWx=F KeepS1=T KeepF1=T KeepIn=T MapXYZ=F.
          MDV=       6291382 using IRadAn=       0.
          Store integrals in memory, NReq=     1291183.
 Symmetry not used in FoFDir.
 MinBra= 0 MaxBra= 1 Meth= 1.
 IRaf=       0 NMat=   1 IRICut=       1 DoRegI=T DoRafI=F ISym2E= 0 JSym2E=0.
          There are   1 degrees of freedom in the 1st order CPHF.
     1 vectors were produced by pass  0.
 AX will form   1 AO Fock derivatives at one time.
     1 vectors were produced by pass  1.
     1 vectors were produced by pass  2.
     1 vectors were produced by pass  3.
     1 vectors were produced by pass  4.
     1 vectors were produced by pass  5.
     1 vectors were produced by pass  6.
     1 vectors were produced by pass  7.
     1 vectors were produced by pass  8.
     1 vectors were produced by pass  9.
 Inv2:  IOpt= 1 Iter= 1 AM= 3.91D-16 Conv= 1.00D-12.
 Inverted reduced A of dimension   10 with in-core refinement.
 End of Minotr Frequency-dependent properties file   721 does not exist.
 Leave Link 1002 at Tue Oct 16 12:30:32 2007, MaxMem=    6291456 cpu:       0.1
 (Enter /opt/und/gaussian/03D01/linux86-64/g03/linda-exe/l701.exel)
 Compute integral first derivatives.
 ... and contract with generalized density number  2.
 Leave Link  701 at Tue Oct 16 12:30:33 2007, MaxMem=    6291456 cpu:       0.1
 (Enter /opt/und/gaussian/03D01/linux86-64/g03/l702.exe)
 L702 exits ... SP integral derivatives will be done elsewhere.
 Leave Link  702 at Tue Oct 16 12:30:33 2007, MaxMem=    6291456 cpu:       0.0
 (Enter /opt/und/gaussian/03D01/linux86-64/g03/linda-exe/l703.exel)
 Compute integral first derivatives, UseDBF=F.
 Integral derivatives from FoFDir, PRISM(SPDF).
 Use density number 2.
 Petite list used in FoFDir.
 MinBra= 0 MaxBra= 1 Meth= 1.
 IRaf=       0 NMat=   1 IRICut=       1 DoRegI=T DoRafI=F ISym2E= 1 JSym2E=1.
 Leave Link  703 at Tue Oct 16 12:30:34 2007, MaxMem=    6291456 cpu:       0.1
 (Enter /opt/und/gaussian/03D01/linux86-64/g03/l716.exe)
 Use density number 2.
 Dipole        =-9.76996262D-15 4.55191440D-15 1.11788926D-04
 ***** Axes restored to original set *****
 -------------------------------------------------------------------
 Center     Atomic                   Forces (Hartrees/Bohr)
 Number     Number              X              Y              Z
 -------------------------------------------------------------------
    1          6           0.011597098   -0.000003775    0.001644481
    2          6          -0.011597098   -0.000003775   -0.001644481
    3          9           0.002946347    0.000004139    0.000855450
    4          1           0.002304832    0.000105888    0.001190107
    5          1           0.002299684   -0.000106252    0.001188992
    6          9          -0.002946347    0.000004139   -0.000855450
    7          1          -0.002304832    0.000105888   -0.001190107
    8          1          -0.002299684   -0.000106252   -0.001188992
 -------------------------------------------------------------------
 Cartesian Forces:  Max     0.011597098 RMS     0.003652204
 Leave Link  716 at Tue Oct 16 12:30:34 2007, MaxMem=    6291456 cpu:       0.0
 (Enter /opt/und/gaussian/03D01/linux86-64/g03/l103.exe)

 GradGradGradGradGradGradGradGradGradGradGradGradGradGradGradGradGradGrad
 Berny optimization.
 Internal  Forces:  Max     0.003065498 RMS     0.001567808
 Search for a local minimum.
 Step number   2 out of a maximum of  38
 All quantities printed in internal units (Hartrees-Bohrs-Radians)
 Update second derivatives using D2CorX and points  1  2
 Trust test= 1.00D+00 RLast= 1.31D-01 DXMaxT set to 3.93D-01
     Eigenvalues ---    0.00255   0.05855   0.05855   0.06099   0.06375
     Eigenvalues ---    0.16000   0.16000   0.16000   0.16997   0.21913
     Eigenvalues ---    0.22481   0.28785   0.32005   0.32122   0.32122
     Eigenvalues ---    0.32122   0.42848   0.465241000.000001000.00000
     Eigenvalues --- 1000.000001000.000001000.000001000.000001000.00000
     Eigenvalues --- 1000.000001000.000001000.00000
 RFO step:  Lambda=-5.59073914D-04.
 Quartic linear search produced a step of  0.01843.
 Iteration  1 RMS(Cart)=  0.00888083 RMS(Int)=  0.00020411
 Iteration  2 RMS(Cart)=  0.00012896 RMS(Int)=  0.00016179
 Iteration  3 RMS(Cart)=  0.00000002 RMS(Int)=  0.00016179
 Variable       Old X    -DE/DX   Delta X   Delta X   Delta X     New X
                                 (Linear)    (Quad)   (Total)
    R1        2.88857   0.00163  -0.00035   0.00412   0.00377   2.89234
    R2        2.68450   0.00307   0.00090   0.01097   0.01188   2.69638
    R3        2.06650  -0.00065  -0.00073  -0.00551  -0.00624   2.06025
    R4        2.06649  -0.00065  -0.00073  -0.00550  -0.00623   2.06026
    R5        2.68450   0.00307   0.00090   0.01097   0.01188   2.69638
    R6        2.06650  -0.00065  -0.00073  -0.00551  -0.00624   2.06025
    R7        2.06649  -0.00065  -0.00073  -0.00550  -0.00623   2.06026
    A1        1.88526  -0.00155  -0.00049  -0.01437  -0.01480   1.87046
    A2        1.90647   0.00225  -0.00028   0.01578   0.01531   1.92178
    A3        1.90644   0.00225  -0.00028   0.01579   0.01532   1.92176
    A4        1.93781  -0.00123   0.00049  -0.01457  -0.01403   1.92378
    A5        1.93776  -0.00122   0.00049  -0.01451  -0.01397   1.92379
    A6        1.88981  -0.00037   0.00007   0.01282   0.01246   1.90227
    A7        1.88526  -0.00155  -0.00049  -0.01437  -0.01480   1.87046
    A8        1.90647   0.00225  -0.00028   0.01578   0.01531   1.92178
    A9        1.90644   0.00225  -0.00028   0.01579   0.01532   1.92176
   A10        1.93781  -0.00123   0.00049  -0.01457  -0.01403   1.92378
   A11        1.93776  -0.00122   0.00049  -0.01451  -0.01397   1.92379
   A12        1.88981  -0.00037   0.00007   0.01282   0.01246   1.90227
    D1        3.14143   0.00000   0.00000   0.00015   0.00015   3.14158
    D2       -1.03216  -0.00109   0.00013  -0.01685  -0.01686  -1.04901
    D3        1.03190   0.00109  -0.00013   0.01708   0.01708   1.04899
    D4       -1.03216  -0.00109   0.00013  -0.01685  -0.01686  -1.04901
    D5        1.07745  -0.00218   0.00025  -0.03386  -0.03386   1.04358
    D6        3.14150   0.00000   0.00000   0.00008   0.00008   3.14158
    D7        1.03190   0.00109  -0.00013   0.01708   0.01708   1.04899
    D8        3.14150   0.00000   0.00000   0.00008   0.00008   3.14158
    D9       -1.07762   0.00218  -0.00025   0.03401   0.03402  -1.04360
         Item               Value     Threshold  Converged?
 Maximum Force            0.003065     0.000450     NO 
 RMS     Force            0.001568     0.000300     NO 
 Maximum Displacement     0.020471     0.001800     NO 
 RMS     Displacement     0.008846     0.001200     NO 
 Predicted change in Energy=-2.866856D-04
 GradGradGradGradGradGradGradGradGradGradGradGradGradGradGradGradGradGrad

 Leave Link  103 at Tue Oct 16 12:30:34 2007, MaxMem=    6291456 cpu:       0.0
 (Enter /opt/und/gaussian/03D01/linux86-64/g03/l202.exe)
                          Input orientation:                          
 ---------------------------------------------------------------------
 Center     Atomic     Atomic              Coordinates (Angstroms)
 Number     Number      Type              X           Y           Z
 ---------------------------------------------------------------------
    1          6             0        0.017455    0.000031    0.004220
    2          6             0       -0.017455    0.000031    1.534380
    3          9             0        1.335860    0.000020    1.986571
    4          1             0       -0.536155    0.887567    1.897494
    5          1             0       -0.536169   -0.887508    1.897471
    6          9             0       -1.335860    0.000020   -0.447971
    7          1             0        0.536155    0.887567   -0.358894
    8          1             0        0.536169   -0.887508   -0.358871
 ---------------------------------------------------------------------
                    Distance matrix (angstroms):
                    1          2          3          4          5
     1  C    0.000000
     2  C    1.530559   0.000000
     3  F    2.380737   1.426863   0.000000
     4  H    2.163028   1.090239   2.073672   0.000000
     5  H    2.163013   1.090240   2.073677   1.775075   0.000000
     6  F    1.426863   2.380737   3.614565   2.632199   2.632168
     7  H    1.090239   2.163028   2.632199   2.498227   3.064629
     8  H    1.090240   2.163013   2.632168   3.064629   2.498197
                    6          7          8
     6  F    0.000000
     7  H    2.073672   0.000000
     8  H    2.073677   1.775075   0.000000
 Stoichiometry    C2H4F2
 Framework group  C2[X(C2H4F2)]
 Deg. of freedom    10
 Full point group                 C2
 Largest Abelian subgroup         C2      NOp   2
 Largest concise Abelian subgroup C2      NOp   2
                         Standard orientation:                         
 ---------------------------------------------------------------------
 Center     Atomic     Atomic              Coordinates (Angstroms)
 Number     Number      Type              X           Y           Z
 ---------------------------------------------------------------------
    1          6             0       -0.731176   -0.225908    0.000006
    2          6             0        0.731176    0.225908    0.000006
    3          9             0        0.731176    1.652771   -0.000005
    4          1             0        1.239955   -0.150981    0.887542
    5          1             0        1.239938   -0.151001   -0.887533
    6          9             0       -0.731176   -1.652771   -0.000005
    7          1             0       -1.239955    0.150981    0.887542
    8          1             0       -1.239938    0.151001   -0.887533
 ---------------------------------------------------------------------
 Rotational constants (GHZ):     31.0336646      3.7569164      3.4985607
 Leave Link  202 at Tue Oct 16 12:30:35 2007, MaxMem=    6291456 cpu:       0.1
 (Enter /opt/und/gaussian/03D01/linux86-64/g03/l301.exe)
 Standard basis: 3-21G (6D, 7F)
 There are    22 symmetry adapted basis functions of A   symmetry.
 There are    22 symmetry adapted basis functions of B   symmetry.
 Integral buffers will be    131072 words long.
 Raffenetti 1 integral format.
 Two-electron integral symmetry is turned on.
    44 basis functions,    72 primitive gaussians,    44 cartesian basis functions
    17 alpha electrons       17 beta electrons
       nuclear repulsion energy       123.6745925012 Hartrees.
 IExCor=   0 DFT=F Ex=HF Corr=None ExCW=0 ScaHFX=  1.000000
 ScaDFX=  1.000000  1.000000  1.000000  1.000000
 IRadAn=      0 IRanWt=     -1 IRanGd=            0 ICorTp=0
 NAtoms=    8 NActive=    8 NUniq=    4 SFac= 3.00D+00 NAtFMM=   80 NAOKFM=F Big=F
 Leave Link  301 at Tue Oct 16 12:30:35 2007, MaxMem=    6291456 cpu:       0.0
 (Enter /opt/und/gaussian/03D01/linux86-64/g03/linda-exe/l302.exel)
 NPDir=0 NMtPBC=     1 NCelOv=     1 NCel=       1 NClECP=     1 NCelD=      1
         NCelK=      1 NCelE2=     1 NClLst=     1 CellRange=     0.0.
 One-electron integrals computed using PRISM.
 One-electron integral symmetry used in STVInt
 NBasis=    44 RedAO= T  NBF=    22    22
 NBsUse=    44 1.00D-06 NBFU=    22    22
 Leave Link  302 at Tue Oct 16 12:30:35 2007, MaxMem=    6291456 cpu:       0.1
 (Enter /opt/und/gaussian/03D01/linux86-64/g03/l303.exe)
 DipDrv:  MaxL=1.
 Leave Link  303 at Tue Oct 16 12:30:35 2007, MaxMem=    6291456 cpu:       0.0
 (Enter /opt/und/gaussian/03D01/linux86-64/g03/l401.exe)
 Initial guess read from the read-write file:
 Guess basis will be translated and rotated to current coordinates.
 Initial guess orbital symmetries:
       Occupied  (B) (A) (B) (A) (A) (B) (A) (B) (A) (B) (A) (B)
                 (A) (B) (A) (B) (A)
       Virtual   (B) (A) (A) (B) (B) (A) (B) (A) (A) (B) (A) (B)
                 (B) (A) (A) (B) (B) (A) (B) (A) (B) (A) (B) (A)
                 (B) (A) (B)
 The electronic state of the initial guess is 1-A.
 Generating alternative initial guess.
 Harris functional with IExCor=  205 diagonalized for initial guess.
 ExpMin= 1.83D-01 ExpMax= 4.14D+02 ExpMxC= 4.14D+02 IAcc=1 IRadAn=         1 AccDes= 1.00D-06
 HarFok:  IExCor= 205 AccDes= 1.00D-06 IRadAn=         1 IDoV=1
 ScaDFX=  1.000000  1.000000  1.000000  1.000000
 Harris En= -275.515031920202    
 Leave Link  401 at Tue Oct 16 12:30:36 2007, MaxMem=    6291456 cpu:       0.1
 (Enter /opt/und/gaussian/03D01/linux86-64/g03/linda-exe/l502.exel)
 Closed shell SCF:
 Requested convergence on RMS density matrix=1.00D-08 within 128 cycles.
 Requested convergence on MAX density matrix=1.00D-06.
 Requested convergence on             energy=1.00D-06.
 No special actions if energy rises.
 Using DIIS extrapolation, IDIIS=  1040.
 Integral symmetry usage will be decided dynamically.
 Keep R1 integrals in memory in canonical form, NReq=     1360589.
 IEnd=     24490 IEndB=     24490 NGot=   6291456 MDV=   5795028
 LenX=   5795028
 Symmetry not used in FoFDir.
 MinBra= 0 MaxBra= 1 Meth= 1.
 IRaf=       0 NMat=   1 IRICut=       1 DoRegI=T DoRafI=F ISym2E= 0 JSym2E=0.

 Cycle   1  Pass 1  IDiag  1:
 E= -275.418123350351    
 DIIS: error= 2.02D-03 at cycle   1 NSaved=   1.
 NSaved= 1 IEnMin= 1 EnMin= -275.418123350351     IErMin= 1 ErrMin= 2.02D-03
 ErrMax= 2.02D-03 EMaxC= 1.00D-01 BMatC= 2.10D-04 BMatP= 2.10D-04
 IDIUse=3 WtCom= 9.80D-01 WtEn= 2.02D-02
 Coeff-Com:  0.100D+01
 Coeff-En:   0.100D+01
 Coeff:      0.100D+01
 Gap=     0.754 Goal=   None    Shift=    0.000
 GapD=    0.754 DampG=2.000 DampE=1.000 DampFc=2.0000 IDamp=-1.
 RMSDP=3.77D-04 MaxDP=2.99D-03              OVMax= 3.33D-03

 Cycle   2  Pass 1  IDiag  1:
 E= -275.418290298454     Delta-E=       -0.000166948103 Rises=F Damp=F
 DIIS: error= 3.21D-04 at cycle   2 NSaved=   2.
 NSaved= 2 IEnMin= 2 EnMin= -275.418290298454     IErMin= 2 ErrMin= 3.21D-04
 ErrMax= 3.21D-04 EMaxC= 1.00D-01 BMatC= 1.04D-05 BMatP= 2.10D-04
 IDIUse=3 WtCom= 9.97D-01 WtEn= 3.21D-03
 Coeff-Com: -0.211D-01 0.102D+01
 Coeff-En:   0.000D+00 0.100D+01
 Coeff:     -0.210D-01 0.102D+01
 Gap=     0.754 Goal=   None    Shift=    0.000
 RMSDP=1.06D-04 MaxDP=6.31D-04 DE=-1.67D-04 OVMax= 8.54D-04

 Cycle   3  Pass 1  IDiag  1:
 E= -275.418302170356     Delta-E=       -0.000011871901 Rises=F Damp=F
 DIIS: error= 2.51D-04 at cycle   3 NSaved=   3.
 NSaved= 3 IEnMin= 3 EnMin= -275.418302170356     IErMin= 3 ErrMin= 2.51D-04
 ErrMax= 2.51D-04 EMaxC= 1.00D-01 BMatC= 2.57D-06 BMatP= 1.04D-05
 IDIUse=3 WtCom= 9.97D-01 WtEn= 2.51D-03
 Coeff-Com: -0.538D-01 0.296D+00 0.758D+00
 Coeff-En:   0.000D+00 0.000D+00 0.100D+01
 Coeff:     -0.537D-01 0.295D+00 0.759D+00
 Gap=     0.754 Goal=   None    Shift=    0.000
 RMSDP=2.85D-05 MaxDP=1.75D-04 DE=-1.19D-05 OVMax= 2.77D-04

 Cycle   4  Pass 1  IDiag  1:
 E= -275.418304068118     Delta-E=       -0.000001897763 Rises=F Damp=F
 DIIS: error= 2.80D-05 at cycle   4 NSaved=   4.
 NSaved= 4 IEnMin= 4 EnMin= -275.418304068118     IErMin= 4 ErrMin= 2.80D-05
 ErrMax= 2.80D-05 EMaxC= 1.00D-01 BMatC= 5.88D-08 BMatP= 2.57D-06
 IDIUse=1 WtCom= 1.00D+00 WtEn= 0.00D+00
 Coeff-Com:  0.536D-02-0.961D-01-0.725D-01 0.116D+01
 Coeff:      0.536D-02-0.961D-01-0.725D-01 0.116D+01
 Gap=     0.754 Goal=   None    Shift=    0.000
 RMSDP=1.14D-05 MaxDP=5.52D-05 DE=-1.90D-06 OVMax= 1.57D-04

 Cycle   5  Pass 1  IDiag  1:
 E= -275.418304184730     Delta-E=       -0.000000116611 Rises=F Damp=F
 DIIS: error= 4.79D-06 at cycle   5 NSaved=   5.
 NSaved= 5 IEnMin= 5 EnMin= -275.418304184730     IErMin= 5 ErrMin= 4.79D-06
 ErrMax= 4.79D-06 EMaxC= 1.00D-01 BMatC= 1.31D-09 BMatP= 5.88D-08
 IDIUse=1 WtCom= 1.00D+00 WtEn= 0.00D+00
 Coeff-Com: -0.117D-03 0.119D-01-0.209D-02-0.195D+00 0.119D+01
 Coeff:     -0.117D-03 0.119D-01-0.209D-02-0.195D+00 0.119D+01
 Gap=     0.754 Goal=   None    Shift=    0.000
 RMSDP=1.55D-06 MaxDP=8.57D-06 DE=-1.17D-07 OVMax= 2.67D-05

 Cycle   6  Pass 1  IDiag  1:
 E= -275.418304187475     Delta-E=       -0.000000002745 Rises=F Damp=F
 DIIS: error= 1.74D-06 at cycle   6 NSaved=   6.
 NSaved= 6 IEnMin= 6 EnMin= -275.418304187475     IErMin= 6 ErrMin= 1.74D-06
 ErrMax= 1.74D-06 EMaxC= 1.00D-01 BMatC= 1.27D-10 BMatP= 1.31D-09
 IDIUse=1 WtCom= 1.00D+00 WtEn= 0.00D+00
 Coeff-Com: -0.453D-03 0.857D-02 0.404D-02-0.934D-01 0.556D-01 0.103D+01
 Coeff:     -0.453D-03 0.857D-02 0.404D-02-0.934D-01 0.556D-01 0.103D+01
 Gap=     0.754 Goal=   None    Shift=    0.000
 RMSDP=4.60D-07 MaxDP=2.14D-06 DE=-2.74D-09 OVMax= 6.68D-06

 Cycle   7  Pass 1  IDiag  1:
 E= -275.418304187726     Delta-E=       -0.000000000252 Rises=F Damp=F
 DIIS: error= 3.88D-07 at cycle   7 NSaved=   7.
 NSaved= 7 IEnMin= 7 EnMin= -275.418304187726     IErMin= 7 ErrMin= 3.88D-07
 ErrMax= 3.88D-07 EMaxC= 1.00D-01 BMatC= 7.91D-12 BMatP= 1.27D-10
 IDIUse=1 WtCom= 1.00D+00 WtEn= 0.00D+00
 Coeff-Com:  0.127D-03-0.307D-02-0.139D-02 0.383D-01-0.961D-01-0.287D+00
 Coeff-Com:  0.135D+01
 Coeff:      0.127D-03-0.307D-02-0.139D-02 0.383D-01-0.961D-01-0.287D+00
 Coeff:      0.135D+01
 Gap=     0.754 Goal=   None    Shift=    0.000
 RMSDP=1.54D-07 MaxDP=7.45D-07 DE=-2.52D-10 OVMax= 2.06D-06

 Cycle   8  Pass 1  IDiag  1:
 E= -275.418304187746     Delta-E=       -0.000000000020 Rises=F Damp=F
 DIIS: error= 7.12D-08 at cycle   8 NSaved=   8.
 NSaved= 8 IEnMin= 8 EnMin= -275.418304187746     IErMin= 8 ErrMin= 7.12D-08
 ErrMax= 7.12D-08 EMaxC= 1.00D-01 BMatC= 1.88D-13 BMatP= 7.91D-12
 IDIUse=1 WtCom= 1.00D+00 WtEn= 0.00D+00
 Coeff-Com: -0.271D-04 0.710D-03 0.247D-03-0.895D-02 0.275D-01 0.602D-01
 Coeff-Com: -0.406D+00 0.133D+01
 Coeff:     -0.271D-04 0.710D-03 0.247D-03-0.895D-02 0.275D-01 0.602D-01
 Coeff:     -0.406D+00 0.133D+01
 Gap=     0.754 Goal=   None    Shift=    0.000
 RMSDP=2.43D-08 MaxDP=1.40D-07 DE=-2.05D-11 OVMax= 2.83D-07

 Cycle   9  Pass 1  IDiag  1:
 E= -275.418304187746     Delta-E=        0.000000000000 Rises=F Damp=F
 DIIS: error= 2.11D-08 at cycle   9 NSaved=   9.
 NSaved= 9 IEnMin= 8 EnMin= -275.418304187746     IErMin= 9 ErrMin= 2.11D-08
 ErrMax= 2.11D-08 EMaxC= 1.00D-01 BMatC= 1.00D-14 BMatP= 1.88D-13
 IDIUse=1 WtCom= 1.00D+00 WtEn= 0.00D+00
 Coeff-Com:  0.512D-05-0.147D-03-0.316D-04 0.184D-02-0.648D-02-0.117D-01
 Coeff-Com:  0.103D+00-0.520D+00 0.143D+01
 Coeff:      0.512D-05-0.147D-03-0.316D-04 0.184D-02-0.648D-02-0.117D-01
 Coeff:      0.103D+00-0.520D+00 0.143D+01
 Gap=     0.754 Goal=   None    Shift=    0.000
 RMSDP=5.33D-09 MaxDP=3.71D-08 DE= 3.41D-13 OVMax= 8.79D-08

 SCF Done:  E(RHF) =  -275.418304188     A.U. after    9 cycles
             Convg  =    0.5326D-08             -V/T =  2.0034
             S**2   =   0.0000
 KE= 2.744799630908D+02 PE=-9.018196080377D+02 EE= 2.282467482579D+02
 Leave Link  502 at Tue Oct 16 12:30:36 2007, MaxMem=    6291456 cpu:       0.2
 (Enter /opt/und/gaussian/03D01/linux86-64/g03/l801.exe)
 ExpMin= 1.83D-01 ExpMax= 4.14D+02 ExpMxC= 4.14D+02 IAcc=1 IRadAn=         1 AccDes= 1.00D-06
 HarFok:  IExCor= 205 AccDes= 1.00D-06 IRadAn=         1 IDoV=1
 ScaDFX=  1.000000  1.000000  1.000000  1.000000
 Largest valence mixing into a core orbital is  3.16D-04
 Largest core mixing into a valence orbital is  9.35D-05
 Range of M.O.s used for correlation:     5    44
 NBasis=    44 NAE=    17 NBE=    17 NFC=     4 NFV=     0
 NROrb=     40 NOA=    13 NOB=    13 NVA=    27 NVB=    27
 Leave Link  801 at Tue Oct 16 12:30:36 2007, MaxMem=    6291456 cpu:       0.1
 (Enter /opt/und/gaussian/03D01/linux86-64/g03/linda-exe/l906.exel)
 Frozen-core derivative calculation, NFC=   4 NFV=   0.
 FulOut=F Deriv=T AODrv=T NAtomX=     8
   MMem=         112  MDisk=          13 MDiskD=          13
  W3Min=       32912 MinDsk=      100138 NBas6D=          44
 NBas2D=        1038    NTT=         990    LW2=     1571399
    MDV=     6285596 MDiskM=        1116 NBas2p=         532
 Fully direct method using O(ONN) memory.
 IMap=   1   2   3   4   5   6   7   8   9  10  11  12  13  14  15  16  17
 JobTyp=1 Pass  1:  I=   5 to  17 NPSUse=  1 ParTrn=F ParDer=F DoDerP=T.
 Spin components of T(2) and E(2):
     alpha-alpha T2 =       0.1245408836D-01 E2=     -0.4897608523D-01
     alpha-beta  T2 =       0.8588106673D-01 E2=     -0.3150467084D+00
     beta-beta   T2 =       0.1245408836D-01 E2=     -0.4897608523D-01
 The integrals were generated   1 times.
 ANorm=    0.1053939867D+01
 E2 =    -0.4129988789D+00 EUMP2 =    -0.27583130306663D+03
 Leave Link  906 at Tue Oct 16 12:30:37 2007, MaxMem=    6291456 cpu:       0.5
 (Enter /opt/und/gaussian/03D01/linux86-64/g03/linda-exe/l1002.exel)
 Minotr:  Closed-shell wavefunction.
          Computing MP2 derivatives.
          Using Z-Vector for PSCF gradient.
          Skipping F1 and S1 gradient terms here.
 DoAtom=TTTTTTTT
          Frozen-core window.
          Direct CPHF calculation.
          Solving linear equations simultaneously.
          Differentiating once with respect to electric field.
                with respect to dipole field.
          Differentiating once with respect to nuclear coordinates.
          Using symmetry in CPHF.
          Requested convergence is 1.0D-10 RMS, and 1.0D-09 maximum.
          Secondary convergence is 1.0D-12 RMS, and 1.0D-12 maximum.
          NewPWx=F KeepS1=T KeepF1=T KeepIn=T MapXYZ=F.
          MDV=       6291382 using IRadAn=       0.
          Store integrals in memory, NReq=     1291183.
 Symmetry not used in FoFDir.
 MinBra= 0 MaxBra= 1 Meth= 1.
 IRaf=       0 NMat=   1 IRICut=       1 DoRegI=T DoRafI=F ISym2E= 0 JSym2E=0.
          There are   1 degrees of freedom in the 1st order CPHF.
     1 vectors were produced by pass  0.
 AX will form   1 AO Fock derivatives at one time.
     1 vectors were produced by pass  1.
     1 vectors were produced by pass  2.
     1 vectors were produced by pass  3.
     1 vectors were produced by pass  4.
     1 vectors were produced by pass  5.
     1 vectors were produced by pass  6.
     1 vectors were produced by pass  7.
     1 vectors were produced by pass  8.
     1 vectors were produced by pass  9.
 Inv2:  IOpt= 1 Iter= 1 AM= 2.89D-16 Conv= 1.00D-12.
 Inverted reduced A of dimension   10 with in-core refinement.
 End of Minotr Frequency-dependent properties file   721 does not exist.
 Leave Link 1002 at Tue Oct 16 12:30:38 2007, MaxMem=    6291456 cpu:       0.2
 (Enter /opt/und/gaussian/03D01/linux86-64/g03/linda-exe/l701.exel)
 Compute integral first derivatives.
 ... and contract with generalized density number  2.
 Leave Link  701 at Tue Oct 16 12:30:38 2007, MaxMem=    6291456 cpu:       0.1
 (Enter /opt/und/gaussian/03D01/linux86-64/g03/l702.exe)
 L702 exits ... SP integral derivatives will be done elsewhere.
 Leave Link  702 at Tue Oct 16 12:30:38 2007, MaxMem=    6291456 cpu:       0.0
 (Enter /opt/und/gaussian/03D01/linux86-64/g03/linda-exe/l703.exel)
 Compute integral first derivatives, UseDBF=F.
 Integral derivatives from FoFDir, PRISM(SPDF).
 Use density number 2.
 Petite list used in FoFDir.
 MinBra= 0 MaxBra= 1 Meth= 1.
 IRaf=       0 NMat=   1 IRICut=       1 DoRegI=T DoRafI=F ISym2E= 1 JSym2E=1.
 Leave Link  703 at Tue Oct 16 12:30:39 2007, MaxMem=    6291456 cpu:       0.1
 (Enter /opt/und/gaussian/03D01/linux86-64/g03/l716.exe)
 Use density number 2.
 Dipole        =-2.22044605D-15-1.99840144D-15 1.05477419D-05
 ***** Axes restored to original set *****
 -------------------------------------------------------------------
 Center     Atomic                   Forces (Hartrees/Bohr)
 Number     Number              X              Y              Z
 -------------------------------------------------------------------
    1          6           0.000378759   -0.000000231    0.002159751
    2          6          -0.000378759   -0.000000231   -0.002159751
    3          9           0.001577103   -0.000000342    0.000888239
    4          1          -0.000207208    0.001053669    0.000056383
    5          1          -0.000206579   -0.001053097    0.000057581
    6          9          -0.001577103   -0.000000342   -0.000888239
    7          1           0.000207208    0.001053669   -0.000056383
    8          1           0.000206579   -0.001053097   -0.000057581
 -------------------------------------------------------------------
 Cartesian Forces:  Max     0.002159751 RMS     0.000930750
 Leave Link  716 at Tue Oct 16 12:30:39 2007, MaxMem=    6291456 cpu:       0.0
 (Enter /opt/und/gaussian/03D01/linux86-64/g03/l103.exe)

 GradGradGradGradGradGradGradGradGradGradGradGradGradGradGradGradGradGrad
 Berny optimization.
 Internal  Forces:  Max     0.001777306 RMS     0.000706872
 Search for a local minimum.
 Step number   3 out of a maximum of  38
 All quantities printed in internal units (Hartrees-Bohrs-Radians)
 Update second derivatives using D2CorX and points  1  2  3
 Trust test= 9.65D-01 RLast= 7.99D-02 DXMaxT set to 3.93D-01
     Eigenvalues ---    0.00255   0.05640   0.05920   0.05925   0.05925
     Eigenvalues ---    0.16000   0.16000   0.16000   0.18359   0.22448
     Eigenvalues ---    0.22950   0.30097   0.32122   0.32122   0.32122
     Eigenvalues ---    0.33392   0.39652   0.465241000.000001000.00000
     Eigenvalues --- 1000.000001000.000001000.000001000.000001000.00000
     Eigenvalues --- 1000.000001000.000001000.00000
 RFO step:  Lambda=-4.32442266D-05.
 Quartic linear search produced a step of -0.00755.
 Iteration  1 RMS(Cart)=  0.00280448 RMS(Int)=  0.00000445
 Iteration  2 RMS(Cart)=  0.00000442 RMS(Int)=  0.00000134
 Iteration  3 RMS(Cart)=  0.00000000 RMS(Int)=  0.00000134
 Variable       Old X    -DE/DX   Delta X   Delta X   Delta X     New X
                                 (Linear)    (Quad)   (Total)
    R1        2.89234  -0.00118  -0.00003  -0.00388  -0.00391   2.88843
    R2        2.69638   0.00178  -0.00009   0.00513   0.00504   2.70142
    R3        2.06025   0.00098   0.00005   0.00223   0.00228   2.06253
    R4        2.06026   0.00097   0.00005   0.00223   0.00228   2.06253
    R5        2.69638   0.00178  -0.00009   0.00513   0.00504   2.70142
    R6        2.06025   0.00098   0.00005   0.00223   0.00228   2.06253
    R7        2.06026   0.00097   0.00005   0.00223   0.00228   2.06253
    A1        1.87046   0.00073   0.00011   0.00148   0.00160   1.87205
    A2        1.92178  -0.00043  -0.00012  -0.00109  -0.00121   1.92058
    A3        1.92176  -0.00043  -0.00012  -0.00108  -0.00119   1.92057
    A4        1.92378  -0.00019   0.00011  -0.00221  -0.00211   1.92167
    A5        1.92379  -0.00019   0.00011  -0.00221  -0.00211   1.92168
    A6        1.90227   0.00050  -0.00009   0.00497   0.00488   1.90715
    A7        1.87046   0.00073   0.00011   0.00148   0.00160   1.87205
    A8        1.92178  -0.00043  -0.00012  -0.00109  -0.00121   1.92058
    A9        1.92176  -0.00043  -0.00012  -0.00108  -0.00119   1.92057
   A10        1.92378  -0.00019   0.00011  -0.00221  -0.00211   1.92167
   A11        1.92379  -0.00019   0.00011  -0.00221  -0.00211   1.92168
   A12        1.90227   0.00050  -0.00009   0.00497   0.00488   1.90715
    D1        3.14158   0.00000   0.00000   0.00000   0.00000   3.14158
    D2       -1.04901  -0.00004   0.00013  -0.00240  -0.00227  -1.05128
    D3        1.04899   0.00004  -0.00013   0.00239   0.00226   1.05125
    D4       -1.04901  -0.00004   0.00013  -0.00240  -0.00227  -1.05128
    D5        1.04358  -0.00007   0.00026  -0.00479  -0.00454   1.03905
    D6        3.14158   0.00000   0.00000  -0.00001  -0.00001   3.14158
    D7        1.04899   0.00004  -0.00013   0.00239   0.00226   1.05125
    D8        3.14158   0.00000   0.00000  -0.00001  -0.00001   3.14158
    D9       -1.04360   0.00007  -0.00026   0.00478   0.00452  -1.03908
         Item               Value     Threshold  Converged?
[...]
   MMem=         112  MDisk=          13 MDiskD=          13
  W3Min=       32912 MinDsk=      100138 NBas6D=          44
 NBas2D=        1038    NTT=         990    LW2=     1571399
    MDV=     6285596 MDiskM=        1116 NBas2p=         532
 Fully direct method using O(ONN) memory.
 IMap=   1   2   3   4   5   6   7   8   9  10  11  12  13  14  15  16  17
 JobTyp=1 Pass  1:  I=   5 to  17 NPSUse=  1 ParTrn=F ParDer=F DoDerP=T.
 Spin components of T(2) and E(2):
     alpha-alpha T2 =       0.1246995591D-01 E2=     -0.4900255672D-01
     alpha-beta  T2 =       0.8604440208D-01 E2=     -0.3152525861D+00
     beta-beta   T2 =       0.1246995591D-01 E2=     -0.4900255672D-01
 The integrals were generated   1 times.
 ANorm=    0.1054032406D+01
 E2 =    -0.4132576995D+00 EUMP2 =    -0.27583132445434D+03
 Leave Link  906 at Tue Oct 16 12:30:42 2007, MaxMem=    6291456 cpu:       0.5
 (Enter /opt/und/gaussian/03D01/linux86-64/g03/linda-exe/l1002.exel)
 Minotr:  Closed-shell wavefunction.
          Computing MP2 derivatives.
          Using Z-Vector for PSCF gradient.
          Skipping F1 and S1 gradient terms here.
 DoAtom=TTTTTTTT
          Frozen-core window.
          Direct CPHF calculation.
          Solving linear equations simultaneously.
          Differentiating once with respect to electric field.
                with respect to dipole field.
          Differentiating once with respect to nuclear coordinates.
          Using symmetry in CPHF.
          Requested convergence is 1.0D-10 RMS, and 1.0D-09 maximum.
          Secondary convergence is 1.0D-12 RMS, and 1.0D-12 maximum.
          NewPWx=F KeepS1=T KeepF1=T KeepIn=T MapXYZ=F.
          MDV=       6291382 using IRadAn=       0.
          Store integrals in memory, NReq=     1291183.
 Symmetry not used in FoFDir.
 MinBra= 0 MaxBra= 1 Meth= 1.
 IRaf=       0 NMat=   1 IRICut=       1 DoRegI=T DoRafI=F ISym2E= 0 JSym2E=0.
          There are   1 degrees of freedom in the 1st order CPHF.
     1 vectors were produced by pass  0.
 AX will form   1 AO Fock derivatives at one time.
     1 vectors were produced by pass  1.
     1 vectors were produced by pass  2.
     1 vectors were produced by pass  3.
     1 vectors were produced by pass  4.
     1 vectors were produced by pass  5.
     1 vectors were produced by pass  6.
     1 vectors were produced by pass  7.
     1 vectors were produced by pass  8.
     1 vectors were produced by pass  9.
 Inv2:  IOpt= 1 Iter= 1 AM= 2.87D-16 Conv= 1.00D-12.
 Inverted reduced A of dimension   10 with in-core refinement.
 End of Minotr Frequency-dependent properties file   721 does not exist.
 Leave Link 1002 at Tue Oct 16 12:30:43 2007, MaxMem=    6291456 cpu:       0.2
 (Enter /opt/und/gaussian/03D01/linux86-64/g03/linda-exe/l701.exel)
 Compute integral first derivatives.
 ... and contract with generalized density number  2.
 Leave Link  701 at Tue Oct 16 12:30:43 2007, MaxMem=    6291456 cpu:       0.1
 (Enter /opt/und/gaussian/03D01/linux86-64/g03/l702.exe)
 L702 exits ... SP integral derivatives will be done elsewhere.
 Leave Link  702 at Tue Oct 16 12:30:44 2007, MaxMem=    6291456 cpu:       0.0
 (Enter /opt/und/gaussian/03D01/linux86-64/g03/linda-exe/l703.exel)
 Compute integral first derivatives, UseDBF=F.
 Integral derivatives from FoFDir, PRISM(SPDF).
 Use density number 2.
 Petite list used in FoFDir.
 MinBra= 0 MaxBra= 1 Meth= 1.
 IRaf=       0 NMat=   1 IRICut=       1 DoRegI=T DoRafI=F ISym2E= 1 JSym2E=1.
 Leave Link  703 at Tue Oct 16 12:30:44 2007, MaxMem=    6291456 cpu:       0.1
 (Enter /opt/und/gaussian/03D01/linux86-64/g03/l716.exe)
 Use density number 2.
 Dipole        =-8.43769499D-15-1.62092562D-14 1.16457224D-05
 ***** Axes restored to original set *****
 -------------------------------------------------------------------
 Center     Atomic                   Forces (Hartrees/Bohr)
 Number     Number              X              Y              Z
 -------------------------------------------------------------------
    1          6          -0.000068412   -0.000000113    0.000350595
    2          6           0.000068412   -0.000000113   -0.000350595
    3          9          -0.000006034   -0.000000111    0.000007385
    4          1          -0.000059019    0.000003341    0.000096696
    5          1          -0.000058567   -0.000003117    0.000096836
    6          9           0.000006034   -0.000000111   -0.000007385
    7          1           0.000059019    0.000003341   -0.000096696
    8          1           0.000058567   -0.000003117   -0.000096836
 -------------------------------------------------------------------
 Cartesian Forces:  Max     0.000350595 RMS     0.000113045
 Leave Link  716 at Tue Oct 16 12:30:44 2007, MaxMem=    6291456 cpu:       0.0
 (Enter /opt/und/gaussian/03D01/linux86-64/g03/l103.exe)

 GradGradGradGradGradGradGradGradGradGradGradGradGradGradGradGradGradGrad
 Berny optimization.
 Internal  Forces:  Max     0.000148377 RMS     0.000061140
 Search for a local minimum.
 Step number   4 out of a maximum of  38
 All quantities printed in internal units (Hartrees-Bohrs-Radians)
 Update second derivatives using D2CorX and points  1  2  3  4
 Trust test= 9.88D-01 RLast= 1.50D-02 DXMaxT set to 3.93D-01
     Eigenvalues ---    0.00255   0.05908   0.05921   0.05929   0.05929
     Eigenvalues ---    0.16000   0.16000   0.16000   0.18284   0.22459
     Eigenvalues ---    0.22951   0.29811   0.32122   0.32122   0.32122
     Eigenvalues ---    0.32668   0.39360   0.465241000.000001000.00000
     Eigenvalues --- 1000.000001000.000001000.000001000.000001000.00000
     Eigenvalues --- 1000.000001000.000001000.00000
 RFO step:  Lambda=-5.33903489D-07.
 Quartic linear search produced a step of -0.01024.
 Iteration  1 RMS(Cart)=  0.00032091 RMS(Int)=  0.00000011
 Iteration  2 RMS(Cart)=  0.00000010 RMS(Int)=  0.00000004
 Variable       Old X    -DE/DX   Delta X   Delta X   Delta X     New X
                                 (Linear)    (Quad)   (Total)
    R1        2.88843  -0.00015   0.00004  -0.00062  -0.00058   2.88785
    R2        2.70142   0.00000  -0.00005   0.00009   0.00004   2.70146
    R3        2.06253   0.00006  -0.00002   0.00024   0.00022   2.06275
    R4        2.06253   0.00006  -0.00002   0.00024   0.00021   2.06275
    R5        2.70142   0.00000  -0.00005   0.00009   0.00004   2.70146
    R6        2.06253   0.00006  -0.00002   0.00024   0.00022   2.06275
    R7        2.06253   0.00006  -0.00002   0.00024   0.00021   2.06275
    A1        1.87205  -0.00001  -0.00002   0.00008   0.00006   1.87212
    A2        1.92058   0.00009   0.00001   0.00047   0.00048   1.92105
    A3        1.92057   0.00010   0.00001   0.00047   0.00048   1.92105
    A4        1.92167  -0.00003   0.00002  -0.00011  -0.00009   1.92158
    A5        1.92168  -0.00003   0.00002  -0.00011  -0.00009   1.92158
    A6        1.90715  -0.00011  -0.00005  -0.00076  -0.00081   1.90634
    A7        1.87205  -0.00001  -0.00002   0.00008   0.00006   1.87212
    A8        1.92058   0.00009   0.00001   0.00047   0.00048   1.92105
    A9        1.92057   0.00010   0.00001   0.00047   0.00048   1.92105
   A10        1.92167  -0.00003   0.00002  -0.00011  -0.00009   1.92158
   A11        1.92168  -0.00003   0.00002  -0.00011  -0.00009   1.92158
   A12        1.90715  -0.00011  -0.00005  -0.00076  -0.00081   1.90634
    D1        3.14158   0.00000   0.00000   0.00001   0.00001   3.14159
    D2       -1.05128   0.00001   0.00002   0.00019   0.00021  -1.05107
    D3        1.05125  -0.00001  -0.00002  -0.00017  -0.00019   1.05106
    D4       -1.05128   0.00001   0.00002   0.00019   0.00021  -1.05107
    D5        1.03905   0.00002   0.00005   0.00036   0.00041   1.03946
    D6        3.14158   0.00000   0.00000   0.00001   0.00001   3.14159
    D7        1.05125  -0.00001  -0.00002  -0.00017  -0.00019   1.05106
    D8        3.14158   0.00000   0.00000   0.00001   0.00001   3.14159
    D9       -1.03908  -0.00002  -0.00005  -0.00034  -0.00039  -1.03947
         Item               Value     Threshold  Converged?
 Maximum Force            0.000148     0.000450     YES
 RMS     Force            0.000061     0.000300     YES
 Maximum Displacement     0.000689     0.001800     YES
 RMS     Displacement     0.000321     0.001200     YES
 Predicted change in Energy=-2.691619D-07
 Optimization completed.
    -- Stationary point found.
                           ----------------------------
                           !   Optimized Parameters   !
                           ! (Angstroms and Degrees)  !
 --------------------------                            --------------------------
 ! Name  Definition              Value          Derivative Info.                !
 --------------------------------------------------------------------------------
 ! R1    R(1,2)                  1.5285         -DE/DX =   -0.0001              !
 ! R2    R(1,6)                  1.4295         -DE/DX =    0.0                 !
 ! R3    R(1,7)                  1.0914         -DE/DX =    0.0001              !
 ! R4    R(1,8)                  1.0914         -DE/DX =    0.0001              !
 ! R5    R(2,3)                  1.4295         -DE/DX =    0.0                 !
 ! R6    R(2,4)                  1.0914         -DE/DX =    0.0001              !
 ! R7    R(2,5)                  1.0914         -DE/DX =    0.0001              !
 ! A1    A(2,1,6)              107.2608         -DE/DX =    0.0                 !
 ! A2    A(2,1,7)              110.0409         -DE/DX =    0.0001              !
 ! A3    A(2,1,8)              110.0406         -DE/DX =    0.0001              !
 ! A4    A(6,1,7)              110.1038         -DE/DX =    0.0                 !
 ! A5    A(6,1,8)              110.104          -DE/DX =    0.0                 !
 ! A6    A(7,1,8)              109.2717         -DE/DX =   -0.0001              !
 ! A7    A(1,2,3)              107.2608         -DE/DX =    0.0                 !
 ! A8    A(1,2,4)              110.0409         -DE/DX =    0.0001              !
 ! A9    A(1,2,5)              110.0406         -DE/DX =    0.0001              !
 ! A10   A(3,2,4)              110.1038         -DE/DX =    0.0                 !
 ! A11   A(3,2,5)              110.104          -DE/DX =    0.0                 !
 ! A12   A(4,2,5)              109.2717         -DE/DX =   -0.0001              !
 ! D1    D(6,1,2,3)            179.9991         -DE/DX =    0.0                 !
 ! D2    D(6,1,2,4)            -60.2339         -DE/DX =    0.0                 !
 ! D3    D(6,1,2,5)             60.2321         -DE/DX =    0.0                 !
 ! D4    D(7,1,2,3)            -60.2339         -DE/DX =    0.0                 !
 ! D5    D(7,1,2,4)             59.533          -DE/DX =    0.0                 !
 ! D6    D(7,1,2,5)            179.999          -DE/DX =    0.0                 !
 ! D7    D(8,1,2,3)             60.2321         -DE/DX =    0.0                 !
 ! D8    D(8,1,2,4)            179.999          -DE/DX =    0.0                 !
 ! D9    D(8,1,2,5)            -59.535          -DE/DX =    0.0                 !
 --------------------------------------------------------------------------------
 GradGradGradGradGradGradGradGradGradGradGradGradGradGradGradGradGradGrad

 Largest change from initial coordinates is atom    7       0.034 Angstoms.
 Leave Link  103 at Tue Oct 16 12:30:44 2007, MaxMem=    6291456 cpu:       0.0
 (Enter /opt/und/gaussian/03D01/linux86-64/g03/l202.exe)
                          Input orientation:                          
 ---------------------------------------------------------------------
 Center     Atomic     Atomic              Coordinates (Angstroms)
 Number     Number      Type              X           Y           Z
 ---------------------------------------------------------------------
    1          6             0        0.017486    0.000029    0.005255
    2          6             0       -0.017486    0.000029    1.533345
    3          9             0        1.337600    0.000017    1.988640
    4          1             0       -0.534966    0.890095    1.895628
    5          1             0       -0.534982   -0.890032    1.895622
    6          9             0       -1.337600    0.000017   -0.450040
    7          1             0        0.534966    0.890095   -0.357028
    8          1             0        0.534982   -0.890032   -0.357022
 ---------------------------------------------------------------------
                    Distance matrix (angstroms):
                    1          2          3          4          5
     1  C    0.000000
     2  C    1.528490   0.000000
     3  F    2.382544   1.429528   0.000000
     4  H    2.161234   1.091445   2.075425   0.000000
     5  H    2.161230   1.091446   2.075428   1.780126   0.000000
     6  F    1.429528   2.382544   3.619924   2.634126   2.634105
     7  H    1.091445   2.161234   2.634126   2.493836   3.063996
     8  H    1.091446   2.161230   2.634105   3.063996   2.493838
                    6          7          8
     6  F    0.000000
     7  H    2.075425   0.000000
     8  H    2.075428   1.780126   0.000000
 Stoichiometry    C2H4F2
 Framework group  C2[X(C2H4F2)]
 Deg. of freedom    10
 Full point group                 C2
 Largest Abelian subgroup         C2      NOp   2
 Largest concise Abelian subgroup C2      NOp   2
                         Standard orientation:                         
 ---------------------------------------------------------------------
 Center     Atomic     Atomic              Coordinates (Angstroms)
 Number     Number      Type              X           Y           Z
 ---------------------------------------------------------------------
    1          6             0        0.437896    0.626352    0.000006
    2          6             0       -0.437896   -0.626352    0.000006
    3          9             0        0.437896   -1.756191   -0.000006
    4          1             0       -1.069414   -0.641217    0.890072
    5          1             0       -1.069423   -0.641202   -0.890055
    6          9             0       -0.437896    1.756191   -0.000006
    7          1             0        1.069414    0.641217    0.890072
    8          1             0        1.069423    0.641202   -0.890055
 ---------------------------------------------------------------------
 Rotational constants (GHZ):     31.0745047      3.7467262      3.4911108
 Leave Link  202 at Tue Oct 16 12:30:45 2007, MaxMem=    6291456 cpu:       0.1
 (Enter /opt/und/gaussian/03D01/linux86-64/g03/l601.exe)
 Copying SCF densities to generalized density rwf, ISCF=0 IROHF=0.

 **********************************************************************

            Population analysis using the SCF density.

 **********************************************************************

 Orbital symmetries:
       Occupied  (B) (A) (B) (A) (A) (B) (A) (B) (A) (B) (A) (B)
                 (A) (B) (A) (B) (A)
       Virtual   (B) (A) (A) (B) (B) (A) (B) (A) (B) (A) (A) (B)
                 (B) (A) (A) (B) (B) (A) (B) (A) (B) (A) (B) (A)
                 (B) (A) (B)
 The electronic state is 1-A.
 Alpha  occ. eigenvalues --  -26.14238 -26.14227 -11.27173 -11.27134  -1.56568
 Alpha  occ. eigenvalues --   -1.55951  -1.04478  -0.87738  -0.72577  -0.68827
 Alpha  occ. eigenvalues --   -0.68257  -0.65966  -0.62170  -0.59948  -0.55412
 Alpha  occ. eigenvalues --   -0.50815  -0.50356
 Alpha virt. eigenvalues --    0.24974   0.26489   0.29938   0.31953   0.36102
 Alpha virt. eigenvalues --    0.41030   0.42350   0.89994   0.95216   0.95252
 Alpha virt. eigenvalues --    0.98673   0.99759   1.13114   1.21719   1.29419
 Alpha virt. eigenvalues --    1.31886   1.35121   1.77975   2.16528   2.31972
 Alpha virt. eigenvalues --    2.35409   2.37512   2.46094   2.48040   2.48362
 Alpha virt. eigenvalues --    3.89730   4.00733
          Condensed to atoms (all electrons):
              1          2          3          4          5          6
     1  C    5.119340   0.164532  -0.026423  -0.050439  -0.050440   0.198174
     2  C    0.164532   5.119340   0.198174   0.349930   0.349929  -0.026423
     3  F   -0.026423   0.198174   9.267301  -0.022784  -0.022784   0.000029
     4  H   -0.050439   0.349930  -0.022784   0.533490  -0.037182   0.002055
     5  H   -0.050440   0.349929  -0.022784  -0.037182   0.533491   0.002055
     6  F    0.198174  -0.026423   0.000029   0.002055   0.002055   9.267301
     7  H    0.349930  -0.050439   0.002055  -0.005126   0.003943  -0.022784
     8  H    0.349929  -0.050440   0.002055   0.003943  -0.005126  -0.022784
              7          8
     1  C    0.349930   0.349929
     2  C   -0.050439  -0.050440
     3  F    0.002055   0.002055
     4  H   -0.005126   0.003943
     5  H    0.003943  -0.005126
     6  F   -0.022784  -0.022784
     7  H    0.533490  -0.037182
     8  H   -0.037182   0.533491
 Mulliken atomic charges:
              1
     1  C   -0.054602
     2  C   -0.054602
     3  F   -0.397624
     4  H    0.226113
     5  H    0.226113
     6  F   -0.397624
     7  H    0.226113
     8  H    0.226113
 Sum of Mulliken charges=   0.00000
 Atomic charges with hydrogens summed into heavy atoms:
              1
     1  C    0.397624
     2  C    0.397624
     3  F   -0.397624
     4  H    0.000000
     5  H    0.000000
     6  F   -0.397624
     7  H    0.000000
     8  H    0.000000
 Sum of Mulliken charges=   0.00000
 Electronic spatial extent (au):  <R**2>=   324.0280
 Charge=     0.0000 electrons
 Dipole moment (field-independent basis, Debye):
    X=     0.0000    Y=     0.0000    Z=     0.0000  Tot=     0.0000
 Quadrupole moment (field-independent basis, Debye-Ang):
   XX=   -21.5511   YY=   -31.0634   ZZ=   -21.2244
   XY=     3.6784   XZ=     0.0000   YZ=     0.0000
 Traceless Quadrupole moment (field-independent basis, Debye-Ang):
   XX=     3.0619   YY=    -6.4504   ZZ=     3.3886
   XY=     3.6784   XZ=     0.0000   YZ=     0.0000
 Octapole moment (field-independent basis, Debye-Ang**2):
  XXX=     0.0000  YYY=     0.0000  ZZZ=     0.0000  XYY=     0.0000
  XXY=     0.0000  XXZ=     0.0000  XZZ=     0.0000  YZZ=     0.0000
  YYZ=     0.0001  XYZ=     0.0000
 Hexadecapole moment (field-independent basis, Debye-Ang**3):
 XXXX=   -57.4534 YYYY=  -251.4952 ZZZZ=   -28.7327 XXXY=     7.7057
 XXXZ=     0.0000 YYYX=    14.8861 YYYZ=     0.0000 ZZZX=     0.0000
 ZZZY=     0.0000 XXYY=   -47.7919 XXZZ=   -12.5138 YYZZ=   -41.5037
 XXYZ=     0.0000 YYXZ=     0.0000 ZZXY=     3.3182
 N-N= 1.235590693484D+02 E-N=-9.015850150716D+02  KE= 2.744674339498D+02
 Symmetry A    KE= 1.388013083038D+02
 Symmetry B    KE= 1.356661256460D+02
 No NMR shielding tensors so no spin-rotation constants.
 Leave Link  601 at Tue Oct 16 12:30:45 2007, MaxMem=    6291456 cpu:       0.1
 (Enter /opt/und/gaussian/03D01/linux86-64/g03/l9999.exe)
 Atom   5 needs variable   3=   1.0914456930 but is    1.0914451060
 Input z-matrix variables are not compatible with final structure.
 1\1\GINC-DCOPT145\FOpt\RMP2-FC\3-21G\C2H4F2\WSCHNEI1\16-Oct-2007\0\\#P
  MP2/3-21G opt\\C2H4F2 trans optimization\\0,1\C,0.0174860239,0.000028
 5672,0.0052551261\C,-0.0174860239,0.0000285672,1.5333448739\F,1.337599
 5234,0.0000174094,1.9886396966\H,-0.534965802,0.8900946977,1.895628439
 8\H,-0.5349819563,-0.8900315223,1.8956219746\F,-1.3375995234,0.0000174
 094,-0.4500396966\H,0.534965802,0.8900946977,-0.3570284398\H,0.5349819
 563,-0.8900315223,-0.3570219746\\Version=AM64L-G03RevD.01\State=1-A\HF
 =-275.4180668\MP2=-275.8313245\RMSD=3.764e-09\RMSF=1.130e-04\Thermal=0
 .\Dipole=0.,0.0000116,0.\PG=C02 [X(C2H4F2)]\\@


 THE ... SCIENTISTS WERE WRONG ... THE MOST PERSISTENT PRINCIPLES 
 OF THE UNIVERSE WERE ACCIDENT AND ERROR.

                          -- FRANK HERBERT IN DUNE
 Job cpu time:  0 days  0 hours  0 minutes  7.0 seconds.
 File lengths (MBytes):  RWF=     18 Int=      0 D2E=      0 Chk=     10 Scr=      1
 Normal termination of Gaussian 03 at Tue Oct 16 12:30:46 2007.
