----- GAMESS execution script 'rungms' -----
This job is running on host dftfe.crc.nd.edu
under operating system Linux at Thu Feb 26 00:15:39 EST 2015
Available scratch disk space (Kbyte units) at beginning of the job is
Filesystem     1K-blocks     Used Available Use% Mounted on
/dev/sda2      147771864 22812520 117452912  17% /
GAMESS temporary binary files will be written to /tmp
GAMESS supplementary output files will be written to /tmp
Copying input file gamess.inp to your run's scratch directory...

 Distributed Data Interface kickoff program.
 Initiating 1 compute processes on 1 nodes to run the following command:
 /opt/crc/gamess/2012R1/gamess/gamess.00.x gamess 

          ******************************************************
          *         GAMESS VERSION =  1 MAY 2012 (R1)          *
          *             FROM IOWA STATE UNIVERSITY             *
          * M.W.SCHMIDT, K.K.BALDRIDGE, J.A.BOATZ, S.T.ELBERT, *
          *   M.S.GORDON, J.H.JENSEN, S.KOSEKI, N.MATSUNAGA,   *
          *          K.A.NGUYEN, S.J.SU, T.L.WINDUS,           *
          *       TOGETHER WITH M.DUPUIS, J.A.MONTGOMERY       *
          *         J.COMPUT.CHEM.  14, 1347-1363(1993)        *
          **************** 64 BIT LINUX VERSION ****************

  SINCE 1993, STUDENTS AND POSTDOCS WORKING AT IOWA STATE UNIVERSITY
  AND ALSO IN THEIR VARIOUS JOBS AFTER LEAVING ISU HAVE MADE IMPORTANT
  CONTRIBUTIONS TO THE CODE:
     IVANA ADAMOVIC, CHRISTINE AIKENS, YURI ALEXEEV, POOJA ARORA,
     ANDREY ASADCHEV, ROB BELL, PRADIPTA BANDYOPADHYAY, JONATHAN BENTZ,
     BRETT BODE, GALINA CHABAN, WEI CHEN, CHEOL HO CHOI, PAUL DAY,
     ALBERT DEFUSCO, TIM DUDLEY, DMITRI FEDOROV, GRAHAM FLETCHER,
     MARK FREITAG, KURT GLAESEMANN, DAN KEMP, GRANT MERRILL,
     NORIYUKI MINEZAWA, JONATHAN MULLIN, TAKESHI NAGATA,
     SEAN NEDD, HEATHER NETZLOFF, BOSILJKA NJEGIC, RYAN OLSON, MIKE PAK,
     JIM SHOEMAKER, LYUDMILA SLIPCHENKO, SAROM SOK, JIE SONG,
     TETSUYA TAKETSUGU, SIMON WEBB, SOOHAENG YOO, FEDERICO ZAHARIEV

  ADDITIONAL CODE HAS BEEN PROVIDED BY COLLABORATORS IN OTHER GROUPS:
     IOWA STATE UNIVERSITY:
          JOE IVANIC, LAIMUTIS BYTAUTAS, KLAUS RUEDENBERG
     UNIVERSITY OF TOKYO: KIMIHIKO HIRAO, TAKAHITO NAKAJIMA,
          TAKAO TSUNEDA, MUNEAKI KAMIYA, SUSUMU YANAGISAWA,
          KIYOSHI YAGI, MAHITO CHIBA, SEIKEN TOKURA, NAOAKI KAWAKAMI
     UNIVERSITY OF AARHUS: FRANK JENSEN
     UNIVERSITY OF IOWA: VISVALDAS KAIRYS, HUI LI
     NATIONAL INST. OF STANDARDS AND TECHNOLOGY: WALT STEVENS, DAVID GARMER
     UNIVERSITY OF PISA: BENEDETTA MENNUCCI, JACOPO TOMASI
     UNIVERSITY OF MEMPHIS: HENRY KURTZ, PRAKASHAN KORAMBATH
     UNIVERSITY OF ALBERTA: TOBY ZENG, MARIUSZ KLOBUKOWSKI
     UNIVERSITY OF NEW ENGLAND: MARK SPACKMAN
     MIE UNIVERSITY: HIROAKI UMEDA
     MICHIGAN STATE UNIVERSITY:
          KAROL KOWALSKI, MARTA WLOCH, JEFFREY GOUR, JESSE LUTZ, PIOTR PIECUCH
     UNIVERSITY OF SILESIA: MONIKA MUSIAL, STANISLAW KUCHARSKI
     FACULTES UNIVERSITAIRES NOTRE-DAME DE LA PAIX:
          OLIVIER QUINET, BENOIT CHAMPAGNE
     UNIVERSITY OF CALIFORNIA - SANTA BARBARA: BERNARD KIRTMAN
     INSTITUTE FOR MOLECULAR SCIENCE:
          KAZUYA ISHIMURA, MICHIO KATOUDA, AND SHIGERU NAGASE
     UNIVERSITY OF NOTRE DAME: DAN CHIPMAN
     KYUSHU UNIVERSITY:
          HARUYUKI NAKANO,
          FENG LONG GU, JACEK KORCHOWIEC, MARCIN MAKOWSKI, AND YURIKO AOKI,
          HIROTOSHI MORI AND EISAKU MIYOSHI
     PENNSYLVANIA STATE UNIVERSITY:
          TZVETELIN IORDANOV, CHET SWALINA, JONATHAN SKONE,
          SHARON HAMMES-SCHIFFER
     WASEDA UNIVERSITY:
          MASATO KOBAYASHI, TOMOKO AKAMA, TSUGUKI TOUMA,
          TAKESHI YOSHIKAWA, YASUHIRO IKABATA, HIROMI NAKAI
     UNIVERSITY OF NEBRASKA:
          PEIFENG SU, DEJUN SI, NANDUN THELLAMUREGE, YALI WANG, HUI LI
     UNIVERSITY OF ZURICH:
          ROBERTO PEVERATI, KIM BALDRIDGE
     N. COPERNICUS UNIVERSITY AND JACKSON STATE UNIVERSITY:
          MARIA BARYSZ

 EXECUTION OF GAMESS BEGUN Thu Feb 26 00:15:39 2015

            ECHO OF THE FIRST FEW INPUT CARDS -
 INPUT CARD> $BASIS GBASIS=PC1 $END                                                         
 INPUT CARD> $CONTRL COORD=ZMT ISPHER=1 RUNTYP=ENERGY DFTTYP=PBE $END                       
 INPUT CARD>                                                                                
 INPUT CARD> $DATA                                                                          
 INPUT CARD>Title                                                                           
 INPUT CARD>Cnv 2                                                                           
 INPUT CARD>                                                                                
 INPUT CARD>S                                                                               
 INPUT CARD>O 1 1.40                                                                        
 INPUT CARD>O 1 1.40 2 130.0                                                                
 INPUT CARD> $END                                                                           
    1000000 WORDS OF MEMORY AVAILABLE

     BASIS OPTIONS
     -------------
     GBASIS=PC1          IGAUSS=       0      POLAR=NONE    
     NDFUNC=       0     NFFUNC=       0     DIFFSP=       F
     NPFUNC=       0      DIFFS=       F     BASNAM=        


     RUN TITLE
     ---------
 Title                                                                           

 THE POINT GROUP OF THE MOLECULE IS CNV     
 THE ORDER OF THE PRINCIPAL AXIS IS     2

 YOUR FULLY SUBSTITUTED Z-MATRIX IS
 S   
 O      1   1.4000000
 O      1   1.4000000  2  130.0000

 THE MOMENTS OF INERTIA ARE (AMU-ANGSTROM**2)
 IXX=     5.598   IYY=    51.501   IZZ=    57.099

 ATOM      ATOMIC                      COORDINATES (BOHR)
           CHARGE         X                   Y                   Z
 S          16.0     0.0000000000        0.0000000000       -0.5591980379
 O           8.0    -2.3977427293        0.0000000000        0.5588877590
 O           8.0     2.3977427293        0.0000000000        0.5588877590

          INTERNUCLEAR DISTANCES (ANGS.)
          ------------------------------

                1 S          2 O          3 O     

   1 S       0.0000000    1.4000000 *  1.4000000 *
   2 O       1.4000000 *  0.0000000    2.5376618 *
   3 O       1.4000000 *  2.5376618 *  0.0000000  

  * ... LESS THAN  3.000


     ATOMIC BASIS SET
     ----------------
 THE CONTRACTED PRIMITIVE FUNCTIONS HAVE BEEN UNNORMALIZED
 THE CONTRACTED BASIS FUNCTIONS ARE NOW NORMALIZED TO UNITY

  SHELL TYPE  PRIMITIVE        EXPONENT          CONTRACTION COEFFICIENT(S)

 S         

      1   S       1         55510.0000000    0.000587229760
      1   S       2          8326.7000000    0.004532413947
      1   S       3          1895.6000000    0.023265261648
      1   S       4           536.7700000    0.089696133027
      1   S       5           174.6700000    0.254098332277
      1   S       6            62.5780000    0.438665087637
      1   S       7            23.5730000    0.314547135094
      1   S       8             5.8908000    0.032727897102

      2   S       9          8326.7000000   -0.000019755715
      2   S      10          1895.6000000   -0.000043822381
      2   S      11           536.7700000   -0.001730264906
      2   S      12           174.6700000   -0.009381263460
      2   S      13            62.5780000   -0.064050766303
      2   S      14            23.5730000   -0.082478179196
      2   S      15             5.8908000    0.478342956889
      2   S      16             2.1852000    0.626896670208

      3   S      17          1895.6000000    0.000016227260
      3   S      18           536.7700000    0.000191135619
      3   S      19           174.6700000    0.001952069674
      3   S      20            62.5780000    0.010578701087
      3   S      21            23.5730000    0.022164934551
      3   S      22             5.8908000   -0.184968323118
      3   S      23             2.1852000   -0.480920750976
      3   S      24             0.4528200    1.243822243872

      4   S      25             0.1620200    1.000000000000

      5   P      26           395.4500000    0.004642761329
      5   P      27            92.8340000    0.036023396489
      5   P      28            29.2660000    0.149058869978
      5   P      29            10.5950000    0.360033266263
      5   P      30             4.0272000    0.455756476221
      5   P      31             1.5484000    0.206167664178

      6   P      32            92.8340000    0.000169901442
      6   P      33            29.2660000   -0.002541839934
      6   P      34            10.5950000   -0.007867614595
      6   P      35             4.0272000   -0.037231009184
      6   P      36             1.5484000    0.161417246830
      6   P      37             0.4613400    0.902230419976

      7   P      38             0.1313100    1.000000000000

      8   D      39             0.5500000    1.000000000000

 O         

     15   S      40          2306.7000000    0.005424388755
     15   S      41           347.1500000    0.040474749465
     15   S      42            78.8900000    0.180219634554
     15   S      43            21.8760000    0.462370311787
     15   S      44             6.6646000    0.454888396263

     16   S      45           347.1500000   -0.000655003786
     16   S      46            78.8900000   -0.005362052952
     16   S      47            21.8760000   -0.074902158894
     16   S      48             6.6646000   -0.181442579655
     16   S      49             1.0669000    1.102006874042

     17   S      50             0.3070000    1.000000000000

     18   P      51            17.0220000    0.068979967443
     18   P      52             3.6838000    0.351985516325
     18   P      53             0.9923400    0.724036547822

     19   P      54             0.2448700    1.000000000000

     20   D      55             1.0000000    1.000000000000

 TOTAL NUMBER OF BASIS SET SHELLS             =   20
 NUMBER OF CARTESIAN GAUSSIAN BASIS FUNCTIONS =   49
 NOTE: THIS RUN WILL RESTRICT THE MO VARIATION SPACE TO SPHERICAL HARMONICS.
 THE NUMBER OF ORBITALS KEPT IN THE VARIATIONAL SPACE WILL BE PRINTED LATER.
 NUMBER OF ELECTRONS                          =   32
 CHARGE OF MOLECULE                           =    0
 SPIN MULTIPLICITY                            =    1
 NUMBER OF OCCUPIED ORBITALS (ALPHA)          =   16
 NUMBER OF OCCUPIED ORBITALS (BETA )          =   16
 TOTAL NUMBER OF ATOMS                        =    3
 THE NUCLEAR REPULSION ENERGY IS      110.1097253931

     LEBEDEV GRID-BASED DFT OPTIONS
     ------------------------------
     DFTTYP=PBE     
     NRAD  =      96     NLEB  =     302
     NRAD0 =      24     NLEB0 =     110
     SWOFF =    5.00E-03 (PURE SCF -> DFT)
     SWITCH=    3.00E-04 (COARSE -> TIGHT GRID)
     THRESH=    0.00E+00 GTHRE=    1.00E+00

 GRIMME'S EMPIRICAL DISPERSION CORRECTION= F

     $CONTRL OPTIONS
     ---------------
 SCFTYP=RHF          RUNTYP=ENERGY       EXETYP=RUN     
 MPLEVL=       0     CITYP =NONE         CCTYP =NONE         VBTYP =NONE    
 DFTTYP=PBE          TDDFT =NONE    
 MULT  =       1     ICHARG=       0     NZVAR =       0     COORD =ZMT     
 PP    =NONE         RELWFN=NONE         LOCAL =NONE         NUMGRD=       F
 ISPHER=       1     NOSYM =       0     MAXIT =      30     UNITS =ANGS    
 PLTORB=       F     MOLPLT=       F     AIMPAC=       F     FRIEND=        
 NPRINT=       7     IREST =       0     GEOM  =INPUT   
 NORMF =       0     NORMP =       0     ITOL  =      20     ICUT  =       9
 INTTYP=BEST         GRDTYP=BEST         QMTTOL= 1.0E-06

     $SYSTEM OPTIONS
     ---------------
  REPLICATED MEMORY=     1000000 WORDS (ON EVERY NODE).
 DISTRIBUTED MEMDDI=           0 MILLION WORDS IN AGGREGATE,
 MEMDDI DISTRIBUTED OVER   1 PROCESSORS IS           0 WORDS/PROCESSOR.
 TOTAL MEMORY REQUESTED ON EACH PROCESSOR=     1000000 WORDS.
 TIMLIM=      525600.00 MINUTES, OR     365.0 DAYS.
 PARALL= F  BALTYP=  DLB     KDIAG=    0  COREFL= F
 MXSEQ2=     300 MXSEQ3=     150

          ----------------
          PROPERTIES INPUT
          ----------------

     MOMENTS            FIELD           POTENTIAL          DENSITY
 IEMOM =       1   IEFLD =       0   IEPOT =       0   IEDEN =       0
 WHERE =COMASS     WHERE =NUCLEI     WHERE =NUCLEI     WHERE =NUCLEI  
 OUTPUT=BOTH       OUTPUT=BOTH       OUTPUT=BOTH       OUTPUT=BOTH    
 IEMINT=       0   IEFINT=       0                     IEDINT=       0
                                                       MORB  =       0
          EXTRAPOLATION IN EFFECT
          DIIS IN EFFECT
 ORBITAL PRINTING OPTION: NPREO=     1    49     2     1

     -------------------------------
     INTEGRAL TRANSFORMATION OPTIONS
     -------------------------------
     NWORD  =            0
     CUTOFF = 1.0E-09     MPTRAN =       0
     DIRTRF =       F     AOINTS =DUP     

          ----------------------
          INTEGRAL INPUT OPTIONS
          ----------------------
 NOPK  =       1 NORDER=       0 SCHWRZ=       F

   --- ENCODED Z MATRIX ---
 COORD  TYPE   I   J   K   L   M   N
    1      1    3   1
    2      1    2   1
    3      2    2   1   3

 THE DETERMINANT OF THE G MATRIX IS 10**(    -4)

 THE DETERMINANT OF THE G MATRIX IS 10**(    -4)
 * * * WARNING * * *
 YOUR B MATRIX HAS A SMALL DETERMINANT.
 THIS SUGGESTS YOU MAY HAVE BADLY CHOSEN COORDINATES.

     ------------------------------------------
     THE POINT GROUP IS CNV, NAXIS= 2, ORDER= 4
     ------------------------------------------

 -- VARIATIONAL SPACE WILL BE RESTRICTED TO PURE SPHERICAL HARMONICS ONLY --
 AFTER EXCLUDING CONTAMINANT COMBINATIONS FROM THE CARTESIAN GAUSSIAN BASIS
 SET, THE NUMBER OF SPHERICAL HARMONICS KEPT IN THE VARIATION SPACE IS   46

     DIMENSIONS OF THE SYMMETRY SUBSPACES ARE
 A1  =   19     A2  =    5     B1  =   14     B2  =    8

 ..... DONE SETTING UP THE RUN .....
 STEP CPU TIME =     0.01 TOTAL CPU TIME =        0.0 (    0.0 MIN)
 TOTAL WALL CLOCK TIME=        0.0 SECONDS, CPU UTILIZATION IS  50.00%

          ********************
          1 ELECTRON INTEGRALS
          ********************
 ...... END OF ONE-ELECTRON INTEGRALS ......
 STEP CPU TIME =     0.00 TOTAL CPU TIME =        0.0 (    0.0 MIN)
 TOTAL WALL CLOCK TIME=        0.0 SECONDS, CPU UTILIZATION IS  33.33%

          -------------
          GUESS OPTIONS
          -------------
          GUESS =HUCKEL            NORB  =       0          NORDER=       0
          MIX   =       F          PRTMO =       F          PUNMO =       F
          TOLZ  = 1.0E-08          TOLE  = 1.0E-05
          SYMDEN=       F          PURIFY=       F

 INITIAL GUESS ORBITALS GENERATED BY HUCKEL   ROUTINE.
 HUCKEL GUESS REQUIRES     21583 WORDS.

 STATISTICS FOR GENERATION OF SYMMETRY ORBITAL -Q- MATRIX
 NUMBER OF CARTESIAN ATOMIC ORBITALS=         49
 NUMBER OF SPHERICAL CONTAMINANTS DROPPED=     3
 NUMBER OF LINEARLY DEPENDENT MOS DROPPED=     0
 TOTAL NUMBER OF MOS IN VARIATION SPACE=      46

 SYMMETRIES FOR INITIAL GUESS ORBITALS FOLLOW.   BOTH SET(S).
    16 ORBITALS ARE OCCUPIED (    7 CORE ORBITALS).
     8=A1       9=B1      10=?A1     11=B2      12=A1      13=B1      14=A2  
    15=B1      16=A1      17=B2      18=A1      19=B1      20=A1      21=A1  
    22=A1      23=A1      24=A1      25=A1      26=A1  
 ...... END OF INITIAL ORBITAL SELECTION ......
 STEP CPU TIME =     0.01 TOTAL CPU TIME =        0.0 (    0.0 MIN)
 TOTAL WALL CLOCK TIME=        0.0 SECONDS, CPU UTILIZATION IS  66.67%

                    ----------------------
                    AO INTEGRAL TECHNOLOGY
                    ----------------------
     S,P,L SHELL ROTATED AXIS INTEGRALS, REPROGRAMMED BY
        KAZUYA ISHIMURA (IMS) AND JOSE SIERRA (SYNSTAR).
     S,P,D,L SHELL ROTATED AXIS INTEGRALS PROGRAMMED BY
        KAZUYA ISHIMURA (INSTITUTE FOR MOLECULAR SCIENCE).
     S,P,D,F,G SHELL TO TOTAL QUARTET ANGULAR MOMENTUM SUM 5,
        ERIC PROGRAM BY GRAHAM FLETCHER (ELORET AND NASA ADVANCED
        SUPERCOMPUTING DIVISION, AMES RESEARCH CENTER).
     S,P,D,F,G,L SHELL GENERAL RYS QUADRATURE PROGRAMMED BY
        MICHEL DUPUIS (PACIFIC NORTHWEST NATIONAL LABORATORY).

          --------------------
          2 ELECTRON INTEGRALS
          --------------------

 THE -PK- OPTION IS OFF, THE INTEGRALS ARE NOT IN SUPERMATRIX FORM.
 STORING   15000 INTEGRALS/RECORD ON DISK, USING 12 BYTES/INTEGRAL.
 TWO ELECTRON INTEGRAL EVALUATION REQUIRES   90606 WORDS OF MEMORY.
 II,JST,KST,LST =  1  1  1  1 NREC =         1 INTLOC =    1
 II,JST,KST,LST =  2  1  1  1 NREC =         1 INTLOC =    2
 II,JST,KST,LST =  3  1  1  1 NREC =         1 INTLOC =    7
 II,JST,KST,LST =  4  1  1  1 NREC =         1 INTLOC =   22
 II,JST,KST,LST =  5  1  1  1 NREC =         1 INTLOC =   56
 II,JST,KST,LST =  6  1  1  1 NREC =         1 INTLOC =  125
 II,JST,KST,LST =  7  1  1  1 NREC =         1 INTLOC =  329
 II,JST,KST,LST =  8  1  1  1 NREC =         1 INTLOC =  776
 II,JST,KST,LST =  9  1  1  1 NREC =         1 INTLOC = 2864
 II,JST,KST,LST = 10  1  1  1 NREC =         1 INTLOC = 2864
 II,JST,KST,LST = 11  1  1  1 NREC =         1 INTLOC = 2864
 II,JST,KST,LST = 12  1  1  1 NREC =         1 INTLOC = 2864
 II,JST,KST,LST = 13  1  1  1 NREC =         1 INTLOC = 2864
 II,JST,KST,LST = 14  1  1  1 NREC =         1 INTLOC = 2864
 II,JST,KST,LST = 15  1  1  1 NREC =         1 INTLOC = 2864
 II,JST,KST,LST = 16  1  1  1 NREC =         1 INTLOC = 5120
 II,JST,KST,LST = 17  1  1  1 NREC =         1 INTLOC = 8300
 II,JST,KST,LST = 18  1  1  1 NREC =         1 INTLOC =12735
 II,JST,KST,LST = 19  1  1  1 NREC =         3 INTLOC =  544
 II,JST,KST,LST = 20  1  1  1 NREC =         5 INTLOC = 1709
 TOTAL NUMBER OF NONZERO TWO-ELECTRON INTEGRALS =              177630
         12 INTEGRAL RECORDS WERE STORED ON DISK FILE  8.
  ...... END OF TWO-ELECTRON INTEGRALS .....
 STEP CPU TIME =     0.16 TOTAL CPU TIME =        0.2 (    0.0 MIN)
 TOTAL WALL CLOCK TIME=        0.2 SECONDS, CPU UTILIZATION IS  94.74%

          --------------------------
               R-PBE SCF CALCULATION
          --------------------------

     NUCLEAR ENERGY =       110.1097253931
     MAXIT =   30     NPUNCH=    2
     EXTRAP=T  DAMP=F  SHIFT=F  RSTRCT=F  DIIS=T  DEM=F  SOSCF=F
         DENSITY MATRIX CONVERGENCE THRESHOLD=  1.00E-05
     COARSE -> FINE DFT GRID SWITCH THRESHOLD=  3.00E-04 (SWITCH IN $DFT)
                   HF -> DFT SWITCH THRESHOLD=  5.00E-03 (SWOFF IN $DFT)
     MEMORY REQUIRED FOR RHF ITERS=    183108 WORDS.

 DFT CODE IS SWITCHING FROM THE FINE GRID NRAD= 96,  NLEB=  302
                      TO THE COARSE GRID NRAD0= 24, NLEB0=  110

     EXCHANGE FUNCTIONAL   =PBE       
     CORRELATION FUNCTIONAL=PBE       
     DFT THRESHOLD         =.460E-07
     GRID CHANGE THRESHOLD =.300E-03
 FOR AN EULER-MACLAURIN QUADRATURE USING  96 RADIAL POINTS:
 SMALLEST GAUSSIAN PRIMITIVE EXPONENT=        0.1313100000 OF TYPE -P-
 ON ATOM NUMBER   1 HAS RADIAL NORMALIZATION=  1.000000
  LARGEST GAUSSIAN PRIMITIVE EXPONENT=    55510.0000000000 OF TYPE -S-
 ON ATOM NUMBER   1 HAS RADIAL NORMALIZATION=  0.999999
 DFT IS SWITCHED OFF, PERFORMING PURE SCF UNTIL SWOFF THRESHOLD IS REACHED.

 ITER EX DEM     TOTAL ENERGY        E CHANGE  DENSITY CHANGE    DIIS ERROR
   1  0  0     -546.0490135483  -546.0490135483   0.329625570   1.446825011
          * * *   INITIATING DIIS PROCEDURE   * * *
   2  1  0     -546.9259227748    -0.8769092266   0.438107670   0.207815091
   3  2  0     -547.0267569875    -0.1008342127   0.102980916   0.204146629
   4  3  0     -547.1124606299    -0.0857036423   0.047184481   0.018635768
   5  4  0     -547.1141250482    -0.0016644183   0.029777075   0.006472593
   6  5  0     -547.1144356688    -0.0003106206   0.010346115   0.002104080
   7  6  0     -547.1144848307    -0.0000491619   0.001391183   0.000446160
 CONVERGED TO SWOFF, SO DFT CALCULATION IS NOW SWITCHED ON.
          * * *   INITIATING DIIS PROCEDURE   * * *
   8  7  0     -548.2292034249    -1.1147185942   0.195858666   0.099933454
   9  8  0     -548.2451662382    -0.0159628133   0.157863597   0.067712562
  10  9  0     -548.2413727235     0.0037935147   0.064124242   0.088283254
  11 10  0     -548.2599815090    -0.0186087854   0.014622934   0.014367956
  12 11  0     -548.2603666213    -0.0003851123   0.000672092   0.000945582
  13 12  0     -548.2603679006    -0.0000012793   0.000386234   0.000107106
  14 13  0     -548.2603679480    -0.0000000474   0.000038277   0.000013884
 DFT CODE IS SWITCHING BACK TO THE FINE GRID
          * * *   INITIATING DIIS PROCEDURE   * * *
  15 14  0     -548.2392236502     0.0211442977   0.006419898   0.006121031
  16 15  0     -548.2393506256    -0.0001269754   0.002650587   0.002524519
  17 16  0     -548.2393425531     0.0000080726   0.002341748   0.003334934
  18 17  0     -548.2393614943    -0.0000189412   0.000617795   0.000622837
  19 18  0     -548.2393624393    -0.0000009450   0.000141208   0.000069370
  20 19  0     -548.2393624541    -0.0000000147   0.000015934   0.000004306
  21 20  0     -548.2393624541    -0.0000000001   0.000001484   0.000000425
  22 21  0     -548.2393624541     0.0000000000   0.000000291   0.000000059

          -----------------
          DENSITY CONVERGED
          -----------------
     TIME TO FORM FOCK OPERATORS=       4.3 SECONDS (       0.2 SEC/ITER)
     TIME TO SOLVE SCF EQUATIONS=       0.1 SECONDS (       0.0 SEC/ITER)

 FINAL R-PBE ENERGY IS     -548.2393624541 AFTER  22 ITERATIONS
 DFT EXCHANGE + CORRELATION ENERGY =       -42.6281633969
 TOTAL ELECTRON NUMBER             =        32.0000072539

          ------------
          EIGENVECTORS
          ------------

                      1          2          3          4          5
                  -88.2016   -18.7983   -18.7983    -7.8283    -5.8496
                     A1         A1         B1         A1         B1  
    1  S  1  S    1.002986  -0.000053   0.000000  -0.273992   0.000000
    2  S  1  S   -0.010260  -0.000082   0.000000   1.039431   0.000000
    3  S  1  S    0.001916  -0.000551   0.000000   0.041683   0.000000
    4  S  1  S   -0.000530   0.011288   0.000000  -0.009698   0.000000
    5  S  1  X    0.000000   0.000000  -0.000156   0.000000   0.996260
    6  S  1  Y    0.000000   0.000000   0.000000   0.000000   0.000000
    7  S  1  Z    0.000061  -0.000028   0.000000   0.013567   0.000000
    8  S  1  X    0.000000   0.000000  -0.001171   0.000000   0.010227
    9  S  1  Y    0.000000   0.000000   0.000000   0.000000   0.000000
   10  S  1  Z    0.000146   0.001131   0.000000   0.002088   0.000000
   11  S  1  X    0.000000   0.000000  -0.006233   0.000000  -0.000273
   12  S  1  Y    0.000000   0.000000   0.000000   0.000000   0.000000
   13  S  1  Z    0.000029   0.004021   0.000000  -0.000311   0.000000
   14  S  1 XX    0.000201   0.000222   0.000000   0.001875   0.000000
   15  S  1 YY   -0.000127  -0.000505   0.000000  -0.001035   0.000000
   16  S  1 ZZ   -0.000074   0.000283   0.000000  -0.000840   0.000000
   17  S  1 XY    0.000000   0.000000   0.000000   0.000000   0.000000
   18  S  1 XZ    0.000000   0.000000   0.000197   0.000000   0.001543
   19  S  1 YZ    0.000000   0.000000   0.000000   0.000000   0.000000
   20  O  2  S    0.000017   0.703288   0.703249  -0.000171   0.000658
   21  O  2  S    0.000049   0.026363   0.026092  -0.000018  -0.000634
   22  O  2  S   -0.000256  -0.014228  -0.013164  -0.001147   0.000008
   23  O  2  X   -0.000081   0.001105   0.001060  -0.000417  -0.001071
   24  O  2  Y    0.000000   0.000000   0.000000   0.000000   0.000000
   25  O  2  Z    0.000039  -0.000261  -0.000562   0.000195   0.000595
   26  O  2  X   -0.000229  -0.004222  -0.002225  -0.001722   0.000106
   27  O  2  Y    0.000000   0.000000   0.000000   0.000000   0.000000
   28  O  2  Z    0.000128   0.000627   0.002048   0.001095   0.000137
   29  O  2 XX   -0.000108  -0.000466  -0.000023  -0.000144  -0.000490
   30  O  2 YY    0.000085   0.000214   0.000137   0.000179   0.000466
   31  O  2 ZZ    0.000023   0.000252  -0.000114  -0.000034   0.000023
   32  O  2 XY    0.000000   0.000000   0.000000   0.000000   0.000000
   33  O  2 XZ    0.000121   0.000136   0.000243   0.000308   0.000751
   34  O  2 YZ    0.000000   0.000000   0.000000   0.000000   0.000000
   35  O  3  S    0.000017   0.703288  -0.703249  -0.000171  -0.000658
   36  O  3  S    0.000049   0.026363  -0.026092  -0.000018   0.000634
   37  O  3  S   -0.000256  -0.014228   0.013164  -0.001147  -0.000008
   38  O  3  X    0.000081  -0.001105   0.001060   0.000417  -0.001071
   39  O  3  Y    0.000000   0.000000   0.000000   0.000000   0.000000
   40  O  3  Z    0.000039  -0.000261   0.000562   0.000195  -0.000595
   41  O  3  X    0.000229   0.004222  -0.002225   0.001722   0.000106
   42  O  3  Y    0.000000   0.000000   0.000000   0.000000   0.000000
   43  O  3  Z    0.000128   0.000627  -0.002048   0.001095  -0.000137
   44  O  3 XX   -0.000108  -0.000466   0.000023  -0.000144   0.000490
   45  O  3 YY    0.000085   0.000214  -0.000137   0.000179  -0.000466
   46  O  3 ZZ    0.000023   0.000252   0.000114  -0.000034  -0.000023
   47  O  3 XY    0.000000   0.000000   0.000000   0.000000   0.000000
   48  O  3 XZ   -0.000121  -0.000136   0.000243  -0.000308   0.000751
   49  O  3 YZ    0.000000   0.000000   0.000000   0.000000   0.000000

                      6          7          8          9         10
                   -5.8479    -5.8417    -1.0837    -0.9986    -0.5636
                     B2         A1         A1         B1         A1  
    1  S  1  S    0.000000   0.003885   0.053639   0.000000   0.061519
    2  S  1  S    0.000000  -0.014716  -0.154980   0.000000  -0.165091
    3  S  1  S    0.000000   0.000283   0.309926   0.000000   0.401287
    4  S  1  S    0.000000  -0.001063   0.117548   0.000000   0.328707
    5  S  1  X    0.000000   0.000000   0.000000   0.150310   0.000000
    6  S  1  Y    0.996774   0.000000   0.000000   0.000000   0.000000
    7  S  1  Z    0.000000   0.996712  -0.061506   0.000000   0.036043
    8  S  1  X    0.000000   0.000000   0.000000  -0.284743   0.000000
    9  S  1  Y    0.009279   0.000000   0.000000   0.000000   0.000000
   10  S  1  Z    0.000000   0.008922   0.114392   0.000000  -0.069717
   11  S  1  X    0.000000   0.000000   0.000000  -0.015346   0.000000
   12  S  1  Y   -0.000273   0.000000   0.000000   0.000000   0.000000
   13  S  1  Z    0.000000  -0.000359  -0.005739   0.000000  -0.067539
   14  S  1 XX    0.000000  -0.000729   0.056864   0.000000  -0.016684
   15  S  1 YY    0.000000  -0.000430  -0.037986   0.000000   0.021696
   16  S  1 ZZ    0.000000   0.001159  -0.018878   0.000000  -0.005013
   17  S  1 XY    0.000000   0.000000   0.000000   0.000000   0.000000
   18  S  1 XZ    0.000000   0.000000   0.000000  -0.076529   0.000000
   19  S  1 YZ    0.000907   0.000000   0.000000   0.000000   0.000000
   20  O  2  S    0.000000  -0.000321  -0.122224  -0.143623   0.104209
   21  O  2  S    0.000000   0.000226   0.239748   0.287112  -0.214069
   22  O  2  S    0.000000   0.000749   0.259862   0.314556  -0.356271
   23  O  2  X    0.000000   0.000719   0.120359   0.110093   0.173281
   24  O  2  Y    0.000143   0.000000   0.000000   0.000000   0.000000
   25  O  2  Z    0.000000  -0.000207  -0.047701  -0.053737  -0.109432
   26  O  2  X    0.000000   0.000277   0.043173   0.028356   0.087324
   27  O  2  Y   -0.000076   0.000000   0.000000   0.000000   0.000000
   28  O  2  Z    0.000000  -0.000264  -0.011115  -0.018286  -0.048119
   29  O  2 XX    0.000000   0.000477   0.013715   0.005450   0.007259
   30  O  2 YY    0.000000  -0.000241  -0.006374  -0.003945  -0.006954
   31  O  2 ZZ    0.000000  -0.000236  -0.007341  -0.001504  -0.000305
   32  O  2 XY    0.000175   0.000000   0.000000   0.000000   0.000000
   33  O  2 XZ    0.000000  -0.000287  -0.007853  -0.008779  -0.009864
   34  O  2 YZ   -0.000119   0.000000   0.000000   0.000000   0.000000
   35  O  3  S    0.000000  -0.000321  -0.122224   0.143623   0.104209
   36  O  3  S    0.000000   0.000226   0.239748  -0.287112  -0.214069
   37  O  3  S    0.000000   0.000749   0.259862  -0.314556  -0.356271
   38  O  3  X    0.000000  -0.000719  -0.120359   0.110093  -0.173281
   39  O  3  Y    0.000143   0.000000   0.000000   0.000000   0.000000
   40  O  3  Z    0.000000  -0.000207  -0.047701   0.053737  -0.109432
   41  O  3  X    0.000000  -0.000277  -0.043173   0.028356  -0.087324
   42  O  3  Y   -0.000076   0.000000   0.000000   0.000000   0.000000
   43  O  3  Z    0.000000  -0.000264  -0.011115   0.018286  -0.048119
   44  O  3 XX    0.000000   0.000477   0.013715  -0.005450   0.007259
   45  O  3 YY    0.000000  -0.000241  -0.006374   0.003945  -0.006954
   46  O  3 ZZ    0.000000  -0.000236  -0.007341   0.001504  -0.000305
   47  O  3 XY   -0.000175   0.000000   0.000000   0.000000   0.000000
   48  O  3 XZ    0.000000   0.000287   0.007853  -0.008779   0.009864
   49  O  3 YZ   -0.000119   0.000000   0.000000   0.000000   0.000000

                     11         12         13         14         15
                   -0.4626    -0.4511    -0.4438    -0.3502    -0.3298
                     B2         A1         B1         A2         B1  
    1  S  1  S    0.000000  -0.006322   0.000000   0.000000   0.000000
    2  S  1  S    0.000000   0.033260   0.000000   0.000000   0.000000
    3  S  1  S    0.000000  -0.020162   0.000000   0.000000   0.000000
    4  S  1  S    0.000000  -0.179126   0.000000   0.000000   0.000000
    5  S  1  X    0.000000   0.000000  -0.162047   0.000000  -0.010799
    6  S  1  Y   -0.202477   0.000000   0.000000   0.000000   0.000000
    7  S  1  Z    0.000000  -0.190056   0.000000   0.000000   0.000000
    8  S  1  X    0.000000   0.000000   0.381540   0.000000   0.016312
    9  S  1  Y    0.467751   0.000000   0.000000   0.000000   0.000000
   10  S  1  Z    0.000000   0.434932   0.000000   0.000000   0.000000
   11  S  1  X    0.000000   0.000000   0.010859   0.000000   0.096979
   12  S  1  Y    0.220613   0.000000   0.000000   0.000000   0.000000
   13  S  1  Z    0.000000   0.175088   0.000000   0.000000   0.000000
   14  S  1 XX    0.000000  -0.065704   0.000000   0.000000   0.000000
   15  S  1 YY    0.000000  -0.010738   0.000000   0.000000   0.000000
   16  S  1 ZZ    0.000000   0.076442   0.000000   0.000000   0.000000
   17  S  1 XY    0.000000   0.000000   0.000000  -0.145458   0.000000
   18  S  1 XZ    0.000000   0.000000   0.034733   0.000000  -0.136387
   19  S  1 YZ    0.054440   0.000000   0.000000   0.000000   0.000000
   20  O  2  S    0.000000   0.024731  -0.068945   0.000000   0.001123
   21  O  2  S    0.000000  -0.051125   0.139526   0.000000  -0.003941
   22  O  2  S    0.000000  -0.082402   0.261730   0.000000   0.012487
   23  O  2  X    0.000000   0.243642  -0.312383   0.000000   0.289355
   24  O  2  Y    0.316647   0.000000   0.000000   0.460396   0.000000
   25  O  2  Z    0.000000   0.221696   0.223582   0.000000   0.366020
   26  O  2  X    0.000000   0.153838  -0.162787   0.000000   0.185487
   27  O  2  Y    0.181608   0.000000   0.000000   0.318221   0.000000
   28  O  2  Z    0.000000   0.128433   0.132675   0.000000   0.253524
   29  O  2 XX    0.000000   0.021252  -0.007200   0.000000   0.014937
   30  O  2 YY    0.000000  -0.005583   0.008949   0.000000   0.000482
   31  O  2 ZZ    0.000000  -0.015669  -0.001749   0.000000  -0.015419
   32  O  2 XY    0.023631   0.000000   0.000000   0.020142   0.000000
   33  O  2 XZ    0.000000   0.008712   0.015374   0.000000   0.015621
   34  O  2 YZ   -0.009876   0.000000   0.000000  -0.009276   0.000000
   35  O  3  S    0.000000   0.024731   0.068945   0.000000  -0.001123
   36  O  3  S    0.000000  -0.051125  -0.139526   0.000000   0.003941
   37  O  3  S    0.000000  -0.082402  -0.261730   0.000000  -0.012487
   38  O  3  X    0.000000  -0.243642  -0.312383   0.000000   0.289355
   39  O  3  Y    0.316647   0.000000   0.000000  -0.460396   0.000000
   40  O  3  Z    0.000000   0.221696  -0.223582   0.000000  -0.366020
   41  O  3  X    0.000000  -0.153838  -0.162787   0.000000   0.185487
   42  O  3  Y    0.181608   0.000000   0.000000  -0.318221   0.000000
   43  O  3  Z    0.000000   0.128433  -0.132675   0.000000  -0.253524
   44  O  3 XX    0.000000   0.021252   0.007200   0.000000  -0.014937
   45  O  3 YY    0.000000  -0.005583  -0.008949   0.000000  -0.000482
   46  O  3 ZZ    0.000000  -0.015669   0.001749   0.000000   0.015419
   47  O  3 XY   -0.023631   0.000000   0.000000   0.020142   0.000000
   48  O  3 XZ    0.000000  -0.008712   0.015374   0.000000   0.015621
   49  O  3 YZ   -0.009876   0.000000   0.000000   0.009276   0.000000

                     16         17         18         19         20
                   -0.2656    -0.1382     0.0114     0.1116     0.3463
                     A1         B2         A1         B1         B2  
    1  S  1  S    0.022783   0.000000   0.019134   0.000000   0.000000
    2  S  1  S   -0.120023   0.000000  -0.130125   0.000000   0.000000
    3  S  1  S    0.078050   0.000000   0.037564   0.000000   0.000000
    4  S  1  S    0.680106   0.000000   1.018215   0.000000   0.000000
    5  S  1  X    0.000000   0.000000   0.000000  -0.123570   0.000000
    6  S  1  Y    0.000000  -0.212851   0.000000   0.000000   0.283343
    7  S  1  Z    0.122057   0.000000  -0.156221   0.000000   0.000000
    8  S  1  X    0.000000   0.000000   0.000000   0.320616   0.000000
    9  S  1  Y    0.000000   0.545487   0.000000   0.000000  -1.093740
   10  S  1  Z   -0.290128   0.000000   0.423556   0.000000   0.000000
   11  S  1  X    0.000000   0.000000   0.000000   1.479667   0.000000
   12  S  1  Y    0.000000   0.541662   0.000000   0.000000   1.242873
   13  S  1  Z   -0.119526   0.000000   0.819508   0.000000   0.000000
   14  S  1 XX   -0.173125   0.000000  -0.170805   0.000000   0.000000
   15  S  1 YY    0.080164   0.000000   0.195994   0.000000   0.000000
   16  S  1 ZZ    0.092961   0.000000  -0.025189   0.000000   0.000000
   17  S  1 XY    0.000000   0.000000   0.000000   0.000000   0.000000
   18  S  1 XZ    0.000000   0.000000   0.000000  -0.205463   0.000000
   19  S  1 YZ    0.000000  -0.063397   0.000000   0.000000  -0.203518
   20  O  2  S    0.009438   0.000000   0.051867  -0.063331   0.000000
   21  O  2  S   -0.021479   0.000000  -0.099983   0.093460   0.000000
   22  O  2  S   -0.084247   0.000000  -0.487825   0.789355   0.000000
   23  O  2  X   -0.145612   0.000000  -0.332515   0.046145   0.000000
   24  O  2  Y    0.000000  -0.385027   0.000000   0.000000  -0.025075
   25  O  2  Z    0.379679   0.000000  -0.124704  -0.239479   0.000000
   26  O  2  X   -0.106895   0.000000  -0.394572   0.151680   0.000000
   27  O  2  Y    0.000000  -0.350867   0.000000   0.000000  -0.097826
   28  O  2  Z    0.284382   0.000000  -0.128243  -0.297954   0.000000
   29  O  2 XX   -0.002505   0.000000  -0.002644   0.008272   0.000000
   30  O  2 YY    0.003885   0.000000   0.007019  -0.001145   0.000000
   31  O  2 ZZ   -0.001380   0.000000  -0.004374  -0.007127   0.000000
   32  O  2 XY    0.000000  -0.002891   0.000000   0.000000  -0.034344
   33  O  2 XZ    0.009776   0.000000   0.005248  -0.002544   0.000000
   34  O  2 YZ    0.000000  -0.000803   0.000000   0.000000   0.008715
   35  O  3  S    0.009438   0.000000   0.051867   0.063331   0.000000
   36  O  3  S   -0.021479   0.000000  -0.099983  -0.093460   0.000000
   37  O  3  S   -0.084247   0.000000  -0.487825  -0.789355   0.000000
   38  O  3  X    0.145612   0.000000   0.332515   0.046145   0.000000
   39  O  3  Y    0.000000  -0.385027   0.000000   0.000000  -0.025075
   40  O  3  Z    0.379679   0.000000  -0.124704   0.239479   0.000000
   41  O  3  X    0.106895   0.000000   0.394572   0.151680   0.000000
   42  O  3  Y    0.000000  -0.350867   0.000000   0.000000  -0.097826
   43  O  3  Z    0.284382   0.000000  -0.128243   0.297954   0.000000
   44  O  3 XX   -0.002505   0.000000  -0.002644  -0.008272   0.000000
   45  O  3 YY    0.003885   0.000000   0.007019   0.001145   0.000000
   46  O  3 ZZ   -0.001380   0.000000  -0.004374   0.007127   0.000000
   47  O  3 XY    0.000000   0.002891   0.000000   0.000000   0.034344
   48  O  3 XZ   -0.009776   0.000000  -0.005248  -0.002544   0.000000
   49  O  3 YZ    0.000000  -0.000803   0.000000   0.000000   0.008715

                     21         22         23         24         25
                    0.3588     0.4170     0.4486     0.5332     0.5441
                     A1         A1         B1         B2         A1  
    1  S  1  S    0.004826  -0.115956   0.000000   0.000000   0.004452
    2  S  1  S   -0.005828  -0.386892   0.000000   0.000000  -0.015195
    3  S  1  S    0.050367  -1.740789   0.000000   0.000000   0.032740
    4  S  1  S    0.305190   2.457345   0.000000   0.000000   0.391591
    5  S  1  X    0.000000   0.000000   0.270551   0.000000   0.000000
    6  S  1  Y    0.000000   0.000000   0.000000   0.057798   0.000000
    7  S  1  Z    0.278942  -0.014221   0.000000   0.000000   0.028104
    8  S  1  X    0.000000   0.000000  -0.933327   0.000000   0.000000
    9  S  1  Y    0.000000   0.000000   0.000000  -0.239274   0.000000
   10  S  1  Z   -1.042594   0.098308   0.000000   0.000000  -0.105130
   11  S  1  X    0.000000   0.000000   1.371311   0.000000   0.000000
   12  S  1  Y    0.000000   0.000000   0.000000   0.279398   0.000000
   13  S  1  Z    1.285078   0.186658   0.000000   0.000000   0.318343
   14  S  1 XX    0.280259   0.156946   0.000000   0.000000  -0.008003
   15  S  1 YY   -0.029811  -0.067047   0.000000   0.000000  -0.805307
   16  S  1 ZZ   -0.250448  -0.089899   0.000000   0.000000   0.813309
   17  S  1 XY    0.000000   0.000000   0.000000   0.000000   0.000000
   18  S  1 XZ    0.000000   0.000000   0.500524   0.000000   0.000000
   19  S  1 YZ    0.000000   0.000000   0.000000   0.939638   0.000000
   20  O  2  S    0.009723   0.018632  -0.011674   0.000000   0.017639
   21  O  2  S    0.032494  -0.016775  -0.050544   0.000000  -0.052798
   22  O  2  S   -0.356340  -0.522485   0.587495   0.000000  -0.200351
   23  O  2  X    0.128505   0.195947  -0.257243   0.000000  -0.087059
   24  O  2  Y    0.000000   0.000000   0.000000  -0.233531   0.000000
   25  O  2  Z   -0.034109  -0.116150   0.166176   0.000000  -0.243346
   26  O  2  X   -0.138640  -0.239953   0.151817   0.000000  -0.168914
   27  O  2  Y    0.000000   0.000000   0.000000   0.025046   0.000000
   28  O  2  Z   -0.013523   0.120538  -0.051819   0.000000   0.121113
   29  O  2 XX   -0.042757  -0.047375   0.026252   0.000000   0.011406
   30  O  2 YY    0.016600   0.034459  -0.034623   0.000000  -0.026482
   31  O  2 ZZ    0.026157   0.012917   0.008371   0.000000   0.015075
   32  O  2 XY    0.000000   0.000000   0.000000   0.030965   0.000000
   33  O  2 XZ   -0.006871   0.043738  -0.054562   0.000000   0.038323
   34  O  2 YZ    0.000000   0.000000   0.000000   0.028243   0.000000
   35  O  3  S    0.009723   0.018632   0.011674   0.000000   0.017639
   36  O  3  S    0.032494  -0.016775   0.050544   0.000000  -0.052798
   37  O  3  S   -0.356340  -0.522485  -0.587495   0.000000  -0.200351
   38  O  3  X   -0.128505  -0.195947  -0.257243   0.000000   0.087059
   39  O  3  Y    0.000000   0.000000   0.000000  -0.233531   0.000000
   40  O  3  Z   -0.034109  -0.116150  -0.166176   0.000000  -0.243346
   41  O  3  X    0.138640   0.239953   0.151817   0.000000   0.168914
   42  O  3  Y    0.000000   0.000000   0.000000   0.025046   0.000000
   43  O  3  Z   -0.013523   0.120538   0.051819   0.000000   0.121113
   44  O  3 XX   -0.042757  -0.047375  -0.026252   0.000000   0.011406
   45  O  3 YY    0.016600   0.034459   0.034623   0.000000  -0.026482
   46  O  3 ZZ    0.026157   0.012917  -0.008371   0.000000   0.015075
   47  O  3 XY    0.000000   0.000000   0.000000  -0.030965   0.000000
   48  O  3 XZ    0.006871  -0.043738  -0.054562   0.000000  -0.038323
   49  O  3 YZ    0.000000   0.000000   0.000000   0.028243   0.000000

                     26         27         28         29         30
                    0.5890     0.6402     0.6544     0.7573     0.8063
                     A2         A1         B1         A2         A1  
    1  S  1  S    0.000000   0.037017   0.000000   0.000000   0.012247
    2  S  1  S    0.000000   0.131579   0.000000   0.000000   0.071478
    3  S  1  S    0.000000   0.588329   0.000000   0.000000   0.227795
    4  S  1  S    0.000000   1.095025   0.000000   0.000000  -0.106449
    5  S  1  X    0.000000   0.000000  -0.195966   0.000000   0.000000
    6  S  1  Y    0.000000   0.000000   0.000000   0.000000   0.000000
    7  S  1  Z    0.000000  -0.099729   0.000000   0.000000  -0.038803
    8  S  1  X    0.000000   0.000000   1.039659   0.000000   0.000000
    9  S  1  Y    0.000000   0.000000   0.000000   0.000000   0.000000
   10  S  1  Z    0.000000   0.538470   0.000000   0.000000   0.165591
   11  S  1  X    0.000000   0.000000   0.110694   0.000000   0.000000
   12  S  1  Y    0.000000   0.000000   0.000000   0.000000   0.000000
   13  S  1  Z    0.000000   0.102157   0.000000   0.000000  -0.768218
   14  S  1 XX    0.000000   0.520767   0.000000   0.000000   0.267418
   15  S  1 YY    0.000000  -0.287753   0.000000   0.000000   0.136479
   16  S  1 ZZ    0.000000  -0.233013   0.000000   0.000000  -0.403897
   17  S  1 XY    0.918396   0.000000   0.000000   0.451510   0.000000
   18  S  1 XZ    0.000000   0.000000   0.450758   0.000000   0.000000
   19  S  1 YZ    0.000000   0.000000   0.000000   0.000000   0.000000
   20  O  2  S    0.000000   0.058879  -0.057420   0.000000  -0.003767
   21  O  2  S    0.000000  -0.110591   0.136296   0.000000   0.088493
   22  O  2  S    0.000000  -0.613989   0.466452   0.000000  -0.012457
   23  O  2  X    0.000000   0.338646  -0.160551   0.000000  -0.229293
   24  O  2  Y    0.364257   0.000000   0.000000  -0.551249   0.000000
   25  O  2  Z    0.000000   0.022124   0.205159   0.000000  -0.505789
   26  O  2  X    0.000000  -1.080020   0.951394   0.000000   0.251598
   27  O  2  Y   -0.025710   0.000000   0.000000   0.820001   0.000000
   28  O  2  Z    0.000000   0.385726  -0.516645   0.000000   0.912755
   29  O  2 XX    0.000000   0.002424  -0.021887   0.000000  -0.016075
   30  O  2 YY    0.000000  -0.004048   0.010978   0.000000  -0.001833
   31  O  2 ZZ    0.000000   0.001625   0.010910   0.000000   0.017907
   32  O  2 XY   -0.047545   0.000000   0.000000  -0.044566   0.000000
   33  O  2 XZ    0.000000  -0.010006   0.016188   0.000000  -0.042650
   34  O  2 YZ    0.043182   0.000000   0.000000   0.026952   0.000000
   35  O  3  S    0.000000   0.058879   0.057420   0.000000  -0.003767
   36  O  3  S    0.000000  -0.110591  -0.136296   0.000000   0.088493
   37  O  3  S    0.000000  -0.613989  -0.466452   0.000000  -0.012457
   38  O  3  X    0.000000  -0.338646  -0.160551   0.000000   0.229293
   39  O  3  Y   -0.364257   0.000000   0.000000   0.551249   0.000000
   40  O  3  Z    0.000000   0.022124  -0.205159   0.000000  -0.505789
   41  O  3  X    0.000000   1.080020   0.951394   0.000000  -0.251598
   42  O  3  Y    0.025710   0.000000   0.000000  -0.820001   0.000000
   43  O  3  Z    0.000000   0.385726   0.516645   0.000000   0.912755
   44  O  3 XX    0.000000   0.002424   0.021887   0.000000  -0.016075
   45  O  3 YY    0.000000  -0.004048  -0.010978   0.000000  -0.001833
   46  O  3 ZZ    0.000000   0.001625  -0.010910   0.000000   0.017907
   47  O  3 XY   -0.047545   0.000000   0.000000  -0.044566   0.000000
   48  O  3 XZ    0.000000   0.010006   0.016188   0.000000   0.042650
   49  O  3 YZ   -0.043182   0.000000   0.000000  -0.026952   0.000000

                     31         32         33         34         35
                    0.8243     0.8526     1.0899     1.0907     1.6506
                     B1         B2         B1         A1         B1  
    1  S  1  S    0.000000   0.000000   0.000000  -0.004052   0.000000
    2  S  1  S    0.000000   0.000000   0.000000  -0.211143   0.000000
    3  S  1  S    0.000000   0.000000   0.000000  -0.311496   0.000000
    4  S  1  S    0.000000   0.000000   0.000000   0.811860   0.000000
    5  S  1  X   -0.045446   0.000000  -0.140380   0.000000  -0.017981
    6  S  1  Y    0.000000  -0.029281   0.000000   0.000000   0.000000
    7  S  1  Z    0.000000   0.000000   0.000000  -0.088997   0.000000
    8  S  1  X    0.220976   0.000000   0.373307   0.000000   0.313776
    9  S  1  Y    0.000000   0.097094   0.000000   0.000000   0.000000
   10  S  1  Z    0.000000   0.000000   0.000000   0.287720   0.000000
   11  S  1  X   -0.420683   0.000000   0.479455   0.000000   1.395146
   12  S  1  Y    0.000000  -0.813831   0.000000   0.000000   0.000000
   13  S  1  Z    0.000000   0.000000   0.000000   0.108510   0.000000
   14  S  1 XX    0.000000   0.000000   0.000000   1.008777   0.000000
   15  S  1 YY    0.000000   0.000000   0.000000  -0.667602   0.000000
   16  S  1 ZZ    0.000000   0.000000   0.000000  -0.341175   0.000000
   17  S  1 XY    0.000000   0.000000   0.000000   0.000000   0.000000
   18  S  1 XZ    0.242349   0.000000   0.902502   0.000000   0.207184
   19  S  1 YZ    0.000000  -0.298416   0.000000   0.000000   0.000000
   20  O  2  S    0.002012   0.000000  -0.034160   0.034672   0.000984
   21  O  2  S   -0.080009   0.000000   0.138119  -0.183543  -1.246835
   22  O  2  S    0.024903   0.000000   0.439428  -0.387260   2.138906
   23  O  2  X   -0.219463   0.000000   0.621799  -0.473467   0.047588
   24  O  2  Y    0.000000  -0.598110   0.000000   0.000000   0.000000
   25  O  2  Z   -0.568663   0.000000  -0.132515   0.342790   0.070759
   26  O  2  X    0.488755   0.000000  -0.255965   0.141491   0.346122
   27  O  2  Y    0.000000   0.990722   0.000000   0.000000   0.000000
   28  O  2  Z    0.721774   0.000000   0.060884  -0.050123  -0.434371
   29  O  2 XX   -0.039800   0.000000  -0.064144  -0.062448  -0.078328
   30  O  2 YY    0.011838   0.000000  -0.025140  -0.023563   0.091314
   31  O  2 ZZ    0.027962   0.000000   0.089284   0.086011  -0.012985
   32  O  2 XY    0.000000  -0.047131   0.000000   0.000000   0.000000
   33  O  2 XZ   -0.016808   0.000000  -0.030859  -0.030815   0.161117
   34  O  2 YZ    0.000000   0.008383   0.000000   0.000000   0.000000
   35  O  3  S   -0.002012   0.000000   0.034160   0.034672  -0.000984
   36  O  3  S    0.080009   0.000000  -0.138119  -0.183543   1.246835
   37  O  3  S   -0.024903   0.000000  -0.439428  -0.387260  -2.138906
   38  O  3  X   -0.219463   0.000000   0.621799   0.473467   0.047588
   39  O  3  Y    0.000000  -0.598110   0.000000   0.000000   0.000000
   40  O  3  Z    0.568663   0.000000   0.132515   0.342790  -0.070759
   41  O  3  X    0.488755   0.000000  -0.255965  -0.141491   0.346122
   42  O  3  Y    0.000000   0.990722   0.000000   0.000000   0.000000
   43  O  3  Z   -0.721774   0.000000  -0.060884  -0.050123   0.434371
   44  O  3 XX    0.039800   0.000000   0.064144  -0.062448   0.078328
   45  O  3 YY   -0.011838   0.000000   0.025140  -0.023563  -0.091314
   46  O  3 ZZ   -0.027962   0.000000  -0.089284   0.086011   0.012985
   47  O  3 XY    0.000000   0.047131   0.000000   0.000000   0.000000
   48  O  3 XZ   -0.016808   0.000000  -0.030859   0.030815   0.161117
   49  O  3 YZ    0.000000   0.008383   0.000000   0.000000   0.000000

                     36         37         38         39         40
                    1.6946     2.0448     2.0472     2.0628     2.0848
                     A1         A2         B1         B2         A1  
    1  S  1  S   -0.016547   0.000000   0.000000   0.000000  -0.002407
    2  S  1  S   -0.158832   0.000000   0.000000   0.000000  -0.023483
    3  S  1  S   -0.362384   0.000000   0.000000   0.000000  -0.059412
    4  S  1  S    2.376726   0.000000   0.000000   0.000000   0.047087
    5  S  1  X    0.000000   0.000000  -0.003583   0.000000   0.000000
    6  S  1  Y    0.000000   0.000000   0.000000  -0.027789   0.000000
    7  S  1  Z   -0.015889   0.000000   0.000000   0.000000   0.003372
    8  S  1  X    0.000000   0.000000  -0.003108   0.000000   0.000000
    9  S  1  Y    0.000000   0.000000   0.000000   0.103661   0.000000
   10  S  1  Z    0.189370   0.000000   0.000000   0.000000  -0.026057
   11  S  1  X    0.000000   0.000000   0.058755   0.000000   0.000000
   12  S  1  Y    0.000000   0.000000   0.000000   0.021697   0.000000
   13  S  1  Z    0.841006   0.000000   0.000000   0.000000   0.017823
   14  S  1 XX    0.293919   0.000000   0.000000   0.000000   0.084943
   15  S  1 YY   -0.259717   0.000000   0.000000   0.000000  -0.165622
   16  S  1 ZZ   -0.034202   0.000000   0.000000   0.000000   0.080678
   17  S  1 XY    0.000000   0.033020   0.000000   0.000000   0.000000
   18  S  1 XZ    0.000000   0.000000  -0.028105   0.000000   0.000000
   19  S  1 YZ    0.000000   0.000000   0.000000  -0.053495   0.000000
   20  O  2  S    0.005454   0.000000  -0.000135   0.000000   0.002651
   21  O  2  S    1.215496   0.000000  -0.011318   0.000000  -0.045482
   22  O  2  S   -2.192340   0.000000   0.029523   0.000000   0.008167
   23  O  2  X   -0.001038   0.000000   0.021761   0.000000  -0.041858
   24  O  2  Y    0.000000  -0.012567   0.000000   0.027044   0.000000
   25  O  2  Z    0.084381   0.000000   0.020891   0.000000   0.014634
   26  O  2  X   -0.721064   0.000000  -0.038499   0.000000   0.030326
   27  O  2  Y    0.000000   0.021081   0.000000  -0.044057   0.000000
   28  O  2  Z    0.042438   0.000000  -0.034869   0.000000  -0.008884
   29  O  2 XX    0.208797   0.000000  -0.243233   0.000000  -0.056018
   30  O  2 YY   -0.108387   0.000000   0.607015   0.000000   0.594846
   31  O  2 ZZ   -0.100410   0.000000  -0.363782   0.000000  -0.538828
   32  O  2 XY    0.000000   0.420355   0.000000   0.050380   0.000000
   33  O  2 XZ   -0.076163   0.000000  -0.357202   0.000000  -0.263026
   34  O  2 YZ    0.000000   0.569158   0.000000   0.707291   0.000000
   35  O  3  S    0.005454   0.000000   0.000135   0.000000   0.002651
   36  O  3  S    1.215496   0.000000   0.011318   0.000000  -0.045482
   37  O  3  S   -2.192340   0.000000  -0.029523   0.000000   0.008167
   38  O  3  X    0.001038   0.000000   0.021761   0.000000   0.041858
   39  O  3  Y    0.000000   0.012567   0.000000   0.027044   0.000000
   40  O  3  Z    0.084381   0.000000  -0.020891   0.000000   0.014634
   41  O  3  X    0.721064   0.000000  -0.038499   0.000000  -0.030326
   42  O  3  Y    0.000000  -0.021081   0.000000  -0.044057   0.000000
   43  O  3  Z    0.042438   0.000000   0.034869   0.000000  -0.008884
   44  O  3 XX    0.208797   0.000000   0.243233   0.000000  -0.056018
   45  O  3 YY   -0.108387   0.000000  -0.607015   0.000000   0.594846
   46  O  3 ZZ   -0.100410   0.000000   0.363782   0.000000  -0.538828
   47  O  3 XY    0.000000   0.420355   0.000000  -0.050380   0.000000
   48  O  3 XZ    0.076163   0.000000  -0.357202   0.000000   0.263026
   49  O  3 YZ    0.000000  -0.569158   0.000000   0.707291   0.000000

                     41         42         43         44         45
                    2.2302     2.2366     2.3898     2.4666     2.8506
                     B2         B1         A2         A1         A1  
    1  S  1  S    0.000000   0.000000   0.000000  -0.004959  -0.054732
    2  S  1  S    0.000000   0.000000   0.000000  -0.019174  -0.105813
    3  S  1  S    0.000000   0.000000   0.000000  -0.095554  -0.832997
    4  S  1  S    0.000000   0.000000   0.000000  -0.432655  -1.456893
    5  S  1  X    0.000000  -0.030694   0.000000   0.000000   0.000000
    6  S  1  Y    0.072149   0.000000   0.000000   0.000000   0.000000
    7  S  1  Z    0.000000   0.000000   0.000000   0.076644   0.095522
    8  S  1  X    0.000000   0.210167   0.000000   0.000000   0.000000
    9  S  1  Y   -0.265586   0.000000   0.000000   0.000000   0.000000
   10  S  1  Z    0.000000   0.000000   0.000000  -0.346229  -0.655537
   11  S  1  X    0.000000   0.105805   0.000000   0.000000   0.000000
   12  S  1  Y   -0.152487   0.000000   0.000000   0.000000   0.000000
   13  S  1  Z    0.000000   0.000000   0.000000  -0.325393  -0.251971
   14  S  1 XX    0.000000   0.000000   0.000000   0.402587  -0.806797
   15  S  1 YY    0.000000   0.000000   0.000000   0.048860   0.499481
   16  S  1 ZZ    0.000000   0.000000   0.000000  -0.451447   0.307317
   17  S  1 XY    0.000000   0.000000   0.594230   0.000000   0.000000
   18  S  1 XZ    0.000000  -0.437102   0.000000   0.000000   0.000000
   19  S  1 YZ   -0.304297   0.000000   0.000000   0.000000   0.000000
   20  O  2  S    0.000000   0.002664   0.000000  -0.002719  -0.040097
   21  O  2  S    0.000000  -0.237021   0.000000  -0.328292  -0.618843
   22  O  2  S    0.000000   0.259464   0.000000   0.510464   1.604050
   23  O  2  X    0.000000  -0.076730   0.000000  -0.097554   0.097041
   24  O  2  Y   -0.067407   0.000000  -0.022039   0.000000   0.000000
   25  O  2  Z    0.000000   0.088869   0.000000  -0.003547  -0.068319
   26  O  2  X    0.000000   0.052316   0.000000   0.324368   0.795584
   27  O  2  Y    0.202095   0.000000   0.193970   0.000000   0.000000
   28  O  2  Z    0.000000  -0.208293   0.000000   0.165589  -0.383319
   29  O  2 XX    0.000000  -0.395708   0.000000   0.578752   0.515193
   30  O  2 YY    0.000000  -0.177478   0.000000  -0.100147  -0.450498
   31  O  2 ZZ    0.000000   0.573186   0.000000  -0.478605  -0.064695
   32  O  2 XY    0.737043   0.000000   0.624550   0.000000   0.000000
   33  O  2 XZ    0.000000  -0.429675   0.000000   0.434985  -0.659338
   34  O  2 YZ   -0.064211   0.000000  -0.446915   0.000000   0.000000
   35  O  3  S    0.000000  -0.002664   0.000000  -0.002719  -0.040097
   36  O  3  S    0.000000   0.237021   0.000000  -0.328292  -0.618843
   37  O  3  S    0.000000  -0.259464   0.000000   0.510464   1.604050
   38  O  3  X    0.000000  -0.076730   0.000000   0.097554  -0.097041
   39  O  3  Y   -0.067407   0.000000   0.022039   0.000000   0.000000
   40  O  3  Z    0.000000  -0.088869   0.000000  -0.003547  -0.068319
   41  O  3  X    0.000000   0.052316   0.000000  -0.324368  -0.795584
   42  O  3  Y    0.202095   0.000000  -0.193970   0.000000   0.000000
   43  O  3  Z    0.000000   0.208293   0.000000   0.165589  -0.383319
   44  O  3 XX    0.000000   0.395708   0.000000   0.578752   0.515193
   45  O  3 YY    0.000000   0.177478   0.000000  -0.100147  -0.450498
   46  O  3 ZZ    0.000000  -0.573186   0.000000  -0.478605  -0.064695
   47  O  3 XY   -0.737043   0.000000   0.624550   0.000000   0.000000
   48  O  3 XZ    0.000000  -0.429675   0.000000  -0.434985   0.659338
   49  O  3 YZ   -0.064211   0.000000   0.446915   0.000000   0.000000

                     46
                    2.9156
                     B1  
    1  S  1  S    0.000000
    2  S  1  S    0.000000
    3  S  1  S    0.000000
    4  S  1  S    0.000000
    5  S  1  X   -0.228138
    6  S  1  Y    0.000000
    7  S  1  Z    0.000000
    8  S  1  X    1.461430
    9  S  1  Y    0.000000
   10  S  1  Z    0.000000
   11  S  1  X    0.437194
   12  S  1  Y    0.000000
   13  S  1  Z    0.000000
   14  S  1 XX    0.000000
   15  S  1 YY    0.000000
   16  S  1 ZZ    0.000000
   17  S  1 XY    0.000000
   18  S  1 XZ    0.687686
   19  S  1 YZ    0.000000
   20  O  2  S   -0.039432
   21  O  2  S   -0.522218
   22  O  2  S    1.413757
   23  O  2  X    0.140000
   24  O  2  Y    0.000000
   25  O  2  Z   -0.044665
   26  O  2  X    0.723244
   27  O  2  Y    0.000000
   28  O  2  Z   -0.331981
   29  O  2 XX    0.704641
   30  O  2 YY   -0.397349
   31  O  2 ZZ   -0.307292
   32  O  2 XY    0.000000
   33  O  2 XZ   -0.528395
   34  O  2 YZ    0.000000
   35  O  3  S    0.039432
   36  O  3  S    0.522218
   37  O  3  S   -1.413757
   38  O  3  X    0.140000
   39  O  3  Y    0.000000
   40  O  3  Z    0.044665
   41  O  3  X    0.723244
   42  O  3  Y    0.000000
   43  O  3  Z    0.331981
   44  O  3 XX   -0.704641
   45  O  3 YY    0.397349
   46  O  3 ZZ    0.307292
   47  O  3 XY    0.000000
   48  O  3 XZ   -0.528395
   49  O  3 YZ    0.000000
 ...... END OF RHF CALCULATION ......
 STEP CPU TIME =     4.41 TOTAL CPU TIME =        4.6 (    0.1 MIN)
 TOTAL WALL CLOCK TIME=        4.6 SECONDS, CPU UTILIZATION IS  99.57%

     ---------------------------------------------------------------------
     PROPERTIES FOR THE PBE      DFT FUNCTIONAL (RHF  TYPE) DENSITY MATRIX
     ---------------------------------------------------------------------

          -----------------
          ENERGY COMPONENTS
          -----------------

         WAVEFUNCTION NORMALIZATION =       1.0000000000

                ONE ELECTRON ENERGY =    -974.2039306697
                TWO ELECTRON ENERGY =     315.8548428224
           NUCLEAR REPULSION ENERGY =     110.1097253931
                                      ------------------
                       TOTAL ENERGY =    -548.2393624541

 ELECTRON-ELECTRON POTENTIAL ENERGY =     315.8548428224
  NUCLEUS-ELECTRON POTENTIAL ENERGY =   -1522.2847387204
   NUCLEUS-NUCLEUS POTENTIAL ENERGY =     110.1097253931
                                      ------------------
             TOTAL POTENTIAL ENERGY =   -1096.3201705048
               TOTAL KINETIC ENERGY =     548.0808080507
                 VIRIAL RATIO (V/T) =       2.0002892902

          ---------------------------------------
          MULLIKEN AND LOWDIN POPULATION ANALYSES
          ---------------------------------------

     ATOMIC MULLIKEN POPULATION IN EACH MOLECULAR ORBITAL

                      1          2          3          4          5

                  2.000000   2.000000   2.000000   2.000000   2.000000

    1             2.000040   0.001784   0.001405   2.002174   1.999636
    2            -0.000020   0.999108   0.999298  -0.001087   0.000182
    3            -0.000020   0.999108   0.999298  -0.001087   0.000182

                      6          7          8          9         10

                  2.000000   2.000000   2.000000   2.000000   2.000000

    1             1.999997   1.999809   0.696009   0.439824   0.779895
    2             0.000002   0.000095   0.651995   0.780088   0.610052
    3             0.000002   0.000095   0.651995   0.780088   0.610052

                     11         12         13         14         15

                  2.000000   2.000000   2.000000   2.000000   2.000000

    1             0.980687   0.858432   0.327457   0.133798   0.159570
    2             0.509656   0.570784   0.836271   0.933101   0.920215
    3             0.509656   0.570784   0.836271   0.933101   0.920215

                     16

                  2.000000

    1             0.883322
    2             0.558339
    3             0.558339

               ----- POPULATIONS IN EACH AO -----
                             MULLIKEN      LOWDIN
              1  S  1  S      2.00025     1.99576
              2  S  1  S      2.01014     1.95871
              3  S  1  S      0.93464     0.56133
              4  S  1  S      0.90957     0.55897
              5  S  1  X      1.99671     1.95540
              6  S  1  Y      1.99605     1.95400
              7  S  1  Z      1.99710     1.96213
              8  S  1  X      0.69855     0.61063
              9  S  1  Y      0.64204     0.59565
             10  S  1  Z      0.82840     0.80054
             11  S  1  X      0.07002     0.24444
             12  S  1  Y      0.32644     0.38938
             13  S  1  Z      0.28439     0.41156
             14  S  1 XX      0.09154     0.33644
             15  S  1 YY      0.16544     0.26695
             16  S  1 ZZ      0.13380     0.29250
             17  S  1 XY      0.16261     0.16358
             18  S  1 XZ      0.01616     0.19507
             19  S  1 YZ      0.00000     0.01576
             20  O  2  S      1.99795     1.98053
             21  O  2  S      0.82863     0.64022
             22  O  2  S      1.01203     0.53869
             23  O  2  X      0.93433     0.89148
             24  O  2  Y      0.87232     0.82958
             25  O  2  Z      1.08469     1.05288
             26  O  2  X      0.43819     0.54660
             27  O  2  Y      0.56186     0.60035
             28  O  2  Z      0.61235     0.66268
             29  O  2 XX      0.00399     0.20772
             30  O  2 YY      0.00628     0.19721
             31  O  2 ZZ      0.00715     0.19477
             32  O  2 XY      0.00688     0.00912
             33  O  2 XZ      0.00143     0.01200
             34  O  2 YZ      0.00000     0.00177
             35  O  3  S      1.99795     1.98053
             36  O  3  S      0.82863     0.64022
             37  O  3  S      1.01203     0.53869
             38  O  3  X      0.93433     0.89148
             39  O  3  Y      0.87232     0.82958
             40  O  3  Z      1.08469     1.05288
             41  O  3  X      0.43819     0.54660
             42  O  3  Y      0.56186     0.60035
             43  O  3  Z      0.61235     0.66268
             44  O  3 XX      0.00399     0.20772
             45  O  3 YY      0.00628     0.19721
             46  O  3 ZZ      0.00715     0.19477
             47  O  3 XY      0.00688     0.00912
             48  O  3 XZ      0.00143     0.01200
             49  O  3 YZ      0.00000     0.00177

          ----- MULLIKEN ATOMIC OVERLAP POPULATIONS -----
          (OFF-DIAGONAL ELEMENTS NEED TO BE MULTIPLIED BY 2)

             1           2           3

    1   14.6084566
    2    0.3276918   8.0562490
    3    0.3276918  -0.0158608   8.0562490

          TOTAL MULLIKEN AND LOWDIN ATOMIC POPULATIONS
       ATOM         MULL.POP.    CHARGE          LOW.POP.     CHARGE
    1 S            15.263840    0.736160        15.268804    0.731196
    2 O             8.368080   -0.368080         8.365598   -0.365598
    3 O             8.368080   -0.368080         8.365598   -0.365598

          MULLIKEN SPHERICAL HARMONIC POPULATIONS
       ATOM           S       P       D      F      G      H      I    TOTAL
    1 S             5.85    8.84    0.57   0.00   0.00   0.00   0.00   15.26
    2 O             3.84    4.50    0.03   0.00   0.00   0.00   0.00    8.37
    3 O             3.84    4.50    0.03   0.00   0.00   0.00   0.00    8.37

          -------------------------------
          BOND ORDER AND VALENCE ANALYSIS     BOND ORDER THRESHOLD=0.050
          -------------------------------

                   BOND                       BOND                       BOND
  ATOM PAIR DIST  ORDER      ATOM PAIR DIST  ORDER      ATOM PAIR DIST  ORDER
    1   2  1.400  1.901        1   3  1.400  1.901        2   3  2.538  0.223

                       TOTAL       BONDED        FREE
      ATOM            VALENCE     VALENCE     VALENCE
    1 S                 3.802       3.802       0.000
    2 O                 2.123       2.123       0.000
    3 O                 2.123       2.123       0.000

          ---------------------
          ELECTROSTATIC MOMENTS
          ---------------------

 POINT   1           X           Y           Z (BOHR)    CHARGE
                 0.000000    0.000000    0.000000        0.00 (A.U.)
         DX          DY          DZ         /D/  (DEBYE)
     0.000000    0.000000   -1.038789    1.038789
 ...... END OF PROPERTY EVALUATION ......
 STEP CPU TIME =     0.01 TOTAL CPU TIME =        4.6 (    0.1 MIN)
 TOTAL WALL CLOCK TIME=        4.6 SECONDS, CPU UTILIZATION IS  99.78%
               580000  WORDS OF DYNAMIC MEMORY USED
 EXECUTION OF GAMESS TERMINATED NORMALLY Thu Feb 26 00:15:44 2015
 DDI: 263624 bytes (0.3 MB / 0 MWords) used by master data server.

 ----------------------------------------
 CPU timing information for all processes
 ========================================
 0: 4.586 + 0.29 = 4.616
 ----------------------------------------
 ddikick.x: exited gracefully.
----- accounting info -----
Files used on the master node dftfe.crc.nd.edu were:
-rw-r--r-- 1 pmehta1 campus   37475 Feb 26 00:15 /tmp/gamess.dat
-rw-r--r-- 1 pmehta1 campus     142 Feb 26 00:15 /tmp/gamess.F05
-rw-r--r-- 1 pmehta1 campus 2160288 Feb 26 00:15 /tmp/gamess.F08
-rw-r--r-- 1 pmehta1 campus 1220440 Feb 26 00:15 /tmp/gamess.F10
Thu Feb 26 00:15:47 EST 2015
0.246u 0.186s 0:08.05 5.2%	0+0k 0+112io 0pf+0w
