----- GAMESS execution script 'rungms' -----
This job is running on host dftfe.crc.nd.edu
under operating system Linux at Thu Feb 26 00:14:30 EST 2015
Available scratch disk space (Kbyte units) at beginning of the job is
Filesystem     1K-blocks     Used Available Use% Mounted on
/dev/sda2      147771864 22811588 117453844  17% /
GAMESS temporary binary files will be written to /tmp
GAMESS supplementary output files will be written to /tmp
Copying input file gamess.inp to your run's scratch directory...

 Distributed Data Interface kickoff program.
 Initiating 1 compute processes on 1 nodes to run the following command:
 /opt/crc/gamess/2012R1/gamess/gamess.00.x gamess 

          ******************************************************
          *         GAMESS VERSION =  1 MAY 2012 (R1)          *
          *             FROM IOWA STATE UNIVERSITY             *
          * M.W.SCHMIDT, K.K.BALDRIDGE, J.A.BOATZ, S.T.ELBERT, *
          *   M.S.GORDON, J.H.JENSEN, S.KOSEKI, N.MATSUNAGA,   *
          *          K.A.NGUYEN, S.J.SU, T.L.WINDUS,           *
          *       TOGETHER WITH M.DUPUIS, J.A.MONTGOMERY       *
          *         J.COMPUT.CHEM.  14, 1347-1363(1993)        *
          **************** 64 BIT LINUX VERSION ****************

  SINCE 1993, STUDENTS AND POSTDOCS WORKING AT IOWA STATE UNIVERSITY
  AND ALSO IN THEIR VARIOUS JOBS AFTER LEAVING ISU HAVE MADE IMPORTANT
  CONTRIBUTIONS TO THE CODE:
     IVANA ADAMOVIC, CHRISTINE AIKENS, YURI ALEXEEV, POOJA ARORA,
     ANDREY ASADCHEV, ROB BELL, PRADIPTA BANDYOPADHYAY, JONATHAN BENTZ,
     BRETT BODE, GALINA CHABAN, WEI CHEN, CHEOL HO CHOI, PAUL DAY,
     ALBERT DEFUSCO, TIM DUDLEY, DMITRI FEDOROV, GRAHAM FLETCHER,
     MARK FREITAG, KURT GLAESEMANN, DAN KEMP, GRANT MERRILL,
     NORIYUKI MINEZAWA, JONATHAN MULLIN, TAKESHI NAGATA,
     SEAN NEDD, HEATHER NETZLOFF, BOSILJKA NJEGIC, RYAN OLSON, MIKE PAK,
     JIM SHOEMAKER, LYUDMILA SLIPCHENKO, SAROM SOK, JIE SONG,
     TETSUYA TAKETSUGU, SIMON WEBB, SOOHAENG YOO, FEDERICO ZAHARIEV

  ADDITIONAL CODE HAS BEEN PROVIDED BY COLLABORATORS IN OTHER GROUPS:
     IOWA STATE UNIVERSITY:
          JOE IVANIC, LAIMUTIS BYTAUTAS, KLAUS RUEDENBERG
     UNIVERSITY OF TOKYO: KIMIHIKO HIRAO, TAKAHITO NAKAJIMA,
          TAKAO TSUNEDA, MUNEAKI KAMIYA, SUSUMU YANAGISAWA,
          KIYOSHI YAGI, MAHITO CHIBA, SEIKEN TOKURA, NAOAKI KAWAKAMI
     UNIVERSITY OF AARHUS: FRANK JENSEN
     UNIVERSITY OF IOWA: VISVALDAS KAIRYS, HUI LI
     NATIONAL INST. OF STANDARDS AND TECHNOLOGY: WALT STEVENS, DAVID GARMER
     UNIVERSITY OF PISA: BENEDETTA MENNUCCI, JACOPO TOMASI
     UNIVERSITY OF MEMPHIS: HENRY KURTZ, PRAKASHAN KORAMBATH
     UNIVERSITY OF ALBERTA: TOBY ZENG, MARIUSZ KLOBUKOWSKI
     UNIVERSITY OF NEW ENGLAND: MARK SPACKMAN
     MIE UNIVERSITY: HIROAKI UMEDA
     MICHIGAN STATE UNIVERSITY:
          KAROL KOWALSKI, MARTA WLOCH, JEFFREY GOUR, JESSE LUTZ, PIOTR PIECUCH
     UNIVERSITY OF SILESIA: MONIKA MUSIAL, STANISLAW KUCHARSKI
     FACULTES UNIVERSITAIRES NOTRE-DAME DE LA PAIX:
          OLIVIER QUINET, BENOIT CHAMPAGNE
     UNIVERSITY OF CALIFORNIA - SANTA BARBARA: BERNARD KIRTMAN
     INSTITUTE FOR MOLECULAR SCIENCE:
          KAZUYA ISHIMURA, MICHIO KATOUDA, AND SHIGERU NAGASE
     UNIVERSITY OF NOTRE DAME: DAN CHIPMAN
     KYUSHU UNIVERSITY:
          HARUYUKI NAKANO,
          FENG LONG GU, JACEK KORCHOWIEC, MARCIN MAKOWSKI, AND YURIKO AOKI,
          HIROTOSHI MORI AND EISAKU MIYOSHI
     PENNSYLVANIA STATE UNIVERSITY:
          TZVETELIN IORDANOV, CHET SWALINA, JONATHAN SKONE,
          SHARON HAMMES-SCHIFFER
     WASEDA UNIVERSITY:
          MASATO KOBAYASHI, TOMOKO AKAMA, TSUGUKI TOUMA,
          TAKESHI YOSHIKAWA, YASUHIRO IKABATA, HIROMI NAKAI
     UNIVERSITY OF NEBRASKA:
          PEIFENG SU, DEJUN SI, NANDUN THELLAMUREGE, YALI WANG, HUI LI
     UNIVERSITY OF ZURICH:
          ROBERTO PEVERATI, KIM BALDRIDGE
     N. COPERNICUS UNIVERSITY AND JACKSON STATE UNIVERSITY:
          MARIA BARYSZ

 EXECUTION OF GAMESS BEGUN Thu Feb 26 00:14:30 2015

            ECHO OF THE FIRST FEW INPUT CARDS -
 INPUT CARD> $BASIS GBASIS=PC1 $END                                                         
 INPUT CARD> $CONTRL COORD=ZMT ISPHER=1 RUNTYP=ENERGY DFTTYP=PBE $END                       
 INPUT CARD>                                                                                
 INPUT CARD> $DATA                                                                          
 INPUT CARD>Title                                                                           
 INPUT CARD>Cnv 2                                                                           
 INPUT CARD>                                                                                
 INPUT CARD>S                                                                               
 INPUT CARD>O 1 1.30                                                                        
 INPUT CARD>O 1 1.30 2 140.0                                                                
 INPUT CARD> $END                                                                           
    1000000 WORDS OF MEMORY AVAILABLE

     BASIS OPTIONS
     -------------
     GBASIS=PC1          IGAUSS=       0      POLAR=NONE    
     NDFUNC=       0     NFFUNC=       0     DIFFSP=       F
     NPFUNC=       0      DIFFS=       F     BASNAM=        


     RUN TITLE
     ---------
 Title                                                                           

 THE POINT GROUP OF THE MOLECULE IS CNV     
 THE ORDER OF THE PRINCIPAL AXIS IS     2

 YOUR FULLY SUBSTITUTED Z-MATRIX IS
 S   
 O      1   1.3000000
 O      1   1.3000000  2  140.0000

 THE MOMENTS OF INERTIA ARE (AMU-ANGSTROM**2)
 IXX=     3.161   IYY=    47.739   IZZ=    50.900

 ATOM      ATOMIC                      COORDINATES (BOHR)
           CHARGE         X                   Y                   Z
 S          16.0     0.0000000000        0.0000000000       -0.4202274141
 O           8.0    -2.3084900358        0.0000000000        0.4199942450
 O           8.0     2.3084900358        0.0000000000        0.4199942450

          INTERNUCLEAR DISTANCES (ANGS.)
          ------------------------------

                1 S          2 O          3 O     

   1 S       0.0000000    1.3000000 *  1.3000000 *
   2 O       1.3000000 *  0.0000000    2.4432008 *
   3 O       1.3000000 *  2.4432008 *  0.0000000  

  * ... LESS THAN  3.000


     ATOMIC BASIS SET
     ----------------
 THE CONTRACTED PRIMITIVE FUNCTIONS HAVE BEEN UNNORMALIZED
 THE CONTRACTED BASIS FUNCTIONS ARE NOW NORMALIZED TO UNITY

  SHELL TYPE  PRIMITIVE        EXPONENT          CONTRACTION COEFFICIENT(S)

 S         

      1   S       1         55510.0000000    0.000587229760
      1   S       2          8326.7000000    0.004532413947
      1   S       3          1895.6000000    0.023265261648
      1   S       4           536.7700000    0.089696133027
      1   S       5           174.6700000    0.254098332277
      1   S       6            62.5780000    0.438665087637
      1   S       7            23.5730000    0.314547135094
      1   S       8             5.8908000    0.032727897102

      2   S       9          8326.7000000   -0.000019755715
      2   S      10          1895.6000000   -0.000043822381
      2   S      11           536.7700000   -0.001730264906
      2   S      12           174.6700000   -0.009381263460
      2   S      13            62.5780000   -0.064050766303
      2   S      14            23.5730000   -0.082478179196
      2   S      15             5.8908000    0.478342956889
      2   S      16             2.1852000    0.626896670208

      3   S      17          1895.6000000    0.000016227260
      3   S      18           536.7700000    0.000191135619
      3   S      19           174.6700000    0.001952069674
      3   S      20            62.5780000    0.010578701087
      3   S      21            23.5730000    0.022164934551
      3   S      22             5.8908000   -0.184968323118
      3   S      23             2.1852000   -0.480920750976
      3   S      24             0.4528200    1.243822243872

      4   S      25             0.1620200    1.000000000000

      5   P      26           395.4500000    0.004642761329
      5   P      27            92.8340000    0.036023396489
      5   P      28            29.2660000    0.149058869978
      5   P      29            10.5950000    0.360033266263
      5   P      30             4.0272000    0.455756476221
      5   P      31             1.5484000    0.206167664178

      6   P      32            92.8340000    0.000169901442
      6   P      33            29.2660000   -0.002541839934
      6   P      34            10.5950000   -0.007867614595
      6   P      35             4.0272000   -0.037231009184
      6   P      36             1.5484000    0.161417246830
      6   P      37             0.4613400    0.902230419976

      7   P      38             0.1313100    1.000000000000

      8   D      39             0.5500000    1.000000000000

 O         

     15   S      40          2306.7000000    0.005424388755
     15   S      41           347.1500000    0.040474749465
     15   S      42            78.8900000    0.180219634554
     15   S      43            21.8760000    0.462370311787
     15   S      44             6.6646000    0.454888396263

     16   S      45           347.1500000   -0.000655003786
     16   S      46            78.8900000   -0.005362052952
     16   S      47            21.8760000   -0.074902158894
     16   S      48             6.6646000   -0.181442579655
     16   S      49             1.0669000    1.102006874042

     17   S      50             0.3070000    1.000000000000

     18   P      51            17.0220000    0.068979967443
     18   P      52             3.6838000    0.351985516325
     18   P      53             0.9923400    0.724036547822

     19   P      54             0.2448700    1.000000000000

     20   D      55             1.0000000    1.000000000000

 TOTAL NUMBER OF BASIS SET SHELLS             =   20
 NUMBER OF CARTESIAN GAUSSIAN BASIS FUNCTIONS =   49
 NOTE: THIS RUN WILL RESTRICT THE MO VARIATION SPACE TO SPHERICAL HARMONICS.
 THE NUMBER OF ORBITALS KEPT IN THE VARIATIONAL SPACE WILL BE PRINTED LATER.
 NUMBER OF ELECTRONS                          =   32
 CHARGE OF MOLECULE                           =    0
 SPIN MULTIPLICITY                            =    1
 NUMBER OF OCCUPIED ORBITALS (ALPHA)          =   16
 NUMBER OF OCCUPIED ORBITALS (BETA )          =   16
 TOTAL NUMBER OF ATOMS                        =    3
 THE NUCLEAR REPULSION ENERGY IS      118.0690870218

     LEBEDEV GRID-BASED DFT OPTIONS
     ------------------------------
     DFTTYP=PBE     
     NRAD  =      96     NLEB  =     302
     NRAD0 =      24     NLEB0 =     110
     SWOFF =    5.00E-03 (PURE SCF -> DFT)
     SWITCH=    3.00E-04 (COARSE -> TIGHT GRID)
     THRESH=    0.00E+00 GTHRE=    1.00E+00

 GRIMME'S EMPIRICAL DISPERSION CORRECTION= F

     $CONTRL OPTIONS
     ---------------
 SCFTYP=RHF          RUNTYP=ENERGY       EXETYP=RUN     
 MPLEVL=       0     CITYP =NONE         CCTYP =NONE         VBTYP =NONE    
 DFTTYP=PBE          TDDFT =NONE    
 MULT  =       1     ICHARG=       0     NZVAR =       0     COORD =ZMT     
 PP    =NONE         RELWFN=NONE         LOCAL =NONE         NUMGRD=       F
 ISPHER=       1     NOSYM =       0     MAXIT =      30     UNITS =ANGS    
 PLTORB=       F     MOLPLT=       F     AIMPAC=       F     FRIEND=        
 NPRINT=       7     IREST =       0     GEOM  =INPUT   
 NORMF =       0     NORMP =       0     ITOL  =      20     ICUT  =       9
 INTTYP=BEST         GRDTYP=BEST         QMTTOL= 1.0E-06

     $SYSTEM OPTIONS
     ---------------
  REPLICATED MEMORY=     1000000 WORDS (ON EVERY NODE).
 DISTRIBUTED MEMDDI=           0 MILLION WORDS IN AGGREGATE,
 MEMDDI DISTRIBUTED OVER   1 PROCESSORS IS           0 WORDS/PROCESSOR.
 TOTAL MEMORY REQUESTED ON EACH PROCESSOR=     1000000 WORDS.
 TIMLIM=      525600.00 MINUTES, OR     365.0 DAYS.
 PARALL= F  BALTYP=  DLB     KDIAG=    0  COREFL= F
 MXSEQ2=     300 MXSEQ3=     150

          ----------------
          PROPERTIES INPUT
          ----------------

     MOMENTS            FIELD           POTENTIAL          DENSITY
 IEMOM =       1   IEFLD =       0   IEPOT =       0   IEDEN =       0
 WHERE =COMASS     WHERE =NUCLEI     WHERE =NUCLEI     WHERE =NUCLEI  
 OUTPUT=BOTH       OUTPUT=BOTH       OUTPUT=BOTH       OUTPUT=BOTH    
 IEMINT=       0   IEFINT=       0                     IEDINT=       0
                                                       MORB  =       0
          EXTRAPOLATION IN EFFECT
          DIIS IN EFFECT
 ORBITAL PRINTING OPTION: NPREO=     1    49     2     1

     -------------------------------
     INTEGRAL TRANSFORMATION OPTIONS
     -------------------------------
     NWORD  =            0
     CUTOFF = 1.0E-09     MPTRAN =       0
     DIRTRF =       F     AOINTS =DUP     

          ----------------------
          INTEGRAL INPUT OPTIONS
          ----------------------
 NOPK  =       1 NORDER=       0 SCHWRZ=       F

   --- ENCODED Z MATRIX ---
 COORD  TYPE   I   J   K   L   M   N
    1      1    3   1
    2      1    2   1
    3      2    2   1   3

 THE DETERMINANT OF THE G MATRIX IS 10**(    -4)

 THE DETERMINANT OF THE G MATRIX IS 10**(    -4)
 * * * WARNING * * *
 YOUR B MATRIX HAS A SMALL DETERMINANT.
 THIS SUGGESTS YOU MAY HAVE BADLY CHOSEN COORDINATES.

     ------------------------------------------
     THE POINT GROUP IS CNV, NAXIS= 2, ORDER= 4
     ------------------------------------------

 -- VARIATIONAL SPACE WILL BE RESTRICTED TO PURE SPHERICAL HARMONICS ONLY --
 AFTER EXCLUDING CONTAMINANT COMBINATIONS FROM THE CARTESIAN GAUSSIAN BASIS
 SET, THE NUMBER OF SPHERICAL HARMONICS KEPT IN THE VARIATION SPACE IS   46

     DIMENSIONS OF THE SYMMETRY SUBSPACES ARE
 A1  =   19     A2  =    5     B1  =   14     B2  =    8

 ..... DONE SETTING UP THE RUN .....
 STEP CPU TIME =     0.01 TOTAL CPU TIME =        0.0 (    0.0 MIN)
 TOTAL WALL CLOCK TIME=        0.0 SECONDS, CPU UTILIZATION IS  50.00%

          ********************
          1 ELECTRON INTEGRALS
          ********************
 ...... END OF ONE-ELECTRON INTEGRALS ......
 STEP CPU TIME =     0.00 TOTAL CPU TIME =        0.0 (    0.0 MIN)
 TOTAL WALL CLOCK TIME=        0.0 SECONDS, CPU UTILIZATION IS  50.00%

          -------------
          GUESS OPTIONS
          -------------
          GUESS =HUCKEL            NORB  =       0          NORDER=       0
          MIX   =       F          PRTMO =       F          PUNMO =       F
          TOLZ  = 1.0E-08          TOLE  = 1.0E-05
          SYMDEN=       F          PURIFY=       F

 INITIAL GUESS ORBITALS GENERATED BY HUCKEL   ROUTINE.
 HUCKEL GUESS REQUIRES     21583 WORDS.

 STATISTICS FOR GENERATION OF SYMMETRY ORBITAL -Q- MATRIX
 NUMBER OF CARTESIAN ATOMIC ORBITALS=         49
 NUMBER OF SPHERICAL CONTAMINANTS DROPPED=     3
 NUMBER OF LINEARLY DEPENDENT MOS DROPPED=     0
 TOTAL NUMBER OF MOS IN VARIATION SPACE=      46

 SYMMETRIES FOR INITIAL GUESS ORBITALS FOLLOW.   BOTH SET(S).
    16 ORBITALS ARE OCCUPIED (    7 CORE ORBITALS).
     8=?A1      9=?B1     10=?A1     11=B2      12=?A1     13=?B1     14=A2  
    15=?B1     16=?A1     17=B2      18=?A1     19=?B1     20=A1      21=A1  
    22=A1      23=A1      24=A1      25=A1      26=A1  
 ...... END OF INITIAL ORBITAL SELECTION ......
 STEP CPU TIME =     0.01 TOTAL CPU TIME =        0.0 (    0.0 MIN)
 TOTAL WALL CLOCK TIME=        0.0 SECONDS, CPU UTILIZATION IS  66.67%

                    ----------------------
                    AO INTEGRAL TECHNOLOGY
                    ----------------------
     S,P,L SHELL ROTATED AXIS INTEGRALS, REPROGRAMMED BY
        KAZUYA ISHIMURA (IMS) AND JOSE SIERRA (SYNSTAR).
     S,P,D,L SHELL ROTATED AXIS INTEGRALS PROGRAMMED BY
        KAZUYA ISHIMURA (INSTITUTE FOR MOLECULAR SCIENCE).
     S,P,D,F,G SHELL TO TOTAL QUARTET ANGULAR MOMENTUM SUM 5,
        ERIC PROGRAM BY GRAHAM FLETCHER (ELORET AND NASA ADVANCED
        SUPERCOMPUTING DIVISION, AMES RESEARCH CENTER).
     S,P,D,F,G,L SHELL GENERAL RYS QUADRATURE PROGRAMMED BY
        MICHEL DUPUIS (PACIFIC NORTHWEST NATIONAL LABORATORY).

          --------------------
          2 ELECTRON INTEGRALS
          --------------------

 THE -PK- OPTION IS OFF, THE INTEGRALS ARE NOT IN SUPERMATRIX FORM.
 STORING   15000 INTEGRALS/RECORD ON DISK, USING 12 BYTES/INTEGRAL.
 TWO ELECTRON INTEGRAL EVALUATION REQUIRES   90606 WORDS OF MEMORY.
 II,JST,KST,LST =  1  1  1  1 NREC =         1 INTLOC =    1
 II,JST,KST,LST =  2  1  1  1 NREC =         1 INTLOC =    2
 II,JST,KST,LST =  3  1  1  1 NREC =         1 INTLOC =    7
 II,JST,KST,LST =  4  1  1  1 NREC =         1 INTLOC =   22
 II,JST,KST,LST =  5  1  1  1 NREC =         1 INTLOC =   56
 II,JST,KST,LST =  6  1  1  1 NREC =         1 INTLOC =  125
 II,JST,KST,LST =  7  1  1  1 NREC =         1 INTLOC =  329
 II,JST,KST,LST =  8  1  1  1 NREC =         1 INTLOC =  776
 II,JST,KST,LST =  9  1  1  1 NREC =         1 INTLOC = 2864
 II,JST,KST,LST = 10  1  1  1 NREC =         1 INTLOC = 2864
 II,JST,KST,LST = 11  1  1  1 NREC =         1 INTLOC = 2864
 II,JST,KST,LST = 12  1  1  1 NREC =         1 INTLOC = 2864
 II,JST,KST,LST = 13  1  1  1 NREC =         1 INTLOC = 2864
 II,JST,KST,LST = 14  1  1  1 NREC =         1 INTLOC = 2864
 II,JST,KST,LST = 15  1  1  1 NREC =         1 INTLOC = 2864
 II,JST,KST,LST = 16  1  1  1 NREC =         1 INTLOC = 5131
 II,JST,KST,LST = 17  1  1  1 NREC =         1 INTLOC = 8321
 II,JST,KST,LST = 18  1  1  1 NREC =         1 INTLOC =12759
 II,JST,KST,LST = 19  1  1  1 NREC =         3 INTLOC =  742
 II,JST,KST,LST = 20  1  1  1 NREC =         5 INTLOC = 1978
 TOTAL NUMBER OF NONZERO TWO-ELECTRON INTEGRALS =              178741
         12 INTEGRAL RECORDS WERE STORED ON DISK FILE  8.
  ...... END OF TWO-ELECTRON INTEGRALS .....
 STEP CPU TIME =     0.17 TOTAL CPU TIME =        0.2 (    0.0 MIN)
 TOTAL WALL CLOCK TIME=        0.2 SECONDS, CPU UTILIZATION IS 100.00%

          --------------------------
               R-PBE SCF CALCULATION
          --------------------------

     NUCLEAR ENERGY =       118.0690870218
     MAXIT =   30     NPUNCH=    2
     EXTRAP=T  DAMP=F  SHIFT=F  RSTRCT=F  DIIS=T  DEM=F  SOSCF=F
         DENSITY MATRIX CONVERGENCE THRESHOLD=  1.00E-05
     COARSE -> FINE DFT GRID SWITCH THRESHOLD=  3.00E-04 (SWITCH IN $DFT)
                   HF -> DFT SWITCH THRESHOLD=  5.00E-03 (SWOFF IN $DFT)
     MEMORY REQUIRED FOR RHF ITERS=    183108 WORDS.

 DFT CODE IS SWITCHING FROM THE FINE GRID NRAD= 96,  NLEB=  302
                      TO THE COARSE GRID NRAD0= 24, NLEB0=  110

     EXCHANGE FUNCTIONAL   =PBE       
     CORRELATION FUNCTIONAL=PBE       
     DFT THRESHOLD         =.460E-07
     GRID CHANGE THRESHOLD =.300E-03
 FOR AN EULER-MACLAURIN QUADRATURE USING  96 RADIAL POINTS:
 SMALLEST GAUSSIAN PRIMITIVE EXPONENT=        0.1313100000 OF TYPE -P-
 ON ATOM NUMBER   1 HAS RADIAL NORMALIZATION=  1.000000
  LARGEST GAUSSIAN PRIMITIVE EXPONENT=    55510.0000000000 OF TYPE -S-
 ON ATOM NUMBER   1 HAS RADIAL NORMALIZATION=  0.999999
 DFT IS SWITCHED OFF, PERFORMING PURE SCF UNTIL SWOFF THRESHOLD IS REACHED.

 ITER EX DEM     TOTAL ENERGY        E CHANGE  DENSITY CHANGE    DIIS ERROR
   1  0  0     -545.8709347754  -545.8709347754   0.393489977   1.433422603
          * * *   INITIATING DIIS PROCEDURE   * * *
   2  1  0     -546.8776731176    -1.0067383422   0.588814089   0.198370336
   3  2  0     -546.9842572832    -0.1065841656   0.086149901   0.144991394
   4  3  0     -547.0327347042    -0.0484774210   0.112911914   0.022708568
   5  4  0     -547.0363941356    -0.0036594314   0.067598158   0.008816603
   6  5  0     -547.0371284297    -0.0007342941   0.019813501   0.002910063
   7  6  0     -547.0372057432    -0.0000773134   0.001354622   0.000307353
 CONVERGED TO SWOFF, SO DFT CALCULATION IS NOW SWITCHED ON.
          * * *   INITIATING DIIS PROCEDURE   * * *
   8  7  0     -548.0954692184    -1.0582634752   0.152085805   0.100466307
   9  8  0     -548.1124973480    -0.0170281297   0.113533315   0.052317623
  10  9  0     -548.1103897331     0.0021076149   0.047477318   0.062545933
  11 10  0     -548.1210503610    -0.0106606279   0.014564894   0.010228489
  12 11  0     -548.1212560831    -0.0002057221   0.000447790   0.000716292
  13 12  0     -548.1212568409    -0.0000007578   0.000276999   0.000042883
 DFT CODE IS SWITCHING BACK TO THE FINE GRID
          * * *   INITIATING DIIS PROCEDURE   * * *
  14 13  0     -548.1331476811    -0.0118908401   0.025614129   0.010161689
  15 14  0     -548.1334117014    -0.0002640204   0.008189763   0.003572669
  16 15  0     -548.1334005402     0.0000111612   0.002857055   0.004604204
  17 16  0     -548.1334377345    -0.0000371942   0.000821341   0.000663788
  18 17  0     -548.1334386735    -0.0000009390   0.000109947   0.000086398
  19 18  0     -548.1334387002    -0.0000000267   0.000049655   0.000006713
  20 19  0     -548.1334387003    -0.0000000001   0.000011018   0.000001609
  21 20  0     -548.1334387003     0.0000000000   0.000000078   0.000000193

          -----------------
          DENSITY CONVERGED
          -----------------
     TIME TO FORM FOCK OPERATORS=       4.3 SECONDS (       0.2 SEC/ITER)
     TIME TO SOLVE SCF EQUATIONS=       0.0 SECONDS (       0.0 SEC/ITER)

 FINAL R-PBE ENERGY IS     -548.1334387003 AFTER  21 ITERATIONS
 DFT EXCHANGE + CORRELATION ENERGY =       -42.8113399766
 TOTAL ELECTRON NUMBER             =        32.0000023152

          ------------
          EIGENVECTORS
          ------------

                      1          2          3          4          5
                  -88.1827   -18.7894   -18.7894    -7.8167    -5.8390
                     A1         B1         A1         A1         B1  
    1  S  1  S    1.002990   0.000000  -0.000057  -0.273904   0.000000
    2  S  1  S   -0.010213   0.000000   0.000439   1.039414   0.000000
    3  S  1  S    0.002041   0.000000  -0.000171   0.042548   0.000000
    4  S  1  S   -0.000329   0.000000   0.010712  -0.008146   0.000000
    5  S  1  X    0.000000  -0.000273   0.000000   0.000000   0.995592
    6  S  1  Y    0.000000   0.000000   0.000000   0.000000   0.000000
    7  S  1  Z    0.000064   0.000000   0.000011   0.015287   0.000000
    8  S  1  X    0.000000  -0.000492   0.000000   0.000000   0.011377
    9  S  1  Y    0.000000   0.000000   0.000000   0.000000   0.000000
   10  S  1  Z    0.000168   0.000000   0.000738   0.002440   0.000000
   11  S  1  X    0.000000  -0.007215   0.000000   0.000000  -0.000339
   12  S  1  Y    0.000000   0.000000   0.000000   0.000000   0.000000
   13  S  1  Z    0.000045   0.000000   0.003478  -0.000212   0.000000
   14  S  1 XX    0.000320   0.000000  -0.000961   0.002832   0.000000
   15  S  1 YY   -0.000181   0.000000   0.000230  -0.001470   0.000000
   16  S  1 ZZ   -0.000140   0.000000   0.000731  -0.001362   0.000000
   17  S  1 XY    0.000000   0.000000   0.000000   0.000000   0.000000
   18  S  1 XZ    0.000000   0.000919   0.000000   0.000000   0.002131
   19  S  1 YZ    0.000000   0.000000   0.000000   0.000000   0.000000
   20  O  2  S    0.000018   0.703235   0.703245  -0.000494   0.001258
   21  O  2  S    0.000026   0.026610   0.026625   0.000031  -0.001414
   22  O  2  S   -0.000428  -0.014097  -0.013937  -0.002317   0.000263
   23  O  2  X   -0.000140   0.001318   0.001459  -0.000229  -0.002163
   24  O  2  Y    0.000000   0.000000   0.000000   0.000000   0.000000
   25  O  2  Z    0.000060  -0.000449  -0.000270   0.000142   0.000983
   26  O  2  X   -0.000322  -0.002105  -0.004081  -0.002411   0.000388
   27  O  2  Y    0.000000   0.000000   0.000000   0.000000   0.000000
   28  O  2  Z    0.000143   0.001906   0.000009   0.001182   0.000186
   29  O  2 XX   -0.000117   0.000189  -0.000331   0.000338  -0.000919
   30  O  2 YY    0.000085   0.000044   0.000070  -0.000110   0.000723
   31  O  2 ZZ    0.000032  -0.000233   0.000261  -0.000227   0.000196
   32  O  2 XY    0.000000   0.000000   0.000000   0.000000   0.000000
   33  O  2 XZ    0.000116   0.000233  -0.000190   0.000022   0.001075
   34  O  2 YZ    0.000000   0.000000   0.000000   0.000000   0.000000
   35  O  3  S    0.000018  -0.703235   0.703245  -0.000494  -0.001258
   36  O  3  S    0.000026  -0.026610   0.026625   0.000031   0.001414
   37  O  3  S   -0.000428   0.014097  -0.013937  -0.002317  -0.000263
   38  O  3  X    0.000140   0.001318  -0.001459   0.000229  -0.002163
   39  O  3  Y    0.000000   0.000000   0.000000   0.000000   0.000000
   40  O  3  Z    0.000060   0.000449  -0.000270   0.000142  -0.000983
   41  O  3  X    0.000322  -0.002105   0.004081   0.002411   0.000388
   42  O  3  Y    0.000000   0.000000   0.000000   0.000000   0.000000
   43  O  3  Z    0.000143  -0.001906   0.000009   0.001182  -0.000186
   44  O  3 XX   -0.000117  -0.000189  -0.000331   0.000338   0.000919
   45  O  3 YY    0.000085  -0.000044   0.000070  -0.000110  -0.000723
   46  O  3 ZZ    0.000032   0.000233   0.000261  -0.000227  -0.000196
   47  O  3 XY    0.000000   0.000000   0.000000   0.000000   0.000000
   48  O  3 XZ   -0.000116   0.000233   0.000190  -0.000022   0.001075
   49  O  3 YZ    0.000000   0.000000   0.000000   0.000000   0.000000

                      6          7          8          9         10
                   -5.8346    -5.8285    -1.1334    -1.0444    -0.5388
                     B2         A1         A1         B1         A1  
    1  S  1  S    0.000000   0.004457   0.057048   0.000000   0.055962
    2  S  1  S    0.000000  -0.016734  -0.169538   0.000000  -0.147022
    3  S  1  S    0.000000   0.000701   0.317749   0.000000   0.367322
    4  S  1  S    0.000000  -0.001163   0.105453   0.000000   0.251175
    5  S  1  X    0.000000   0.000000   0.000000  -0.177401   0.000000
    6  S  1  Y    0.996667   0.000000   0.000000   0.000000   0.000000
    7  S  1  Z    0.000000   0.996542  -0.060564   0.000000   0.026147
    8  S  1  X    0.000000   0.000000   0.000000   0.317776   0.000000
    9  S  1  Y    0.009565   0.000000   0.000000   0.000000   0.000000
   10  S  1  Z    0.000000   0.009274   0.107444   0.000000  -0.050208
   11  S  1  X    0.000000   0.000000   0.000000   0.005435   0.000000
   12  S  1  Y   -0.000389   0.000000   0.000000   0.000000   0.000000
   13  S  1  Z    0.000000  -0.000415  -0.007620   0.000000  -0.059887
   14  S  1 XX    0.000000  -0.000820   0.073410   0.000000  -0.015509
   15  S  1 YY    0.000000  -0.000577  -0.043513   0.000000   0.019665
   16  S  1 ZZ    0.000000   0.001398  -0.029897   0.000000  -0.004155
   17  S  1 XY    0.000000   0.000000   0.000000   0.000000   0.000000
   18  S  1 XZ    0.000000   0.000000   0.000000   0.075080   0.000000
   19  S  1 YZ    0.001112   0.000000   0.000000   0.000000   0.000000
   20  O  2  S    0.000000  -0.000450  -0.123929   0.143622   0.102869
   21  O  2  S    0.000000   0.000545   0.238701  -0.281654  -0.210780
   22  O  2  S    0.000000   0.000681   0.239634  -0.290215  -0.361786
   23  O  2  X    0.000000   0.001086   0.134478  -0.128524   0.227122
   24  O  2  Y    0.000309   0.000000   0.000000   0.000000   0.000000
   25  O  2  Z    0.000000  -0.000106  -0.037687   0.046088  -0.117784
   26  O  2  X    0.000000   0.000158   0.040188  -0.023612   0.118604
   27  O  2  Y   -0.000069   0.000000   0.000000   0.000000   0.000000
   28  O  2  Z    0.000000  -0.000197  -0.002845   0.013537  -0.054181
   29  O  2 XX    0.000000   0.000611   0.016938  -0.009289   0.010578
   30  O  2 YY    0.000000  -0.000219  -0.007178   0.006221  -0.008032
   31  O  2 ZZ    0.000000  -0.000392  -0.009759   0.003068  -0.002546
   32  O  2 XY    0.000346   0.000000   0.000000   0.000000   0.000000
   33  O  2 XZ    0.000000  -0.000081  -0.004933   0.010411  -0.010710
   34  O  2 YZ   -0.000187   0.000000   0.000000   0.000000   0.000000
   35  O  3  S    0.000000  -0.000450  -0.123929  -0.143622   0.102869
   36  O  3  S    0.000000   0.000545   0.238701   0.281654  -0.210780
   37  O  3  S    0.000000   0.000681   0.239634   0.290215  -0.361786
   38  O  3  X    0.000000  -0.001086  -0.134478  -0.128524  -0.227122
   39  O  3  Y    0.000309   0.000000   0.000000   0.000000   0.000000
   40  O  3  Z    0.000000  -0.000106  -0.037687  -0.046088  -0.117784
   41  O  3  X    0.000000  -0.000158  -0.040188  -0.023612  -0.118604
   42  O  3  Y   -0.000069   0.000000   0.000000   0.000000   0.000000
   43  O  3  Z    0.000000  -0.000197  -0.002845  -0.013537  -0.054181
   44  O  3 XX    0.000000   0.000611   0.016938   0.009289   0.010578
   45  O  3 YY    0.000000  -0.000219  -0.007178  -0.006221  -0.008032
   46  O  3 ZZ    0.000000  -0.000392  -0.009759  -0.003068  -0.002546
   47  O  3 XY   -0.000346   0.000000   0.000000   0.000000   0.000000
   48  O  3 XZ    0.000000   0.000081   0.004933   0.010411   0.010710
   49  O  3 YZ   -0.000187   0.000000   0.000000   0.000000   0.000000

                     11         12         13         14         15
                   -0.4905    -0.4782    -0.4484    -0.3747    -0.3572
                     B2         A1         B1         A2         B1  
    1  S  1  S    0.000000  -0.005187   0.000000   0.000000   0.000000
    2  S  1  S    0.000000   0.022060   0.000000   0.000000   0.000000
    3  S  1  S    0.000000  -0.024111   0.000000   0.000000   0.000000
    4  S  1  S    0.000000  -0.130549   0.000000   0.000000   0.000000
    5  S  1  X    0.000000   0.000000  -0.157835   0.000000  -0.007456
    6  S  1  Y   -0.202019   0.000000   0.000000   0.000000   0.000000
    7  S  1  Z    0.000000  -0.188702   0.000000   0.000000   0.000000
    8  S  1  X    0.000000   0.000000   0.357192   0.000000   0.008206
    9  S  1  Y    0.458117   0.000000   0.000000   0.000000   0.000000
   10  S  1  Z    0.000000   0.422650   0.000000   0.000000   0.000000
   11  S  1  X    0.000000   0.000000  -0.031469   0.000000   0.064646
   12  S  1  Y    0.183221   0.000000   0.000000   0.000000   0.000000
   13  S  1  Z    0.000000   0.153491   0.000000   0.000000   0.000000
   14  S  1 XX    0.000000  -0.079965   0.000000   0.000000   0.000000
   15  S  1 YY    0.000000  -0.005297   0.000000   0.000000   0.000000
   16  S  1 ZZ    0.000000   0.085263   0.000000   0.000000   0.000000
   17  S  1 XY    0.000000   0.000000   0.000000  -0.167523   0.000000
   18  S  1 XZ    0.000000   0.000000   0.026605   0.000000  -0.159625
   19  S  1 YZ    0.054927   0.000000   0.000000   0.000000   0.000000
   20  O  2  S    0.000000   0.021532  -0.068413   0.000000   0.002850
   21  O  2  S    0.000000  -0.043510   0.140928   0.000000  -0.011415
   22  O  2  S    0.000000  -0.061550   0.263047   0.000000  -0.008902
   23  O  2  X    0.000000   0.194033  -0.344242   0.000000   0.240126
   24  O  2  Y    0.328908   0.000000   0.000000   0.457282   0.000000
   25  O  2  Z    0.000000   0.278014   0.199274   0.000000   0.395534
   26  O  2  X    0.000000   0.121642  -0.170807   0.000000   0.146242
   27  O  2  Y    0.182118   0.000000   0.000000   0.303036   0.000000
   28  O  2  Z    0.000000   0.152778   0.118019   0.000000   0.265436
   29  O  2 XX    0.000000   0.020242  -0.012553   0.000000   0.013460
   30  O  2 YY    0.000000  -0.005378   0.010455   0.000000  -0.000885
   31  O  2 ZZ    0.000000  -0.014864   0.002098   0.000000  -0.012575
   32  O  2 XY    0.027550   0.000000   0.000000   0.021420   0.000000
   33  O  2 XZ    0.000000   0.015129   0.016288   0.000000   0.019593
   34  O  2 YZ   -0.008457   0.000000   0.000000  -0.006247   0.000000
   35  O  3  S    0.000000   0.021532   0.068413   0.000000  -0.002850
   36  O  3  S    0.000000  -0.043510  -0.140928   0.000000   0.011415
   37  O  3  S    0.000000  -0.061550  -0.263047   0.000000   0.008902
   38  O  3  X    0.000000  -0.194033  -0.344242   0.000000   0.240126
   39  O  3  Y    0.328908   0.000000   0.000000  -0.457282   0.000000
   40  O  3  Z    0.000000   0.278014  -0.199274   0.000000  -0.395534
   41  O  3  X    0.000000  -0.121642  -0.170807   0.000000   0.146242
   42  O  3  Y    0.182118   0.000000   0.000000  -0.303036   0.000000
   43  O  3  Z    0.000000   0.152778  -0.118019   0.000000  -0.265436
   44  O  3 XX    0.000000   0.020242   0.012553   0.000000  -0.013460
   45  O  3 YY    0.000000  -0.005378  -0.010455   0.000000   0.000885
   46  O  3 ZZ    0.000000  -0.014864  -0.002098   0.000000   0.012575
   47  O  3 XY   -0.027550   0.000000   0.000000   0.021420   0.000000
   48  O  3 XZ    0.000000  -0.015129   0.016288   0.000000   0.019593
   49  O  3 YZ   -0.008457   0.000000   0.000000   0.006247   0.000000

                     16         17         18         19         20
                   -0.2335    -0.0946     0.0237     0.1775     0.3445
                     A1         B2         A1         B1         B2  
    1  S  1  S    0.025302   0.000000   0.011531   0.000000   0.000000
    2  S  1  S   -0.139015   0.000000  -0.124783   0.000000   0.000000
    3  S  1  S    0.083057   0.000000  -0.032447   0.000000   0.000000
    4  S  1  S    0.868826   0.000000   1.115306   0.000000   0.000000
    5  S  1  X    0.000000   0.000000   0.000000  -0.069462   0.000000
    6  S  1  Y    0.000000  -0.211561   0.000000   0.000000   0.285548
    7  S  1  Z    0.129389   0.000000  -0.153161   0.000000   0.000000
    8  S  1  X    0.000000   0.000000   0.000000   0.200460   0.000000
    9  S  1  Y    0.000000   0.550728   0.000000   0.000000  -1.095302
   10  S  1  Z   -0.303006   0.000000   0.424881   0.000000   0.000000
   11  S  1  X    0.000000   0.000000   0.000000   1.838149   0.000000
   12  S  1  Y    0.000000   0.632041   0.000000   0.000000   1.230599
   13  S  1  Z   -0.146001   0.000000   0.854395   0.000000   0.000000
   14  S  1 XX   -0.204937   0.000000  -0.169036   0.000000   0.000000
   15  S  1 YY    0.103187   0.000000   0.178368   0.000000   0.000000
   16  S  1 ZZ    0.101750   0.000000  -0.009332   0.000000   0.000000
   17  S  1 XY    0.000000   0.000000   0.000000   0.000000   0.000000
   18  S  1 XZ    0.000000   0.000000   0.000000  -0.141979   0.000000
   19  S  1 YZ    0.000000  -0.058761   0.000000   0.000000  -0.169932
   20  O  2  S    0.024060   0.000000   0.051366  -0.071930   0.000000
   21  O  2  S   -0.046324   0.000000  -0.097292   0.096307   0.000000
   22  O  2  S   -0.159724   0.000000  -0.505477   1.034717   0.000000
   23  O  2  X   -0.190153   0.000000  -0.285603  -0.002802   0.000000
   24  O  2  Y    0.000000  -0.387241   0.000000   0.000000  -0.019451
   25  O  2  Z    0.318832   0.000000  -0.209141  -0.181005   0.000000
   26  O  2  X   -0.145046   0.000000  -0.357100   0.160293   0.000000
   27  O  2  Y    0.000000  -0.381336   0.000000   0.000000  -0.071421
   28  O  2  Z    0.248718   0.000000  -0.228084  -0.272143   0.000000
   29  O  2 XX   -0.009119   0.000000  -0.008858   0.016697   0.000000
   30  O  2 YY    0.005184   0.000000   0.009331  -0.007097   0.000000
   31  O  2 ZZ    0.003935   0.000000  -0.000473  -0.009600   0.000000
   32  O  2 XY    0.000000  -0.003188   0.000000   0.000000  -0.038301
   33  O  2 XZ    0.007867   0.000000   0.005815  -0.008620   0.000000
   34  O  2 YZ    0.000000  -0.001520   0.000000   0.000000   0.007046
   35  O  3  S    0.024060   0.000000   0.051366   0.071930   0.000000
   36  O  3  S   -0.046324   0.000000  -0.097292  -0.096307   0.000000
   37  O  3  S   -0.159724   0.000000  -0.505477  -1.034717   0.000000
   38  O  3  X    0.190153   0.000000   0.285603  -0.002802   0.000000
   39  O  3  Y    0.000000  -0.387241   0.000000   0.000000  -0.019451
   40  O  3  Z    0.318832   0.000000  -0.209141   0.181005   0.000000
   41  O  3  X    0.145046   0.000000   0.357100   0.160293   0.000000
   42  O  3  Y    0.000000  -0.381336   0.000000   0.000000  -0.071421
   43  O  3  Z    0.248718   0.000000  -0.228084   0.272143   0.000000
   44  O  3 XX   -0.009119   0.000000  -0.008858  -0.016697   0.000000
   45  O  3 YY    0.005184   0.000000   0.009331   0.007097   0.000000
   46  O  3 ZZ    0.003935   0.000000  -0.000473   0.009600   0.000000
   47  O  3 XY    0.000000   0.003188   0.000000   0.000000   0.038301
   48  O  3 XZ   -0.007867   0.000000  -0.005815  -0.008620   0.000000
   49  O  3 YZ    0.000000  -0.001520   0.000000   0.000000   0.007046

                     21         22         23         24         25
                    0.3585     0.4349     0.5268     0.5382     0.5447
                     A1         A1         B1         B2         A1  
    1  S  1  S    0.001832  -0.104778   0.000000   0.000000  -0.018725
    2  S  1  S   -0.000088  -0.312699   0.000000   0.000000  -0.041787
    3  S  1  S    0.025462  -1.520590   0.000000   0.000000  -0.259952
    4  S  1  S    0.419864   2.642429   0.000000   0.000000  -0.130674
    5  S  1  X    0.000000   0.000000   0.198783   0.000000   0.000000
    6  S  1  Y    0.000000   0.000000   0.000000   0.045644   0.000000
    7  S  1  Z    0.279554  -0.039346   0.000000   0.000000  -0.017906
    8  S  1  X    0.000000   0.000000  -0.567814   0.000000   0.000000
    9  S  1  Y    0.000000   0.000000   0.000000  -0.190787   0.000000
   10  S  1  Z   -1.035382   0.224869   0.000000   0.000000   0.066357
   11  S  1  X    0.000000   0.000000   1.004565   0.000000   0.000000
   12  S  1  Y    0.000000   0.000000   0.000000   0.269048   0.000000
   13  S  1  Z    1.232511   0.059148   0.000000   0.000000  -0.269546
   14  S  1 XX    0.299303   0.363361   0.000000   0.000000  -0.003147
   15  S  1 YY   -0.057863  -0.262970   0.000000   0.000000   0.829463
   16  S  1 ZZ   -0.241440  -0.100391   0.000000   0.000000  -0.826315
   17  S  1 XY    0.000000   0.000000   0.000000   0.000000   0.000000
   18  S  1 XZ    0.000000   0.000000   0.734451   0.000000   0.000000
   19  S  1 YZ    0.000000   0.000000   0.000000   0.960771   0.000000
   20  O  2  S    0.008626   0.022252  -0.010928   0.000000  -0.014887
   21  O  2  S    0.032579  -0.002931  -0.055927   0.000000   0.049171
   22  O  2  S   -0.380420  -0.728190   0.587935   0.000000   0.155292
   23  O  2  X    0.118162   0.240100  -0.268346   0.000000   0.081488
   24  O  2  Y    0.000000   0.000000   0.000000  -0.198720   0.000000
   25  O  2  Z   -0.024665  -0.099617   0.217245   0.000000   0.188616
   26  O  2  X   -0.147730  -0.404656   0.375149   0.000000   0.171585
   27  O  2  Y    0.000000   0.000000   0.000000  -0.013810   0.000000
   28  O  2  Z    0.025800   0.194499   0.021256   0.000000  -0.044686
   29  O  2 XX   -0.041638  -0.054663   0.024802   0.000000  -0.008122
   30  O  2 YY    0.016706   0.033227  -0.033512   0.000000   0.039966
   31  O  2 ZZ    0.024932   0.021437   0.008710   0.000000  -0.031844
   32  O  2 XY    0.000000   0.000000   0.000000   0.022275   0.000000
   33  O  2 XZ   -0.013590   0.046817  -0.050924   0.000000  -0.028427
   34  O  2 YZ    0.000000   0.000000   0.000000   0.044293   0.000000
   35  O  3  S    0.008626   0.022252   0.010928   0.000000  -0.014887
   36  O  3  S    0.032579  -0.002931   0.055927   0.000000   0.049171
   37  O  3  S   -0.380420  -0.728190  -0.587935   0.000000   0.155292
   38  O  3  X   -0.118162  -0.240100  -0.268346   0.000000  -0.081488
   39  O  3  Y    0.000000   0.000000   0.000000  -0.198720   0.000000
   40  O  3  Z   -0.024665  -0.099617  -0.217245   0.000000   0.188616
   41  O  3  X    0.147730   0.404656   0.375149   0.000000  -0.171585
   42  O  3  Y    0.000000   0.000000   0.000000  -0.013810   0.000000
   43  O  3  Z    0.025800   0.194499  -0.021256   0.000000  -0.044686
   44  O  3 XX   -0.041638  -0.054663  -0.024802   0.000000  -0.008122
   45  O  3 YY    0.016706   0.033227   0.033512   0.000000   0.039966
   46  O  3 ZZ    0.024932   0.021437  -0.008710   0.000000  -0.031844
   47  O  3 XY    0.000000   0.000000   0.000000  -0.022275   0.000000
   48  O  3 XZ    0.013590  -0.046817  -0.050924   0.000000   0.028427
   49  O  3 YZ    0.000000   0.000000   0.000000   0.044293   0.000000

                     26         27         28         29         30
                    0.6228     0.6540     0.6653     0.7273     0.7914
                     A1         B1         A2         A2         B1  
    1  S  1  S   -0.064584   0.000000   0.000000   0.000000   0.000000
    2  S  1  S   -0.294752   0.000000   0.000000   0.000000   0.000000
    3  S  1  S   -1.092421   0.000000   0.000000   0.000000   0.000000
    4  S  1  S   -0.816845   0.000000   0.000000   0.000000   0.000000
    5  S  1  X    0.000000  -0.240003   0.000000   0.000000  -0.079927
    6  S  1  Y    0.000000   0.000000   0.000000   0.000000   0.000000
    7  S  1  Z    0.085191   0.000000   0.000000   0.000000   0.000000
    8  S  1  X    0.000000   1.268440   0.000000   0.000000   0.377877
    9  S  1  Y    0.000000   0.000000   0.000000   0.000000   0.000000
   10  S  1  Z   -0.481558   0.000000   0.000000   0.000000   0.000000
   11  S  1  X    0.000000  -0.190319   0.000000   0.000000  -0.457490
   12  S  1  Y    0.000000   0.000000   0.000000   0.000000   0.000000
   13  S  1  Z   -0.028968   0.000000   0.000000   0.000000   0.000000
   14  S  1 XX   -0.396271   0.000000   0.000000   0.000000   0.000000
   15  S  1 YY    0.146328   0.000000   0.000000   0.000000   0.000000
   16  S  1 ZZ    0.249943   0.000000   0.000000   0.000000   0.000000
   17  S  1 XY    0.000000   0.000000   1.011133   0.261299   0.000000
   18  S  1 XZ    0.000000   0.100555   0.000000   0.000000   0.203864
   19  S  1 YZ    0.000000   0.000000   0.000000   0.000000   0.000000
   20  O  2  S   -0.056655  -0.051289   0.000000   0.000000  -0.000166
   21  O  2  S    0.075368   0.098640   0.000000   0.000000  -0.072709
   22  O  2  S    0.699713   0.441683   0.000000   0.000000   0.059482
   23  O  2  X   -0.284287  -0.144238   0.000000   0.000000  -0.142383
   24  O  2  Y    0.000000   0.000000   0.291956  -0.599128   0.000000
   25  O  2  Z   -0.027568   0.170193   0.000000   0.000000  -0.587357
   26  O  2  X    1.151211   1.002683   0.000000   0.000000   0.492804
   27  O  2  Y    0.000000   0.000000   0.177663   0.827581   0.000000
   28  O  2  Z   -0.337306  -0.505423   0.000000   0.000000   0.721725
   29  O  2 XX   -0.008395  -0.020585   0.000000   0.000000  -0.034016
   30  O  2 YY   -0.002039   0.020278   0.000000   0.000000   0.014145
   31  O  2 ZZ    0.010434   0.000307   0.000000   0.000000   0.019871
   32  O  2 XY    0.000000   0.000000  -0.058306  -0.025606   0.000000
   33  O  2 XZ    0.000092   0.032861   0.000000   0.000000  -0.012936
   34  O  2 YZ    0.000000   0.000000   0.044277   0.009122   0.000000
   35  O  3  S   -0.056655   0.051289   0.000000   0.000000   0.000166
   36  O  3  S    0.075368  -0.098640   0.000000   0.000000   0.072709
   37  O  3  S    0.699713  -0.441683   0.000000   0.000000  -0.059482
   38  O  3  X    0.284287  -0.144238   0.000000   0.000000  -0.142383
   39  O  3  Y    0.000000   0.000000  -0.291956   0.599128   0.000000
   40  O  3  Z   -0.027568  -0.170193   0.000000   0.000000   0.587357
   41  O  3  X   -1.151211   1.002683   0.000000   0.000000   0.492804
   42  O  3  Y    0.000000   0.000000  -0.177663  -0.827581   0.000000
   43  O  3  Z   -0.337306   0.505423   0.000000   0.000000  -0.721725
   44  O  3 XX   -0.008395   0.020585   0.000000   0.000000   0.034016
   45  O  3 YY   -0.002039  -0.020278   0.000000   0.000000  -0.014145
   46  O  3 ZZ    0.010434  -0.000307   0.000000   0.000000  -0.019871
   47  O  3 XY    0.000000   0.000000  -0.058306  -0.025606   0.000000
   48  O  3 XZ   -0.000092   0.032861   0.000000   0.000000  -0.012936
   49  O  3 YZ    0.000000   0.000000  -0.044277  -0.009122   0.000000

                     31         32         33         34         35
                    0.8237     0.8664     1.1846     1.3538     1.6789
                     A1         B2         B1         A1         A1  
    1  S  1  S    0.014891   0.000000   0.000000   0.014687  -0.008301
    2  S  1  S    0.077718   0.000000   0.000000  -0.179186  -0.038215
    3  S  1  S    0.264751   0.000000   0.000000  -0.048595  -0.126838
    4  S  1  S   -0.108820   0.000000   0.000000   1.235659   2.288488
    5  S  1  X    0.000000   0.000000  -0.223658   0.000000   0.000000
    6  S  1  Y    0.000000  -0.033029   0.000000   0.000000   0.000000
    7  S  1  Z   -0.044293   0.000000   0.000000  -0.104535   0.001635
    8  S  1  X    0.000000   0.000000   0.768000   0.000000   0.000000
    9  S  1  Y    0.000000   0.083825   0.000000   0.000000   0.000000
   10  S  1  Z    0.154408   0.000000   0.000000   0.423782   0.125382
   11  S  1  X    0.000000   0.000000   0.379732   0.000000   0.000000
   12  S  1  Y    0.000000  -0.926719   0.000000   0.000000   0.000000
   13  S  1  Z   -0.890545   0.000000   0.000000   0.200234   0.723331
   14  S  1 XX    0.220907   0.000000   0.000000   1.174082   0.148356
   15  S  1 YY    0.094395   0.000000   0.000000  -0.707126  -0.131608
   16  S  1 ZZ   -0.315302   0.000000   0.000000  -0.466956  -0.016749
   17  S  1 XY    0.000000   0.000000   0.000000   0.000000   0.000000
   18  S  1 XZ    0.000000   0.000000   0.833531   0.000000   0.000000
   19  S  1 YZ    0.000000  -0.231440   0.000000   0.000000   0.000000
   20  O  2  S   -0.004744   0.000000  -0.036043   0.033055   0.001789
   21  O  2  S    0.091144   0.000000   0.210196  -0.111431   1.243947
   22  O  2  S   -0.047557   0.000000   0.486975  -0.834874  -2.215618
   23  O  2  X   -0.240517   0.000000   0.657856  -0.534396   0.021183
   24  O  2  Y    0.000000  -0.607312   0.000000   0.000000   0.000000
   25  O  2  Z   -0.525462   0.000000  -0.046012   0.362193   0.061362
   26  O  2  X    0.211428   0.000000  -0.153609  -0.075719  -0.731194
   27  O  2  Y    0.000000   1.053744   0.000000   0.000000   0.000000
   28  O  2  Z    0.992024   0.000000   0.017803  -0.038811  -0.022922
   29  O  2 XX   -0.007877   0.000000  -0.103844  -0.028671   0.218757
   30  O  2 YY    0.000562   0.000000  -0.009526  -0.065013  -0.078898
   31  O  2 ZZ    0.007315   0.000000   0.113370   0.093683  -0.139860
   32  O  2 XY    0.000000  -0.046606   0.000000   0.000000   0.000000
   33  O  2 XZ   -0.036164   0.000000  -0.039927  -0.098651   0.001599
   34  O  2 YZ    0.000000   0.004689   0.000000   0.000000   0.000000
   35  O  3  S   -0.004744   0.000000   0.036043   0.033055   0.001789
   36  O  3  S    0.091144   0.000000  -0.210196  -0.111431   1.243947
   37  O  3  S   -0.047557   0.000000  -0.486975  -0.834874  -2.215618
   38  O  3  X    0.240517   0.000000   0.657856   0.534396  -0.021183
   39  O  3  Y    0.000000  -0.607312   0.000000   0.000000   0.000000
   40  O  3  Z   -0.525462   0.000000   0.046012   0.362193   0.061362
   41  O  3  X   -0.211428   0.000000  -0.153609   0.075719   0.731194
   42  O  3  Y    0.000000   1.053744   0.000000   0.000000   0.000000
   43  O  3  Z    0.992024   0.000000  -0.017803  -0.038811  -0.022922
   44  O  3 XX   -0.007877   0.000000   0.103844  -0.028671   0.218757
   45  O  3 YY    0.000562   0.000000   0.009526  -0.065013  -0.078898
   46  O  3 ZZ    0.007315   0.000000  -0.113370   0.093683  -0.139860
   47  O  3 XY    0.000000   0.046606   0.000000   0.000000   0.000000
   48  O  3 XZ    0.036164   0.000000  -0.039927   0.098651  -0.001599
   49  O  3 YZ    0.000000   0.004689   0.000000   0.000000   0.000000

                     36         37         38         39         40
                    1.7122     2.0207     2.0226     2.0635     2.0926
                     B1         A2         B1         B2         A1  
    1  S  1  S    0.000000   0.000000   0.000000   0.000000  -0.001188
    2  S  1  S    0.000000   0.000000   0.000000   0.000000  -0.036393
    3  S  1  S    0.000000   0.000000   0.000000   0.000000  -0.062670
    4  S  1  S    0.000000   0.000000   0.000000   0.000000   0.045164
    5  S  1  X   -0.013987   0.000000  -0.004440   0.000000   0.000000
    6  S  1  Y    0.000000   0.000000   0.000000  -0.035401   0.000000
    7  S  1  Z    0.000000   0.000000   0.000000   0.000000   0.000673
    8  S  1  X    0.348493   0.000000  -0.002081   0.000000   0.000000
    9  S  1  Y    0.000000   0.000000   0.000000   0.151741   0.000000
   10  S  1  Z    0.000000   0.000000   0.000000   0.000000  -0.022156
   11  S  1  X    1.604346   0.000000   0.065546   0.000000   0.000000
   12  S  1  Y    0.000000   0.000000   0.000000   0.008774   0.000000
   13  S  1  Z    0.000000   0.000000   0.000000   0.000000   0.019374
   14  S  1 XX    0.000000   0.000000   0.000000   0.000000   0.132723
   15  S  1 YY    0.000000   0.000000   0.000000   0.000000  -0.239672
   16  S  1 ZZ    0.000000   0.000000   0.000000   0.000000   0.106949
   17  S  1 XY    0.000000   0.037205   0.000000   0.000000   0.000000
   18  S  1 XZ    0.164445   0.000000  -0.030937   0.000000   0.000000
   19  S  1 YZ    0.000000   0.000000   0.000000  -0.109013   0.000000
   20  O  2  S   -0.004118   0.000000  -0.000453   0.000000   0.002649
   21  O  2  S   -1.274626   0.000000  -0.018724   0.000000  -0.090101
   22  O  2  S    2.368987   0.000000   0.043032   0.000000   0.032194
   23  O  2  X    0.085628   0.000000   0.019077   0.000000  -0.065222
   24  O  2  Y    0.000000  -0.012639   0.000000   0.032490   0.000000
   25  O  2  Z    0.060050   0.000000   0.020009   0.000000   0.023095
   26  O  2  X    0.324463   0.000000  -0.034310   0.000000   0.046572
   27  O  2  Y    0.000000   0.023724   0.000000  -0.053251   0.000000
   28  O  2  Z   -0.387564   0.000000  -0.036081   0.000000  -0.015082
   29  O  2 XX   -0.081959   0.000000  -0.180212   0.000000  -0.016553
   30  O  2 YY    0.088167   0.000000   0.613511   0.000000   0.593932
   31  O  2 ZZ   -0.006208   0.000000  -0.433299   0.000000  -0.577378
   32  O  2 XY    0.000000   0.362946   0.000000  -0.030289   0.000000
   33  O  2 XZ    0.173923   0.000000  -0.321418   0.000000  -0.210563
   34  O  2 YZ    0.000000   0.607601   0.000000   0.710827   0.000000
   35  O  3  S    0.004118   0.000000   0.000453   0.000000   0.002649
   36  O  3  S    1.274626   0.000000   0.018724   0.000000  -0.090101
   37  O  3  S   -2.368987   0.000000  -0.043032   0.000000   0.032194
   38  O  3  X    0.085628   0.000000   0.019077   0.000000   0.065222
   39  O  3  Y    0.000000   0.012639   0.000000   0.032490   0.000000
   40  O  3  Z   -0.060050   0.000000  -0.020009   0.000000   0.023095
   41  O  3  X    0.324463   0.000000  -0.034310   0.000000  -0.046572
   42  O  3  Y    0.000000  -0.023724   0.000000  -0.053251   0.000000
   43  O  3  Z    0.387564   0.000000   0.036081   0.000000  -0.015082
   44  O  3 XX    0.081959   0.000000   0.180212   0.000000  -0.016553
   45  O  3 YY   -0.088167   0.000000  -0.613511   0.000000   0.593932
   46  O  3 ZZ    0.006208   0.000000   0.433299   0.000000  -0.577378
   47  O  3 XY    0.000000   0.362946   0.000000   0.030289   0.000000
   48  O  3 XZ    0.173923   0.000000  -0.321418   0.000000   0.210563
   49  O  3 YZ    0.000000  -0.607601   0.000000   0.710827   0.000000

                     41         42         43         44         45
                    2.2624     2.4134     2.5359     2.5411     2.9054
                     B2         B1         A1         A2         A1  
    1  S  1  S    0.000000   0.000000  -0.008558   0.000000  -0.070801
    2  S  1  S    0.000000   0.000000  -0.100167   0.000000  -0.294155
    3  S  1  S    0.000000   0.000000  -0.247134   0.000000  -1.295170
    4  S  1  S    0.000000   0.000000  -0.473166   0.000000  -1.576200
    5  S  1  X    0.000000   0.014650   0.000000   0.000000   0.000000
    6  S  1  Y    0.087542   0.000000   0.000000   0.000000   0.000000
    7  S  1  Z    0.000000   0.000000   0.086331   0.000000   0.065346
    8  S  1  X    0.000000  -0.240523   0.000000   0.000000   0.000000
    9  S  1  Y   -0.375326   0.000000   0.000000   0.000000   0.000000
   10  S  1  Z    0.000000   0.000000  -0.468019   0.000000  -0.609180
   11  S  1  X    0.000000  -0.153456   0.000000   0.000000   0.000000
   12  S  1  Y   -0.146540   0.000000   0.000000   0.000000   0.000000
   13  S  1  Z    0.000000   0.000000  -0.318977   0.000000  -0.169099
   14  S  1 XX    0.000000   0.000000   0.472636   0.000000  -1.046302
   15  S  1 YY    0.000000   0.000000  -0.001925   0.000000   0.563626
   16  S  1 ZZ    0.000000   0.000000  -0.470711   0.000000   0.482676
   17  S  1 XY    0.000000   0.000000   0.000000   0.763872   0.000000
   18  S  1 XZ    0.000000   0.653045   0.000000   0.000000   0.000000
   19  S  1 YZ   -0.307088   0.000000   0.000000   0.000000   0.000000
   20  O  2  S    0.000000   0.001316  -0.006442   0.000000  -0.045301
   21  O  2  S    0.000000   0.346748  -0.456602   0.000000  -0.497975
   22  O  2  S    0.000000  -0.392489   0.650710   0.000000   1.825288
   23  O  2  X    0.000000   0.126800  -0.138826   0.000000   0.254280
   24  O  2  Y   -0.069203   0.000000   0.000000   0.018452   0.000000
   25  O  2  Z    0.000000  -0.061112   0.017169   0.000000  -0.131681
   26  O  2  X    0.000000  -0.102576   0.412348   0.000000   0.895603
   27  O  2  Y    0.239777   0.000000   0.000000   0.256454   0.000000
   28  O  2  Z    0.000000   0.292485   0.205123   0.000000  -0.383694
   29  O  2 XX    0.000000   0.322783   0.555568   0.000000   0.616278
   30  O  2 YY    0.000000   0.170187  -0.145681   0.000000  -0.472282
   31  O  2 ZZ    0.000000  -0.492970  -0.409886   0.000000  -0.143996
   32  O  2 XY    0.753500   0.000000   0.000000   0.709042   0.000000
   33  O  2 XZ    0.000000   0.572996   0.502952   0.000000  -0.670104
   34  O  2 YZ    0.016566   0.000000   0.000000  -0.401856   0.000000
   35  O  3  S    0.000000  -0.001316  -0.006442   0.000000  -0.045301
   36  O  3  S    0.000000  -0.346748  -0.456602   0.000000  -0.497975
   37  O  3  S    0.000000   0.392489   0.650710   0.000000   1.825288
   38  O  3  X    0.000000   0.126800   0.138826   0.000000  -0.254280
   39  O  3  Y   -0.069203   0.000000   0.000000  -0.018452   0.000000
   40  O  3  Z    0.000000   0.061112   0.017169   0.000000  -0.131681
   41  O  3  X    0.000000  -0.102576  -0.412348   0.000000  -0.895603
   42  O  3  Y    0.239777   0.000000   0.000000  -0.256454   0.000000
   43  O  3  Z    0.000000  -0.292485   0.205123   0.000000  -0.383694
   44  O  3 XX    0.000000  -0.322783   0.555568   0.000000   0.616278
   45  O  3 YY    0.000000  -0.170187  -0.145681   0.000000  -0.472282
   46  O  3 ZZ    0.000000   0.492970  -0.409886   0.000000  -0.143996
   47  O  3 XY   -0.753500   0.000000   0.000000   0.709042   0.000000
   48  O  3 XZ    0.000000   0.572996  -0.502952   0.000000   0.670104
   49  O  3 YZ    0.016566   0.000000   0.000000   0.401856   0.000000

                     46
                    2.9807
                     B1  
    1  S  1  S    0.000000
    2  S  1  S    0.000000
    3  S  1  S    0.000000
    4  S  1  S    0.000000
    5  S  1  X   -0.224626
    6  S  1  Y    0.000000
    7  S  1  Z    0.000000
    8  S  1  X    1.840458
    9  S  1  Y    0.000000
   10  S  1  Z    0.000000
   11  S  1  X    0.441172
   12  S  1  Y    0.000000
   13  S  1  Z    0.000000
   14  S  1 XX    0.000000
   15  S  1 YY    0.000000
   16  S  1 ZZ    0.000000
   17  S  1 XY    0.000000
   18  S  1 XZ    0.674091
   19  S  1 YZ    0.000000
   20  O  2  S   -0.044439
   21  O  2  S   -0.477621
   22  O  2  S    1.651141
   23  O  2  X    0.253687
   24  O  2  Y    0.000000
   25  O  2  Z   -0.054796
   26  O  2  X    0.852180
   27  O  2  Y    0.000000
   28  O  2  Z   -0.280516
   29  O  2 XX    0.826120
   30  O  2 YY   -0.411349
   31  O  2 ZZ   -0.414771
   32  O  2 XY    0.000000
   33  O  2 XZ   -0.407952
   34  O  2 YZ    0.000000
   35  O  3  S    0.044439
   36  O  3  S    0.477621
   37  O  3  S   -1.651141
   38  O  3  X    0.253687
   39  O  3  Y    0.000000
   40  O  3  Z    0.054796
   41  O  3  X    0.852180
   42  O  3  Y    0.000000
   43  O  3  Z    0.280516
   44  O  3 XX   -0.826120
   45  O  3 YY    0.411349
   46  O  3 ZZ    0.414771
   47  O  3 XY    0.000000
   48  O  3 XZ   -0.407952
   49  O  3 YZ    0.000000
 ...... END OF RHF CALCULATION ......
 STEP CPU TIME =     4.39 TOTAL CPU TIME =        4.6 (    0.1 MIN)
 TOTAL WALL CLOCK TIME=        4.6 SECONDS, CPU UTILIZATION IS  99.78%

     ---------------------------------------------------------------------
     PROPERTIES FOR THE PBE      DFT FUNCTIONAL (RHF  TYPE) DENSITY MATRIX
     ---------------------------------------------------------------------

          -----------------
          ENERGY COMPONENTS
          -----------------

         WAVEFUNCTION NORMALIZATION =       1.0000000000

                ONE ELECTRON ENERGY =    -989.6594570419
                TWO ELECTRON ENERGY =     323.4569313197
           NUCLEAR REPULSION ENERGY =     118.0690870218
                                      ------------------
                       TOTAL ENERGY =    -548.1334387003

 ELECTRON-ELECTRON POTENTIAL ENERGY =     323.4569313197
  NUCLEUS-ELECTRON POTENTIAL ENERGY =   -1538.6831989291
   NUCLEUS-NUCLEUS POTENTIAL ENERGY =     118.0690870218
                                      ------------------
             TOTAL POTENTIAL ENERGY =   -1097.1571805875
               TOTAL KINETIC ENERGY =     549.0237418872
                 VIRIAL RATIO (V/T) =       1.9983783885

          ---------------------------------------
          MULLIKEN AND LOWDIN POPULATION ANALYSES
          ---------------------------------------

     ATOMIC MULLIKEN POPULATION IN EACH MOLECULAR ORBITAL

                      1          2          3          4          5

                  2.000000   2.000000   2.000000   2.000000   2.000000

    1             2.000070   0.001602   0.001591   2.003462   1.999094
    2            -0.000035   0.999199   0.999204  -0.001731   0.000453
    3            -0.000035   0.999199   0.999204  -0.001731   0.000453

                      6          7          8          9         10

                  2.000000   2.000000   2.000000   2.000000   2.000000

    1             1.999963   1.999766   0.726081   0.510694   0.557242
    2             0.000019   0.000117   0.636960   0.744653   0.721379
    3             0.000019   0.000117   0.636960   0.744653   0.721379

                     11         12         13         14         15

                  2.000000   2.000000   2.000000   2.000000   2.000000

    1             0.913704   0.821229   0.269680   0.182567   0.186559
    2             0.543148   0.589385   0.865160   0.908717   0.906720
    3             0.543148   0.589385   0.865160   0.908717   0.906720

                     16

                  2.000000

    1             1.253220
    2             0.373390
    3             0.373390

               ----- POPULATIONS IN EACH AO -----
                             MULLIKEN      LOWDIN
              1  S  1  S      2.00026     1.99571
              2  S  1  S      2.01067     1.94624
              3  S  1  S      0.88587     0.52596
              4  S  1  S      1.02923     0.59721
              5  S  1  X      1.99696     1.95785
              6  S  1  Y      1.99600     1.95395
              7  S  1  Z      1.99702     1.96238
              8  S  1  X      0.72089     0.61923
              9  S  1  Y      0.63551     0.58037
             10  S  1  Z      0.81933     0.78662
             11  S  1  X      0.04949     0.24034
             12  S  1  Y      0.26581     0.33878
             13  S  1  Z      0.27444     0.39146
             14  S  1 XX      0.11369     0.38794
             15  S  1 YY      0.23215     0.28195
             16  S  1 ZZ      0.18257     0.31108
             17  S  1 XY      0.20030     0.22725
             18  S  1 XZ      0.01635     0.24313
             19  S  1 YZ      0.00000     0.01611
             20  O  2  S      1.99799     1.98014
             21  O  2  S      0.82228     0.63181
             22  O  2  S      0.94921     0.51551
             23  O  2  X      0.98892     0.94760
             24  O  2  Y      0.89505     0.84548
             25  O  2  Z      1.08237     1.04581
             26  O  2  X      0.39450     0.52394
             27  O  2  Y      0.54597     0.58238
             28  O  2  Z      0.57882     0.62695
             29  O  2 XX      0.00430     0.21054
             30  O  2 YY      0.00782     0.19022
             31  O  2 ZZ      0.00984     0.18848
             32  O  2 XY      0.00864     0.01260
             33  O  2 XZ      0.00103     0.01545
             34  O  2 YZ      0.00000     0.00132
             35  O  3  S      1.99799     1.98014
             36  O  3  S      0.82228     0.63181
             37  O  3  S      0.94921     0.51551
             38  O  3  X      0.98892     0.94760
             39  O  3  Y      0.89505     0.84548
             40  O  3  Z      1.08237     1.04581
             41  O  3  X      0.39450     0.52394
             42  O  3  Y      0.54597     0.58238
             43  O  3  Z      0.57882     0.62695
             44  O  3 XX      0.00430     0.21054
             45  O  3 YY      0.00782     0.19022
             46  O  3 ZZ      0.00984     0.18848
             47  O  3 XY      0.00864     0.01260
             48  O  3 XZ      0.00103     0.01545
             49  O  3 YZ      0.00000     0.00132

          ----- MULLIKEN ATOMIC OVERLAP POPULATIONS -----
          (OFF-DIAGONAL ELEMENTS NEED TO BE MULTIPLIED BY 2)

             1           2           3

    1   14.8396151
    2    0.2934537   7.9868527
    3    0.2934537   0.0064324   7.9868527

          TOTAL MULLIKEN AND LOWDIN ATOMIC POPULATIONS
       ATOM         MULL.POP.    CHARGE          LOW.POP.     CHARGE
    1 S            15.426523    0.573477        15.363569    0.636431
    2 O             8.286739   -0.286739         8.318216   -0.318216
    3 O             8.286739   -0.286739         8.318216   -0.318216

          MULLIKEN SPHERICAL HARMONIC POPULATIONS
       ATOM           S       P       D      F      G      H      I    TOTAL
    1 S             5.93    8.76    0.75   0.00   0.00   0.00   0.00   15.43
    2 O             3.77    4.49    0.03   0.00   0.00   0.00   0.00    8.29
    3 O             3.77    4.49    0.03   0.00   0.00   0.00   0.00    8.29

          -------------------------------
          BOND ORDER AND VALENCE ANALYSIS     BOND ORDER THRESHOLD=0.050
          -------------------------------

                   BOND                       BOND                       BOND
  ATOM PAIR DIST  ORDER      ATOM PAIR DIST  ORDER      ATOM PAIR DIST  ORDER
    1   2  1.300  2.000        1   3  1.300  2.000        2   3  2.443  0.163

                       TOTAL       BONDED        FREE
      ATOM            VALENCE     VALENCE     VALENCE
    1 S                 4.001       4.001       0.000
    2 O                 2.163       2.163       0.000
    3 O                 2.163       2.163       0.000

          ---------------------
          ELECTROSTATIC MOMENTS
          ---------------------

 POINT   1           X           Y           Z (BOHR)    CHARGE
                 0.000000    0.000000    0.000000        0.00 (A.U.)
         DX          DY          DZ         /D/  (DEBYE)
     0.000000    0.000000   -0.217610    0.217610
 ...... END OF PROPERTY EVALUATION ......
 STEP CPU TIME =     0.02 TOTAL CPU TIME =        4.6 (    0.1 MIN)
 TOTAL WALL CLOCK TIME=        4.6 SECONDS, CPU UTILIZATION IS 100.00%
               580000  WORDS OF DYNAMIC MEMORY USED
 EXECUTION OF GAMESS TERMINATED NORMALLY Thu Feb 26 00:14:35 2015
 DDI: 263624 bytes (0.3 MB / 0 MWords) used by master data server.

 ----------------------------------------
 CPU timing information for all processes
 ========================================
 0: 4.574 + 0.31 = 4.606
 ----------------------------------------
 ddikick.x: exited gracefully.
----- accounting info -----
Files used on the master node dftfe.crc.nd.edu were:
-rw-r--r-- 1 pmehta1 campus   37475 Feb 26 00:14 /tmp/gamess.dat
-rw-r--r-- 1 pmehta1 campus     142 Feb 26 00:14 /tmp/gamess.F05
-rw-r--r-- 1 pmehta1 campus 2160288 Feb 26 00:14 /tmp/gamess.F08
-rw-r--r-- 1 pmehta1 campus 1220440 Feb 26 00:14 /tmp/gamess.F10
Thu Feb 26 00:14:38 EST 2015
0.233u 0.189s 0:08.03 5.1%	0+0k 0+112io 0pf+0w
