----- GAMESS execution script 'rungms' -----
This job is running on host dftfe.crc.nd.edu
under operating system Linux at Thu Feb 26 00:13:57 EST 2015
Available scratch disk space (Kbyte units) at beginning of the job is
Filesystem     1K-blocks     Used Available Use% Mounted on
/dev/sda2      147771864 22811160 117454272  17% /
GAMESS temporary binary files will be written to /tmp
GAMESS supplementary output files will be written to /tmp
Copying input file gamess.inp to your run's scratch directory...

 Distributed Data Interface kickoff program.
 Initiating 1 compute processes on 1 nodes to run the following command:
 /opt/crc/gamess/2012R1/gamess/gamess.00.x gamess 

          ******************************************************
          *         GAMESS VERSION =  1 MAY 2012 (R1)          *
          *             FROM IOWA STATE UNIVERSITY             *
          * M.W.SCHMIDT, K.K.BALDRIDGE, J.A.BOATZ, S.T.ELBERT, *
          *   M.S.GORDON, J.H.JENSEN, S.KOSEKI, N.MATSUNAGA,   *
          *          K.A.NGUYEN, S.J.SU, T.L.WINDUS,           *
          *       TOGETHER WITH M.DUPUIS, J.A.MONTGOMERY       *
          *         J.COMPUT.CHEM.  14, 1347-1363(1993)        *
          **************** 64 BIT LINUX VERSION ****************

  SINCE 1993, STUDENTS AND POSTDOCS WORKING AT IOWA STATE UNIVERSITY
  AND ALSO IN THEIR VARIOUS JOBS AFTER LEAVING ISU HAVE MADE IMPORTANT
  CONTRIBUTIONS TO THE CODE:
     IVANA ADAMOVIC, CHRISTINE AIKENS, YURI ALEXEEV, POOJA ARORA,
     ANDREY ASADCHEV, ROB BELL, PRADIPTA BANDYOPADHYAY, JONATHAN BENTZ,
     BRETT BODE, GALINA CHABAN, WEI CHEN, CHEOL HO CHOI, PAUL DAY,
     ALBERT DEFUSCO, TIM DUDLEY, DMITRI FEDOROV, GRAHAM FLETCHER,
     MARK FREITAG, KURT GLAESEMANN, DAN KEMP, GRANT MERRILL,
     NORIYUKI MINEZAWA, JONATHAN MULLIN, TAKESHI NAGATA,
     SEAN NEDD, HEATHER NETZLOFF, BOSILJKA NJEGIC, RYAN OLSON, MIKE PAK,
     JIM SHOEMAKER, LYUDMILA SLIPCHENKO, SAROM SOK, JIE SONG,
     TETSUYA TAKETSUGU, SIMON WEBB, SOOHAENG YOO, FEDERICO ZAHARIEV

  ADDITIONAL CODE HAS BEEN PROVIDED BY COLLABORATORS IN OTHER GROUPS:
     IOWA STATE UNIVERSITY:
          JOE IVANIC, LAIMUTIS BYTAUTAS, KLAUS RUEDENBERG
     UNIVERSITY OF TOKYO: KIMIHIKO HIRAO, TAKAHITO NAKAJIMA,
          TAKAO TSUNEDA, MUNEAKI KAMIYA, SUSUMU YANAGISAWA,
          KIYOSHI YAGI, MAHITO CHIBA, SEIKEN TOKURA, NAOAKI KAWAKAMI
     UNIVERSITY OF AARHUS: FRANK JENSEN
     UNIVERSITY OF IOWA: VISVALDAS KAIRYS, HUI LI
     NATIONAL INST. OF STANDARDS AND TECHNOLOGY: WALT STEVENS, DAVID GARMER
     UNIVERSITY OF PISA: BENEDETTA MENNUCCI, JACOPO TOMASI
     UNIVERSITY OF MEMPHIS: HENRY KURTZ, PRAKASHAN KORAMBATH
     UNIVERSITY OF ALBERTA: TOBY ZENG, MARIUSZ KLOBUKOWSKI
     UNIVERSITY OF NEW ENGLAND: MARK SPACKMAN
     MIE UNIVERSITY: HIROAKI UMEDA
     MICHIGAN STATE UNIVERSITY:
          KAROL KOWALSKI, MARTA WLOCH, JEFFREY GOUR, JESSE LUTZ, PIOTR PIECUCH
     UNIVERSITY OF SILESIA: MONIKA MUSIAL, STANISLAW KUCHARSKI
     FACULTES UNIVERSITAIRES NOTRE-DAME DE LA PAIX:
          OLIVIER QUINET, BENOIT CHAMPAGNE
     UNIVERSITY OF CALIFORNIA - SANTA BARBARA: BERNARD KIRTMAN
     INSTITUTE FOR MOLECULAR SCIENCE:
          KAZUYA ISHIMURA, MICHIO KATOUDA, AND SHIGERU NAGASE
     UNIVERSITY OF NOTRE DAME: DAN CHIPMAN
     KYUSHU UNIVERSITY:
          HARUYUKI NAKANO,
          FENG LONG GU, JACEK KORCHOWIEC, MARCIN MAKOWSKI, AND YURIKO AOKI,
          HIROTOSHI MORI AND EISAKU MIYOSHI
     PENNSYLVANIA STATE UNIVERSITY:
          TZVETELIN IORDANOV, CHET SWALINA, JONATHAN SKONE,
          SHARON HAMMES-SCHIFFER
     WASEDA UNIVERSITY:
          MASATO KOBAYASHI, TOMOKO AKAMA, TSUGUKI TOUMA,
          TAKESHI YOSHIKAWA, YASUHIRO IKABATA, HIROMI NAKAI
     UNIVERSITY OF NEBRASKA:
          PEIFENG SU, DEJUN SI, NANDUN THELLAMUREGE, YALI WANG, HUI LI
     UNIVERSITY OF ZURICH:
          ROBERTO PEVERATI, KIM BALDRIDGE
     N. COPERNICUS UNIVERSITY AND JACKSON STATE UNIVERSITY:
          MARIA BARYSZ

 EXECUTION OF GAMESS BEGUN Thu Feb 26 00:13:57 2015

            ECHO OF THE FIRST FEW INPUT CARDS -
 INPUT CARD> $BASIS GBASIS=PC1 $END                                                         
 INPUT CARD> $CONTRL COORD=ZMT ISPHER=1 RUNTYP=ENERGY DFTTYP=PBE $END                       
 INPUT CARD>                                                                                
 INPUT CARD> $DATA                                                                          
 INPUT CARD>Title                                                                           
 INPUT CARD>Cnv 2                                                                           
 INPUT CARD>                                                                                
 INPUT CARD>S                                                                               
 INPUT CARD>O 1 1.30                                                                        
 INPUT CARD>O 1 1.30 2 100.0                                                                
 INPUT CARD> $END                                                                           
    1000000 WORDS OF MEMORY AVAILABLE

     BASIS OPTIONS
     -------------
     GBASIS=PC1          IGAUSS=       0      POLAR=NONE    
     NDFUNC=       0     NFFUNC=       0     DIFFSP=       F
     NPFUNC=       0      DIFFS=       F     BASNAM=        


     RUN TITLE
     ---------
 Title                                                                           

 THE POINT GROUP OF THE MOLECULE IS CNV     
 THE ORDER OF THE PRINCIPAL AXIS IS     2

 YOUR FULLY SUBSTITUTED Z-MATRIX IS
 S   
 O      1   1.3000000
 O      1   1.3000000  2  100.0000

 THE MOMENTS OF INERTIA ARE (AMU-ANGSTROM**2)
 IXX=    11.166   IYY=    31.725   IZZ=    42.891

 ATOM      ATOMIC                      COORDINATES (BOHR)
           CHARGE         X                   Y                   Z
 S          16.0     0.0000000000        0.0000000000       -0.7897692002
 O           8.0    -1.8818983195        0.0000000000        0.7893309856
 O           8.0     1.8818983195        0.0000000000        0.7893309856

          INTERNUCLEAR DISTANCES (ANGS.)
          ------------------------------

                1 S          2 O          3 O     

   1 S       0.0000000    1.3000000 *  1.3000000 *
   2 O       1.3000000 *  0.0000000    1.9917156 *
   3 O       1.3000000 *  1.9917156 *  0.0000000  

  * ... LESS THAN  3.000


     ATOMIC BASIS SET
     ----------------
 THE CONTRACTED PRIMITIVE FUNCTIONS HAVE BEEN UNNORMALIZED
 THE CONTRACTED BASIS FUNCTIONS ARE NOW NORMALIZED TO UNITY

  SHELL TYPE  PRIMITIVE        EXPONENT          CONTRACTION COEFFICIENT(S)

 S         

      1   S       1         55510.0000000    0.000587229760
      1   S       2          8326.7000000    0.004532413947
      1   S       3          1895.6000000    0.023265261648
      1   S       4           536.7700000    0.089696133027
      1   S       5           174.6700000    0.254098332277
      1   S       6            62.5780000    0.438665087637
      1   S       7            23.5730000    0.314547135094
      1   S       8             5.8908000    0.032727897102

      2   S       9          8326.7000000   -0.000019755715
      2   S      10          1895.6000000   -0.000043822381
      2   S      11           536.7700000   -0.001730264906
      2   S      12           174.6700000   -0.009381263460
      2   S      13            62.5780000   -0.064050766303
      2   S      14            23.5730000   -0.082478179196
      2   S      15             5.8908000    0.478342956889
      2   S      16             2.1852000    0.626896670208

      3   S      17          1895.6000000    0.000016227260
      3   S      18           536.7700000    0.000191135619
      3   S      19           174.6700000    0.001952069674
      3   S      20            62.5780000    0.010578701087
      3   S      21            23.5730000    0.022164934551
      3   S      22             5.8908000   -0.184968323118
      3   S      23             2.1852000   -0.480920750976
      3   S      24             0.4528200    1.243822243872

      4   S      25             0.1620200    1.000000000000

      5   P      26           395.4500000    0.004642761329
      5   P      27            92.8340000    0.036023396489
      5   P      28            29.2660000    0.149058869978
      5   P      29            10.5950000    0.360033266263
      5   P      30             4.0272000    0.455756476221
      5   P      31             1.5484000    0.206167664178

      6   P      32            92.8340000    0.000169901442
      6   P      33            29.2660000   -0.002541839934
      6   P      34            10.5950000   -0.007867614595
      6   P      35             4.0272000   -0.037231009184
      6   P      36             1.5484000    0.161417246830
      6   P      37             0.4613400    0.902230419976

      7   P      38             0.1313100    1.000000000000

      8   D      39             0.5500000    1.000000000000

 O         

     15   S      40          2306.7000000    0.005424388755
     15   S      41           347.1500000    0.040474749465
     15   S      42            78.8900000    0.180219634554
     15   S      43            21.8760000    0.462370311787
     15   S      44             6.6646000    0.454888396263

     16   S      45           347.1500000   -0.000655003786
     16   S      46            78.8900000   -0.005362052952
     16   S      47            21.8760000   -0.074902158894
     16   S      48             6.6646000   -0.181442579655
     16   S      49             1.0669000    1.102006874042

     17   S      50             0.3070000    1.000000000000

     18   P      51            17.0220000    0.068979967443
     18   P      52             3.6838000    0.351985516325
     18   P      53             0.9923400    0.724036547822

     19   P      54             0.2448700    1.000000000000

     20   D      55             1.0000000    1.000000000000

 TOTAL NUMBER OF BASIS SET SHELLS             =   20
 NUMBER OF CARTESIAN GAUSSIAN BASIS FUNCTIONS =   49
 NOTE: THIS RUN WILL RESTRICT THE MO VARIATION SPACE TO SPHERICAL HARMONICS.
 THE NUMBER OF ORBITALS KEPT IN THE VARIATIONAL SPACE WILL BE PRINTED LATER.
 NUMBER OF ELECTRONS                          =   32
 CHARGE OF MOLECULE                           =    0
 SPIN MULTIPLICITY                            =    1
 NUMBER OF OCCUPIED ORBITALS (ALPHA)          =   16
 NUMBER OF OCCUPIED ORBITALS (BETA )          =   16
 TOTAL NUMBER OF ATOMS                        =    3
 THE NUCLEAR REPULSION ENERGY IS      121.2113189520

     LEBEDEV GRID-BASED DFT OPTIONS
     ------------------------------
     DFTTYP=PBE     
     NRAD  =      96     NLEB  =     302
     NRAD0 =      24     NLEB0 =     110
     SWOFF =    5.00E-03 (PURE SCF -> DFT)
     SWITCH=    3.00E-04 (COARSE -> TIGHT GRID)
     THRESH=    0.00E+00 GTHRE=    1.00E+00

 GRIMME'S EMPIRICAL DISPERSION CORRECTION= F

     $CONTRL OPTIONS
     ---------------
 SCFTYP=RHF          RUNTYP=ENERGY       EXETYP=RUN     
 MPLEVL=       0     CITYP =NONE         CCTYP =NONE         VBTYP =NONE    
 DFTTYP=PBE          TDDFT =NONE    
 MULT  =       1     ICHARG=       0     NZVAR =       0     COORD =ZMT     
 PP    =NONE         RELWFN=NONE         LOCAL =NONE         NUMGRD=       F
 ISPHER=       1     NOSYM =       0     MAXIT =      30     UNITS =ANGS    
 PLTORB=       F     MOLPLT=       F     AIMPAC=       F     FRIEND=        
 NPRINT=       7     IREST =       0     GEOM  =INPUT   
 NORMF =       0     NORMP =       0     ITOL  =      20     ICUT  =       9
 INTTYP=BEST         GRDTYP=BEST         QMTTOL= 1.0E-06

     $SYSTEM OPTIONS
     ---------------
  REPLICATED MEMORY=     1000000 WORDS (ON EVERY NODE).
 DISTRIBUTED MEMDDI=           0 MILLION WORDS IN AGGREGATE,
 MEMDDI DISTRIBUTED OVER   1 PROCESSORS IS           0 WORDS/PROCESSOR.
 TOTAL MEMORY REQUESTED ON EACH PROCESSOR=     1000000 WORDS.
 TIMLIM=      525600.00 MINUTES, OR     365.0 DAYS.
 PARALL= F  BALTYP=  DLB     KDIAG=    0  COREFL= F
 MXSEQ2=     300 MXSEQ3=     150

          ----------------
          PROPERTIES INPUT
          ----------------

     MOMENTS            FIELD           POTENTIAL          DENSITY
 IEMOM =       1   IEFLD =       0   IEPOT =       0   IEDEN =       0
 WHERE =COMASS     WHERE =NUCLEI     WHERE =NUCLEI     WHERE =NUCLEI  
 OUTPUT=BOTH       OUTPUT=BOTH       OUTPUT=BOTH       OUTPUT=BOTH    
 IEMINT=       0   IEFINT=       0                     IEDINT=       0
                                                       MORB  =       0
          EXTRAPOLATION IN EFFECT
          DIIS IN EFFECT
 ORBITAL PRINTING OPTION: NPREO=     1    49     2     1

     -------------------------------
     INTEGRAL TRANSFORMATION OPTIONS
     -------------------------------
     NWORD  =            0
     CUTOFF = 1.0E-09     MPTRAN =       0
     DIRTRF =       F     AOINTS =DUP     

          ----------------------
          INTEGRAL INPUT OPTIONS
          ----------------------
 NOPK  =       1 NORDER=       0 SCHWRZ=       F

   --- ENCODED Z MATRIX ---
 COORD  TYPE   I   J   K   L   M   N
    1      1    3   1
    2      1    2   1
    3      2    2   1   3

 THE DETERMINANT OF THE G MATRIX IS 10**(    -4)

 THE DETERMINANT OF THE G MATRIX IS 10**(    -4)
 * * * WARNING * * *
 YOUR B MATRIX HAS A SMALL DETERMINANT.
 THIS SUGGESTS YOU MAY HAVE BADLY CHOSEN COORDINATES.

     ------------------------------------------
     THE POINT GROUP IS CNV, NAXIS= 2, ORDER= 4
     ------------------------------------------

 -- VARIATIONAL SPACE WILL BE RESTRICTED TO PURE SPHERICAL HARMONICS ONLY --
 AFTER EXCLUDING CONTAMINANT COMBINATIONS FROM THE CARTESIAN GAUSSIAN BASIS
 SET, THE NUMBER OF SPHERICAL HARMONICS KEPT IN THE VARIATION SPACE IS   46

     DIMENSIONS OF THE SYMMETRY SUBSPACES ARE
 A1  =   19     A2  =    5     B1  =   14     B2  =    8

 ..... DONE SETTING UP THE RUN .....
 STEP CPU TIME =     0.01 TOTAL CPU TIME =        0.0 (    0.0 MIN)
 TOTAL WALL CLOCK TIME=        0.0 SECONDS, CPU UTILIZATION IS  50.00%

          ********************
          1 ELECTRON INTEGRALS
          ********************
 ...... END OF ONE-ELECTRON INTEGRALS ......
 STEP CPU TIME =     0.01 TOTAL CPU TIME =        0.0 (    0.0 MIN)
 TOTAL WALL CLOCK TIME=        0.0 SECONDS, CPU UTILIZATION IS 100.00%

          -------------
          GUESS OPTIONS
          -------------
          GUESS =HUCKEL            NORB  =       0          NORDER=       0
          MIX   =       F          PRTMO =       F          PUNMO =       F
          TOLZ  = 1.0E-08          TOLE  = 1.0E-05
          SYMDEN=       F          PURIFY=       F

 INITIAL GUESS ORBITALS GENERATED BY HUCKEL   ROUTINE.
 HUCKEL GUESS REQUIRES     21583 WORDS.

 STATISTICS FOR GENERATION OF SYMMETRY ORBITAL -Q- MATRIX
 NUMBER OF CARTESIAN ATOMIC ORBITALS=         49
 NUMBER OF SPHERICAL CONTAMINANTS DROPPED=     3
 NUMBER OF LINEARLY DEPENDENT MOS DROPPED=     0
 TOTAL NUMBER OF MOS IN VARIATION SPACE=      46

 SYMMETRIES FOR INITIAL GUESS ORBITALS FOLLOW.   BOTH SET(S).
    16 ORBITALS ARE OCCUPIED (    7 CORE ORBITALS).
     8=?A1      9=?B1     10=?A1     11=B2      12=A1      13=B1      14=A2  
    15=B1      16=A1      17=B2      18=B1      19=A1      20=A1      21=A1  
    22=A1      23=A1      24=A1      25=A1      26=A1  
 ...... END OF INITIAL ORBITAL SELECTION ......
 STEP CPU TIME =     0.00 TOTAL CPU TIME =        0.0 (    0.0 MIN)
 TOTAL WALL CLOCK TIME=        0.0 SECONDS, CPU UTILIZATION IS  66.67%

                    ----------------------
                    AO INTEGRAL TECHNOLOGY
                    ----------------------
     S,P,L SHELL ROTATED AXIS INTEGRALS, REPROGRAMMED BY
        KAZUYA ISHIMURA (IMS) AND JOSE SIERRA (SYNSTAR).
     S,P,D,L SHELL ROTATED AXIS INTEGRALS PROGRAMMED BY
        KAZUYA ISHIMURA (INSTITUTE FOR MOLECULAR SCIENCE).
     S,P,D,F,G SHELL TO TOTAL QUARTET ANGULAR MOMENTUM SUM 5,
        ERIC PROGRAM BY GRAHAM FLETCHER (ELORET AND NASA ADVANCED
        SUPERCOMPUTING DIVISION, AMES RESEARCH CENTER).
     S,P,D,F,G,L SHELL GENERAL RYS QUADRATURE PROGRAMMED BY
        MICHEL DUPUIS (PACIFIC NORTHWEST NATIONAL LABORATORY).

          --------------------
          2 ELECTRON INTEGRALS
          --------------------

 THE -PK- OPTION IS OFF, THE INTEGRALS ARE NOT IN SUPERMATRIX FORM.
 STORING   15000 INTEGRALS/RECORD ON DISK, USING 12 BYTES/INTEGRAL.
 TWO ELECTRON INTEGRAL EVALUATION REQUIRES   90606 WORDS OF MEMORY.
 II,JST,KST,LST =  1  1  1  1 NREC =         1 INTLOC =    1
 II,JST,KST,LST =  2  1  1  1 NREC =         1 INTLOC =    2
 II,JST,KST,LST =  3  1  1  1 NREC =         1 INTLOC =    7
 II,JST,KST,LST =  4  1  1  1 NREC =         1 INTLOC =   22
 II,JST,KST,LST =  5  1  1  1 NREC =         1 INTLOC =   56
 II,JST,KST,LST =  6  1  1  1 NREC =         1 INTLOC =  125
 II,JST,KST,LST =  7  1  1  1 NREC =         1 INTLOC =  329
 II,JST,KST,LST =  8  1  1  1 NREC =         1 INTLOC =  776
 II,JST,KST,LST =  9  1  1  1 NREC =         1 INTLOC = 2864
 II,JST,KST,LST = 10  1  1  1 NREC =         1 INTLOC = 2864
 II,JST,KST,LST = 11  1  1  1 NREC =         1 INTLOC = 2864
 II,JST,KST,LST = 12  1  1  1 NREC =         1 INTLOC = 2864
 II,JST,KST,LST = 13  1  1  1 NREC =         1 INTLOC = 2864
 II,JST,KST,LST = 14  1  1  1 NREC =         1 INTLOC = 2864
 II,JST,KST,LST = 15  1  1  1 NREC =         1 INTLOC = 2864
 II,JST,KST,LST = 16  1  1  1 NREC =         1 INTLOC = 5133
 II,JST,KST,LST = 17  1  1  1 NREC =         1 INTLOC = 8486
 II,JST,KST,LST = 18  1  1  1 NREC =         1 INTLOC =12961
 II,JST,KST,LST = 19  1  1  1 NREC =         3 INTLOC = 1521
 II,JST,KST,LST = 20  1  1  1 NREC =         5 INTLOC = 3047
 TOTAL NUMBER OF NONZERO TWO-ELECTRON INTEGRALS =              183247
         13 INTEGRAL RECORDS WERE STORED ON DISK FILE  8.
  ...... END OF TWO-ELECTRON INTEGRALS .....
 STEP CPU TIME =     0.16 TOTAL CPU TIME =        0.2 (    0.0 MIN)
 TOTAL WALL CLOCK TIME=        0.2 SECONDS, CPU UTILIZATION IS  94.74%

          --------------------------
               R-PBE SCF CALCULATION
          --------------------------

     NUCLEAR ENERGY =       121.2113189520
     MAXIT =   30     NPUNCH=    2
     EXTRAP=T  DAMP=F  SHIFT=F  RSTRCT=F  DIIS=T  DEM=F  SOSCF=F
         DENSITY MATRIX CONVERGENCE THRESHOLD=  1.00E-05
     COARSE -> FINE DFT GRID SWITCH THRESHOLD=  3.00E-04 (SWITCH IN $DFT)
                   HF -> DFT SWITCH THRESHOLD=  5.00E-03 (SWOFF IN $DFT)
     MEMORY REQUIRED FOR RHF ITERS=    183108 WORDS.

 DFT CODE IS SWITCHING FROM THE FINE GRID NRAD= 96,  NLEB=  302
                      TO THE COARSE GRID NRAD0= 24, NLEB0=  110

     EXCHANGE FUNCTIONAL   =PBE       
     CORRELATION FUNCTIONAL=PBE       
     DFT THRESHOLD         =.460E-07
     GRID CHANGE THRESHOLD =.300E-03
 FOR AN EULER-MACLAURIN QUADRATURE USING  96 RADIAL POINTS:
 SMALLEST GAUSSIAN PRIMITIVE EXPONENT=        0.1313100000 OF TYPE -P-
 ON ATOM NUMBER   1 HAS RADIAL NORMALIZATION=  1.000000
  LARGEST GAUSSIAN PRIMITIVE EXPONENT=    55510.0000000000 OF TYPE -S-
 ON ATOM NUMBER   1 HAS RADIAL NORMALIZATION=  0.999999
 DFT IS SWITCHED OFF, PERFORMING PURE SCF UNTIL SWOFF THRESHOLD IS REACHED.

 ITER EX DEM     TOTAL ENERGY        E CHANGE  DENSITY CHANGE    DIIS ERROR
   1  0  0     -545.9084010952  -545.9084010952   0.304467166   1.267950275
          * * *   INITIATING DIIS PROCEDURE   * * *
   2  1  0     -546.9067916318    -0.9983905366   0.373391014   0.188736644
   3  2  0     -546.9856753095    -0.0788836778   0.073283510   0.135623620
   4  3  0     -547.0221550656    -0.0364797560   0.019678019   0.013278044
   5  4  0     -547.0229712773    -0.0008162118   0.012301582   0.006452883
   6  5  0     -547.0230763839    -0.0001051065   0.002092783   0.001819460
 CONVERGED TO SWOFF, SO DFT CALCULATION IS NOW SWITCHED ON.
          * * *   INITIATING DIIS PROCEDURE   * * *
   7  6  0     -548.0765088211    -1.0534324372   0.171846955   0.099681539
   8  7  0     -548.0895133862    -0.0130045651   0.130851926   0.067933342
   9  8  0     -548.0879968219     0.0015165643   0.049492009   0.081042803
  10  9  0     -548.1024793964    -0.0144825745   0.014971529   0.008335643
  11 10  0     -548.1026707853    -0.0001913889   0.000376872   0.000830742
  12 11  0     -548.1026719701    -0.0000011848   0.000337872   0.000131029
  13 12  0     -548.1026720262    -0.0000000560   0.000015779   0.000015045
 DFT CODE IS SWITCHING BACK TO THE FINE GRID
          * * *   INITIATING DIIS PROCEDURE   * * *
  14 13  0     -548.1158255593    -0.0131535332   0.014373905   0.010462407
  15 14  0     -548.1160929667    -0.0002674074   0.006437060   0.003860455
  16 15  0     -548.1160629387     0.0000300280   0.003441086   0.005546295
  17 16  0     -548.1161217054    -0.0000587667   0.000305533   0.000509109
  18 17  0     -548.1161221747    -0.0000004692   0.000096697   0.000049838
  19 18  0     -548.1161221856    -0.0000000109   0.000025822   0.000008195
  20 19  0     -548.1161221858    -0.0000000002   0.000003008   0.000001150
  21 20  0     -548.1161221858     0.0000000000   0.000000078   0.000000043

          -----------------
          DENSITY CONVERGED
          -----------------
     TIME TO FORM FOCK OPERATORS=       4.5 SECONDS (       0.2 SEC/ITER)
     TIME TO SOLVE SCF EQUATIONS=       0.0 SECONDS (       0.0 SEC/ITER)

 FINAL R-PBE ENERGY IS     -548.1161221858 AFTER  21 ITERATIONS
 DFT EXCHANGE + CORRELATION ENERGY =       -42.8493776198
 TOTAL ELECTRON NUMBER             =        31.9999950296

          ------------
          EIGENVECTORS
          ------------

                      1          2          3          4          5
                  -88.1816   -18.7536   -18.7536    -7.8234    -5.8429
                     A1         B1         A1         A1         B1  
    1  S  1  S    1.002984   0.000000  -0.000088  -0.273906   0.000000
    2  S  1  S   -0.010203   0.000000   0.000065   1.039546   0.000000
    3  S  1  S    0.002000   0.000000  -0.000986   0.042813   0.000000
    4  S  1  S   -0.000588   0.000000   0.011940  -0.010476   0.000000
    5  S  1  X    0.000000  -0.000268   0.000000   0.000000   0.995775
    6  S  1  Y    0.000000   0.000000   0.000000   0.000000   0.000000
    7  S  1  Z    0.000032   0.000000   0.000093   0.011152   0.000000
    8  S  1  X    0.000000  -0.000339   0.000000   0.000000   0.011507
    9  S  1  Y    0.000000   0.000000   0.000000   0.000000   0.000000
   10  S  1  Z    0.000279   0.000000   0.000919   0.002787   0.000000
   11  S  1  X    0.000000  -0.003726   0.000000   0.000000  -0.000191
   12  S  1  Y    0.000000   0.000000   0.000000   0.000000   0.000000
   13  S  1  Z    0.000004   0.000000   0.005106  -0.000426   0.000000
   14  S  1 XX    0.000105   0.000000   0.000089   0.000954   0.000000
   15  S  1 YY   -0.000120   0.000000  -0.000102  -0.000922   0.000000
   16  S  1 ZZ    0.000015   0.000000   0.000013  -0.000032   0.000000
   17  S  1 XY    0.000000   0.000000   0.000000   0.000000   0.000000
   18  S  1 XZ    0.000000   0.001249   0.000000   0.000000   0.001979
   19  S  1 YZ    0.000000   0.000000   0.000000   0.000000   0.000000
   20  O  2  S    0.000014   0.703213   0.703222  -0.000519   0.001016
   21  O  2  S   -0.000003   0.026516   0.026357  -0.000116  -0.001083
   22  O  2  S   -0.000226  -0.012213  -0.014681  -0.000749   0.000618
   23  O  2  X   -0.000092   0.001274   0.000944  -0.000015  -0.001203
   24  O  2  Y    0.000000   0.000000   0.000000   0.000000   0.000000
   25  O  2  Z    0.000073  -0.001140  -0.000806  -0.000027   0.001277
   26  O  2  X   -0.000184  -0.002411  -0.002725  -0.001406   0.000329
   27  O  2  Y    0.000000   0.000000   0.000000   0.000000   0.000000
   28  O  2  Z    0.000184   0.001906   0.001991   0.001470  -0.000297
   29  O  2 XX   -0.000050  -0.000321   0.000211   0.000143  -0.000185
   30  O  2 YY    0.000071   0.000256  -0.000121  -0.000172   0.000549
   31  O  2 ZZ   -0.000022   0.000065  -0.000090   0.000029  -0.000364
   32  O  2 XY    0.000000   0.000000   0.000000   0.000000   0.000000
   33  O  2 XZ    0.000117  -0.000123   0.000248  -0.000362   0.000886
   34  O  2 YZ    0.000000   0.000000   0.000000   0.000000   0.000000
   35  O  3  S    0.000014  -0.703213   0.703222  -0.000519  -0.001016
   36  O  3  S   -0.000003  -0.026516   0.026357  -0.000116   0.001083
   37  O  3  S   -0.000226   0.012213  -0.014681  -0.000749  -0.000618
   38  O  3  X    0.000092   0.001274  -0.000944   0.000015  -0.001203
   39  O  3  Y    0.000000   0.000000   0.000000   0.000000   0.000000
   40  O  3  Z    0.000073   0.001140  -0.000806  -0.000027  -0.001277
   41  O  3  X    0.000184  -0.002411   0.002725   0.001406   0.000329
   42  O  3  Y    0.000000   0.000000   0.000000   0.000000   0.000000
   43  O  3  Z    0.000184  -0.001906   0.001991   0.001470   0.000297
   44  O  3 XX   -0.000050   0.000321   0.000211   0.000143   0.000185
   45  O  3 YY    0.000071  -0.000256  -0.000121  -0.000172  -0.000549
   46  O  3 ZZ   -0.000022  -0.000065  -0.000090   0.000029   0.000364
   47  O  3 XY    0.000000   0.000000   0.000000   0.000000   0.000000
   48  O  3 XZ   -0.000117  -0.000123  -0.000248   0.000362   0.000886
   49  O  3 YZ    0.000000   0.000000   0.000000   0.000000   0.000000

                      6          7          8          9         10
                   -5.8419    -5.8360    -1.1506    -0.9879    -0.5581
                     B2         A1         A1         B1         A1  
    1  S  1  S    0.000000   0.003370   0.055536   0.000000   0.060905
    2  S  1  S    0.000000  -0.012758  -0.162405   0.000000  -0.169944
    3  S  1  S    0.000000   0.000538   0.312478   0.000000   0.387572
    4  S  1  S    0.000000   0.000207   0.097202   0.000000   0.384723
    5  S  1  X    0.000000   0.000000   0.000000  -0.163262   0.000000
    6  S  1  Y    0.996477   0.000000   0.000000   0.000000   0.000000
    7  S  1  Z    0.000000   0.996066  -0.100195   0.000000   0.115078
    8  S  1  X    0.000000   0.000000   0.000000   0.303824   0.000000
    9  S  1  Y    0.010165   0.000000   0.000000   0.000000   0.000000
   10  S  1  Z    0.000000   0.010511   0.171556   0.000000  -0.247771
   11  S  1  X    0.000000   0.000000   0.000000   0.026739   0.000000
   12  S  1  Y   -0.000493   0.000000   0.000000   0.000000   0.000000
   13  S  1  Z    0.000000  -0.000252  -0.006334   0.000000  -0.127816
   14  S  1 XX    0.000000  -0.000458   0.026130   0.000000   0.022494
   15  S  1 YY    0.000000  -0.000804  -0.040967   0.000000   0.027181
   16  S  1 ZZ    0.000000   0.001261   0.014837   0.000000  -0.049674
   17  S  1 XY    0.000000   0.000000   0.000000   0.000000   0.000000
   18  S  1 XZ    0.000000   0.000000   0.000000   0.110212   0.000000
   19  S  1 YZ    0.000855   0.000000   0.000000   0.000000   0.000000
   20  O  2  S    0.000000  -0.000838  -0.120762   0.146560   0.080375
   21  O  2  S    0.000000   0.001052   0.233234  -0.284317  -0.161162
   22  O  2  S    0.000000  -0.000101   0.225636  -0.295169  -0.273080
   23  O  2  X    0.000000   0.001392   0.118970  -0.083720   0.026175
   24  O  2  Y    0.000281   0.000000   0.000000   0.000000   0.000000
   25  O  2  Z    0.000000  -0.000957  -0.084553   0.103553  -0.181360
   26  O  2  X    0.000000  -0.000274   0.029140  -0.017370   0.008767
   27  O  2  Y   -0.000149   0.000000   0.000000   0.000000   0.000000
   28  O  2  Z    0.000000  -0.000100  -0.021547   0.022854  -0.083832
   29  O  2 XX    0.000000   0.000392   0.005986  -0.001876  -0.004752
   30  O  2 YY    0.000000  -0.000420  -0.007271   0.005473  -0.004469
   31  O  2 ZZ    0.000000   0.000027   0.001285  -0.003598   0.009221
   32  O  2 XY    0.000193   0.000000   0.000000   0.000000   0.000000
   33  O  2 XZ    0.000000  -0.000791  -0.015692   0.012334  -0.009700
   34  O  2 YZ   -0.000214   0.000000   0.000000   0.000000   0.000000
   35  O  3  S    0.000000  -0.000838  -0.120762  -0.146560   0.080375
   36  O  3  S    0.000000   0.001052   0.233234   0.284317  -0.161162
   37  O  3  S    0.000000  -0.000101   0.225636   0.295169  -0.273080
   38  O  3  X    0.000000  -0.001392  -0.118970  -0.083720  -0.026175
   39  O  3  Y    0.000281   0.000000   0.000000   0.000000   0.000000
   40  O  3  Z    0.000000  -0.000957  -0.084553  -0.103553  -0.181360
   41  O  3  X    0.000000   0.000274  -0.029140  -0.017370  -0.008767
   42  O  3  Y   -0.000149   0.000000   0.000000   0.000000   0.000000
   43  O  3  Z    0.000000  -0.000100  -0.021547  -0.022854  -0.083832
   44  O  3 XX    0.000000   0.000392   0.005986   0.001876  -0.004752
   45  O  3 YY    0.000000  -0.000420  -0.007271  -0.005473  -0.004469
   46  O  3 ZZ    0.000000   0.000027   0.001285   0.003598   0.009221
   47  O  3 XY   -0.000193   0.000000   0.000000   0.000000   0.000000
   48  O  3 XZ    0.000000   0.000791   0.015692   0.012334   0.009700
   49  O  3 YZ   -0.000214   0.000000   0.000000   0.000000   0.000000

                     11         12         13         14         15
                   -0.4952    -0.4586    -0.4233    -0.3298    -0.3019
                     B2         A1         B1         A2         A1  
    1  S  1  S    0.000000   0.010502   0.000000   0.000000   0.017621
    2  S  1  S    0.000000  -0.001036   0.000000   0.000000  -0.093887
    3  S  1  S    0.000000   0.103261   0.000000   0.000000   0.061755
    4  S  1  S    0.000000  -0.164082   0.000000   0.000000   0.585137
    5  S  1  X    0.000000   0.000000  -0.163324   0.000000   0.000000
    6  S  1  Y   -0.206074   0.000000   0.000000   0.000000   0.000000
    7  S  1  Z    0.000000  -0.148037   0.000000   0.000000   0.138301
    8  S  1  X    0.000000   0.000000   0.377472   0.000000   0.000000
    9  S  1  Y    0.471129   0.000000   0.000000   0.000000   0.000000
   10  S  1  Z    0.000000   0.336944   0.000000   0.000000  -0.314099
   11  S  1  X    0.000000   0.000000   0.051907   0.000000   0.000000
   12  S  1  Y    0.192195   0.000000   0.000000   0.000000   0.000000
   13  S  1  Z    0.000000   0.056724   0.000000   0.000000  -0.132423
   14  S  1 XX    0.000000  -0.084775   0.000000   0.000000  -0.153509
   15  S  1 YY    0.000000  -0.005288   0.000000   0.000000   0.056621
   16  S  1 ZZ    0.000000   0.090063   0.000000   0.000000   0.096888
   17  S  1 XY    0.000000   0.000000   0.000000  -0.154147   0.000000
   18  S  1 XZ    0.000000   0.000000   0.036491   0.000000   0.000000
   19  S  1 YZ    0.078880   0.000000   0.000000   0.000000   0.000000
   20  O  2  S    0.000000   0.064328  -0.071476   0.000000   0.003585
   21  O  2  S    0.000000  -0.132434   0.144949   0.000000  -0.010281
   22  O  2  S    0.000000  -0.230598   0.296216   0.000000  -0.042659
   23  O  2  X    0.000000   0.358390  -0.193655   0.000000   0.021374
   24  O  2  Y    0.314483   0.000000   0.000000   0.466096   0.000000
   25  O  2  Z    0.000000   0.041620   0.325648   0.000000   0.394644
   26  O  2  X    0.000000   0.203438  -0.102742   0.000000   0.023859
   27  O  2  Y    0.168159   0.000000   0.000000   0.325114   0.000000
   28  O  2  Z    0.000000   0.023522   0.176438   0.000000   0.290826
   29  O  2 XX    0.000000   0.020451   0.001771   0.000000   0.005462
   30  O  2 YY    0.000000  -0.007810   0.011077   0.000000   0.006270
   31  O  2 ZZ    0.000000  -0.012641  -0.012848   0.000000  -0.011732
   32  O  2 XY    0.020717   0.000000   0.000000   0.018548   0.000000
   33  O  2 XZ    0.000000  -0.007828   0.015507   0.000000   0.015331
   34  O  2 YZ   -0.016587   0.000000   0.000000  -0.019264   0.000000
   35  O  3  S    0.000000   0.064328   0.071476   0.000000   0.003585
   36  O  3  S    0.000000  -0.132434  -0.144949   0.000000  -0.010281
   37  O  3  S    0.000000  -0.230598  -0.296216   0.000000  -0.042659
   38  O  3  X    0.000000  -0.358390  -0.193655   0.000000  -0.021374
   39  O  3  Y    0.314483   0.000000   0.000000  -0.466096   0.000000
   40  O  3  Z    0.000000   0.041620  -0.325648   0.000000   0.394644
   41  O  3  X    0.000000  -0.203438  -0.102742   0.000000  -0.023859
   42  O  3  Y    0.168159   0.000000   0.000000  -0.325114   0.000000
   43  O  3  Z    0.000000   0.023522  -0.176438   0.000000   0.290826
   44  O  3 XX    0.000000   0.020451  -0.001771   0.000000   0.005462
   45  O  3 YY    0.000000  -0.007810  -0.011077   0.000000   0.006270
   46  O  3 ZZ    0.000000  -0.012641   0.012848   0.000000  -0.011732
   47  O  3 XY   -0.020717   0.000000   0.000000   0.018548   0.000000
   48  O  3 XZ    0.000000   0.007828   0.015507   0.000000  -0.015331
   49  O  3 YZ   -0.016587   0.000000   0.000000   0.019264   0.000000

                     16         17         18         19         20
                   -0.2683    -0.1237     0.0436     0.1050     0.3320
                     B1         B2         B1         A1         B2  
    1  S  1  S    0.000000   0.000000   0.000000   0.012621   0.000000
    2  S  1  S    0.000000   0.000000   0.000000  -0.157267   0.000000
    3  S  1  S    0.000000   0.000000   0.000000  -0.058644   0.000000
    4  S  1  S    0.000000   0.000000   0.000000   1.556015   0.000000
    5  S  1  X   -0.006941   0.000000  -0.129415   0.000000   0.000000
    6  S  1  Y    0.000000  -0.203982   0.000000   0.000000   0.291050
    7  S  1  Z    0.000000   0.000000   0.000000  -0.061086   0.000000
    8  S  1  X    0.014845   0.000000   0.330544   0.000000   0.000000
    9  S  1  Y    0.000000   0.525297   0.000000   0.000000  -1.108552
   10  S  1  Z    0.000000   0.000000   0.000000   0.179782   0.000000
   11  S  1  X    0.171954   0.000000   1.174116   0.000000   0.000000
   12  S  1  Y    0.000000   0.624238   0.000000   0.000000   1.211181
   13  S  1  Z    0.000000   0.000000   0.000000   1.396751   0.000000
   14  S  1 XX    0.000000   0.000000   0.000000  -0.106130   0.000000
   15  S  1 YY    0.000000   0.000000   0.000000   0.288625   0.000000
   16  S  1 ZZ    0.000000   0.000000   0.000000  -0.182495   0.000000
   17  S  1 XY    0.000000   0.000000   0.000000   0.000000   0.000000
   18  S  1 XZ   -0.136964   0.000000  -0.248874   0.000000   0.000000
   19  S  1 YZ    0.000000  -0.136683   0.000000   0.000000  -0.159450
   20  O  2  S   -0.011767   0.000000  -0.045568   0.066306   0.000000
   21  O  2  S    0.024547   0.000000   0.060313  -0.070701   0.000000
   22  O  2  S    0.070772   0.000000   0.527733  -0.937944   0.000000
   23  O  2  X    0.440560   0.000000  -0.065598  -0.150089   0.000000
   24  O  2  Y    0.000000  -0.347992   0.000000   0.000000   0.024107
   25  O  2  Z    0.210159   0.000000  -0.279520   0.037837   0.000000
   26  O  2  X    0.288871   0.000000  -0.098392  -0.380599   0.000000
   27  O  2  Y    0.000000  -0.364721   0.000000   0.000000  -0.065266
   28  O  2  Z    0.160489   0.000000  -0.316417   0.045975   0.000000
   29  O  2 XX    0.024921   0.000000  -0.002663  -0.012347   0.000000
   30  O  2 YY   -0.001638   0.000000   0.001619   0.019261   0.000000
   31  O  2 ZZ   -0.023283   0.000000   0.001044  -0.006914   0.000000
   32  O  2 XY    0.000000  -0.006122   0.000000   0.000000  -0.032903
   33  O  2 XZ   -0.007467   0.000000  -0.002956   0.000918   0.000000
   34  O  2 YZ    0.000000  -0.000820   0.000000   0.000000   0.019782
   35  O  3  S    0.011767   0.000000   0.045568   0.066306   0.000000
   36  O  3  S   -0.024547   0.000000  -0.060313  -0.070701   0.000000
   37  O  3  S   -0.070772   0.000000  -0.527733  -0.937944   0.000000
   38  O  3  X    0.440560   0.000000  -0.065598   0.150089   0.000000
   39  O  3  Y    0.000000  -0.347992   0.000000   0.000000   0.024107
   40  O  3  Z   -0.210159   0.000000   0.279520   0.037837   0.000000
   41  O  3  X    0.288871   0.000000  -0.098392   0.380599   0.000000
   42  O  3  Y    0.000000  -0.364721   0.000000   0.000000  -0.065266
   43  O  3  Z   -0.160489   0.000000   0.316417   0.045975   0.000000
   44  O  3 XX   -0.024921   0.000000   0.002663  -0.012347   0.000000
   45  O  3 YY    0.001638   0.000000  -0.001619   0.019261   0.000000
   46  O  3 ZZ    0.023283   0.000000  -0.001044  -0.006914   0.000000
   47  O  3 XY    0.000000   0.006122   0.000000   0.000000   0.032903
   48  O  3 XZ   -0.007467   0.000000  -0.002956  -0.000918   0.000000
   49  O  3 YZ    0.000000  -0.000820   0.000000   0.000000   0.019782

                     21         22         23         24         25
                    0.3832     0.4335     0.4797     0.6027     0.6074
                     A1         B1         A1         B2         A2  
    1  S  1  S   -0.068480   0.000000  -0.082821   0.000000   0.000000
    2  S  1  S   -0.227054   0.000000  -0.262330   0.000000   0.000000
    3  S  1  S   -1.029978   0.000000  -1.221596   0.000000   0.000000
    4  S  1  S    1.313474   0.000000   2.317205   0.000000   0.000000
    5  S  1  X    0.000000   0.240930   0.000000   0.000000   0.000000
    6  S  1  Y    0.000000   0.000000   0.000000   0.033843   0.000000
    7  S  1  Z   -0.243947   0.000000   0.098064   0.000000   0.000000
    8  S  1  X    0.000000  -0.790295   0.000000   0.000000   0.000000
    9  S  1  Y    0.000000   0.000000   0.000000  -0.168627   0.000000
   10  S  1  Z    0.934130   0.000000  -0.248459   0.000000   0.000000
   11  S  1  X    0.000000   1.378251   0.000000   0.000000   0.000000
   12  S  1  Y    0.000000   0.000000   0.000000   0.328733   0.000000
   13  S  1  Z   -0.747428   0.000000   0.838910   0.000000   0.000000
   14  S  1 XX   -0.225552   0.000000   0.457848   0.000000   0.000000
   15  S  1 YY    0.256924   0.000000  -0.514443   0.000000   0.000000
   16  S  1 ZZ   -0.031371   0.000000   0.056594   0.000000   0.000000
   17  S  1 XY    0.000000   0.000000   0.000000   0.000000   0.991807
   18  S  1 XZ    0.000000   0.559766   0.000000   0.000000   0.000000
   19  S  1 YZ    0.000000   0.000000   0.000000   0.929381   0.000000
   20  O  2  S    0.011462  -0.017718   0.023385   0.000000   0.000000
   21  O  2  S   -0.063445  -0.045971   0.001337   0.000000   0.000000
   22  O  2  S   -0.053080   0.694519  -0.824115   0.000000   0.000000
   23  O  2  X   -0.044116  -0.209159   0.248393   0.000000   0.000000
   24  O  2  Y    0.000000   0.000000   0.000000  -0.353203   0.296141
   25  O  2  Z   -0.008066   0.148948  -0.214506   0.000000   0.000000
   26  O  2  X   -0.092691   0.214940  -0.255307   0.000000   0.000000
   27  O  2  Y    0.000000   0.000000   0.000000  -0.016478   0.102768
   28  O  2  Z    0.058915  -0.185225   0.296700   0.000000   0.000000
   29  O  2 XX    0.017698  -0.001943  -0.042180   0.000000   0.000000
   30  O  2 YY    0.011984  -0.033234   0.023596   0.000000   0.000000
   31  O  2 ZZ   -0.029682   0.035178   0.018584   0.000000   0.000000
   32  O  2 XY    0.000000   0.000000   0.000000   0.047440  -0.009927
   33  O  2 XZ    0.006385  -0.050069   0.058304   0.000000   0.000000
   34  O  2 YZ    0.000000   0.000000   0.000000   0.014492   0.052958
   35  O  3  S    0.011462   0.017718   0.023385   0.000000   0.000000
   36  O  3  S   -0.063445   0.045971   0.001337   0.000000   0.000000
   37  O  3  S   -0.053080  -0.694519  -0.824115   0.000000   0.000000
   38  O  3  X    0.044116  -0.209159  -0.248393   0.000000   0.000000
   39  O  3  Y    0.000000   0.000000   0.000000  -0.353203  -0.296141
   40  O  3  Z   -0.008066  -0.148948  -0.214506   0.000000   0.000000
   41  O  3  X    0.092691   0.214940   0.255307   0.000000   0.000000
   42  O  3  Y    0.000000   0.000000   0.000000  -0.016478  -0.102768
   43  O  3  Z    0.058915   0.185225   0.296700   0.000000   0.000000
   44  O  3 XX    0.017698   0.001943  -0.042180   0.000000   0.000000
   45  O  3 YY    0.011984   0.033234   0.023596   0.000000   0.000000
   46  O  3 ZZ   -0.029682  -0.035178   0.018584   0.000000   0.000000
   47  O  3 XY    0.000000   0.000000   0.000000  -0.047440  -0.009927
   48  O  3 XZ   -0.006385  -0.050069  -0.058304   0.000000   0.000000
   49  O  3 YZ    0.000000   0.000000   0.000000   0.014492  -0.052958

                     26         27         28         29         30
                    0.6277     0.6528     0.7189     0.7547     0.7872
                     A1         B1         A1         A1         A2  
    1  S  1  S    0.054925   0.000000  -0.034678   0.005572   0.000000
    2  S  1  S    0.220079   0.000000  -0.178206   0.033534   0.000000
    3  S  1  S    0.888958   0.000000  -0.607552   0.101946   0.000000
    4  S  1  S    0.827456   0.000000   0.033365  -0.292576   0.000000
    5  S  1  X    0.000000  -0.201218   0.000000   0.000000   0.000000
    6  S  1  Y    0.000000   0.000000   0.000000   0.000000   0.000000
    7  S  1  Z   -0.140510   0.000000   0.098733  -0.011040   0.000000
    8  S  1  X    0.000000   1.109566   0.000000   0.000000   0.000000
    9  S  1  Y    0.000000   0.000000   0.000000   0.000000   0.000000
   10  S  1  Z    0.748057   0.000000  -0.497761  -0.016593   0.000000
   11  S  1  X    0.000000  -0.048466   0.000000   0.000000   0.000000
   12  S  1  Y    0.000000   0.000000   0.000000   0.000000   0.000000
   13  S  1  Z    0.228460   0.000000   0.635712  -0.489206   0.000000
   14  S  1 XX   -0.108916   0.000000  -0.745107  -0.047014   0.000000
   15  S  1 YY   -0.428399   0.000000  -0.124601   0.092377   0.000000
   16  S  1 ZZ    0.537315   0.000000   0.869708  -0.045363   0.000000
   17  S  1 XY    0.000000   0.000000   0.000000   0.000000   0.293137
   18  S  1 XZ    0.000000   0.335930   0.000000   0.000000   0.000000
   19  S  1 YZ    0.000000   0.000000   0.000000   0.000000   0.000000
   20  O  2  S    0.054312  -0.060812  -0.016018  -0.000585   0.000000
   21  O  2  S   -0.092234   0.112362   0.010389  -0.010803   0.000000
   22  O  2  S   -0.645856   0.634284   0.065223   0.180795   0.000000
   23  O  2  X    0.073007  -0.150706  -0.119753  -0.447497   0.000000
   24  O  2  Y    0.000000   0.000000   0.000000   0.000000  -0.590352
   25  O  2  Z   -0.168886   0.192122  -0.059718  -0.496889   0.000000
   26  O  2  X   -0.851715   0.960577   0.120711   0.497319   0.000000
   27  O  2  Y    0.000000   0.000000   0.000000   0.000000   0.872082
   28  O  2  Z    0.558157  -0.794056  -0.623559   0.540570   0.000000
   29  O  2 XX    0.041842   0.009333   0.038593   0.011048   0.000000
   30  O  2 YY   -0.020303   0.002956   0.013394  -0.011641   0.000000
   31  O  2 ZZ   -0.021539  -0.012289  -0.051987   0.000593   0.000000
   32  O  2 XY    0.000000   0.000000   0.000000   0.000000  -0.044096
   33  O  2 XZ   -0.004634   0.000706   0.037033   0.006631   0.000000
   34  O  2 YZ    0.000000   0.000000   0.000000   0.000000   0.021439
   35  O  3  S    0.054312   0.060812  -0.016018  -0.000585   0.000000
   36  O  3  S   -0.092234  -0.112362   0.010389  -0.010803   0.000000
   37  O  3  S   -0.645856  -0.634284   0.065223   0.180795   0.000000
   38  O  3  X   -0.073007  -0.150706   0.119753   0.447497   0.000000
   39  O  3  Y    0.000000   0.000000   0.000000   0.000000   0.590352
   40  O  3  Z   -0.168886  -0.192122  -0.059718  -0.496889   0.000000
   41  O  3  X    0.851715   0.960577  -0.120711  -0.497319   0.000000
   42  O  3  Y    0.000000   0.000000   0.000000   0.000000  -0.872082
   43  O  3  Z    0.558157   0.794056  -0.623559   0.540570   0.000000
   44  O  3 XX    0.041842  -0.009333   0.038593   0.011048   0.000000
   45  O  3 YY   -0.020303  -0.002956   0.013394  -0.011641   0.000000
   46  O  3 ZZ   -0.021539   0.012289  -0.051987   0.000593   0.000000
   47  O  3 XY    0.000000   0.000000   0.000000   0.000000  -0.044096
   48  O  3 XZ    0.004634   0.000706  -0.037033  -0.006631   0.000000
   49  O  3 YZ    0.000000   0.000000   0.000000   0.000000  -0.021439

                     31         32         33         34         35
                    0.8155     0.9313     1.0798     1.4046     1.6397
                     B2         B1         A1         B1         B1  
    1  S  1  S    0.000000   0.000000  -0.013620   0.000000   0.000000
    2  S  1  S    0.000000   0.000000   0.200353   0.000000   0.000000
    3  S  1  S    0.000000   0.000000   0.095688   0.000000   0.000000
    4  S  1  S    0.000000   0.000000  -0.556310   0.000000   0.000000
    5  S  1  X    0.000000   0.042109   0.000000  -0.179219   0.026635
    6  S  1  Y   -0.030686   0.000000   0.000000   0.000000   0.000000
    7  S  1  Z    0.000000   0.000000   0.156324   0.000000   0.000000
    8  S  1  X    0.000000  -0.163397   0.000000   0.730795   0.157283
    9  S  1  Y    0.074498   0.000000   0.000000   0.000000   0.000000
   10  S  1  Z    0.000000   0.000000  -0.501176   0.000000   0.000000
   11  S  1  X    0.000000   0.865706   0.000000   0.699542   0.688318
   12  S  1  Y   -0.863362   0.000000   0.000000   0.000000   0.000000
   13  S  1  Z    0.000000   0.000000  -0.170922   0.000000   0.000000
   14  S  1 XX    0.000000   0.000000  -0.632072   0.000000   0.000000
   15  S  1 YY    0.000000   0.000000   0.808682   0.000000   0.000000
   16  S  1 ZZ    0.000000   0.000000  -0.176611   0.000000   0.000000
   17  S  1 XY    0.000000   0.000000   0.000000   0.000000   0.000000
   18  S  1 XZ    0.000000   0.011845   0.000000   1.161840  -0.234274
   19  S  1 YZ   -0.427723   0.000000   0.000000   0.000000   0.000000
   20  O  2  S    0.000000   0.003628  -0.039531  -0.029031   0.012773
   21  O  2  S    0.000000  -0.028261   0.366767  -0.138896  -1.217255
   22  O  2  S    0.000000   0.193556   0.231941   1.168221   1.646386
   23  O  2  X    0.000000   0.388670   0.490128   0.502205  -0.113832
   24  O  2  Y   -0.559040   0.000000   0.000000   0.000000   0.000000
   25  O  2  Z    0.000000   0.480971  -0.392901  -0.422970   0.132634
   26  O  2  X    0.000000  -0.813080  -0.183236   0.037410   0.349417
   27  O  2  Y    0.992181   0.000000   0.000000   0.000000   0.000000
   28  O  2  Z    0.000000  -0.784567   0.160954  -0.121605  -0.383795
   29  O  2 XX    0.000000   0.066155  -0.057079  -0.004218  -0.190138
   30  O  2 YY    0.000000  -0.032362   0.066155   0.003034   0.215746
   31  O  2 ZZ    0.000000  -0.033794  -0.009076   0.001184  -0.025608
   32  O  2 XY   -0.025795   0.000000   0.000000   0.000000   0.000000
   33  O  2 XZ    0.000000   0.021297  -0.041956   0.122811   0.026601
   34  O  2 YZ    0.028984   0.000000   0.000000   0.000000   0.000000
   35  O  3  S    0.000000  -0.003628  -0.039531   0.029031  -0.012773
   36  O  3  S    0.000000   0.028261   0.366767   0.138896   1.217255
   37  O  3  S    0.000000  -0.193556   0.231941  -1.168221  -1.646386
   38  O  3  X    0.000000   0.388670  -0.490128   0.502205  -0.113832
   39  O  3  Y   -0.559040   0.000000   0.000000   0.000000   0.000000
   40  O  3  Z    0.000000  -0.480971  -0.392901   0.422970  -0.132634
   41  O  3  X    0.000000  -0.813080   0.183236   0.037410   0.349417
   42  O  3  Y    0.992181   0.000000   0.000000   0.000000   0.000000
   43  O  3  Z    0.000000   0.784567   0.160954   0.121605   0.383795
   44  O  3 XX    0.000000  -0.066155  -0.057079   0.004218   0.190138
   45  O  3 YY    0.000000   0.032362   0.066155  -0.003034  -0.215746
   46  O  3 ZZ    0.000000   0.033794  -0.009076  -0.001184   0.025608
   47  O  3 XY    0.025795   0.000000   0.000000   0.000000   0.000000
   48  O  3 XZ    0.000000   0.021297   0.041956   0.122811   0.026601
   49  O  3 YZ    0.028984   0.000000   0.000000   0.000000   0.000000

                     36         37         38         39         40
                    1.6593     2.0513     2.0923     2.0964     2.0987
                     A1         B2         A2         B1         A1  
    1  S  1  S   -0.013827   0.000000   0.000000   0.000000   0.006482
    2  S  1  S   -0.155981   0.000000   0.000000   0.000000   0.018577
    3  S  1  S   -0.329423   0.000000   0.000000   0.000000   0.094987
    4  S  1  S    2.784503   0.000000   0.000000   0.000000  -0.618522
    5  S  1  X    0.000000   0.000000   0.000000  -0.015420   0.000000
    6  S  1  Y    0.000000  -0.016922   0.000000   0.000000   0.000000
    7  S  1  Z   -0.067558   0.000000   0.000000   0.000000  -0.012670
    8  S  1  X    0.000000   0.000000   0.000000   0.085681   0.000000
    9  S  1  Y    0.000000   0.074128   0.000000   0.000000   0.000000
   10  S  1  Z    0.497794   0.000000   0.000000   0.000000  -0.005336
   11  S  1  X    0.000000   0.000000   0.000000   0.034492   0.000000
   12  S  1  Y    0.000000   0.039138   0.000000   0.000000   0.000000
   13  S  1  Z    1.174114   0.000000   0.000000   0.000000  -0.294245
   14  S  1 XX    0.178856   0.000000   0.000000   0.000000   0.042194
   15  S  1 YY   -0.414151   0.000000   0.000000   0.000000  -0.170299
   16  S  1 ZZ    0.235295   0.000000   0.000000   0.000000   0.128106
   17  S  1 XY    0.000000   0.000000   0.007056   0.000000   0.000000
   18  S  1 XZ    0.000000   0.000000   0.000000  -0.262769   0.000000
   19  S  1 YZ    0.000000  -0.073741   0.000000   0.000000   0.000000
   20  O  2  S    0.010121   0.000000   0.000000   0.001487   0.000633
   21  O  2  S    1.195307   0.000000   0.000000  -0.163383  -0.352206
   22  O  2  S   -2.557505   0.000000   0.000000   0.122416   0.585644
   23  O  2  X   -0.148946   0.000000   0.000000  -0.041437  -0.065837
   24  O  2  Y    0.000000   0.045372  -0.050009   0.000000   0.000000
   25  O  2  Z    0.095303   0.000000   0.000000   0.072361   0.015637
   26  O  2  X   -0.484023   0.000000   0.000000   0.007746   0.162873
   27  O  2  Y    0.000000  -0.066645   0.078867   0.000000   0.000000
   28  O  2  Z    0.286384   0.000000   0.000000  -0.077686  -0.067053
   29  O  2 XX   -0.036775   0.000000   0.000000  -0.161495  -0.337886
   30  O  2 YY    0.042267   0.000000   0.000000  -0.477477   0.624207
   31  O  2 ZZ   -0.005492   0.000000   0.000000   0.638972  -0.286322
   32  O  2 XY    0.000000   0.342641   0.584062   0.000000   0.000000
   33  O  2 XZ   -0.209232   0.000000   0.000000   0.251821  -0.302815
   34  O  2 YZ    0.000000   0.618958   0.404268   0.000000   0.000000
   35  O  3  S    0.010121   0.000000   0.000000  -0.001487   0.000633
   36  O  3  S    1.195307   0.000000   0.000000   0.163383  -0.352206
   37  O  3  S   -2.557505   0.000000   0.000000  -0.122416   0.585644
   38  O  3  X    0.148946   0.000000   0.000000  -0.041437   0.065837
   39  O  3  Y    0.000000   0.045372   0.050009   0.000000   0.000000
   40  O  3  Z    0.095303   0.000000   0.000000  -0.072361   0.015637
   41  O  3  X    0.484023   0.000000   0.000000   0.007746  -0.162873
   42  O  3  Y    0.000000  -0.066645  -0.078867   0.000000   0.000000
   43  O  3  Z    0.286384   0.000000   0.000000   0.077686  -0.067053
   44  O  3 XX   -0.036775   0.000000   0.000000   0.161495  -0.337886
   45  O  3 YY    0.042267   0.000000   0.000000   0.477477   0.624207
   46  O  3 ZZ   -0.005492   0.000000   0.000000  -0.638972  -0.286322
   47  O  3 XY    0.000000  -0.342641   0.584062   0.000000   0.000000
   48  O  3 XZ    0.209232   0.000000   0.000000   0.251821   0.302815
   49  O  3 YZ    0.000000   0.618958  -0.404268   0.000000   0.000000

                     41         42         43         44         45
                    2.3588     2.3684     2.4367     2.6196     2.9228
                     A2         B1         B2         A1         B1  
    1  S  1  S    0.000000   0.000000   0.000000  -0.006457   0.000000
    2  S  1  S    0.000000   0.000000   0.000000  -0.052511   0.000000
    3  S  1  S    0.000000   0.000000   0.000000  -0.148595   0.000000
    4  S  1  S    0.000000   0.000000   0.000000  -0.139513   0.000000
    5  S  1  X    0.000000   0.061336   0.000000   0.000000  -0.209853
    6  S  1  Y    0.000000   0.000000   0.095476   0.000000   0.000000
    7  S  1  Z    0.000000   0.000000   0.000000  -0.069585   0.000000
    8  S  1  X    0.000000  -0.148462   0.000000   0.000000   1.660243
    9  S  1  Y    0.000000   0.000000  -0.407520   0.000000   0.000000
   10  S  1  Z    0.000000   0.000000   0.000000   0.219261   0.000000
   11  S  1  X    0.000000  -0.064001   0.000000   0.000000   0.422009
   12  S  1  Y    0.000000   0.000000  -0.176957   0.000000   0.000000
   13  S  1  Z    0.000000   0.000000   0.000000   0.121620   0.000000
   14  S  1 XX    0.000000   0.000000   0.000000  -0.702487   0.000000
   15  S  1 YY    0.000000   0.000000   0.000000   0.017293   0.000000
   16  S  1 ZZ    0.000000   0.000000   0.000000   0.685194   0.000000
   17  S  1 XY   -0.586541   0.000000   0.000000   0.000000   0.000000
   18  S  1 XZ    0.000000  -0.089026   0.000000   0.000000   0.932381
   19  S  1 YZ    0.000000   0.000000  -0.521998   0.000000   0.000000
   20  O  2  S    0.000000   0.002133   0.000000   0.000467  -0.045657
   21  O  2  S    0.000000  -0.374233   0.000000  -0.136344  -0.536967
   22  O  2  S    0.000000   0.404809   0.000000   0.201579   1.840464
   23  O  2  X    0.000000  -0.186280   0.000000  -0.062056   0.212475
   24  O  2  Y    0.031334   0.000000  -0.019647   0.000000   0.000000
   25  O  2  Z    0.000000  -0.018211   0.000000  -0.021946  -0.194591
   26  O  2  X    0.000000   0.399802   0.000000  -0.043913   0.784025
   27  O  2  Y   -0.227527   0.000000   0.259282   0.000000   0.000000
   28  O  2  Z    0.000000   0.106969   0.000000  -0.285407  -0.632670
   29  O  2 XX    0.000000   0.655317   0.000000  -0.646248   0.327954
   30  O  2 YY    0.000000  -0.327779   0.000000  -0.111961  -0.470869
   31  O  2 ZZ    0.000000  -0.327538   0.000000   0.758209   0.142915
   32  O  2 XY   -0.453597   0.000000   0.686104   0.000000   0.000000
   33  O  2 XZ    0.000000   0.299874   0.000000  -0.154113  -0.790779
   34  O  2 YZ    0.631108   0.000000  -0.390333   0.000000   0.000000
   35  O  3  S    0.000000  -0.002133   0.000000   0.000467   0.045657
   36  O  3  S    0.000000   0.374233   0.000000  -0.136344   0.536967
   37  O  3  S    0.000000  -0.404809   0.000000   0.201579  -1.840464
   38  O  3  X    0.000000  -0.186280   0.000000   0.062056   0.212475
   39  O  3  Y   -0.031334   0.000000  -0.019647   0.000000   0.000000
   40  O  3  Z    0.000000   0.018211   0.000000  -0.021946   0.194591
   41  O  3  X    0.000000   0.399802   0.000000   0.043913   0.784025
   42  O  3  Y    0.227527   0.000000   0.259282   0.000000   0.000000
   43  O  3  Z    0.000000  -0.106969   0.000000  -0.285407   0.632670
   44  O  3 XX    0.000000  -0.655317   0.000000  -0.646248  -0.327954
   45  O  3 YY    0.000000   0.327779   0.000000  -0.111961   0.470869
   46  O  3 ZZ    0.000000   0.327538   0.000000   0.758209  -0.142915
   47  O  3 XY   -0.453597   0.000000  -0.686104   0.000000   0.000000
   48  O  3 XZ    0.000000   0.299874   0.000000   0.154113  -0.790779
   49  O  3 YZ   -0.631108   0.000000  -0.390333   0.000000   0.000000

                     46
                    2.9534
                     A1  
    1  S  1  S   -0.065373
    2  S  1  S   -0.304589
    3  S  1  S   -1.242633
    4  S  1  S   -1.311380
    5  S  1  X    0.000000
    6  S  1  Y    0.000000
    7  S  1  Z    0.148853
    8  S  1  X    0.000000
    9  S  1  Y    0.000000
   10  S  1  Z   -1.237592
   11  S  1  X    0.000000
   12  S  1  Y    0.000000
   13  S  1  Z   -0.314031
   14  S  1 XX   -0.296792
   15  S  1 YY    0.452291
   16  S  1 ZZ   -0.155499
   17  S  1 XY    0.000000
   18  S  1 XZ    0.000000
   19  S  1 YZ    0.000000
   20  O  2  S   -0.042604
   21  O  2  S   -0.534770
   22  O  2  S    1.653595
   23  O  2  X    0.149253
   24  O  2  Y    0.000000
   25  O  2  Z   -0.109785
   26  O  2  X    0.682291
   27  O  2  Y    0.000000
   28  O  2  Z   -0.563214
   29  O  2 XX    0.391823
   30  O  2 YY   -0.427515
   31  O  2 ZZ    0.035693
   32  O  2 XY    0.000000
   33  O  2 XZ   -0.765849
   34  O  2 YZ    0.000000
   35  O  3  S   -0.042604
   36  O  3  S   -0.534770
   37  O  3  S    1.653595
   38  O  3  X   -0.149253
   39  O  3  Y    0.000000
   40  O  3  Z   -0.109785
   41  O  3  X   -0.682291
   42  O  3  Y    0.000000
   43  O  3  Z   -0.563214
   44  O  3 XX    0.391823
   45  O  3 YY   -0.427515
   46  O  3 ZZ    0.035693
   47  O  3 XY    0.000000
   48  O  3 XZ    0.765849
   49  O  3 YZ    0.000000
 ...... END OF RHF CALCULATION ......
 STEP CPU TIME =     4.58 TOTAL CPU TIME =        4.8 (    0.1 MIN)
 TOTAL WALL CLOCK TIME=        4.8 SECONDS, CPU UTILIZATION IS 100.00%

     ---------------------------------------------------------------------
     PROPERTIES FOR THE PBE      DFT FUNCTIONAL (RHF  TYPE) DENSITY MATRIX
     ---------------------------------------------------------------------

          -----------------
          ENERGY COMPONENTS
          -----------------

         WAVEFUNCTION NORMALIZATION =       1.0000000000

                ONE ELECTRON ENERGY =    -996.2298866067
                TWO ELECTRON ENERGY =     326.9024454688
           NUCLEAR REPULSION ENERGY =     121.2113189520
                                      ------------------
                       TOTAL ENERGY =    -548.1161221858

 ELECTRON-ELECTRON POTENTIAL ENERGY =     326.9024454688
  NUCLEUS-ELECTRON POTENTIAL ENERGY =   -1545.5548536629
   NUCLEUS-NUCLEUS POTENTIAL ENERGY =     121.2113189520
                                      ------------------
             TOTAL POTENTIAL ENERGY =   -1097.4410892420
               TOTAL KINETIC ENERGY =     549.3249670563
                 VIRIAL RATIO (V/T) =       1.9977993994

          ---------------------------------------
          MULLIKEN AND LOWDIN POPULATION ANALYSES
          ---------------------------------------

     ATOMIC MULLIKEN POPULATION IN EACH MOLECULAR ORBITAL

                      1          2          3          4          5

                  2.000000   2.000000   2.000000   2.000000   2.000000

    1             2.000048   0.000474   0.002469   2.002147   1.999588
    2            -0.000024   0.999763   0.998766  -0.001074   0.000206
    3            -0.000024   0.999763   0.998766  -0.001074   0.000206

                      6          7          8          9         10

                  2.000000   2.000000   2.000000   2.000000   2.000000

    1             1.999990   1.999598   0.736485   0.530158   1.169821
    2             0.000005   0.000201   0.631757   0.734921   0.415089
    3             0.000005   0.000201   0.631757   0.734921   0.415089

                     11         12         13         14         15

                  2.000000   2.000000   2.000000   2.000000   2.000000

    1             0.970202   0.424455   0.307762   0.147478   0.807550
    2             0.514899   0.787772   0.846119   0.926261   0.596225
    3             0.514899   0.787772   0.846119   0.926261   0.596225

                     16

                  2.000000

    1             0.227799
    2             0.886101
    3             0.886101

               ----- POPULATIONS IN EACH AO -----
                             MULLIKEN      LOWDIN
              1  S  1  S      2.00025     1.99577
              2  S  1  S      2.01055     1.94273
              3  S  1  S      0.92427     0.54477
              4  S  1  S      0.87456     0.55164
              5  S  1  X      1.99654     1.95687
              6  S  1  Y      1.99578     1.95439
              7  S  1  Z      1.99723     1.96458
              8  S  1  X      0.70680     0.61841
              9  S  1  Y      0.65808     0.59644
             10  S  1  Z      0.88053     0.83512
             11  S  1  X      0.16253     0.27672
             12  S  1  Y      0.27781     0.33999
             13  S  1  Z      0.20625     0.36905
             14  S  1 XX      0.12855     0.31358
             15  S  1 YY      0.12039     0.22710
             16  S  1 ZZ      0.14748     0.30801
             17  S  1 XY      0.19991     0.18368
             18  S  1 XZ      0.03853     0.24116
             19  S  1 YZ      0.00000     0.03754
             20  O  2  S      1.99787     1.98002
             21  O  2  S      0.81219     0.62082
             22  O  2  S      0.95931     0.51944
             23  O  2  X      1.08259     1.04652
             24  O  2  Y      0.89049     0.84797
             25  O  2  Z      1.02063     0.99274
             26  O  2  X      0.48507     0.55797
             27  O  2  Y      0.53977     0.58070
             28  O  2  Z      0.51882     0.60649
             29  O  2 XX      0.00624     0.19860
             30  O  2 YY      0.00407     0.19195
             31  O  2 ZZ      0.00601     0.19448
             32  O  2 XY      0.00903     0.00902
             33  O  2 XZ      0.00489     0.01822
             34  O  2 YZ      0.00000     0.00630
             35  O  3  S      1.99787     1.98002
             36  O  3  S      0.81219     0.62082
             37  O  3  S      0.95931     0.51944
             38  O  3  X      1.08259     1.04652
             39  O  3  Y      0.89049     0.84797
             40  O  3  Z      1.02063     0.99274
             41  O  3  X      0.48507     0.55797
             42  O  3  Y      0.53977     0.58070
             43  O  3  Z      0.51882     0.60649
             44  O  3 XX      0.00624     0.19860
             45  O  3 YY      0.00407     0.19195
             46  O  3 ZZ      0.00601     0.19448
             47  O  3 XY      0.00903     0.00902
             48  O  3 XZ      0.00489     0.01822
             49  O  3 YZ      0.00000     0.00630

          ----- MULLIKEN ATOMIC OVERLAP POPULATIONS -----
          (OFF-DIAGONAL ELEMENTS NEED TO BE MULTIPLIED BY 2)

             1           2           3

    1   14.3912639
    2    0.4673793   8.0416199
    3    0.4673793  -0.1720105   8.0416199

          TOTAL MULLIKEN AND LOWDIN ATOMIC POPULATIONS
       ATOM         MULL.POP.    CHARGE          LOW.POP.     CHARGE
    1 S            15.326023    0.673977        15.257530    0.742470
    2 O             8.336989   -0.336989         8.371235   -0.371235
    3 O             8.336989   -0.336989         8.371235   -0.371235

          MULLIKEN SPHERICAL HARMONIC POPULATIONS
       ATOM           S       P       D      F      G      H      I    TOTAL
    1 S             5.81    8.88    0.63   0.00   0.00   0.00   0.00   15.33
    2 O             3.77    4.54    0.03   0.00   0.00   0.00   0.00    8.34
    3 O             3.77    4.54    0.03   0.00   0.00   0.00   0.00    8.34

          -------------------------------
          BOND ORDER AND VALENCE ANALYSIS     BOND ORDER THRESHOLD=0.050
          -------------------------------

                   BOND                       BOND                       BOND
  ATOM PAIR DIST  ORDER      ATOM PAIR DIST  ORDER      ATOM PAIR DIST  ORDER
    1   2  1.300  1.984        1   3  1.300  1.984        2   3  1.992  0.129

                       TOTAL       BONDED        FREE
      ATOM            VALENCE     VALENCE     VALENCE
    1 S                 3.969       3.969       0.000
    2 O                 2.113       2.113       0.000
    3 O                 2.113       2.113       0.000

          ---------------------
          ELECTROSTATIC MOMENTS
          ---------------------

 POINT   1           X           Y           Z (BOHR)    CHARGE
                 0.000000    0.000000    0.000000        0.00 (A.U.)
         DX          DY          DZ         /D/  (DEBYE)
     0.000000    0.000000   -2.209734    2.209734
 ...... END OF PROPERTY EVALUATION ......
 STEP CPU TIME =     0.02 TOTAL CPU TIME =        4.8 (    0.1 MIN)
 TOTAL WALL CLOCK TIME=        4.8 SECONDS, CPU UTILIZATION IS  99.79%
               580000  WORDS OF DYNAMIC MEMORY USED
 EXECUTION OF GAMESS TERMINATED NORMALLY Thu Feb 26 00:14:02 2015
 DDI: 263624 bytes (0.3 MB / 0 MWords) used by master data server.

 ----------------------------------------
 CPU timing information for all processes
 ========================================
 0: 4.738 + 0.55 = 4.794
 ----------------------------------------
 ddikick.x: exited gracefully.
----- accounting info -----
Files used on the master node dftfe.crc.nd.edu were:
-rw-r--r-- 1 pmehta1 campus   37475 Feb 26 00:14 /tmp/gamess.dat
-rw-r--r-- 1 pmehta1 campus     142 Feb 26 00:13 /tmp/gamess.F05
-rw-r--r-- 1 pmehta1 campus 2340312 Feb 26 00:13 /tmp/gamess.F08
-rw-r--r-- 1 pmehta1 campus 1220440 Feb 26 00:14 /tmp/gamess.F10
Thu Feb 26 00:14:05 EST 2015
0.239u 0.174s 0:08.20 4.8%	0+0k 0+104io 0pf+0w
