----- GAMESS execution script 'rungms' -----
This job is running on host dftfe.crc.nd.edu
under operating system Linux at Thu Feb 26 00:19:34 EST 2015
Available scratch disk space (Kbyte units) at beginning of the job is
Filesystem     1K-blocks     Used Available Use% Mounted on
/dev/sda2      147771864 22815776 117449656  17% /
GAMESS temporary binary files will be written to /tmp
GAMESS supplementary output files will be written to /tmp
Copying input file gamess.inp to your run's scratch directory...

 Distributed Data Interface kickoff program.
 Initiating 1 compute processes on 1 nodes to run the following command:
 /opt/crc/gamess/2012R1/gamess/gamess.00.x gamess 

          ******************************************************
          *         GAMESS VERSION =  1 MAY 2012 (R1)          *
          *             FROM IOWA STATE UNIVERSITY             *
          * M.W.SCHMIDT, K.K.BALDRIDGE, J.A.BOATZ, S.T.ELBERT, *
          *   M.S.GORDON, J.H.JENSEN, S.KOSEKI, N.MATSUNAGA,   *
          *          K.A.NGUYEN, S.J.SU, T.L.WINDUS,           *
          *       TOGETHER WITH M.DUPUIS, J.A.MONTGOMERY       *
          *         J.COMPUT.CHEM.  14, 1347-1363(1993)        *
          **************** 64 BIT LINUX VERSION ****************

  SINCE 1993, STUDENTS AND POSTDOCS WORKING AT IOWA STATE UNIVERSITY
  AND ALSO IN THEIR VARIOUS JOBS AFTER LEAVING ISU HAVE MADE IMPORTANT
  CONTRIBUTIONS TO THE CODE:
     IVANA ADAMOVIC, CHRISTINE AIKENS, YURI ALEXEEV, POOJA ARORA,
     ANDREY ASADCHEV, ROB BELL, PRADIPTA BANDYOPADHYAY, JONATHAN BENTZ,
     BRETT BODE, GALINA CHABAN, WEI CHEN, CHEOL HO CHOI, PAUL DAY,
     ALBERT DEFUSCO, TIM DUDLEY, DMITRI FEDOROV, GRAHAM FLETCHER,
     MARK FREITAG, KURT GLAESEMANN, DAN KEMP, GRANT MERRILL,
     NORIYUKI MINEZAWA, JONATHAN MULLIN, TAKESHI NAGATA,
     SEAN NEDD, HEATHER NETZLOFF, BOSILJKA NJEGIC, RYAN OLSON, MIKE PAK,
     JIM SHOEMAKER, LYUDMILA SLIPCHENKO, SAROM SOK, JIE SONG,
     TETSUYA TAKETSUGU, SIMON WEBB, SOOHAENG YOO, FEDERICO ZAHARIEV

  ADDITIONAL CODE HAS BEEN PROVIDED BY COLLABORATORS IN OTHER GROUPS:
     IOWA STATE UNIVERSITY:
          JOE IVANIC, LAIMUTIS BYTAUTAS, KLAUS RUEDENBERG
     UNIVERSITY OF TOKYO: KIMIHIKO HIRAO, TAKAHITO NAKAJIMA,
          TAKAO TSUNEDA, MUNEAKI KAMIYA, SUSUMU YANAGISAWA,
          KIYOSHI YAGI, MAHITO CHIBA, SEIKEN TOKURA, NAOAKI KAWAKAMI
     UNIVERSITY OF AARHUS: FRANK JENSEN
     UNIVERSITY OF IOWA: VISVALDAS KAIRYS, HUI LI
     NATIONAL INST. OF STANDARDS AND TECHNOLOGY: WALT STEVENS, DAVID GARMER
     UNIVERSITY OF PISA: BENEDETTA MENNUCCI, JACOPO TOMASI
     UNIVERSITY OF MEMPHIS: HENRY KURTZ, PRAKASHAN KORAMBATH
     UNIVERSITY OF ALBERTA: TOBY ZENG, MARIUSZ KLOBUKOWSKI
     UNIVERSITY OF NEW ENGLAND: MARK SPACKMAN
     MIE UNIVERSITY: HIROAKI UMEDA
     MICHIGAN STATE UNIVERSITY:
          KAROL KOWALSKI, MARTA WLOCH, JEFFREY GOUR, JESSE LUTZ, PIOTR PIECUCH
     UNIVERSITY OF SILESIA: MONIKA MUSIAL, STANISLAW KUCHARSKI
     FACULTES UNIVERSITAIRES NOTRE-DAME DE LA PAIX:
          OLIVIER QUINET, BENOIT CHAMPAGNE
     UNIVERSITY OF CALIFORNIA - SANTA BARBARA: BERNARD KIRTMAN
     INSTITUTE FOR MOLECULAR SCIENCE:
          KAZUYA ISHIMURA, MICHIO KATOUDA, AND SHIGERU NAGASE
     UNIVERSITY OF NOTRE DAME: DAN CHIPMAN
     KYUSHU UNIVERSITY:
          HARUYUKI NAKANO,
          FENG LONG GU, JACEK KORCHOWIEC, MARCIN MAKOWSKI, AND YURIKO AOKI,
          HIROTOSHI MORI AND EISAKU MIYOSHI
     PENNSYLVANIA STATE UNIVERSITY:
          TZVETELIN IORDANOV, CHET SWALINA, JONATHAN SKONE,
          SHARON HAMMES-SCHIFFER
     WASEDA UNIVERSITY:
          MASATO KOBAYASHI, TOMOKO AKAMA, TSUGUKI TOUMA,
          TAKESHI YOSHIKAWA, YASUHIRO IKABATA, HIROMI NAKAI
     UNIVERSITY OF NEBRASKA:
          PEIFENG SU, DEJUN SI, NANDUN THELLAMUREGE, YALI WANG, HUI LI
     UNIVERSITY OF ZURICH:
          ROBERTO PEVERATI, KIM BALDRIDGE
     N. COPERNICUS UNIVERSITY AND JACKSON STATE UNIVERSITY:
          MARIA BARYSZ

 EXECUTION OF GAMESS BEGUN Thu Feb 26 00:19:34 2015

            ECHO OF THE FIRST FEW INPUT CARDS -
 INPUT CARD> $BASIS GBASIS=PC1 $END                                                         
 INPUT CARD> $CONTRL COORD=ZMT ISPHER=1 RUNTYP=ENERGY DFTTYP=PBE $END                       
 INPUT CARD>                                                                                
 INPUT CARD> $DATA                                                                          
 INPUT CARD>Title                                                                           
 INPUT CARD>Cnv 2                                                                           
 INPUT CARD>                                                                                
 INPUT CARD>S                                                                               
 INPUT CARD>O 1 1.70                                                                        
 INPUT CARD>O 1 1.70 2 140.0                                                                
 INPUT CARD> $END                                                                           
    1000000 WORDS OF MEMORY AVAILABLE

     BASIS OPTIONS
     -------------
     GBASIS=PC1          IGAUSS=       0      POLAR=NONE    
     NDFUNC=       0     NFFUNC=       0     DIFFSP=       F
     NPFUNC=       0      DIFFS=       F     BASNAM=        


     RUN TITLE
     ---------
 Title                                                                           

 THE POINT GROUP OF THE MOLECULE IS CNV     
 THE ORDER OF THE PRINCIPAL AXIS IS     2

 YOUR FULLY SUBSTITUTED Z-MATRIX IS
 S   
 O      1   1.7000000
 O      1   1.7000000  2  140.0000

 THE MOMENTS OF INERTIA ARE (AMU-ANGSTROM**2)
 IXX=     5.406   IYY=    81.636   IZZ=    87.042

 ATOM      ATOMIC                      COORDINATES (BOHR)
           CHARGE         X                   Y                   Z
 S          16.0     0.0000000000        0.0000000000       -0.5495281569
 O           8.0    -3.0187946621        0.0000000000        0.5492232435
 O           8.0     3.0187946621        0.0000000000        0.5492232435

          INTERNUCLEAR DISTANCES (ANGS.)
          ------------------------------

                1 S          2 O          3 O     

   1 S       0.0000000    1.7000000 *  1.7000000 *
   2 O       1.7000000 *  0.0000000    3.1949549  
   3 O       1.7000000 *  3.1949549    0.0000000  

  * ... LESS THAN  3.000


     ATOMIC BASIS SET
     ----------------
 THE CONTRACTED PRIMITIVE FUNCTIONS HAVE BEEN UNNORMALIZED
 THE CONTRACTED BASIS FUNCTIONS ARE NOW NORMALIZED TO UNITY

  SHELL TYPE  PRIMITIVE        EXPONENT          CONTRACTION COEFFICIENT(S)

 S         

      1   S       1         55510.0000000    0.000587229760
      1   S       2          8326.7000000    0.004532413947
      1   S       3          1895.6000000    0.023265261648
      1   S       4           536.7700000    0.089696133027
      1   S       5           174.6700000    0.254098332277
      1   S       6            62.5780000    0.438665087637
      1   S       7            23.5730000    0.314547135094
      1   S       8             5.8908000    0.032727897102

      2   S       9          8326.7000000   -0.000019755715
      2   S      10          1895.6000000   -0.000043822381
      2   S      11           536.7700000   -0.001730264906
      2   S      12           174.6700000   -0.009381263460
      2   S      13            62.5780000   -0.064050766303
      2   S      14            23.5730000   -0.082478179196
      2   S      15             5.8908000    0.478342956889
      2   S      16             2.1852000    0.626896670208

      3   S      17          1895.6000000    0.000016227260
      3   S      18           536.7700000    0.000191135619
      3   S      19           174.6700000    0.001952069674
      3   S      20            62.5780000    0.010578701087
      3   S      21            23.5730000    0.022164934551
      3   S      22             5.8908000   -0.184968323118
      3   S      23             2.1852000   -0.480920750976
      3   S      24             0.4528200    1.243822243872

      4   S      25             0.1620200    1.000000000000

      5   P      26           395.4500000    0.004642761329
      5   P      27            92.8340000    0.036023396489
      5   P      28            29.2660000    0.149058869978
      5   P      29            10.5950000    0.360033266263
      5   P      30             4.0272000    0.455756476221
      5   P      31             1.5484000    0.206167664178

      6   P      32            92.8340000    0.000169901442
      6   P      33            29.2660000   -0.002541839934
      6   P      34            10.5950000   -0.007867614595
      6   P      35             4.0272000   -0.037231009184
      6   P      36             1.5484000    0.161417246830
      6   P      37             0.4613400    0.902230419976

      7   P      38             0.1313100    1.000000000000

      8   D      39             0.5500000    1.000000000000

 O         

     15   S      40          2306.7000000    0.005424388755
     15   S      41           347.1500000    0.040474749465
     15   S      42            78.8900000    0.180219634554
     15   S      43            21.8760000    0.462370311787
     15   S      44             6.6646000    0.454888396263

     16   S      45           347.1500000   -0.000655003786
     16   S      46            78.8900000   -0.005362052952
     16   S      47            21.8760000   -0.074902158894
     16   S      48             6.6646000   -0.181442579655
     16   S      49             1.0669000    1.102006874042

     17   S      50             0.3070000    1.000000000000

     18   P      51            17.0220000    0.068979967443
     18   P      52             3.6838000    0.351985516325
     18   P      53             0.9923400    0.724036547822

     19   P      54             0.2448700    1.000000000000

     20   D      55             1.0000000    1.000000000000

 TOTAL NUMBER OF BASIS SET SHELLS             =   20
 NUMBER OF CARTESIAN GAUSSIAN BASIS FUNCTIONS =   49
 NOTE: THIS RUN WILL RESTRICT THE MO VARIATION SPACE TO SPHERICAL HARMONICS.
 THE NUMBER OF ORBITALS KEPT IN THE VARIATIONAL SPACE WILL BE PRINTED LATER.
 NUMBER OF ELECTRONS                          =   32
 CHARGE OF MOLECULE                           =    0
 SPIN MULTIPLICITY                            =    1
 NUMBER OF OCCUPIED ORBITALS (ALPHA)          =   16
 NUMBER OF OCCUPIED ORBITALS (BETA )          =   16
 TOTAL NUMBER OF ATOMS                        =    3
 THE NUCLEAR REPULSION ENERGY IS       90.2881253696

     LEBEDEV GRID-BASED DFT OPTIONS
     ------------------------------
     DFTTYP=PBE     
     NRAD  =      96     NLEB  =     302
     NRAD0 =      24     NLEB0 =     110
     SWOFF =    5.00E-03 (PURE SCF -> DFT)
     SWITCH=    3.00E-04 (COARSE -> TIGHT GRID)
     THRESH=    0.00E+00 GTHRE=    1.00E+00

 GRIMME'S EMPIRICAL DISPERSION CORRECTION= F

     $CONTRL OPTIONS
     ---------------
 SCFTYP=RHF          RUNTYP=ENERGY       EXETYP=RUN     
 MPLEVL=       0     CITYP =NONE         CCTYP =NONE         VBTYP =NONE    
 DFTTYP=PBE          TDDFT =NONE    
 MULT  =       1     ICHARG=       0     NZVAR =       0     COORD =ZMT     
 PP    =NONE         RELWFN=NONE         LOCAL =NONE         NUMGRD=       F
 ISPHER=       1     NOSYM =       0     MAXIT =      30     UNITS =ANGS    
 PLTORB=       F     MOLPLT=       F     AIMPAC=       F     FRIEND=        
 NPRINT=       7     IREST =       0     GEOM  =INPUT   
 NORMF =       0     NORMP =       0     ITOL  =      20     ICUT  =       9
 INTTYP=BEST         GRDTYP=BEST         QMTTOL= 1.0E-06

     $SYSTEM OPTIONS
     ---------------
  REPLICATED MEMORY=     1000000 WORDS (ON EVERY NODE).
 DISTRIBUTED MEMDDI=           0 MILLION WORDS IN AGGREGATE,
 MEMDDI DISTRIBUTED OVER   1 PROCESSORS IS           0 WORDS/PROCESSOR.
 TOTAL MEMORY REQUESTED ON EACH PROCESSOR=     1000000 WORDS.
 TIMLIM=      525600.00 MINUTES, OR     365.0 DAYS.
 PARALL= F  BALTYP=  DLB     KDIAG=    0  COREFL= F
 MXSEQ2=     300 MXSEQ3=     150

          ----------------
          PROPERTIES INPUT
          ----------------

     MOMENTS            FIELD           POTENTIAL          DENSITY
 IEMOM =       1   IEFLD =       0   IEPOT =       0   IEDEN =       0
 WHERE =COMASS     WHERE =NUCLEI     WHERE =NUCLEI     WHERE =NUCLEI  
 OUTPUT=BOTH       OUTPUT=BOTH       OUTPUT=BOTH       OUTPUT=BOTH    
 IEMINT=       0   IEFINT=       0                     IEDINT=       0
                                                       MORB  =       0
          EXTRAPOLATION IN EFFECT
          DIIS IN EFFECT
 ORBITAL PRINTING OPTION: NPREO=     1    49     2     1

     -------------------------------
     INTEGRAL TRANSFORMATION OPTIONS
     -------------------------------
     NWORD  =            0
     CUTOFF = 1.0E-09     MPTRAN =       0
     DIRTRF =       F     AOINTS =DUP     

          ----------------------
          INTEGRAL INPUT OPTIONS
          ----------------------
 NOPK  =       1 NORDER=       0 SCHWRZ=       F

   --- ENCODED Z MATRIX ---
 COORD  TYPE   I   J   K   L   M   N
    1      1    3   1
    2      1    2   1
    3      2    2   1   3

 THE DETERMINANT OF THE G MATRIX IS 10**(    -4)

 THE DETERMINANT OF THE G MATRIX IS 10**(    -4)
 * * * WARNING * * *
 YOUR B MATRIX HAS A SMALL DETERMINANT.
 THIS SUGGESTS YOU MAY HAVE BADLY CHOSEN COORDINATES.

     ------------------------------------------
     THE POINT GROUP IS CNV, NAXIS= 2, ORDER= 4
     ------------------------------------------

 -- VARIATIONAL SPACE WILL BE RESTRICTED TO PURE SPHERICAL HARMONICS ONLY --
 AFTER EXCLUDING CONTAMINANT COMBINATIONS FROM THE CARTESIAN GAUSSIAN BASIS
 SET, THE NUMBER OF SPHERICAL HARMONICS KEPT IN THE VARIATION SPACE IS   46

     DIMENSIONS OF THE SYMMETRY SUBSPACES ARE
 A1  =   19     A2  =    5     B1  =   14     B2  =    8

 ..... DONE SETTING UP THE RUN .....
 STEP CPU TIME =     0.01 TOTAL CPU TIME =        0.0 (    0.0 MIN)
 TOTAL WALL CLOCK TIME=        0.0 SECONDS, CPU UTILIZATION IS  50.00%

          ********************
          1 ELECTRON INTEGRALS
          ********************
 ...... END OF ONE-ELECTRON INTEGRALS ......
 STEP CPU TIME =     0.01 TOTAL CPU TIME =        0.0 (    0.0 MIN)
 TOTAL WALL CLOCK TIME=        0.0 SECONDS, CPU UTILIZATION IS  66.67%

          -------------
          GUESS OPTIONS
          -------------
          GUESS =HUCKEL            NORB  =       0          NORDER=       0
          MIX   =       F          PRTMO =       F          PUNMO =       F
          TOLZ  = 1.0E-08          TOLE  = 1.0E-05
          SYMDEN=       F          PURIFY=       F

 INITIAL GUESS ORBITALS GENERATED BY HUCKEL   ROUTINE.
 HUCKEL GUESS REQUIRES     21583 WORDS.

 STATISTICS FOR GENERATION OF SYMMETRY ORBITAL -Q- MATRIX
 NUMBER OF CARTESIAN ATOMIC ORBITALS=         49
 NUMBER OF SPHERICAL CONTAMINANTS DROPPED=     3
 NUMBER OF LINEARLY DEPENDENT MOS DROPPED=     0
 TOTAL NUMBER OF MOS IN VARIATION SPACE=      46

 SYMMETRIES FOR INITIAL GUESS ORBITALS FOLLOW.   BOTH SET(S).
    16 ORBITALS ARE OCCUPIED (    7 CORE ORBITALS).
     8=?A1      9=?B1     10=A1      11=B2      12=B1      13=A1      14=A2  
    15=B1      16=A1      17=B2      18=A1      19=B1      20=A1      21=A1  
    22=A1      23=A1      24=A1      25=A1      26=A1  
 ...... END OF INITIAL ORBITAL SELECTION ......
 STEP CPU TIME =     0.00 TOTAL CPU TIME =        0.0 (    0.0 MIN)
 TOTAL WALL CLOCK TIME=        0.0 SECONDS, CPU UTILIZATION IS  66.67%

                    ----------------------
                    AO INTEGRAL TECHNOLOGY
                    ----------------------
     S,P,L SHELL ROTATED AXIS INTEGRALS, REPROGRAMMED BY
        KAZUYA ISHIMURA (IMS) AND JOSE SIERRA (SYNSTAR).
     S,P,D,L SHELL ROTATED AXIS INTEGRALS PROGRAMMED BY
        KAZUYA ISHIMURA (INSTITUTE FOR MOLECULAR SCIENCE).
     S,P,D,F,G SHELL TO TOTAL QUARTET ANGULAR MOMENTUM SUM 5,
        ERIC PROGRAM BY GRAHAM FLETCHER (ELORET AND NASA ADVANCED
        SUPERCOMPUTING DIVISION, AMES RESEARCH CENTER).
     S,P,D,F,G,L SHELL GENERAL RYS QUADRATURE PROGRAMMED BY
        MICHEL DUPUIS (PACIFIC NORTHWEST NATIONAL LABORATORY).

          --------------------
          2 ELECTRON INTEGRALS
          --------------------

 THE -PK- OPTION IS OFF, THE INTEGRALS ARE NOT IN SUPERMATRIX FORM.
 STORING   15000 INTEGRALS/RECORD ON DISK, USING 12 BYTES/INTEGRAL.
 TWO ELECTRON INTEGRAL EVALUATION REQUIRES   90606 WORDS OF MEMORY.
 II,JST,KST,LST =  1  1  1  1 NREC =         1 INTLOC =    1
 II,JST,KST,LST =  2  1  1  1 NREC =         1 INTLOC =    2
 II,JST,KST,LST =  3  1  1  1 NREC =         1 INTLOC =    7
 II,JST,KST,LST =  4  1  1  1 NREC =         1 INTLOC =   22
 II,JST,KST,LST =  5  1  1  1 NREC =         1 INTLOC =   56
 II,JST,KST,LST =  6  1  1  1 NREC =         1 INTLOC =  125
 II,JST,KST,LST =  7  1  1  1 NREC =         1 INTLOC =  329
 II,JST,KST,LST =  8  1  1  1 NREC =         1 INTLOC =  776
 II,JST,KST,LST =  9  1  1  1 NREC =         1 INTLOC = 2864
 II,JST,KST,LST = 10  1  1  1 NREC =         1 INTLOC = 2864
 II,JST,KST,LST = 11  1  1  1 NREC =         1 INTLOC = 2864
 II,JST,KST,LST = 12  1  1  1 NREC =         1 INTLOC = 2864
 II,JST,KST,LST = 13  1  1  1 NREC =         1 INTLOC = 2864
 II,JST,KST,LST = 14  1  1  1 NREC =         1 INTLOC = 2864
 II,JST,KST,LST = 15  1  1  1 NREC =         1 INTLOC = 2864
 II,JST,KST,LST = 16  1  1  1 NREC =         1 INTLOC = 4958
 II,JST,KST,LST = 17  1  1  1 NREC =         1 INTLOC = 8026
 II,JST,KST,LST = 18  1  1  1 NREC =         1 INTLOC =12395
 II,JST,KST,LST = 19  1  1  1 NREC =         2 INTLOC =13518
 II,JST,KST,LST = 20  1  1  1 NREC =         4 INTLOC =13837
 TOTAL NUMBER OF NONZERO TWO-ELECTRON INTEGRALS =              159340
         11 INTEGRAL RECORDS WERE STORED ON DISK FILE  8.
  ...... END OF TWO-ELECTRON INTEGRALS .....
 STEP CPU TIME =     0.15 TOTAL CPU TIME =        0.2 (    0.0 MIN)
 TOTAL WALL CLOCK TIME=        0.2 SECONDS, CPU UTILIZATION IS  89.47%

          --------------------------
               R-PBE SCF CALCULATION
          --------------------------

     NUCLEAR ENERGY =        90.2881253696
     MAXIT =   30     NPUNCH=    2
     EXTRAP=T  DAMP=F  SHIFT=F  RSTRCT=F  DIIS=T  DEM=F  SOSCF=F
         DENSITY MATRIX CONVERGENCE THRESHOLD=  1.00E-05
     COARSE -> FINE DFT GRID SWITCH THRESHOLD=  3.00E-04 (SWITCH IN $DFT)
                   HF -> DFT SWITCH THRESHOLD=  5.00E-03 (SWOFF IN $DFT)
     MEMORY REQUIRED FOR RHF ITERS=    183108 WORDS.

 DFT CODE IS SWITCHING FROM THE FINE GRID NRAD= 96,  NLEB=  302
                      TO THE COARSE GRID NRAD0= 24, NLEB0=  110

     EXCHANGE FUNCTIONAL   =PBE       
     CORRELATION FUNCTIONAL=PBE       
     DFT THRESHOLD         =.460E-07
     GRID CHANGE THRESHOLD =.300E-03
 FOR AN EULER-MACLAURIN QUADRATURE USING  96 RADIAL POINTS:
 SMALLEST GAUSSIAN PRIMITIVE EXPONENT=        0.1313100000 OF TYPE -P-
 ON ATOM NUMBER   1 HAS RADIAL NORMALIZATION=  1.000000
  LARGEST GAUSSIAN PRIMITIVE EXPONENT=    55510.0000000000 OF TYPE -S-
 ON ATOM NUMBER   1 HAS RADIAL NORMALIZATION=  0.999999
 DFT IS SWITCHED OFF, PERFORMING PURE SCF UNTIL SWOFF THRESHOLD IS REACHED.

 ITER EX DEM     TOTAL ENERGY        E CHANGE  DENSITY CHANGE    DIIS ERROR
   1  0  0     -545.9286959698  -545.9286959698   0.486332361   1.238431216
          * * *   INITIATING DIIS PROCEDURE   * * *
   2  1  0     -546.3782032659    -0.4495072962   0.641240348   0.454332035
   3  2  0     -546.3093768897     0.0688263762   0.280609114   0.491041992
   4  3  0     -546.9608634890    -0.6514865992   0.027523235   0.015801053
   5  4  0     -546.9624296034    -0.0015661145   0.008859147   0.007098711
   6  5  0     -546.9627179350    -0.0002883315   0.003692235   0.003315419
 CONVERGED TO SWOFF, SO DFT CALCULATION IS NOW SWITCHED ON.
          * * *   INITIATING DIIS PROCEDURE   * * *
   7  6  0     -548.1311418775    -1.1684239426   0.368591401   0.111714140
   8  7  0     -548.1057228977     0.0254189799   0.318319649   0.163017477
   9  8  0     -548.1136825161    -0.0079596184   0.100235928   0.185184396
  10  9  0     -548.1836533162    -0.0699708001   0.017701984   0.015047100
  11 10  0     -548.1845881131    -0.0009347969   0.002321198   0.002616142
  12 11  0     -548.1846024161    -0.0000143030   0.000796268   0.000440364
  13 12  0     -548.1846031613    -0.0000007452   0.000105745   0.000048851
 DFT CODE IS SWITCHING BACK TO THE FINE GRID
          * * *   INITIATING DIIS PROCEDURE   * * *
  14 13  0     -548.1941637625    -0.0095606013   0.021255357   0.010969312
  15 14  0     -548.1942556055    -0.0000918430   0.021059468   0.011546298
  16 15  0     -548.1938735929     0.0003820127   0.014415264   0.017664421
  17 16  0     -548.1945496725    -0.0006760796   0.000776286   0.000822810
  18 17  0     -548.1945525235    -0.0000028510   0.000171926   0.000122863
  19 18  0     -548.1945526121    -0.0000000885   0.000045701   0.000031894
  20 19  0     -548.1945526146    -0.0000000025   0.000008552   0.000005535
  21 20  0     -548.1945526147    -0.0000000001   0.000000588   0.000000476

          -----------------
          DENSITY CONVERGED
          -----------------
     TIME TO FORM FOCK OPERATORS=       4.1 SECONDS (       0.2 SEC/ITER)
     TIME TO SOLVE SCF EQUATIONS=       0.1 SECONDS (       0.0 SEC/ITER)

 FINAL R-PBE ENERGY IS     -548.1945526147 AFTER  21 ITERATIONS
 DFT EXCHANGE + CORRELATION ENERGY =       -42.2533137418
 TOTAL ELECTRON NUMBER             =        32.0000015146

          ------------
          EIGENVECTORS
          ------------

                      1          2          3          4          5
                  -88.2247   -18.8309   -18.8309    -7.8435    -5.8650
                     A1         B1         A1         A1         B1  
    1  S  1  S    1.002979   0.000000  -0.000046  -0.274120   0.000000
    2  S  1  S   -0.010290   0.000000  -0.000824   1.039401   0.000000
    3  S  1  S    0.001765   0.000000  -0.001416   0.040250   0.000000
    4  S  1  S   -0.000862   0.000000   0.007100  -0.011526   0.000000
    5  S  1  X    0.000000   0.000138   0.000000   0.000000   0.996872
    6  S  1  Y    0.000000   0.000000   0.000000   0.000000   0.000000
    7  S  1  Z    0.000063   0.000000  -0.000058   0.010313   0.000000
    8  S  1  X    0.000000  -0.001165   0.000000   0.000000   0.008888
    9  S  1  Y    0.000000   0.000000   0.000000   0.000000   0.000000
   10  S  1  Z    0.000012   0.000000   0.000473   0.000848   0.000000
   11  S  1  X    0.000000  -0.006386   0.000000   0.000000  -0.000229
   12  S  1  Y    0.000000   0.000000   0.000000   0.000000   0.000000
   13  S  1  Z   -0.000019   0.000000   0.002067  -0.000386   0.000000
   14  S  1 XX    0.000041   0.000000   0.001346   0.000758   0.000000
   15  S  1 YY   -0.000023   0.000000  -0.000891  -0.000372   0.000000
   16  S  1 ZZ   -0.000018   0.000000  -0.000455  -0.000387   0.000000
   17  S  1 XY    0.000000   0.000000   0.000000   0.000000   0.000000
   18  S  1 XZ    0.000000  -0.001101   0.000000   0.000000   0.000652
   19  S  1 YZ    0.000000   0.000000   0.000000   0.000000   0.000000
   20  O  2  S    0.000004   0.703282   0.703245   0.000047   0.000106
   21  O  2  S    0.000022   0.025630   0.025151   0.000140   0.000085
   22  O  2  S    0.000023  -0.012297  -0.010623   0.000186  -0.000186
   23  O  2  X    0.000001   0.000762   0.000875  -0.000176  -0.000098
   24  O  2  Y    0.000000   0.000000   0.000000   0.000000   0.000000
   25  O  2  Z   -0.000003  -0.000397  -0.000142   0.000034   0.000022
   26  O  2  X   -0.000061  -0.002595  -0.002917  -0.000735  -0.000125
   27  O  2  Y    0.000000   0.000000   0.000000   0.000000   0.000000
   28  O  2  Z    0.000034   0.001576   0.000468   0.000418   0.000125
   29  O  2 XX   -0.000074  -0.000261  -0.000415  -0.000711  -0.000247
   30  O  2 YY    0.000046   0.000188   0.000255   0.000444   0.000168
   31  O  2 ZZ    0.000028   0.000073   0.000161   0.000267   0.000079
   32  O  2 XY    0.000000   0.000000   0.000000   0.000000   0.000000
   33  O  2 XZ    0.000054   0.000247   0.000229   0.000521   0.000222
   34  O  2 YZ    0.000000   0.000000   0.000000   0.000000   0.000000
   35  O  3  S    0.000004  -0.703282   0.703245   0.000047  -0.000106
   36  O  3  S    0.000022  -0.025630   0.025151   0.000140  -0.000085
   37  O  3  S    0.000023   0.012297  -0.010623   0.000186   0.000186
   38  O  3  X   -0.000001   0.000762  -0.000875   0.000176  -0.000098
   39  O  3  Y    0.000000   0.000000   0.000000   0.000000   0.000000
   40  O  3  Z   -0.000003   0.000397  -0.000142   0.000034  -0.000022
   41  O  3  X    0.000061  -0.002595   0.002917   0.000735  -0.000125
   42  O  3  Y    0.000000   0.000000   0.000000   0.000000   0.000000
   43  O  3  Z    0.000034  -0.001576   0.000468   0.000418  -0.000125
   44  O  3 XX   -0.000074   0.000261  -0.000415  -0.000711   0.000247
   45  O  3 YY    0.000046  -0.000188   0.000255   0.000444  -0.000168
   46  O  3 ZZ    0.000028  -0.000073   0.000161   0.000267  -0.000079
   47  O  3 XY    0.000000   0.000000   0.000000   0.000000   0.000000
   48  O  3 XZ   -0.000054   0.000247  -0.000229  -0.000521   0.000222
   49  O  3 YZ    0.000000   0.000000   0.000000   0.000000   0.000000

                      6          7          8          9         10
                   -5.8628    -5.8598    -0.9557    -0.9112    -0.6383
                     B2         A1         A1         B1         A1  
    1  S  1  S    0.000000   0.002860   0.044556   0.000000   0.072174
    2  S  1  S    0.000000  -0.010897  -0.129938   0.000000  -0.204291
    3  S  1  S    0.000000  -0.000015   0.262388   0.000000   0.453947
    4  S  1  S    0.000000  -0.000504   0.177209   0.000000   0.424778
    5  S  1  X    0.000000   0.000000   0.000000   0.092044   0.000000
    6  S  1  Y    0.996953   0.000000   0.000000   0.000000   0.000000
    7  S  1  Z    0.000000   0.996951  -0.032578   0.000000   0.007464
    8  S  1  X    0.000000   0.000000   0.000000  -0.183074   0.000000
    9  S  1  Y    0.008749   0.000000   0.000000   0.000000   0.000000
   10  S  1  Z    0.000000   0.008552   0.067139   0.000000  -0.009034
   11  S  1  X    0.000000   0.000000   0.000000  -0.024041   0.000000
   12  S  1  Y   -0.000131   0.000000   0.000000   0.000000   0.000000
   13  S  1  Z    0.000000  -0.000175   0.008395   0.000000  -0.021286
   14  S  1 XX    0.000000  -0.000499   0.042804   0.000000  -0.014657
   15  S  1 YY    0.000000  -0.000245  -0.025928   0.000000   0.011517
   16  S  1 ZZ    0.000000   0.000744  -0.016875   0.000000   0.003140
   17  S  1 XY    0.000000   0.000000   0.000000   0.000000   0.000000
   18  S  1 XZ    0.000000   0.000000   0.000000  -0.035859   0.000000
   19  S  1 YZ    0.000581   0.000000   0.000000   0.000000   0.000000
   20  O  2  S    0.000000  -0.000052  -0.129763  -0.150589   0.099305
   21  O  2  S    0.000000  -0.000133   0.260393   0.303269  -0.206772
   22  O  2  S    0.000000   0.000365   0.315341   0.384050  -0.316938
   23  O  2  X    0.000000   0.000059   0.082491   0.073771   0.114580
   24  O  2  Y    0.000007   0.000000   0.000000   0.000000   0.000000
   25  O  2  Z    0.000000  -0.000013  -0.027062  -0.026058  -0.040758
   26  O  2  X    0.000000   0.000231   0.039265   0.038695   0.053425
   27  O  2  Y   -0.000049   0.000000   0.000000   0.000000   0.000000
   28  O  2  Z    0.000000  -0.000151  -0.011695  -0.015426  -0.014666
   29  O  2 XX    0.000000   0.000166   0.010317   0.008002   0.006766
   30  O  2 YY    0.000000  -0.000100  -0.004380  -0.003180  -0.005275
   31  O  2 ZZ    0.000000  -0.000067  -0.005937  -0.004823  -0.001491
   32  O  2 XY    0.000002   0.000000   0.000000   0.000000   0.000000
   33  O  2 XZ    0.000000  -0.000128  -0.004709  -0.004739  -0.005243
   34  O  2 YZ   -0.000008   0.000000   0.000000   0.000000   0.000000
   35  O  3  S    0.000000  -0.000052  -0.129763   0.150589   0.099305
   36  O  3  S    0.000000  -0.000133   0.260393  -0.303269  -0.206772
   37  O  3  S    0.000000   0.000365   0.315341  -0.384050  -0.316938
   38  O  3  X    0.000000  -0.000059  -0.082491   0.073771  -0.114580
   39  O  3  Y    0.000007   0.000000   0.000000   0.000000   0.000000
   40  O  3  Z    0.000000  -0.000013  -0.027062   0.026058  -0.040758
   41  O  3  X    0.000000  -0.000231  -0.039265   0.038695  -0.053425
   42  O  3  Y   -0.000049   0.000000   0.000000   0.000000   0.000000
   43  O  3  Z    0.000000  -0.000151  -0.011695   0.015426  -0.014666
   44  O  3 XX    0.000000   0.000166   0.010317  -0.008002   0.006766
   45  O  3 YY    0.000000  -0.000100  -0.004380   0.003180  -0.005275
   46  O  3 ZZ    0.000000  -0.000067  -0.005937   0.004823  -0.001491
   47  O  3 XY   -0.000002   0.000000   0.000000   0.000000   0.000000
   48  O  3 XZ    0.000000   0.000128   0.004709  -0.004739   0.005243
   49  O  3 YZ   -0.000008   0.000000   0.000000   0.000000   0.000000

                     11         12         13         14         15
                   -0.4391    -0.3986    -0.3974    -0.3198    -0.3093
                     B1         B2         A1         A2         B1  
    1  S  1  S    0.000000   0.000000  -0.010101   0.000000   0.000000
    2  S  1  S    0.000000   0.000000   0.039643   0.000000   0.000000
    3  S  1  S    0.000000   0.000000  -0.049705   0.000000   0.000000
    4  S  1  S    0.000000   0.000000  -0.158073   0.000000   0.000000
    5  S  1  X   -0.177868   0.000000   0.000000   0.000000  -0.019205
    6  S  1  Y    0.000000  -0.206748   0.000000   0.000000   0.000000
    7  S  1  Z    0.000000   0.000000  -0.206876   0.000000   0.000000
    8  S  1  X    0.420688   0.000000   0.000000   0.000000   0.041814
    9  S  1  Y    0.000000   0.486176   0.000000   0.000000   0.000000
   10  S  1  Z    0.000000   0.000000   0.485345   0.000000   0.000000
   11  S  1  X    0.082861   0.000000   0.000000   0.000000   0.093476
   12  S  1  Y    0.000000   0.306775   0.000000   0.000000   0.000000
   13  S  1  Z    0.000000   0.000000   0.285022   0.000000   0.000000
   14  S  1 XX    0.000000   0.000000  -0.011471   0.000000   0.000000
   15  S  1 YY    0.000000   0.000000  -0.019695   0.000000   0.000000
   16  S  1 ZZ    0.000000   0.000000   0.031166   0.000000   0.000000
   17  S  1 XY    0.000000   0.000000   0.000000  -0.093079   0.000000
   18  S  1 XZ    0.033512   0.000000   0.000000   0.000000  -0.086417
   19  S  1 YZ    0.000000   0.029641   0.000000   0.000000   0.000000
   20  O  2  S   -0.057938   0.000000   0.014625   0.000000  -0.002269
   21  O  2  S    0.123501   0.000000  -0.028918   0.000000   0.000817
   22  O  2  S    0.197776   0.000000  -0.060907   0.000000   0.037675
   23  O  2  X   -0.335213   0.000000   0.222875   0.000000   0.216032
   24  O  2  Y    0.000000   0.295252   0.000000   0.469284   0.000000
   25  O  2  Z    0.142118   0.000000   0.195720   0.000000   0.415359
   26  O  2  X   -0.203659   0.000000   0.143028   0.000000   0.158012
   27  O  2  Y    0.000000   0.182505   0.000000   0.334590   0.000000
   28  O  2  Z    0.092510   0.000000   0.122527   0.000000   0.290446
   29  O  2 XX   -0.010566   0.000000   0.013658   0.000000   0.008492
   30  O  2 YY    0.008011   0.000000  -0.003581   0.000000   0.000224
   31  O  2 ZZ    0.002555   0.000000  -0.010077   0.000000  -0.008717
   32  O  2 XY    0.000000   0.015896   0.000000   0.014759   0.000000
   33  O  2 XZ    0.010754   0.000000   0.008443   0.000000   0.011859
   34  O  2 YZ    0.000000  -0.005392   0.000000  -0.005535   0.000000
   35  O  3  S    0.057938   0.000000   0.014625   0.000000   0.002269
   36  O  3  S   -0.123501   0.000000  -0.028918   0.000000  -0.000817
   37  O  3  S   -0.197776   0.000000  -0.060907   0.000000  -0.037675
   38  O  3  X   -0.335213   0.000000  -0.222875   0.000000   0.216032
   39  O  3  Y    0.000000   0.295252   0.000000  -0.469284   0.000000
   40  O  3  Z   -0.142118   0.000000   0.195720   0.000000  -0.415359
   41  O  3  X   -0.203659   0.000000  -0.143028   0.000000   0.158012
   42  O  3  Y    0.000000   0.182505   0.000000  -0.334590   0.000000
   43  O  3  Z   -0.092510   0.000000   0.122527   0.000000  -0.290446
   44  O  3 XX    0.010566   0.000000   0.013658   0.000000  -0.008492
   45  O  3 YY   -0.008011   0.000000  -0.003581   0.000000  -0.000224
   46  O  3 ZZ   -0.002555   0.000000  -0.010077   0.000000   0.008717
   47  O  3 XY    0.000000  -0.015896   0.000000   0.014759   0.000000
   48  O  3 XZ    0.010754   0.000000  -0.008443   0.000000   0.011859
   49  O  3 YZ    0.000000  -0.005392   0.000000   0.005535   0.000000

                     16         17         18         19         20
                   -0.2786    -0.2179    -0.1572     0.0064     0.3399
                     A1         B2         A1         B1         B1  
    1  S  1  S    0.021517   0.000000   0.022218   0.000000   0.000000
    2  S  1  S   -0.090528   0.000000  -0.074857   0.000000   0.000000
    3  S  1  S    0.101918   0.000000   0.134048   0.000000   0.000000
    4  S  1  S    0.425295   0.000000   0.391342   0.000000   0.000000
    5  S  1  X    0.000000   0.000000   0.000000  -0.220695   0.276215
    6  S  1  Y    0.000000  -0.205059   0.000000   0.000000   0.000000
    7  S  1  Z    0.073779   0.000000  -0.189834   0.000000   0.000000
    8  S  1  X    0.000000   0.000000   0.000000   0.575218  -1.052499
    9  S  1  Y    0.000000   0.512973   0.000000   0.000000   0.000000
   10  S  1  Z   -0.180583   0.000000   0.483722   0.000000   0.000000
   11  S  1  X    0.000000   0.000000   0.000000   0.966134   1.611691
   12  S  1  Y    0.000000   0.387572   0.000000   0.000000   0.000000
   13  S  1  Z   -0.059320   0.000000   0.456621   0.000000   0.000000
   14  S  1 XX   -0.128848   0.000000  -0.102132   0.000000   0.000000
   15  S  1 YY    0.059097   0.000000   0.078769   0.000000   0.000000
   16  S  1 ZZ    0.069751   0.000000   0.023363   0.000000   0.000000
   17  S  1 XY    0.000000   0.000000   0.000000   0.000000   0.000000
   18  S  1 XZ    0.000000   0.000000   0.000000  -0.149501  -0.060720
   19  S  1 YZ    0.000000  -0.022072   0.000000   0.000000   0.000000
   20  O  2  S    0.000410   0.000000   0.024048  -0.055661  -0.017914
   21  O  2  S   -0.000948   0.000000  -0.050019   0.099303  -0.026398
   22  O  2  S   -0.035641   0.000000  -0.166499   0.488830   0.568583
   23  O  2  X   -0.210986   0.000000  -0.376573   0.240655  -0.263472
   24  O  2  Y    0.000000  -0.396992   0.000000   0.000000   0.000000
   25  O  2  Z    0.407584   0.000000  -0.156309  -0.232547   0.009838
   26  O  2  X   -0.155511   0.000000  -0.309483   0.304887   0.179803
   27  O  2  Y    0.000000  -0.301719   0.000000   0.000000   0.000000
   28  O  2  Z    0.293716   0.000000  -0.119773  -0.215353  -0.102981
   29  O  2 XX   -0.001872   0.000000   0.000131   0.004399   0.042140
   30  O  2 YY    0.003659   0.000000   0.001490   0.001131  -0.024679
   31  O  2 ZZ   -0.001787   0.000000  -0.001622  -0.005530  -0.017461
   32  O  2 XY    0.000000  -0.000761   0.000000   0.000000   0.000000
   33  O  2 XZ    0.009688   0.000000   0.004255   0.006443  -0.026084
   34  O  2 YZ    0.000000   0.000012   0.000000   0.000000   0.000000
   35  O  3  S    0.000410   0.000000   0.024048   0.055661   0.017914
   36  O  3  S   -0.000948   0.000000  -0.050019  -0.099303   0.026398
   37  O  3  S   -0.035641   0.000000  -0.166499  -0.488830  -0.568583
   38  O  3  X    0.210986   0.000000   0.376573   0.240655  -0.263472
   39  O  3  Y    0.000000  -0.396992   0.000000   0.000000   0.000000
   40  O  3  Z    0.407584   0.000000  -0.156309   0.232547  -0.009838
   41  O  3  X    0.155511   0.000000   0.309483   0.304887   0.179803
   42  O  3  Y    0.000000  -0.301719   0.000000   0.000000   0.000000
   43  O  3  Z    0.293716   0.000000  -0.119773   0.215353   0.102981
   44  O  3 XX   -0.001872   0.000000   0.000131  -0.004399  -0.042140
   45  O  3 YY    0.003659   0.000000   0.001490  -0.001131   0.024679
   46  O  3 ZZ   -0.001787   0.000000  -0.001622   0.005530   0.017461
   47  O  3 XY    0.000000   0.000761   0.000000   0.000000   0.000000
   48  O  3 XZ   -0.009688   0.000000  -0.004255   0.006443  -0.026084
   49  O  3 YZ    0.000000   0.000012   0.000000   0.000000   0.000000

                     21         22         23         24         25
                    0.3650     0.3659     0.3884     0.4785     0.4996
                     A1         B2         A1         A2         B2  
    1  S  1  S   -0.026152   0.000000  -0.109356   0.000000   0.000000
    2  S  1  S   -0.128050   0.000000  -0.378665   0.000000   0.000000
    3  S  1  S   -0.445257   0.000000  -1.667622   0.000000   0.000000
    4  S  1  S    0.720345   0.000000   1.964365   0.000000   0.000000
    5  S  1  X    0.000000   0.000000   0.000000   0.000000   0.000000
    6  S  1  Y    0.000000   0.291723   0.000000   0.000000   0.046654
    7  S  1  Z    0.275187   0.000000  -0.079316   0.000000   0.000000
    8  S  1  X    0.000000   0.000000   0.000000   0.000000   0.000000
    9  S  1  Y    0.000000  -1.131344   0.000000   0.000000  -0.176752
   10  S  1  Z   -1.066684   0.000000   0.305509   0.000000   0.000000
   11  S  1  X    0.000000   0.000000   0.000000   0.000000   0.000000
   12  S  1  Y    0.000000   1.239778   0.000000   0.000000   0.135963
   13  S  1  Z    1.279183   0.000000  -0.227698   0.000000   0.000000
   14  S  1 XX    0.010506   0.000000  -0.247271   0.000000   0.000000
   15  S  1 YY    0.141595   0.000000   0.119829   0.000000   0.000000
   16  S  1 ZZ   -0.152101   0.000000   0.127442   0.000000   0.000000
   17  S  1 XY    0.000000   0.000000   0.000000   0.846206   0.000000
   18  S  1 XZ    0.000000   0.000000   0.000000   0.000000   0.000000
   19  S  1 YZ    0.000000  -0.155632   0.000000   0.000000   0.957373
   20  O  2  S    0.011906   0.000000   0.010424   0.000000   0.000000
   21  O  2  S   -0.006121   0.000000  -0.026399   0.000000   0.000000
   22  O  2  S   -0.258437   0.000000  -0.195208   0.000000   0.000000
   23  O  2  X    0.067896   0.000000   0.078571   0.000000   0.000000
   24  O  2  Y    0.000000  -0.084712   0.000000   0.351459  -0.167366
   25  O  2  Z   -0.123065   0.000000  -0.083235   0.000000   0.000000
   26  O  2  X   -0.163257   0.000000  -0.117064   0.000000   0.000000
   27  O  2  Y    0.000000  -0.099179   0.000000  -0.180202   0.083939
   28  O  2  Z   -0.042400   0.000000   0.083520   0.000000   0.000000
   29  O  2 XX   -0.032972   0.000000  -0.030588   0.000000   0.000000
   30  O  2 YY    0.018195   0.000000   0.023799   0.000000   0.000000
   31  O  2 ZZ    0.014778   0.000000   0.006789   0.000000   0.000000
   32  O  2 XY    0.000000  -0.015789   0.000000  -0.054279   0.027502
   33  O  2 XZ    0.006333   0.000000   0.036487   0.000000   0.000000
   34  O  2 YZ    0.000000   0.002894   0.000000   0.025891   0.010526
   35  O  3  S    0.011906   0.000000   0.010424   0.000000   0.000000
   36  O  3  S   -0.006121   0.000000  -0.026399   0.000000   0.000000
   37  O  3  S   -0.258437   0.000000  -0.195208   0.000000   0.000000
   38  O  3  X   -0.067896   0.000000  -0.078571   0.000000   0.000000
   39  O  3  Y    0.000000  -0.084712   0.000000  -0.351459  -0.167366
   40  O  3  Z   -0.123065   0.000000  -0.083235   0.000000   0.000000
   41  O  3  X    0.163257   0.000000   0.117064   0.000000   0.000000
   42  O  3  Y    0.000000  -0.099179   0.000000   0.180202   0.083939
   43  O  3  Z   -0.042400   0.000000   0.083520   0.000000   0.000000
   44  O  3 XX   -0.032972   0.000000  -0.030588   0.000000   0.000000
   45  O  3 YY    0.018195   0.000000   0.023799   0.000000   0.000000
   46  O  3 ZZ    0.014778   0.000000   0.006789   0.000000   0.000000
   47  O  3 XY    0.000000   0.015789   0.000000  -0.054279  -0.027502
   48  O  3 XZ   -0.006333   0.000000  -0.036487   0.000000   0.000000
   49  O  3 YZ    0.000000   0.002894   0.000000  -0.025891   0.010526

                     26         27         28         29         30
                    0.5003     0.6006     0.6925     0.7834     0.7937
                     A1         B1         A1         B1         A2  
    1  S  1  S    0.002530   0.000000  -0.017854   0.000000   0.000000
    2  S  1  S    0.004798   0.000000  -0.160139   0.000000   0.000000
    3  S  1  S    0.033561   0.000000  -0.389053   0.000000   0.000000
    4  S  1  S   -0.024041   0.000000   1.297225   0.000000   0.000000
    5  S  1  X    0.000000  -0.026384   0.000000  -0.064220   0.000000
    6  S  1  Y    0.000000   0.000000   0.000000   0.000000   0.000000
    7  S  1  Z    0.051681   0.000000  -0.037539   0.000000   0.000000
    8  S  1  X    0.000000   0.087469   0.000000   0.372547   0.000000
    9  S  1  Y    0.000000   0.000000   0.000000   0.000000   0.000000
   10  S  1  Z   -0.196034   0.000000   0.160921   0.000000   0.000000
   11  S  1  X    0.000000   0.742757   0.000000  -0.204451   0.000000
   12  S  1  Y    0.000000   0.000000   0.000000   0.000000   0.000000
   13  S  1  Z    0.157597   0.000000   0.274991   0.000000   0.000000
   14  S  1 XX   -0.106365   0.000000   0.792010   0.000000   0.000000
   15  S  1 YY   -0.761670   0.000000  -0.549579   0.000000   0.000000
   16  S  1 ZZ    0.868035   0.000000  -0.242431   0.000000   0.000000
   17  S  1 XY    0.000000   0.000000   0.000000   0.000000   0.548070
   18  S  1 XZ    0.000000   0.868706   0.000000   0.303995   0.000000
   19  S  1 YZ    0.000000   0.000000   0.000000   0.000000   0.000000
   20  O  2  S    0.000043  -0.051685   0.061642  -0.012035   0.000000
   21  O  2  S    0.001899   0.212577  -0.301876   0.044097   0.000000
   22  O  2  S   -0.014992   0.286209  -0.196926  -0.019647   0.000000
   23  O  2  X   -0.055323   0.060540   0.265560  -0.455314   0.000000
   24  O  2  Y    0.000000   0.000000   0.000000   0.000000  -0.548748
   25  O  2  Z   -0.179021   0.280432   0.073002  -0.369583   0.000000
   26  O  2  X    0.030046   0.364754  -0.830202   0.705960   0.000000
   27  O  2  Y    0.000000   0.000000   0.000000   0.000000   0.745231
   28  O  2  Z    0.087134  -0.375418   0.121478   0.426635   0.000000
   29  O  2 XX    0.013573  -0.036714   0.006967  -0.049167   0.000000
   30  O  2 YY   -0.015000   0.000612  -0.017492   0.021003   0.000000
   31  O  2 ZZ    0.001426   0.036101   0.010525   0.028164   0.000000
   32  O  2 XY    0.000000   0.000000   0.000000   0.000000  -0.055765
   33  O  2 XZ    0.026457  -0.030978  -0.029231   0.005806   0.000000
   34  O  2 YZ    0.000000   0.000000   0.000000   0.000000   0.025255
   35  O  3  S    0.000043   0.051685   0.061642   0.012035   0.000000
   36  O  3  S    0.001899  -0.212577  -0.301876  -0.044097   0.000000
   37  O  3  S   -0.014992  -0.286209  -0.196926   0.019647   0.000000
   38  O  3  X    0.055323   0.060540  -0.265560  -0.455314   0.000000
   39  O  3  Y    0.000000   0.000000   0.000000   0.000000   0.548748
   40  O  3  Z   -0.179021  -0.280432   0.073002   0.369583   0.000000
   41  O  3  X   -0.030046   0.364754   0.830202   0.705960   0.000000
   42  O  3  Y    0.000000   0.000000   0.000000   0.000000  -0.745231
   43  O  3  Z    0.087134   0.375418   0.121478  -0.426635   0.000000
   44  O  3 XX    0.013573   0.036714   0.006967   0.049167   0.000000
   45  O  3 YY   -0.015000  -0.000612  -0.017492  -0.021003   0.000000
   46  O  3 ZZ    0.001426  -0.036101   0.010525  -0.028164   0.000000
   47  O  3 XY    0.000000   0.000000   0.000000   0.000000  -0.055765
   48  O  3 XZ   -0.026457  -0.030978   0.029231   0.005806   0.000000
   49  O  3 YZ    0.000000   0.000000   0.000000   0.000000  -0.025255

                     31         32         33         34         35
                    0.8194     0.8269     0.8376     0.8725     1.5447
                     A1         B2         B1         A1         A1  
    1  S  1  S    0.022361   0.000000   0.000000  -0.033678  -0.022123
    2  S  1  S    0.090726   0.000000   0.000000  -0.155884  -0.234937
    3  S  1  S    0.369967   0.000000   0.000000  -0.578642  -0.524394
    4  S  1  S   -0.131436   0.000000   0.000000   0.428963   1.650657
    5  S  1  X    0.000000   0.000000   0.065313   0.000000   0.000000
    6  S  1  Y    0.000000  -0.027208   0.000000   0.000000   0.000000
    7  S  1  Z   -0.036902   0.000000   0.000000  -0.005123  -0.010362
    8  S  1  X    0.000000   0.000000  -0.417161   0.000000   0.000000
    9  S  1  Y    0.000000   0.141269   0.000000   0.000000   0.000000
   10  S  1  Z    0.213645   0.000000   0.000000  -0.020277   0.058531
   11  S  1  X    0.000000   0.000000   0.152963   0.000000   0.000000
   12  S  1  Y    0.000000  -0.591292   0.000000   0.000000   0.000000
   13  S  1  Z   -0.524621   0.000000   0.000000  -0.163208   0.488274
   14  S  1 XX    0.022917   0.000000   0.000000   0.659442   0.378863
   15  S  1 YY    0.192910   0.000000   0.000000  -0.299613  -0.259008
   16  S  1 ZZ   -0.215827   0.000000   0.000000  -0.359829  -0.119856
   17  S  1 XY    0.000000   0.000000   0.000000   0.000000   0.000000
   18  S  1 XZ    0.000000   0.000000   0.461933   0.000000   0.000000
   19  S  1 YZ    0.000000  -0.248347   0.000000   0.000000   0.000000
   20  O  2  S   -0.002101   0.000000   0.004169   0.013310  -0.009893
   21  O  2  S    0.035291   0.000000  -0.081906  -0.008002   1.123546
   22  O  2  S    0.032327   0.000000   0.124007  -0.127379  -1.585950
   23  O  2  X    0.118867   0.000000   0.395662  -0.552122   0.102978
   24  O  2  Y    0.000000  -0.614170   0.000000   0.000000   0.000000
   25  O  2  Z   -0.598896   0.000000  -0.426455  -0.072325   0.037884
   26  O  2  X   -0.127338   0.000000  -0.457936   0.520037  -0.622290
   27  O  2  Y    0.000000   0.869284   0.000000   0.000000   0.000000
   28  O  2  Z    0.820688   0.000000   0.571886   0.252920   0.047047
   29  O  2 XX    0.014041   0.000000  -0.003328  -0.034345   0.183930
   30  O  2 YY   -0.010540   0.000000  -0.019083  -0.000683  -0.113955
   31  O  2 ZZ   -0.003501   0.000000   0.022411   0.035029  -0.069975
   32  O  2 XY    0.000000  -0.031935   0.000000   0.000000   0.000000
   33  O  2 XZ   -0.037368   0.000000  -0.053764  -0.043639  -0.095215
   34  O  2 YZ    0.000000   0.003864   0.000000   0.000000   0.000000
   35  O  3  S   -0.002101   0.000000  -0.004169   0.013310  -0.009893
   36  O  3  S    0.035291   0.000000   0.081906  -0.008002   1.123546
   37  O  3  S    0.032327   0.000000  -0.124007  -0.127379  -1.585950
   38  O  3  X   -0.118867   0.000000   0.395662   0.552122  -0.102978
   39  O  3  Y    0.000000  -0.614170   0.000000   0.000000   0.000000
   40  O  3  Z   -0.598896   0.000000   0.426455  -0.072325   0.037884
   41  O  3  X    0.127338   0.000000  -0.457936  -0.520037   0.622290
   42  O  3  Y    0.000000   0.869284   0.000000   0.000000   0.000000
   43  O  3  Z    0.820688   0.000000  -0.571886   0.252920   0.047047
   44  O  3 XX    0.014041   0.000000   0.003328  -0.034345   0.183930
   45  O  3 YY   -0.010540   0.000000   0.019083  -0.000683  -0.113955
   46  O  3 ZZ   -0.003501   0.000000  -0.022411   0.035029  -0.069975
   47  O  3 XY    0.000000   0.031935   0.000000   0.000000   0.000000
   48  O  3 XZ    0.037368   0.000000  -0.053764   0.043639   0.095215
   49  O  3 YZ    0.000000   0.003864   0.000000   0.000000   0.000000

                     36         37         38         39         40
                    1.6555     2.0743     2.0744     2.0791     2.0813
                     B1         B1         A2         B2         A1  
    1  S  1  S    0.000000   0.000000   0.000000   0.000000  -0.001197
    2  S  1  S    0.000000   0.000000   0.000000   0.000000  -0.003168
    3  S  1  S    0.000000   0.000000   0.000000   0.000000  -0.017391
    4  S  1  S    0.000000   0.000000   0.000000   0.000000   0.013471
    5  S  1  X   -0.026660  -0.000513   0.000000   0.000000   0.000000
    6  S  1  Y    0.000000   0.000000   0.000000  -0.009188   0.000000
    7  S  1  Z    0.000000   0.000000   0.000000   0.000000   0.003551
    8  S  1  X    0.140287  -0.000430   0.000000   0.000000   0.000000
    9  S  1  Y    0.000000   0.000000   0.000000   0.021024   0.000000
   10  S  1  Z    0.000000   0.000000   0.000000   0.000000  -0.011790
   11  S  1  X    1.354844   0.024154   0.000000   0.000000   0.000000
   12  S  1  Y    0.000000   0.000000   0.000000   0.041209   0.000000
   13  S  1  Z    0.000000   0.000000   0.000000   0.000000   0.000827
   14  S  1 XX    0.000000   0.000000   0.000000   0.000000   0.013743
   15  S  1 YY    0.000000   0.000000   0.000000   0.000000  -0.050017
   16  S  1 ZZ    0.000000   0.000000   0.000000   0.000000   0.036274
   17  S  1 XY    0.000000   0.000000   0.025416   0.000000   0.000000
   18  S  1 XZ    0.296524  -0.026456   0.000000   0.000000   0.000000
   19  S  1 YZ    0.000000   0.000000   0.000000  -0.014650   0.000000
   20  O  2  S    0.005371   0.000505   0.000000   0.000000   0.000862
   21  O  2  S   -1.208091  -0.013483   0.000000   0.000000  -0.003036
   22  O  2  S    1.876822   0.019879   0.000000   0.000000  -0.003434
   23  O  2  X   -0.048527  -0.000178   0.000000   0.000000  -0.006331
   24  O  2  Y    0.000000   0.000000  -0.004383   0.013757   0.000000
   25  O  2  Z    0.092175   0.007199   0.000000   0.000000   0.000993
   26  O  2  X    0.478696   0.000284   0.000000   0.000000   0.003321
   27  O  2  Y    0.000000   0.000000   0.007235  -0.023572   0.000000
   28  O  2  Z   -0.347424  -0.012009   0.000000   0.000000  -0.001271
   29  O  2 XX   -0.165692  -0.147985   0.000000   0.000000  -0.022712
   30  O  2 YY    0.096349   0.606087   0.000000   0.000000   0.598223
   31  O  2 ZZ    0.069344  -0.458101   0.000000   0.000000  -0.575511
   32  O  2 XY    0.000000   0.000000   0.336590   0.002769   0.000000
   33  O  2 XZ    0.117271  -0.317426   0.000000   0.000000  -0.200471
   34  O  2 YZ    0.000000   0.000000   0.621956   0.707635   0.000000
   35  O  3  S   -0.005371  -0.000505   0.000000   0.000000   0.000862
   36  O  3  S    1.208091   0.013483   0.000000   0.000000  -0.003036
   37  O  3  S   -1.876822  -0.019879   0.000000   0.000000  -0.003434
   38  O  3  X   -0.048527  -0.000178   0.000000   0.000000   0.006331
   39  O  3  Y    0.000000   0.000000   0.004383   0.013757   0.000000
   40  O  3  Z   -0.092175  -0.007199   0.000000   0.000000   0.000993
   41  O  3  X    0.478696   0.000284   0.000000   0.000000  -0.003321
   42  O  3  Y    0.000000   0.000000  -0.007235  -0.023572   0.000000
   43  O  3  Z    0.347424   0.012009   0.000000   0.000000  -0.001271
   44  O  3 XX    0.165692   0.147985   0.000000   0.000000  -0.022712
   45  O  3 YY   -0.096349  -0.606087   0.000000   0.000000   0.598223
   46  O  3 ZZ   -0.069344   0.458101   0.000000   0.000000  -0.575511
   47  O  3 XY    0.000000   0.000000   0.336590  -0.002769   0.000000
   48  O  3 XZ    0.117271  -0.317426   0.000000   0.000000   0.200471
   49  O  3 YZ    0.000000   0.000000  -0.621956   0.707635   0.000000

                     41         42         43         44         45
                    2.0990     2.1336     2.1465     2.1819     2.5044
                     B2         B1         A1         A2         B1  
    1  S  1  S    0.000000   0.000000  -0.003263   0.000000   0.000000
    2  S  1  S    0.000000   0.000000   0.026110   0.000000   0.000000
    3  S  1  S    0.000000   0.000000  -0.006398   0.000000   0.000000
    4  S  1  S    0.000000   0.000000  -0.221428   0.000000   0.000000
    5  S  1  X    0.000000   0.039726   0.000000   0.000000  -0.162899
    6  S  1  Y    0.024400   0.000000   0.000000   0.000000   0.000000
    7  S  1  Z    0.000000   0.000000   0.034634   0.000000   0.000000
    8  S  1  X    0.000000  -0.155099   0.000000   0.000000   0.678179
    9  S  1  Y   -0.051774   0.000000   0.000000   0.000000   0.000000
   10  S  1  Z    0.000000   0.000000  -0.096975   0.000000   0.000000
   11  S  1  X    0.000000  -0.092752   0.000000   0.000000   0.411533
   12  S  1  Y   -0.138523   0.000000   0.000000   0.000000   0.000000
   13  S  1  Z    0.000000   0.000000  -0.198436   0.000000   0.000000
   14  S  1 XX    0.000000   0.000000   0.082574   0.000000   0.000000
   15  S  1 YY    0.000000   0.000000   0.076284   0.000000   0.000000
   16  S  1 ZZ    0.000000   0.000000  -0.158857   0.000000   0.000000
   17  S  1 XY    0.000000   0.000000   0.000000   0.326785   0.000000
   18  S  1 XZ    0.000000   0.194290   0.000000   0.000000   0.445173
   19  S  1 YZ   -0.134816   0.000000   0.000000   0.000000   0.000000
   20  O  2  S    0.000000  -0.000823   0.000844   0.000000  -0.013328
   21  O  2  S    0.000000   0.116444  -0.156884   0.000000  -0.493915
   22  O  2  S    0.000000  -0.164377   0.232430   0.000000   0.850767
   23  O  2  X    0.000000   0.032270  -0.065772   0.000000  -0.069455
   24  O  2  Y   -0.047586   0.000000   0.000000  -0.038898   0.000000
   25  O  2  Z    0.000000  -0.049470  -0.037675   0.000000   0.028508
   26  O  2  X    0.000000  -0.066677   0.165156   0.000000   0.468379
   27  O  2  Y    0.093232   0.000000   0.000000   0.088389   0.000000
   28  O  2  Z    0.000000   0.096744   0.075403   0.000000  -0.168322
   29  O  2 XX    0.000000   0.261639   0.497848   0.000000   0.671908
   30  O  2 YY    0.000000   0.172791  -0.110281   0.000000  -0.335142
   31  O  2 ZZ    0.000000  -0.434430  -0.387567   0.000000  -0.336767
   32  O  2 XY    0.712884   0.000000   0.000000   0.630001   0.000000
   33  O  2 XZ    0.000000   0.558819   0.482966   0.000000  -0.302406
   34  O  2 YZ   -0.006357   0.000000   0.000000  -0.338928   0.000000
   35  O  3  S    0.000000   0.000823   0.000844   0.000000   0.013328
   36  O  3  S    0.000000  -0.116444  -0.156884   0.000000   0.493915
   37  O  3  S    0.000000   0.164377   0.232430   0.000000  -0.850767
   38  O  3  X    0.000000   0.032270   0.065772   0.000000  -0.069455
   39  O  3  Y   -0.047586   0.000000   0.000000   0.038898   0.000000
   40  O  3  Z    0.000000   0.049470  -0.037675   0.000000  -0.028508
   41  O  3  X    0.000000  -0.066677  -0.165156   0.000000   0.468379
   42  O  3  Y    0.093232   0.000000   0.000000  -0.088389   0.000000
   43  O  3  Z    0.000000  -0.096744   0.075403   0.000000   0.168322
   44  O  3 XX    0.000000  -0.261639   0.497848   0.000000  -0.671908
   45  O  3 YY    0.000000  -0.172791  -0.110281   0.000000   0.335142
   46  O  3 ZZ    0.000000   0.434430  -0.387567   0.000000   0.336767
   47  O  3 XY   -0.712884   0.000000   0.000000   0.630001   0.000000
   48  O  3 XZ    0.000000   0.558819  -0.482966   0.000000  -0.302406
   49  O  3 YZ   -0.006357   0.000000   0.000000   0.338928   0.000000

                     46
                    2.5770
                     A1  
    1  S  1  S    0.016657
    2  S  1  S   -0.136537
    3  S  1  S    0.024301
    4  S  1  S    1.049858
    5  S  1  X    0.000000
    6  S  1  Y    0.000000
    7  S  1  Z   -0.060343
    8  S  1  X    0.000000
    9  S  1  Y    0.000000
   10  S  1  Z    0.260633
   11  S  1  X    0.000000
   12  S  1  Y    0.000000
   13  S  1  Z    0.161223
   14  S  1 XX    0.687357
   15  S  1 YY   -0.397488
   16  S  1 ZZ   -0.289869
   17  S  1 XY    0.000000
   18  S  1 XZ    0.000000
   19  S  1 YZ    0.000000
   20  O  2  S    0.017755
   21  O  2  S    0.525552
   22  O  2  S   -0.929468
   23  O  2  X    0.061892
   24  O  2  Y    0.000000
   25  O  2  Z   -0.020294
   26  O  2  X   -0.551459
   27  O  2  Y    0.000000
   28  O  2  Z    0.204803
   29  O  2 XX   -0.529326
   30  O  2 YY    0.379856
   31  O  2 ZZ    0.149470
   32  O  2 XY    0.000000
   33  O  2 XZ    0.517290
   34  O  2 YZ    0.000000
   35  O  3  S    0.017755
   36  O  3  S    0.525552
   37  O  3  S   -0.929468
   38  O  3  X   -0.061892
   39  O  3  Y    0.000000
   40  O  3  Z   -0.020294
   41  O  3  X    0.551459
   42  O  3  Y    0.000000
   43  O  3  Z    0.204803
   44  O  3 XX   -0.529326
   45  O  3 YY    0.379856
   46  O  3 ZZ    0.149470
   47  O  3 XY    0.000000
   48  O  3 XZ   -0.517290
   49  O  3 YZ    0.000000
 ...... END OF RHF CALCULATION ......
 STEP CPU TIME =     4.23 TOTAL CPU TIME =        4.4 (    0.1 MIN)
 TOTAL WALL CLOCK TIME=        4.4 SECONDS, CPU UTILIZATION IS  99.77%

     ---------------------------------------------------------------------
     PROPERTIES FOR THE PBE      DFT FUNCTIONAL (RHF  TYPE) DENSITY MATRIX
     ---------------------------------------------------------------------

          -----------------
          ENERGY COMPONENTS
          -----------------

         WAVEFUNCTION NORMALIZATION =       1.0000000000

                ONE ELECTRON ENERGY =    -935.0175784138
                TWO ELECTRON ENERGY =     296.5349004295
           NUCLEAR REPULSION ENERGY =      90.2881253696
                                      ------------------
                       TOTAL ENERGY =    -548.1945526147

 ELECTRON-ELECTRON POTENTIAL ENERGY =     296.5349004295
  NUCLEUS-ELECTRON POTENTIAL ENERGY =   -1481.8767721497
   NUCLEUS-NUCLEUS POTENTIAL ENERGY =      90.2881253696
                                      ------------------
             TOTAL POTENTIAL ENERGY =   -1095.0537463506
               TOTAL KINETIC ENERGY =     546.8591937358
                 VIRIAL RATIO (V/T) =       2.0024418697

          ---------------------------------------
          MULLIKEN AND LOWDIN POPULATION ANALYSES
          ---------------------------------------

     ATOMIC MULLIKEN POPULATION IN EACH MOLECULAR ORBITAL

                      1          2          3          4          5

                  2.000000   2.000000   2.000000   2.000000   2.000000

    1             2.000004   0.001167   0.000665   2.000427   1.999924
    2            -0.000002   0.999416   0.999667  -0.000213   0.000038
    3            -0.000002   0.999416   0.999667  -0.000213   0.000038

                      6          7          8          9         10

                  2.000000   2.000000   2.000000   2.000000   2.000000

    1             2.000004   1.999967   0.583664   0.210075   1.153692
    2            -0.000002   0.000017   0.708168   0.894962   0.423154
    3            -0.000002   0.000017   0.708168   0.894962   0.423154

                     11         12         13         14         15

                  2.000000   2.000000   2.000000   2.000000   2.000000

    1             0.513299   1.128615   1.114038   0.051737   0.078967
    2             0.743351   0.435692   0.442981   0.974131   0.960517
    3             0.743351   0.435692   0.442981   0.974131   0.960517

                     16

                  2.000000

    1             0.367448
    2             0.816276
    3             0.816276

               ----- POPULATIONS IN EACH AO -----
                             MULLIKEN      LOWDIN
              1  S  1  S      2.00021     1.99602
              2  S  1  S      2.01037     1.97397
              3  S  1  S      1.01124     0.63994
              4  S  1  S      0.89454     0.55782
              5  S  1  X      1.99631     1.95231
              6  S  1  Y      1.99623     1.95514
              7  S  1  Z      1.99669     1.95883
              8  S  1  X      0.63741     0.58041
              9  S  1  Y      0.65961     0.63606
             10  S  1  Z      0.75472     0.73034
             11  S  1  X      0.10460     0.28426
             12  S  1  Y      0.46871     0.51646
             13  S  1  Z      0.42270     0.50073
             14  S  1 XX      0.03795     0.27151
             15  S  1 YY      0.09149     0.27841
             16  S  1 ZZ      0.05174     0.27467
             17  S  1 XY      0.06511     0.06065
             18  S  1 XZ      0.00407     0.08103
             19  S  1 YZ      0.00000     0.00385
             20  O  2  S      1.99806     1.98111
             21  O  2  S      0.85327     0.66963
             22  O  2  S      1.10204     0.59553
             23  O  2  X      0.79074     0.75162
             24  O  2  Y      0.83874     0.80591
             25  O  2  Z      1.08137     1.05035
             26  O  2  X      0.47291     0.55770
             27  O  2  Y      0.56787     0.60411
             28  O  2  Z      0.68097     0.71949
             29  O  2 XX      0.00168     0.21276
             30  O  2 YY      0.00399     0.21120
             31  O  2 ZZ      0.00285     0.20583
             32  O  2 XY      0.00331     0.00347
             33  O  2 XZ      0.00036     0.00465
             34  O  2 YZ      0.00000     0.00043
             35  O  3  S      1.99806     1.98111
             36  O  3  S      0.85327     0.66963
             37  O  3  S      1.10204     0.59553
             38  O  3  X      0.79074     0.75162
             39  O  3  Y      0.83874     0.80591
             40  O  3  Z      1.08137     1.05035
             41  O  3  X      0.47291     0.55770
             42  O  3  Y      0.56787     0.60411
             43  O  3  Z      0.68097     0.71949
             44  O  3 XX      0.00168     0.21276
             45  O  3 YY      0.00399     0.21120
             46  O  3 ZZ      0.00285     0.20583
             47  O  3 XY      0.00331     0.00347
             48  O  3 XZ      0.00036     0.00465
             49  O  3 YZ      0.00000     0.00043

          ----- MULLIKEN ATOMIC OVERLAP POPULATIONS -----
          (OFF-DIAGONAL ELEMENTS NEED TO BE MULTIPLIED BY 2)

             1           2           3

    1   14.7729940
    2    0.2153488   8.1872845
    3    0.2153488  -0.0044791   8.1872845

          TOTAL MULLIKEN AND LOWDIN ATOMIC POPULATIONS
       ATOM         MULL.POP.    CHARGE          LOW.POP.     CHARGE
    1 S            15.203692    0.796308        15.252403    0.747597
    2 O             8.398154   -0.398154         8.373798   -0.373798
    3 O             8.398154   -0.398154         8.373798   -0.373798

          MULLIKEN SPHERICAL HARMONIC POPULATIONS
       ATOM           S       P       D      F      G      H      I    TOTAL
    1 S             5.92    9.04    0.25   0.00   0.00   0.00   0.00   15.20
    2 O             3.95    4.43    0.01   0.00   0.00   0.00   0.00    8.40
    3 O             3.95    4.43    0.01   0.00   0.00   0.00   0.00    8.40

          -------------------------------
          BOND ORDER AND VALENCE ANALYSIS     BOND ORDER THRESHOLD=0.050
          -------------------------------

                   BOND                       BOND                       BOND
  ATOM PAIR DIST  ORDER      ATOM PAIR DIST  ORDER      ATOM PAIR DIST  ORDER
    1   2  1.700  1.642        1   3  1.700  1.642        2   3  3.195  0.486

                       TOTAL       BONDED        FREE
      ATOM            VALENCE     VALENCE     VALENCE
    1 S                 3.285       3.285       0.000
    2 O                 2.129       2.129       0.000
    3 O                 2.129       2.129       0.000

          ---------------------
          ELECTROSTATIC MOMENTS
          ---------------------

 POINT   1           X           Y           Z (BOHR)    CHARGE
                 0.000000    0.000000    0.000000        0.00 (A.U.)
         DX          DY          DZ         /D/  (DEBYE)
     0.000000    0.000000   -1.246618    1.246618
 ...... END OF PROPERTY EVALUATION ......
 STEP CPU TIME =     0.01 TOTAL CPU TIME =        4.4 (    0.1 MIN)
 TOTAL WALL CLOCK TIME=        4.4 SECONDS, CPU UTILIZATION IS  99.77%
               580000  WORDS OF DYNAMIC MEMORY USED
 EXECUTION OF GAMESS TERMINATED NORMALLY Thu Feb 26 00:19:38 2015
 DDI: 263624 bytes (0.3 MB / 0 MWords) used by master data server.

 ----------------------------------------
 CPU timing information for all processes
 ========================================
 0: 4.394 + 0.24 = 4.419
 ----------------------------------------
 ddikick.x: exited gracefully.
----- accounting info -----
Files used on the master node dftfe.crc.nd.edu were:
-rw-r--r-- 1 pmehta1 campus   37475 Feb 26 00:19 /tmp/gamess.dat
-rw-r--r-- 1 pmehta1 campus     142 Feb 26 00:19 /tmp/gamess.F05
-rw-r--r-- 1 pmehta1 campus 1980264 Feb 26 00:19 /tmp/gamess.F08
-rw-r--r-- 1 pmehta1 campus 1220440 Feb 26 00:19 /tmp/gamess.F10
Thu Feb 26 00:19:41 EST 2015
0.236u 0.189s 0:07.84 5.2%	0+0k 0+112io 0pf+0w
