----- GAMESS execution script 'rungms' -----
This job is running on host dftfe.crc.nd.edu
under operating system Linux at Thu Feb 26 00:19:26 EST 2015
Available scratch disk space (Kbyte units) at beginning of the job is
Filesystem     1K-blocks     Used Available Use% Mounted on
/dev/sda2      147771864 22815680 117449752  17% /
GAMESS temporary binary files will be written to /tmp
GAMESS supplementary output files will be written to /tmp
Copying input file gamess.inp to your run's scratch directory...

 Distributed Data Interface kickoff program.
 Initiating 1 compute processes on 1 nodes to run the following command:
 /opt/crc/gamess/2012R1/gamess/gamess.00.x gamess 

          ******************************************************
          *         GAMESS VERSION =  1 MAY 2012 (R1)          *
          *             FROM IOWA STATE UNIVERSITY             *
          * M.W.SCHMIDT, K.K.BALDRIDGE, J.A.BOATZ, S.T.ELBERT, *
          *   M.S.GORDON, J.H.JENSEN, S.KOSEKI, N.MATSUNAGA,   *
          *          K.A.NGUYEN, S.J.SU, T.L.WINDUS,           *
          *       TOGETHER WITH M.DUPUIS, J.A.MONTGOMERY       *
          *         J.COMPUT.CHEM.  14, 1347-1363(1993)        *
          **************** 64 BIT LINUX VERSION ****************

  SINCE 1993, STUDENTS AND POSTDOCS WORKING AT IOWA STATE UNIVERSITY
  AND ALSO IN THEIR VARIOUS JOBS AFTER LEAVING ISU HAVE MADE IMPORTANT
  CONTRIBUTIONS TO THE CODE:
     IVANA ADAMOVIC, CHRISTINE AIKENS, YURI ALEXEEV, POOJA ARORA,
     ANDREY ASADCHEV, ROB BELL, PRADIPTA BANDYOPADHYAY, JONATHAN BENTZ,
     BRETT BODE, GALINA CHABAN, WEI CHEN, CHEOL HO CHOI, PAUL DAY,
     ALBERT DEFUSCO, TIM DUDLEY, DMITRI FEDOROV, GRAHAM FLETCHER,
     MARK FREITAG, KURT GLAESEMANN, DAN KEMP, GRANT MERRILL,
     NORIYUKI MINEZAWA, JONATHAN MULLIN, TAKESHI NAGATA,
     SEAN NEDD, HEATHER NETZLOFF, BOSILJKA NJEGIC, RYAN OLSON, MIKE PAK,
     JIM SHOEMAKER, LYUDMILA SLIPCHENKO, SAROM SOK, JIE SONG,
     TETSUYA TAKETSUGU, SIMON WEBB, SOOHAENG YOO, FEDERICO ZAHARIEV

  ADDITIONAL CODE HAS BEEN PROVIDED BY COLLABORATORS IN OTHER GROUPS:
     IOWA STATE UNIVERSITY:
          JOE IVANIC, LAIMUTIS BYTAUTAS, KLAUS RUEDENBERG
     UNIVERSITY OF TOKYO: KIMIHIKO HIRAO, TAKAHITO NAKAJIMA,
          TAKAO TSUNEDA, MUNEAKI KAMIYA, SUSUMU YANAGISAWA,
          KIYOSHI YAGI, MAHITO CHIBA, SEIKEN TOKURA, NAOAKI KAWAKAMI
     UNIVERSITY OF AARHUS: FRANK JENSEN
     UNIVERSITY OF IOWA: VISVALDAS KAIRYS, HUI LI
     NATIONAL INST. OF STANDARDS AND TECHNOLOGY: WALT STEVENS, DAVID GARMER
     UNIVERSITY OF PISA: BENEDETTA MENNUCCI, JACOPO TOMASI
     UNIVERSITY OF MEMPHIS: HENRY KURTZ, PRAKASHAN KORAMBATH
     UNIVERSITY OF ALBERTA: TOBY ZENG, MARIUSZ KLOBUKOWSKI
     UNIVERSITY OF NEW ENGLAND: MARK SPACKMAN
     MIE UNIVERSITY: HIROAKI UMEDA
     MICHIGAN STATE UNIVERSITY:
          KAROL KOWALSKI, MARTA WLOCH, JEFFREY GOUR, JESSE LUTZ, PIOTR PIECUCH
     UNIVERSITY OF SILESIA: MONIKA MUSIAL, STANISLAW KUCHARSKI
     FACULTES UNIVERSITAIRES NOTRE-DAME DE LA PAIX:
          OLIVIER QUINET, BENOIT CHAMPAGNE
     UNIVERSITY OF CALIFORNIA - SANTA BARBARA: BERNARD KIRTMAN
     INSTITUTE FOR MOLECULAR SCIENCE:
          KAZUYA ISHIMURA, MICHIO KATOUDA, AND SHIGERU NAGASE
     UNIVERSITY OF NOTRE DAME: DAN CHIPMAN
     KYUSHU UNIVERSITY:
          HARUYUKI NAKANO,
          FENG LONG GU, JACEK KORCHOWIEC, MARCIN MAKOWSKI, AND YURIKO AOKI,
          HIROTOSHI MORI AND EISAKU MIYOSHI
     PENNSYLVANIA STATE UNIVERSITY:
          TZVETELIN IORDANOV, CHET SWALINA, JONATHAN SKONE,
          SHARON HAMMES-SCHIFFER
     WASEDA UNIVERSITY:
          MASATO KOBAYASHI, TOMOKO AKAMA, TSUGUKI TOUMA,
          TAKESHI YOSHIKAWA, YASUHIRO IKABATA, HIROMI NAKAI
     UNIVERSITY OF NEBRASKA:
          PEIFENG SU, DEJUN SI, NANDUN THELLAMUREGE, YALI WANG, HUI LI
     UNIVERSITY OF ZURICH:
          ROBERTO PEVERATI, KIM BALDRIDGE
     N. COPERNICUS UNIVERSITY AND JACKSON STATE UNIVERSITY:
          MARIA BARYSZ

 EXECUTION OF GAMESS BEGUN Thu Feb 26 00:19:26 2015

            ECHO OF THE FIRST FEW INPUT CARDS -
 INPUT CARD> $BASIS GBASIS=PC1 $END                                                         
 INPUT CARD> $CONTRL COORD=ZMT ISPHER=1 RUNTYP=ENERGY DFTTYP=PBE $END                       
 INPUT CARD>                                                                                
 INPUT CARD> $DATA                                                                          
 INPUT CARD>Title                                                                           
 INPUT CARD>Cnv 2                                                                           
 INPUT CARD>                                                                                
 INPUT CARD>S                                                                               
 INPUT CARD>O 1 1.70                                                                        
 INPUT CARD>O 1 1.70 2 130.0                                                                
 INPUT CARD> $END                                                                           
    1000000 WORDS OF MEMORY AVAILABLE

     BASIS OPTIONS
     -------------
     GBASIS=PC1          IGAUSS=       0      POLAR=NONE    
     NDFUNC=       0     NFFUNC=       0     DIFFSP=       F
     NPFUNC=       0      DIFFS=       F     BASNAM=        


     RUN TITLE
     ---------
 Title                                                                           

 THE POINT GROUP OF THE MOLECULE IS CNV     
 THE ORDER OF THE PRINCIPAL AXIS IS     2

 YOUR FULLY SUBSTITUTED Z-MATRIX IS
 S   
 O      1   1.7000000
 O      1   1.7000000  2  130.0000

 THE MOMENTS OF INERTIA ARE (AMU-ANGSTROM**2)
 IXX=     8.254   IYY=    75.938   IZZ=    84.192

 ATOM      ATOMIC                      COORDINATES (BOHR)
           CHARGE         X                   Y                   Z
 S          16.0     0.0000000000        0.0000000000       -0.6790261889
 O           8.0    -2.9115447427        0.0000000000        0.6786494217
 O           8.0     2.9115447427        0.0000000000        0.6786494217

          INTERNUCLEAR DISTANCES (ANGS.)
          ------------------------------

                1 S          2 O          3 O     

   1 S       0.0000000    1.7000000 *  1.7000000 *
   2 O       1.7000000 *  0.0000000    3.0814465  
   3 O       1.7000000 *  3.0814465    0.0000000  

  * ... LESS THAN  3.000


     ATOMIC BASIS SET
     ----------------
 THE CONTRACTED PRIMITIVE FUNCTIONS HAVE BEEN UNNORMALIZED
 THE CONTRACTED BASIS FUNCTIONS ARE NOW NORMALIZED TO UNITY

  SHELL TYPE  PRIMITIVE        EXPONENT          CONTRACTION COEFFICIENT(S)

 S         

      1   S       1         55510.0000000    0.000587229760
      1   S       2          8326.7000000    0.004532413947
      1   S       3          1895.6000000    0.023265261648
      1   S       4           536.7700000    0.089696133027
      1   S       5           174.6700000    0.254098332277
      1   S       6            62.5780000    0.438665087637
      1   S       7            23.5730000    0.314547135094
      1   S       8             5.8908000    0.032727897102

      2   S       9          8326.7000000   -0.000019755715
      2   S      10          1895.6000000   -0.000043822381
      2   S      11           536.7700000   -0.001730264906
      2   S      12           174.6700000   -0.009381263460
      2   S      13            62.5780000   -0.064050766303
      2   S      14            23.5730000   -0.082478179196
      2   S      15             5.8908000    0.478342956889
      2   S      16             2.1852000    0.626896670208

      3   S      17          1895.6000000    0.000016227260
      3   S      18           536.7700000    0.000191135619
      3   S      19           174.6700000    0.001952069674
      3   S      20            62.5780000    0.010578701087
      3   S      21            23.5730000    0.022164934551
      3   S      22             5.8908000   -0.184968323118
      3   S      23             2.1852000   -0.480920750976
      3   S      24             0.4528200    1.243822243872

      4   S      25             0.1620200    1.000000000000

      5   P      26           395.4500000    0.004642761329
      5   P      27            92.8340000    0.036023396489
      5   P      28            29.2660000    0.149058869978
      5   P      29            10.5950000    0.360033266263
      5   P      30             4.0272000    0.455756476221
      5   P      31             1.5484000    0.206167664178

      6   P      32            92.8340000    0.000169901442
      6   P      33            29.2660000   -0.002541839934
      6   P      34            10.5950000   -0.007867614595
      6   P      35             4.0272000   -0.037231009184
      6   P      36             1.5484000    0.161417246830
      6   P      37             0.4613400    0.902230419976

      7   P      38             0.1313100    1.000000000000

      8   D      39             0.5500000    1.000000000000

 O         

     15   S      40          2306.7000000    0.005424388755
     15   S      41           347.1500000    0.040474749465
     15   S      42            78.8900000    0.180219634554
     15   S      43            21.8760000    0.462370311787
     15   S      44             6.6646000    0.454888396263

     16   S      45           347.1500000   -0.000655003786
     16   S      46            78.8900000   -0.005362052952
     16   S      47            21.8760000   -0.074902158894
     16   S      48             6.6646000   -0.181442579655
     16   S      49             1.0669000    1.102006874042

     17   S      50             0.3070000    1.000000000000

     18   P      51            17.0220000    0.068979967443
     18   P      52             3.6838000    0.351985516325
     18   P      53             0.9923400    0.724036547822

     19   P      54             0.2448700    1.000000000000

     20   D      55             1.0000000    1.000000000000

 TOTAL NUMBER OF BASIS SET SHELLS             =   20
 NUMBER OF CARTESIAN GAUSSIAN BASIS FUNCTIONS =   49
 NOTE: THIS RUN WILL RESTRICT THE MO VARIATION SPACE TO SPHERICAL HARMONICS.
 THE NUMBER OF ORBITALS KEPT IN THE VARIATIONAL SPACE WILL BE PRINTED LATER.
 NUMBER OF ELECTRONS                          =   32
 CHARGE OF MOLECULE                           =    0
 SPIN MULTIPLICITY                            =    1
 NUMBER OF OCCUPIED ORBITALS (ALPHA)          =   16
 NUMBER OF OCCUPIED ORBITALS (BETA )          =   16
 TOTAL NUMBER OF ATOMS                        =    3
 THE NUCLEAR REPULSION ENERGY IS       90.6785973826

     LEBEDEV GRID-BASED DFT OPTIONS
     ------------------------------
     DFTTYP=PBE     
     NRAD  =      96     NLEB  =     302
     NRAD0 =      24     NLEB0 =     110
     SWOFF =    5.00E-03 (PURE SCF -> DFT)
     SWITCH=    3.00E-04 (COARSE -> TIGHT GRID)
     THRESH=    0.00E+00 GTHRE=    1.00E+00

 GRIMME'S EMPIRICAL DISPERSION CORRECTION= F

     $CONTRL OPTIONS
     ---------------
 SCFTYP=RHF          RUNTYP=ENERGY       EXETYP=RUN     
 MPLEVL=       0     CITYP =NONE         CCTYP =NONE         VBTYP =NONE    
 DFTTYP=PBE          TDDFT =NONE    
 MULT  =       1     ICHARG=       0     NZVAR =       0     COORD =ZMT     
 PP    =NONE         RELWFN=NONE         LOCAL =NONE         NUMGRD=       F
 ISPHER=       1     NOSYM =       0     MAXIT =      30     UNITS =ANGS    
 PLTORB=       F     MOLPLT=       F     AIMPAC=       F     FRIEND=        
 NPRINT=       7     IREST =       0     GEOM  =INPUT   
 NORMF =       0     NORMP =       0     ITOL  =      20     ICUT  =       9
 INTTYP=BEST         GRDTYP=BEST         QMTTOL= 1.0E-06

     $SYSTEM OPTIONS
     ---------------
  REPLICATED MEMORY=     1000000 WORDS (ON EVERY NODE).
 DISTRIBUTED MEMDDI=           0 MILLION WORDS IN AGGREGATE,
 MEMDDI DISTRIBUTED OVER   1 PROCESSORS IS           0 WORDS/PROCESSOR.
 TOTAL MEMORY REQUESTED ON EACH PROCESSOR=     1000000 WORDS.
 TIMLIM=      525600.00 MINUTES, OR     365.0 DAYS.
 PARALL= F  BALTYP=  DLB     KDIAG=    0  COREFL= F
 MXSEQ2=     300 MXSEQ3=     150

          ----------------
          PROPERTIES INPUT
          ----------------

     MOMENTS            FIELD           POTENTIAL          DENSITY
 IEMOM =       1   IEFLD =       0   IEPOT =       0   IEDEN =       0
 WHERE =COMASS     WHERE =NUCLEI     WHERE =NUCLEI     WHERE =NUCLEI  
 OUTPUT=BOTH       OUTPUT=BOTH       OUTPUT=BOTH       OUTPUT=BOTH    
 IEMINT=       0   IEFINT=       0                     IEDINT=       0
                                                       MORB  =       0
          EXTRAPOLATION IN EFFECT
          DIIS IN EFFECT
 ORBITAL PRINTING OPTION: NPREO=     1    49     2     1

     -------------------------------
     INTEGRAL TRANSFORMATION OPTIONS
     -------------------------------
     NWORD  =            0
     CUTOFF = 1.0E-09     MPTRAN =       0
     DIRTRF =       F     AOINTS =DUP     

          ----------------------
          INTEGRAL INPUT OPTIONS
          ----------------------
 NOPK  =       1 NORDER=       0 SCHWRZ=       F

   --- ENCODED Z MATRIX ---
 COORD  TYPE   I   J   K   L   M   N
    1      1    3   1
    2      1    2   1
    3      2    2   1   3

 THE DETERMINANT OF THE G MATRIX IS 10**(    -4)

 THE DETERMINANT OF THE G MATRIX IS 10**(    -4)
 * * * WARNING * * *
 YOUR B MATRIX HAS A SMALL DETERMINANT.
 THIS SUGGESTS YOU MAY HAVE BADLY CHOSEN COORDINATES.

     ------------------------------------------
     THE POINT GROUP IS CNV, NAXIS= 2, ORDER= 4
     ------------------------------------------

 -- VARIATIONAL SPACE WILL BE RESTRICTED TO PURE SPHERICAL HARMONICS ONLY --
 AFTER EXCLUDING CONTAMINANT COMBINATIONS FROM THE CARTESIAN GAUSSIAN BASIS
 SET, THE NUMBER OF SPHERICAL HARMONICS KEPT IN THE VARIATION SPACE IS   46

     DIMENSIONS OF THE SYMMETRY SUBSPACES ARE
 A1  =   19     A2  =    5     B1  =   14     B2  =    8

 ..... DONE SETTING UP THE RUN .....
 STEP CPU TIME =     0.01 TOTAL CPU TIME =        0.0 (    0.0 MIN)
 TOTAL WALL CLOCK TIME=        0.0 SECONDS, CPU UTILIZATION IS  50.00%

          ********************
          1 ELECTRON INTEGRALS
          ********************
 ...... END OF ONE-ELECTRON INTEGRALS ......
 STEP CPU TIME =     0.00 TOTAL CPU TIME =        0.0 (    0.0 MIN)
 TOTAL WALL CLOCK TIME=        0.0 SECONDS, CPU UTILIZATION IS  50.00%

          -------------
          GUESS OPTIONS
          -------------
          GUESS =HUCKEL            NORB  =       0          NORDER=       0
          MIX   =       F          PRTMO =       F          PUNMO =       F
          TOLZ  = 1.0E-08          TOLE  = 1.0E-05
          SYMDEN=       F          PURIFY=       F

 INITIAL GUESS ORBITALS GENERATED BY HUCKEL   ROUTINE.
 HUCKEL GUESS REQUIRES     21583 WORDS.

 STATISTICS FOR GENERATION OF SYMMETRY ORBITAL -Q- MATRIX
 NUMBER OF CARTESIAN ATOMIC ORBITALS=         49
 NUMBER OF SPHERICAL CONTAMINANTS DROPPED=     3
 NUMBER OF LINEARLY DEPENDENT MOS DROPPED=     0
 TOTAL NUMBER OF MOS IN VARIATION SPACE=      46

 SYMMETRIES FOR INITIAL GUESS ORBITALS FOLLOW.   BOTH SET(S).
    16 ORBITALS ARE OCCUPIED (    7 CORE ORBITALS).
     8=?A1      9=?B1     10=A1      11=B2      12=B1      13=A1      14=A2  
    15=B1      16=?A1     17=B2      18=A1      19=B1      20=A1      21=A1  
    22=A1      23=A1      24=A1      25=A1      26=A1  
 ...... END OF INITIAL ORBITAL SELECTION ......
 STEP CPU TIME =     0.01 TOTAL CPU TIME =        0.0 (    0.0 MIN)
 TOTAL WALL CLOCK TIME=        0.0 SECONDS, CPU UTILIZATION IS  66.67%

                    ----------------------
                    AO INTEGRAL TECHNOLOGY
                    ----------------------
     S,P,L SHELL ROTATED AXIS INTEGRALS, REPROGRAMMED BY
        KAZUYA ISHIMURA (IMS) AND JOSE SIERRA (SYNSTAR).
     S,P,D,L SHELL ROTATED AXIS INTEGRALS PROGRAMMED BY
        KAZUYA ISHIMURA (INSTITUTE FOR MOLECULAR SCIENCE).
     S,P,D,F,G SHELL TO TOTAL QUARTET ANGULAR MOMENTUM SUM 5,
        ERIC PROGRAM BY GRAHAM FLETCHER (ELORET AND NASA ADVANCED
        SUPERCOMPUTING DIVISION, AMES RESEARCH CENTER).
     S,P,D,F,G,L SHELL GENERAL RYS QUADRATURE PROGRAMMED BY
        MICHEL DUPUIS (PACIFIC NORTHWEST NATIONAL LABORATORY).

          --------------------
          2 ELECTRON INTEGRALS
          --------------------

 THE -PK- OPTION IS OFF, THE INTEGRALS ARE NOT IN SUPERMATRIX FORM.
 STORING   15000 INTEGRALS/RECORD ON DISK, USING 12 BYTES/INTEGRAL.
 TWO ELECTRON INTEGRAL EVALUATION REQUIRES   90606 WORDS OF MEMORY.
 II,JST,KST,LST =  1  1  1  1 NREC =         1 INTLOC =    1
 II,JST,KST,LST =  2  1  1  1 NREC =         1 INTLOC =    2
 II,JST,KST,LST =  3  1  1  1 NREC =         1 INTLOC =    7
 II,JST,KST,LST =  4  1  1  1 NREC =         1 INTLOC =   22
 II,JST,KST,LST =  5  1  1  1 NREC =         1 INTLOC =   56
 II,JST,KST,LST =  6  1  1  1 NREC =         1 INTLOC =  125
 II,JST,KST,LST =  7  1  1  1 NREC =         1 INTLOC =  329
 II,JST,KST,LST =  8  1  1  1 NREC =         1 INTLOC =  776
 II,JST,KST,LST =  9  1  1  1 NREC =         1 INTLOC = 2864
 II,JST,KST,LST = 10  1  1  1 NREC =         1 INTLOC = 2864
 II,JST,KST,LST = 11  1  1  1 NREC =         1 INTLOC = 2864
 II,JST,KST,LST = 12  1  1  1 NREC =         1 INTLOC = 2864
 II,JST,KST,LST = 13  1  1  1 NREC =         1 INTLOC = 2864
 II,JST,KST,LST = 14  1  1  1 NREC =         1 INTLOC = 2864
 II,JST,KST,LST = 15  1  1  1 NREC =         1 INTLOC = 2864
 II,JST,KST,LST = 16  1  1  1 NREC =         1 INTLOC = 4968
 II,JST,KST,LST = 17  1  1  1 NREC =         1 INTLOC = 8064
 II,JST,KST,LST = 18  1  1  1 NREC =         1 INTLOC =12451
 II,JST,KST,LST = 19  1  1  1 NREC =         2 INTLOC =13917
 II,JST,KST,LST = 20  1  1  1 NREC =         4 INTLOC =14415
 TOTAL NUMBER OF NONZERO TWO-ELECTRON INTEGRALS =              163884
         11 INTEGRAL RECORDS WERE STORED ON DISK FILE  8.
  ...... END OF TWO-ELECTRON INTEGRALS .....
 STEP CPU TIME =     0.16 TOTAL CPU TIME =        0.2 (    0.0 MIN)
 TOTAL WALL CLOCK TIME=        0.2 SECONDS, CPU UTILIZATION IS 100.00%

          --------------------------
               R-PBE SCF CALCULATION
          --------------------------

     NUCLEAR ENERGY =        90.6785973826
     MAXIT =   30     NPUNCH=    2
     EXTRAP=T  DAMP=F  SHIFT=F  RSTRCT=F  DIIS=T  DEM=F  SOSCF=F
         DENSITY MATRIX CONVERGENCE THRESHOLD=  1.00E-05
     COARSE -> FINE DFT GRID SWITCH THRESHOLD=  3.00E-04 (SWITCH IN $DFT)
                   HF -> DFT SWITCH THRESHOLD=  5.00E-03 (SWOFF IN $DFT)
     MEMORY REQUIRED FOR RHF ITERS=    183108 WORDS.

 DFT CODE IS SWITCHING FROM THE FINE GRID NRAD= 96,  NLEB=  302
                      TO THE COARSE GRID NRAD0= 24, NLEB0=  110

     EXCHANGE FUNCTIONAL   =PBE       
     CORRELATION FUNCTIONAL=PBE       
     DFT THRESHOLD         =.460E-07
     GRID CHANGE THRESHOLD =.300E-03
 FOR AN EULER-MACLAURIN QUADRATURE USING  96 RADIAL POINTS:
 SMALLEST GAUSSIAN PRIMITIVE EXPONENT=        0.1313100000 OF TYPE -P-
 ON ATOM NUMBER   1 HAS RADIAL NORMALIZATION=  1.000000
  LARGEST GAUSSIAN PRIMITIVE EXPONENT=    55510.0000000000 OF TYPE -S-
 ON ATOM NUMBER   1 HAS RADIAL NORMALIZATION=  0.999999
 DFT IS SWITCHED OFF, PERFORMING PURE SCF UNTIL SWOFF THRESHOLD IS REACHED.

 ITER EX DEM     TOTAL ENERGY        E CHANGE  DENSITY CHANGE    DIIS ERROR
   1  0  0     -545.9533294721  -545.9533294721   0.487313162   1.214981126
          * * *   INITIATING DIIS PROCEDURE   * * *
   2  1  0     -546.4064000940    -0.4530706218   0.606963722   0.451713409
   3  2  0     -546.3453179265     0.0610821674   0.278859891   0.483565793
   4  3  0     -546.9771688695    -0.6318509430   0.025164195   0.015482833
   5  4  0     -546.9784497163    -0.0012808468   0.007932162   0.007123929
   6  5  0     -546.9786827918    -0.0002330755   0.003694409   0.003528320
 CONVERGED TO SWOFF, SO DFT CALCULATION IS NOW SWITCHED ON.
          * * *   INITIATING DIIS PROCEDURE   * * *
   7  6  0     -548.1463596865    -1.1676768947   0.365519978   0.111563464
   8  7  0     -548.1199564299     0.0264032567   0.320794179   0.162527731
   9  8  0     -548.1300464842    -0.0100900543   0.100490374   0.181413906
  10  9  0     -548.1962778857    -0.0662314015   0.017203482   0.013853178
  11 10  0     -548.1970855746    -0.0008076889   0.001762942   0.002201770
  12 11  0     -548.1970956590    -0.0000100845   0.000633193   0.000499629
  13 12  0     -548.1970963796    -0.0000007205   0.000062501   0.000039663
 DFT CODE IS SWITCHING BACK TO THE FINE GRID
          * * *   INITIATING DIIS PROCEDURE   * * *
  14 13  0     -548.2044229297    -0.0073265501   0.018375617   0.009258060
  15 14  0     -548.2045500140    -0.0001270844   0.020288724   0.009881809
  16 15  0     -548.2041695139     0.0003805002   0.013471818   0.016722948
  17 16  0     -548.2047693939    -0.0005998800   0.000582817   0.000571103
  18 17  0     -548.2047703563    -0.0000009624   0.000124318   0.000117783
  19 18  0     -548.2047704165    -0.0000000602   0.000048319   0.000026298
  20 19  0     -548.2047704186    -0.0000000021   0.000008195   0.000006669
  21 20  0     -548.2047704187    -0.0000000001   0.000000577   0.000000689

          -----------------
          DENSITY CONVERGED
          -----------------
     TIME TO FORM FOCK OPERATORS=       4.2 SECONDS (       0.2 SEC/ITER)
     TIME TO SOLVE SCF EQUATIONS=       0.0 SECONDS (       0.0 SEC/ITER)

 FINAL R-PBE ENERGY IS     -548.2047704187 AFTER  21 ITERATIONS
 DFT EXCHANGE + CORRELATION ENERGY =       -42.2557692860
 TOTAL ELECTRON NUMBER             =        32.0000157922

          ------------
          EIGENVECTORS
          ------------

                      1          2          3          4          5
                  -88.2251   -18.8288   -18.8288    -7.8448    -5.8662
                     A1         B1         A1         A1         B1  
    1  S  1  S    1.002978   0.000000  -0.000056  -0.274116   0.000000
    2  S  1  S   -0.010285   0.000000  -0.000937   1.039444   0.000000
    3  S  1  S    0.001772   0.000000  -0.001664   0.040364   0.000000
    4  S  1  S   -0.000887   0.000000   0.007807  -0.011795   0.000000
    5  S  1  X    0.000000   0.000124   0.000000   0.000000   0.996856
    6  S  1  Y    0.000000   0.000000   0.000000   0.000000   0.000000
    7  S  1  Z    0.000062   0.000000  -0.000078   0.009929   0.000000
    8  S  1  X    0.000000  -0.001106   0.000000   0.000000   0.008951
    9  S  1  Y    0.000000   0.000000   0.000000   0.000000   0.000000
   10  S  1  Z    0.000019   0.000000   0.000610   0.000855   0.000000
   11  S  1  X    0.000000  -0.005601   0.000000   0.000000  -0.000188
   12  S  1  Y    0.000000   0.000000   0.000000   0.000000   0.000000
   13  S  1  Z   -0.000034   0.000000   0.002765  -0.000484   0.000000
   14  S  1 XX    0.000031   0.000000   0.001291   0.000631   0.000000
   15  S  1 YY   -0.000018   0.000000  -0.001006  -0.000320   0.000000
   16  S  1 ZZ   -0.000013   0.000000  -0.000284  -0.000310   0.000000
   17  S  1 XY    0.000000   0.000000   0.000000   0.000000   0.000000
   18  S  1 XZ    0.000000  -0.001187   0.000000   0.000000   0.000621
   19  S  1 YZ    0.000000   0.000000   0.000000   0.000000   0.000000
   20  O  2  S    0.000003   0.703266   0.703260   0.000041   0.000099
   21  O  2  S    0.000016   0.025406   0.025330   0.000081   0.000062
   22  O  2  S    0.000040  -0.011653  -0.011144   0.000355  -0.000122
   23  O  2  X    0.000000   0.000730   0.000899  -0.000174  -0.000087
   24  O  2  Y    0.000000   0.000000   0.000000   0.000000   0.000000
   25  O  2  Z   -0.000004  -0.000474  -0.000231   0.000042   0.000031
   26  O  2  X   -0.000047  -0.002252  -0.003118  -0.000596  -0.000087
   27  O  2  Y    0.000000   0.000000   0.000000   0.000000   0.000000
   28  O  2  Z    0.000038   0.001744   0.000709   0.000465   0.000098
   29  O  2 XX   -0.000063  -0.000217  -0.000400  -0.000604  -0.000197
   30  O  2 YY    0.000045   0.000194   0.000259   0.000432   0.000155
   31  O  2 ZZ    0.000018   0.000023   0.000141   0.000172   0.000042
   32  O  2 XY    0.000000   0.000000   0.000000   0.000000   0.000000
   33  O  2 XZ    0.000062   0.000288   0.000264   0.000597   0.000228
   34  O  2 YZ    0.000000   0.000000   0.000000   0.000000   0.000000
   35  O  3  S    0.000003  -0.703266   0.703260   0.000041  -0.000099
   36  O  3  S    0.000016  -0.025406   0.025330   0.000081  -0.000062
   37  O  3  S    0.000040   0.011653  -0.011144   0.000355   0.000122
   38  O  3  X    0.000000   0.000730  -0.000899   0.000174  -0.000087
   39  O  3  Y    0.000000   0.000000   0.000000   0.000000   0.000000
   40  O  3  Z   -0.000004   0.000474  -0.000231   0.000042  -0.000031
   41  O  3  X    0.000047  -0.002252   0.003118   0.000596  -0.000087
   42  O  3  Y    0.000000   0.000000   0.000000   0.000000   0.000000
   43  O  3  Z    0.000038  -0.001744   0.000709   0.000465  -0.000098
   44  O  3 XX   -0.000063   0.000217  -0.000400  -0.000604   0.000197
   45  O  3 YY    0.000045  -0.000194   0.000259   0.000432  -0.000155
   46  O  3 ZZ    0.000018  -0.000023   0.000141   0.000172  -0.000042
   47  O  3 XY    0.000000   0.000000   0.000000   0.000000   0.000000
   48  O  3 XZ   -0.000062   0.000288  -0.000264  -0.000597   0.000228
   49  O  3 YZ    0.000000   0.000000   0.000000   0.000000   0.000000

                      6          7          8          9         10
                   -5.8641    -5.8610    -0.9563    -0.9078    -0.6386
                     B2         A1         A1         B1         A1  
    1  S  1  S    0.000000   0.002740   0.044788   0.000000   0.072368
    2  S  1  S    0.000000  -0.010501  -0.129703   0.000000  -0.204366
    3  S  1  S    0.000000  -0.000142   0.265028   0.000000   0.455840
    4  S  1  S    0.000000  -0.000415   0.173747   0.000000   0.425142
    5  S  1  X    0.000000   0.000000   0.000000   0.090300   0.000000
    6  S  1  Y    0.996934   0.000000   0.000000   0.000000   0.000000
    7  S  1  Z    0.000000   0.996937  -0.038253   0.000000   0.015956
    8  S  1  X    0.000000   0.000000   0.000000  -0.180458   0.000000
    9  S  1  Y    0.008805   0.000000   0.000000   0.000000   0.000000
   10  S  1  Z    0.000000   0.008598   0.077844   0.000000  -0.027882
   11  S  1  X    0.000000   0.000000   0.000000  -0.027046   0.000000
   12  S  1  Y   -0.000148   0.000000   0.000000   0.000000   0.000000
   13  S  1  Z    0.000000  -0.000201   0.007711   0.000000  -0.032759
   14  S  1 XX    0.000000  -0.000433   0.037446   0.000000  -0.013198
   15  S  1 YY    0.000000  -0.000230  -0.025352   0.000000   0.012273
   16  S  1 ZZ    0.000000   0.000663  -0.012094   0.000000   0.000925
   17  S  1 XY    0.000000   0.000000   0.000000   0.000000   0.000000
   18  S  1 XZ    0.000000   0.000000   0.000000  -0.042424   0.000000
   19  S  1 YZ    0.000529   0.000000   0.000000   0.000000   0.000000
   20  O  2  S    0.000000  -0.000060  -0.129103  -0.150736   0.098987
   21  O  2  S    0.000000  -0.000131   0.258014   0.304703  -0.206326
   22  O  2  S    0.000000   0.000350   0.315112   0.382227  -0.313465
   23  O  2  X    0.000000   0.000063   0.081165   0.071311   0.105493
   24  O  2  Y    0.000008   0.000000   0.000000   0.000000   0.000000
   25  O  2  Z    0.000000  -0.000019  -0.035144  -0.034105  -0.050949
   26  O  2  X    0.000000   0.000210   0.039927   0.035625   0.049676
   27  O  2  Y   -0.000053   0.000000   0.000000   0.000000   0.000000
   28  O  2  Z    0.000000  -0.000172  -0.016135  -0.018869  -0.019340
   29  O  2 XX    0.000000   0.000158   0.009857   0.006593   0.005640
   30  O  2 YY    0.000000  -0.000111  -0.004670  -0.002839  -0.005203
   31  O  2 ZZ    0.000000  -0.000047  -0.005188  -0.003754  -0.000436
   32  O  2 XY   -0.000002   0.000000   0.000000   0.000000   0.000000
   33  O  2 XZ    0.000000  -0.000166  -0.007230  -0.006403  -0.005636
   34  O  2 YZ   -0.000006   0.000000   0.000000   0.000000   0.000000
   35  O  3  S    0.000000  -0.000060  -0.129103   0.150736   0.098987
   36  O  3  S    0.000000  -0.000131   0.258014  -0.304703  -0.206326
   37  O  3  S    0.000000   0.000350   0.315112  -0.382227  -0.313465
   38  O  3  X    0.000000  -0.000063  -0.081165   0.071311  -0.105493
   39  O  3  Y    0.000008   0.000000   0.000000   0.000000   0.000000
   40  O  3  Z    0.000000  -0.000019  -0.035144   0.034105  -0.050949
   41  O  3  X    0.000000  -0.000210  -0.039927   0.035625  -0.049676
   42  O  3  Y   -0.000053   0.000000   0.000000   0.000000   0.000000
   43  O  3  Z    0.000000  -0.000172  -0.016135   0.018869  -0.019340
   44  O  3 XX    0.000000   0.000158   0.009857  -0.006593   0.005640
   45  O  3 YY    0.000000  -0.000111  -0.004670   0.002839  -0.005203
   46  O  3 ZZ    0.000000  -0.000047  -0.005188   0.003754  -0.000436
   47  O  3 XY    0.000002   0.000000   0.000000   0.000000   0.000000
   48  O  3 XZ    0.000000   0.000166   0.007230  -0.006403   0.005636
   49  O  3 YZ   -0.000006   0.000000   0.000000   0.000000   0.000000

                     11         12         13         14         15
                   -0.4365    -0.4003    -0.3990    -0.3166    -0.3030
                     B1         A1         B2         A2         B1  
    1  S  1  S    0.000000  -0.010440   0.000000   0.000000   0.000000
    2  S  1  S    0.000000   0.044825   0.000000   0.000000   0.000000
    3  S  1  S    0.000000  -0.046261   0.000000   0.000000   0.000000
    4  S  1  S    0.000000  -0.190131   0.000000   0.000000   0.000000
    5  S  1  X   -0.179310   0.000000   0.000000   0.000000  -0.018709
    6  S  1  Y    0.000000   0.000000  -0.208467   0.000000   0.000000
    7  S  1  Z    0.000000  -0.208428   0.000000   0.000000   0.000000
    8  S  1  X    0.424551   0.000000   0.000000   0.000000   0.039429
    9  S  1  Y    0.000000   0.000000   0.490661   0.000000   0.000000
   10  S  1  Z    0.000000   0.489485   0.000000   0.000000   0.000000
   11  S  1  X    0.100961   0.000000   0.000000   0.000000   0.110957
   12  S  1  Y    0.000000   0.000000   0.309004   0.000000   0.000000
   13  S  1  Z    0.000000   0.272005   0.000000   0.000000   0.000000
   14  S  1 XX    0.000000  -0.011781   0.000000   0.000000   0.000000
   15  S  1 YY    0.000000  -0.020917   0.000000   0.000000   0.000000
   16  S  1 ZZ    0.000000   0.032698   0.000000   0.000000   0.000000
   17  S  1 XY    0.000000   0.000000   0.000000  -0.091257   0.000000
   18  S  1 XZ    0.037132   0.000000   0.000000   0.000000  -0.082988
   19  S  1 YZ    0.000000   0.000000   0.032151   0.000000   0.000000
   20  O  2  S   -0.057940   0.019878   0.000000   0.000000  -0.002026
   21  O  2  S    0.120850  -0.040133   0.000000   0.000000   0.000277
   22  O  2  S    0.205399  -0.078882   0.000000   0.000000   0.040613
   23  O  2  X   -0.311532   0.262200   0.000000   0.000000   0.273929
   24  O  2  Y    0.000000   0.000000   0.291793   0.470175   0.000000
   25  O  2  Z    0.183747   0.139517   0.000000   0.000000   0.382342
   26  O  2  X   -0.185554   0.169004   0.000000   0.000000   0.196964
   27  O  2  Y    0.000000   0.000000   0.180039   0.335043   0.000000
   28  O  2  Z    0.116303   0.087499   0.000000   0.000000   0.263749
   29  O  2 XX   -0.007746   0.015568   0.000000   0.000000   0.010655
   30  O  2 YY    0.007810  -0.004489   0.000000   0.000000   0.000023
   31  O  2 ZZ   -0.000064  -0.011079   0.000000   0.000000  -0.010678
   32  O  2 XY    0.000000   0.000000   0.015482   0.014281   0.000000
   33  O  2 XZ    0.012158   0.004375   0.000000   0.000000   0.009044
   34  O  2 YZ    0.000000   0.000000  -0.006904  -0.007123   0.000000
   35  O  3  S    0.057940   0.019878   0.000000   0.000000   0.002026
   36  O  3  S   -0.120850  -0.040133   0.000000   0.000000  -0.000277
   37  O  3  S   -0.205399  -0.078882   0.000000   0.000000  -0.040613
   38  O  3  X   -0.311532  -0.262200   0.000000   0.000000   0.273929
   39  O  3  Y    0.000000   0.000000   0.291793  -0.470175   0.000000
   40  O  3  Z   -0.183747   0.139517   0.000000   0.000000  -0.382342
   41  O  3  X   -0.185554  -0.169004   0.000000   0.000000   0.196964
   42  O  3  Y    0.000000   0.000000   0.180039  -0.335043   0.000000
   43  O  3  Z   -0.116303   0.087499   0.000000   0.000000  -0.263749
   44  O  3 XX    0.007746   0.015568   0.000000   0.000000  -0.010655
   45  O  3 YY   -0.007810  -0.004489   0.000000   0.000000  -0.000023
   46  O  3 ZZ    0.000064  -0.011079   0.000000   0.000000   0.010678
   47  O  3 XY    0.000000   0.000000  -0.015482   0.014281   0.000000
   48  O  3 XZ    0.012158  -0.004375   0.000000   0.000000   0.009044
   49  O  3 YZ    0.000000   0.000000  -0.006904   0.007123   0.000000

                     16         17         18         19         20
                   -0.2843    -0.2184    -0.1314    -0.0213     0.3402
                     A1         B2         A1         B1         B1  
    1  S  1  S    0.018719   0.000000   0.025374   0.000000   0.000000
    2  S  1  S   -0.081005   0.000000  -0.082453   0.000000   0.000000
    3  S  1  S    0.085639   0.000000   0.157717   0.000000   0.000000
    4  S  1  S    0.383156   0.000000   0.436598   0.000000   0.000000
    5  S  1  X    0.000000   0.000000   0.000000  -0.215714   0.280412
    6  S  1  Y    0.000000  -0.203474   0.000000   0.000000   0.000000
    7  S  1  Z    0.070822   0.000000  -0.188544   0.000000   0.000000
    8  S  1  X    0.000000   0.000000   0.000000   0.556810  -1.067001
    9  S  1  Y    0.000000   0.509076   0.000000   0.000000   0.000000
   10  S  1  Z   -0.173556   0.000000   0.483366   0.000000   0.000000
   11  S  1  X    0.000000   0.000000   0.000000   0.902575   1.561520
   12  S  1  Y    0.000000   0.385784   0.000000   0.000000   0.000000
   13  S  1  Z   -0.045848   0.000000   0.502101   0.000000   0.000000
   14  S  1 XX   -0.120492   0.000000  -0.104071   0.000000   0.000000
   15  S  1 YY    0.050634   0.000000   0.096727   0.000000   0.000000
   16  S  1 ZZ    0.069858   0.000000   0.007343   0.000000   0.000000
   17  S  1 XY    0.000000   0.000000   0.000000   0.000000   0.000000
   18  S  1 XZ    0.000000   0.000000   0.000000  -0.162436  -0.042684
   19  S  1 YZ    0.000000  -0.032676   0.000000   0.000000   0.000000
   20  O  2  S   -0.001123   0.000000   0.029779  -0.049907  -0.015211
   21  O  2  S    0.003880   0.000000  -0.060127   0.087078  -0.032023
   22  O  2  S   -0.029379   0.000000  -0.210445   0.440281   0.530403
   23  O  2  X   -0.126245   0.000000  -0.396196   0.204457  -0.255089
   24  O  2  Y    0.000000  -0.397224   0.000000   0.000000   0.000000
   25  O  2  Z    0.441687   0.000000  -0.082652  -0.265588   0.031573
   26  O  2  X   -0.095593   0.000000  -0.339188   0.251313   0.145318
   27  O  2  Y    0.000000  -0.303362   0.000000   0.000000   0.000000
   28  O  2  Z    0.319425   0.000000  -0.061388  -0.247899  -0.122684
   29  O  2 XX    0.000787   0.000000   0.001401   0.004903   0.034980
   30  O  2 YY    0.003798   0.000000   0.001724   0.001247  -0.023876
   31  O  2 ZZ   -0.004586   0.000000  -0.003125  -0.006150  -0.011104
   32  O  2 XY    0.000000  -0.001289   0.000000   0.000000   0.000000
   33  O  2 XZ    0.010863   0.000000   0.004508   0.004683  -0.032276
   34  O  2 YZ    0.000000   0.000260   0.000000   0.000000   0.000000
   35  O  3  S   -0.001123   0.000000   0.029779   0.049907   0.015211
   36  O  3  S    0.003880   0.000000  -0.060127  -0.087078   0.032023
   37  O  3  S   -0.029379   0.000000  -0.210445  -0.440281  -0.530403
   38  O  3  X    0.126245   0.000000   0.396196   0.204457  -0.255089
   39  O  3  Y    0.000000  -0.397224   0.000000   0.000000   0.000000
   40  O  3  Z    0.441687   0.000000  -0.082652   0.265588  -0.031573
   41  O  3  X    0.095593   0.000000   0.339188   0.251313   0.145318
   42  O  3  Y    0.000000  -0.303362   0.000000   0.000000   0.000000
   43  O  3  Z    0.319425   0.000000  -0.061388   0.247899   0.122684
   44  O  3 XX    0.000787   0.000000   0.001401  -0.004903  -0.034980
   45  O  3 YY    0.003798   0.000000   0.001724  -0.001247   0.023876
   46  O  3 ZZ   -0.004586   0.000000  -0.003125   0.006150   0.011104
   47  O  3 XY    0.000000   0.001289   0.000000   0.000000   0.000000
   48  O  3 XZ   -0.010863   0.000000  -0.004508   0.004683  -0.032276
   49  O  3 YZ    0.000000   0.000260   0.000000   0.000000   0.000000

                     21         22         23         24         25
                    0.3614     0.3635     0.3897     0.4784     0.4969
                     A1         B2         A1         A2         B2  
    1  S  1  S   -0.009758   0.000000  -0.110845   0.000000   0.000000
    2  S  1  S   -0.078153   0.000000  -0.392185   0.000000   0.000000
    3  S  1  S   -0.203641   0.000000  -1.701006   0.000000   0.000000
    4  S  1  S    0.475524   0.000000   2.042312   0.000000   0.000000
    5  S  1  X    0.000000   0.000000   0.000000   0.000000   0.000000
    6  S  1  Y    0.000000   0.290750   0.000000   0.000000   0.051987
    7  S  1  Z    0.279988   0.000000  -0.042236   0.000000   0.000000
    8  S  1  X    0.000000   0.000000   0.000000   0.000000   0.000000
    9  S  1  Y    0.000000  -1.127392   0.000000   0.000000  -0.198717
   10  S  1  Z   -1.083824   0.000000   0.159439   0.000000   0.000000
   11  S  1  X    0.000000   0.000000   0.000000   0.000000   0.000000
   12  S  1  Y    0.000000   1.237088   0.000000   0.000000   0.157133
   13  S  1  Z    1.327892   0.000000  -0.015093   0.000000   0.000000
   14  S  1 XX    0.059029   0.000000  -0.264963   0.000000   0.000000
   15  S  1 YY    0.139754   0.000000   0.181118   0.000000   0.000000
   16  S  1 ZZ   -0.198783   0.000000   0.083845   0.000000   0.000000
   17  S  1 XY    0.000000   0.000000   0.000000   0.857793   0.000000
   18  S  1 XZ    0.000000   0.000000   0.000000   0.000000   0.000000
   19  S  1 YZ    0.000000  -0.177133   0.000000   0.000000   0.939632
   20  O  2  S    0.012164   0.000000   0.013137   0.000000   0.000000
   21  O  2  S   -0.000845   0.000000  -0.032415   0.000000   0.000000
   22  O  2  S   -0.278079   0.000000  -0.232505   0.000000   0.000000
   23  O  2  X    0.073263   0.000000   0.066660   0.000000   0.000000
   24  O  2  Y    0.000000  -0.074632   0.000000   0.339513  -0.202248
   25  O  2  Z   -0.106888   0.000000  -0.116235   0.000000   0.000000
   26  O  2  X   -0.172965   0.000000  -0.134820   0.000000   0.000000
   27  O  2  Y    0.000000  -0.103390   0.000000  -0.171299   0.100321
   28  O  2  Z   -0.038601   0.000000   0.090935   0.000000   0.000000
   29  O  2 XX   -0.031436   0.000000  -0.027100   0.000000   0.000000
   30  O  2 YY    0.016988   0.000000   0.026529   0.000000   0.000000
   31  O  2 ZZ    0.014448   0.000000   0.000570   0.000000   0.000000
   32  O  2 XY    0.000000  -0.016810   0.000000  -0.049649   0.032333
   33  O  2 XZ    0.006803   0.000000   0.041016   0.000000   0.000000
   34  O  2 YZ    0.000000   0.004551   0.000000   0.031358   0.005004
   35  O  3  S    0.012164   0.000000   0.013137   0.000000   0.000000
   36  O  3  S   -0.000845   0.000000  -0.032415   0.000000   0.000000
   37  O  3  S   -0.278079   0.000000  -0.232505   0.000000   0.000000
   38  O  3  X   -0.073263   0.000000  -0.066660   0.000000   0.000000
   39  O  3  Y    0.000000  -0.074632   0.000000  -0.339513  -0.202248
   40  O  3  Z   -0.106888   0.000000  -0.116235   0.000000   0.000000
   41  O  3  X    0.172965   0.000000   0.134820   0.000000   0.000000
   42  O  3  Y    0.000000  -0.103390   0.000000   0.171299   0.100321
   43  O  3  Z   -0.038601   0.000000   0.090935   0.000000   0.000000
   44  O  3 XX   -0.031436   0.000000  -0.027100   0.000000   0.000000
   45  O  3 YY    0.016988   0.000000   0.026529   0.000000   0.000000
   46  O  3 ZZ    0.014448   0.000000   0.000570   0.000000   0.000000
   47  O  3 XY    0.000000   0.016810   0.000000  -0.049649  -0.032333
   48  O  3 XZ   -0.006803   0.000000  -0.041016   0.000000   0.000000
   49  O  3 YZ    0.000000   0.004551   0.000000  -0.031358   0.005004

                     26         27         28         29         30
                    0.4976     0.6375     0.6769     0.7945     0.8001
                     A1         B1         A1         A2         B1  
    1  S  1  S    0.003180   0.000000  -0.024323   0.000000   0.000000
    2  S  1  S    0.007392   0.000000  -0.187293   0.000000   0.000000
    3  S  1  S    0.043927   0.000000  -0.495869   0.000000   0.000000
    4  S  1  S   -0.039692   0.000000   1.377822   0.000000   0.000000
    5  S  1  X    0.000000  -0.041086   0.000000   0.000000  -0.046989
    6  S  1  Y    0.000000   0.000000   0.000000   0.000000   0.000000
    7  S  1  Z    0.059994   0.000000  -0.041019   0.000000   0.000000
    8  S  1  X    0.000000   0.163716   0.000000   0.000000   0.273606
    9  S  1  Y    0.000000   0.000000   0.000000   0.000000   0.000000
   10  S  1  Z   -0.229554   0.000000   0.169976   0.000000   0.000000
   11  S  1  X    0.000000   0.717282   0.000000   0.000000  -0.283085
   12  S  1  Y    0.000000   0.000000   0.000000   0.000000   0.000000
   13  S  1  Z    0.187258   0.000000   0.348016   0.000000   0.000000
   14  S  1 XX   -0.191905   0.000000   0.793930   0.000000   0.000000
   15  S  1 YY   -0.678156   0.000000  -0.649916   0.000000   0.000000
   16  S  1 ZZ    0.870061   0.000000  -0.144015   0.000000   0.000000
   17  S  1 XY    0.000000   0.000000   0.000000   0.529113   0.000000
   18  S  1 XZ    0.000000   0.891445   0.000000   0.000000   0.266956
   19  S  1 YZ    0.000000   0.000000   0.000000   0.000000   0.000000
   20  O  2  S   -0.000469  -0.057066   0.061801   0.000000  -0.005577
   21  O  2  S    0.003115   0.244202  -0.295300   0.000000   0.003309
   22  O  2  S   -0.018009   0.273254  -0.227683   0.000000  -0.029775
   23  O  2  X   -0.089293   0.013830   0.225182   0.000000  -0.416898
   24  O  2  Y    0.000000   0.000000   0.000000  -0.555917   0.000000
   25  O  2  Z   -0.225272   0.236964   0.077442   0.000000  -0.440102
   26  O  2  X    0.053689   0.449744  -0.758241   0.000000   0.619578
   27  O  2  Y    0.000000   0.000000   0.000000   0.747475   0.000000
   28  O  2  Z    0.105884  -0.425955   0.158137   0.000000   0.521314
   29  O  2 XX    0.021279  -0.042831  -0.004283   0.000000  -0.041415
   30  O  2 YY   -0.012549   0.004993  -0.015973   0.000000   0.017841
   31  O  2 ZZ   -0.008730   0.037838   0.020255   0.000000   0.023574
   32  O  2 XY    0.000000   0.000000   0.000000  -0.049652   0.000000
   33  O  2 XZ    0.030181  -0.010052  -0.023418   0.000000   0.008340
   34  O  2 YZ    0.000000   0.000000   0.000000   0.029041   0.000000
   35  O  3  S   -0.000469   0.057066   0.061801   0.000000   0.005577
   36  O  3  S    0.003115  -0.244202  -0.295300   0.000000  -0.003309
   37  O  3  S   -0.018009  -0.273254  -0.227683   0.000000   0.029775
   38  O  3  X    0.089293   0.013830  -0.225182   0.000000  -0.416898
   39  O  3  Y    0.000000   0.000000   0.000000   0.555917   0.000000
   40  O  3  Z   -0.225272  -0.236964   0.077442   0.000000   0.440102
   41  O  3  X   -0.053689   0.449744   0.758241   0.000000   0.619578
   42  O  3  Y    0.000000   0.000000   0.000000  -0.747475   0.000000
   43  O  3  Z    0.105884   0.425955   0.158137   0.000000  -0.521314
   44  O  3 XX    0.021279   0.042831  -0.004283   0.000000   0.041415
   45  O  3 YY   -0.012549  -0.004993  -0.015973   0.000000  -0.017841
   46  O  3 ZZ   -0.008730  -0.037838   0.020255   0.000000  -0.023574
   47  O  3 XY    0.000000   0.000000   0.000000  -0.049652   0.000000
   48  O  3 XZ   -0.030181  -0.010052   0.023418   0.000000   0.008340
   49  O  3 YZ    0.000000   0.000000   0.000000  -0.029041   0.000000

                     31         32         33         34         35
                    0.8212     0.8308     0.8473     0.8474     1.5945
                     A1         B2         A1         B1         A1  
    1  S  1  S    0.026744   0.000000  -0.028561   0.000000  -0.024849
    2  S  1  S    0.107521   0.000000  -0.125050   0.000000  -0.253805
    3  S  1  S    0.441581   0.000000  -0.482369   0.000000  -0.578364
    4  S  1  S   -0.133074   0.000000   0.287646   0.000000   1.750625
    5  S  1  X    0.000000   0.000000   0.000000  -0.069245   0.000000
    6  S  1  Y    0.000000  -0.027704   0.000000   0.000000   0.000000
    7  S  1  Z   -0.043198   0.000000  -0.003142   0.000000  -0.011549
    8  S  1  X    0.000000   0.000000   0.000000   0.447709   0.000000
    9  S  1  Y    0.000000   0.142996   0.000000   0.000000   0.000000
   10  S  1  Z    0.255861   0.000000  -0.030288   0.000000   0.066734
   11  S  1  X    0.000000   0.000000   0.000000  -0.233216   0.000000
   12  S  1  Y    0.000000  -0.591199   0.000000   0.000000   0.000000
   13  S  1  Z   -0.481953   0.000000  -0.226202   0.000000   0.621101
   14  S  1 XX    0.027296   0.000000   0.608189   0.000000   0.348318
   15  S  1 YY    0.222234   0.000000  -0.241343   0.000000  -0.278221
   16  S  1 ZZ   -0.249531   0.000000  -0.366845   0.000000  -0.070097
   17  S  1 XY    0.000000   0.000000   0.000000   0.000000   0.000000
   18  S  1 XZ    0.000000   0.000000   0.000000  -0.465573   0.000000
   19  S  1 YZ    0.000000  -0.301166   0.000000   0.000000   0.000000
   20  O  2  S   -0.000287   0.000000   0.006401  -0.000107  -0.007329
   21  O  2  S    0.017072   0.000000   0.025073   0.055654   1.129672
   22  O  2  S    0.051273   0.000000  -0.094084  -0.138614  -1.645414
   23  O  2  X    0.168343   0.000000  -0.545656  -0.453831   0.104012
   24  O  2  Y    0.000000  -0.605825   0.000000   0.000000   0.000000
   25  O  2  Z   -0.578027   0.000000  -0.113767   0.380302   0.030182
   26  O  2  X   -0.192730   0.000000   0.588294   0.505173  -0.637344
   27  O  2  Y    0.000000   0.866598   0.000000   0.000000   0.000000
   28  O  2  Z    0.792313   0.000000   0.301367  -0.486484   0.089245
   29  O  2 XX    0.014206   0.000000  -0.046069   0.006303   0.189790
   30  O  2 YY   -0.014243   0.000000   0.000513   0.020337  -0.122784
   31  O  2 ZZ    0.000037   0.000000   0.045556  -0.026640  -0.067006
   32  O  2 XY    0.000000  -0.036368   0.000000   0.000000   0.000000
   33  O  2 XZ   -0.044319   0.000000  -0.035809   0.044235  -0.113850
   34  O  2 YZ    0.000000   0.008131   0.000000   0.000000   0.000000
   35  O  3  S   -0.000287   0.000000   0.006401   0.000107  -0.007329
   36  O  3  S    0.017072   0.000000   0.025073  -0.055654   1.129672
   37  O  3  S    0.051273   0.000000  -0.094084   0.138614  -1.645414
   38  O  3  X   -0.168343   0.000000   0.545656  -0.453831  -0.104012
   39  O  3  Y    0.000000  -0.605825   0.000000   0.000000   0.000000
   40  O  3  Z   -0.578027   0.000000  -0.113767  -0.380302   0.030182
   41  O  3  X    0.192730   0.000000  -0.588294   0.505173   0.637344
   42  O  3  Y    0.000000   0.866598   0.000000   0.000000   0.000000
   43  O  3  Z    0.792313   0.000000   0.301367   0.486484   0.089245
   44  O  3 XX    0.014206   0.000000  -0.046069  -0.006303   0.189790
   45  O  3 YY   -0.014243   0.000000   0.000513  -0.020337  -0.122784
   46  O  3 ZZ    0.000037   0.000000   0.045556   0.026640  -0.067006
   47  O  3 XY    0.000000   0.036368   0.000000   0.000000   0.000000
   48  O  3 XZ    0.044319   0.000000   0.035809   0.044235   0.113850
   49  O  3 YZ    0.000000   0.008131   0.000000   0.000000   0.000000

                     36         37         38         39         40
                    1.6013     2.0777     2.0778     2.0813     2.0847
                     B1         B1         A2         B2         A1  
    1  S  1  S    0.000000   0.000000   0.000000   0.000000  -0.001428
    2  S  1  S    0.000000   0.000000   0.000000   0.000000  -0.003934
    3  S  1  S    0.000000   0.000000   0.000000   0.000000  -0.020966
    4  S  1  S    0.000000   0.000000   0.000000   0.000000   0.016134
    5  S  1  X   -0.026306  -0.001431   0.000000   0.000000   0.000000
    6  S  1  Y    0.000000   0.000000   0.000000  -0.008669   0.000000
    7  S  1  Z    0.000000   0.000000   0.000000   0.000000   0.003863
    8  S  1  X    0.140915   0.000866   0.000000   0.000000   0.000000
    9  S  1  Y    0.000000   0.000000   0.000000   0.019628   0.000000
   10  S  1  Z    0.000000   0.000000   0.000000   0.000000  -0.013730
   11  S  1  X    1.230812   0.040036   0.000000   0.000000   0.000000
   12  S  1  Y    0.000000   0.000000   0.000000   0.040373   0.000000
   13  S  1  Z    0.000000   0.000000   0.000000   0.000000   0.003136
   14  S  1 XX    0.000000   0.000000   0.000000   0.000000   0.018481
   15  S  1 YY    0.000000   0.000000   0.000000   0.000000  -0.049787
   16  S  1 ZZ    0.000000   0.000000   0.000000   0.000000   0.031306
   17  S  1 XY    0.000000   0.000000   0.027198   0.000000   0.000000
   18  S  1 XZ    0.345836  -0.029566   0.000000   0.000000   0.000000
   19  S  1 YZ    0.000000   0.000000   0.000000  -0.005629   0.000000
   20  O  2  S    0.007638   0.000555   0.000000   0.000000   0.001043
   21  O  2  S   -1.186339  -0.021095   0.000000   0.000000  -0.003733
   22  O  2  S    1.792267   0.032959   0.000000   0.000000  -0.004419
   23  O  2  X   -0.032006   0.002078   0.000000   0.000000  -0.008310
   24  O  2  Y    0.000000   0.000000  -0.005312   0.013814   0.000000
   25  O  2  Z    0.095497   0.010952   0.000000   0.000000   0.001684
   26  O  2  X    0.418458  -0.001535   0.000000   0.000000   0.005038
   27  O  2  Y    0.000000   0.000000   0.008357  -0.023804   0.000000
   28  O  2  Z   -0.391052  -0.018861   0.000000   0.000000  -0.001119
   29  O  2 XX   -0.132936  -0.233746   0.000000   0.000000  -0.058133
   30  O  2 YY    0.092670   0.597232   0.000000   0.000000   0.596595
   31  O  2 ZZ    0.040266  -0.363485   0.000000   0.000000  -0.538462
   32  O  2 XY    0.000000   0.000000   0.406174   0.076602   0.000000
   33  O  2 XZ    0.142485  -0.371444   0.000000   0.000000  -0.258932
   34  O  2 YZ    0.000000   0.000000   0.578943   0.703454   0.000000
   35  O  3  S   -0.007638  -0.000555   0.000000   0.000000   0.001043
   36  O  3  S    1.186339   0.021095   0.000000   0.000000  -0.003733
   37  O  3  S   -1.792267  -0.032959   0.000000   0.000000  -0.004419
   38  O  3  X   -0.032006   0.002078   0.000000   0.000000   0.008310
   39  O  3  Y    0.000000   0.000000   0.005312   0.013814   0.000000
   40  O  3  Z   -0.095497  -0.010952   0.000000   0.000000   0.001684
   41  O  3  X    0.418458  -0.001535   0.000000   0.000000  -0.005038
   42  O  3  Y    0.000000   0.000000  -0.008357  -0.023804   0.000000
   43  O  3  Z    0.391052   0.018861   0.000000   0.000000  -0.001119
   44  O  3 XX    0.132936   0.233746   0.000000   0.000000  -0.058133
   45  O  3 YY   -0.092670  -0.597232   0.000000   0.000000   0.596595
   46  O  3 ZZ   -0.040266   0.363485   0.000000   0.000000  -0.538462
   47  O  3 XY    0.000000   0.000000   0.406174  -0.076602   0.000000
   48  O  3 XZ    0.142485  -0.371444   0.000000   0.000000   0.258932
   49  O  3 YZ    0.000000   0.000000  -0.578943   0.703454   0.000000

                     41         42         43         44         45
                    2.1133     2.1135     2.1719     2.1851     2.5352
                     B2         B1         A2         A1         B1  
    1  S  1  S    0.000000   0.000000   0.000000  -0.001355   0.000000
    2  S  1  S    0.000000   0.000000   0.000000   0.039699   0.000000
    3  S  1  S    0.000000   0.000000   0.000000   0.031416   0.000000
    4  S  1  S    0.000000   0.000000   0.000000  -0.304315   0.000000
    5  S  1  X    0.000000  -0.034656   0.000000   0.000000  -0.159884
    6  S  1  Y    0.024210   0.000000   0.000000   0.000000   0.000000
    7  S  1  Z    0.000000   0.000000   0.000000   0.035322   0.000000
    8  S  1  X    0.000000   0.129541   0.000000   0.000000   0.663715
    9  S  1  Y   -0.050275   0.000000   0.000000   0.000000   0.000000
   10  S  1  Z    0.000000   0.000000   0.000000  -0.101163   0.000000
   11  S  1  X    0.000000   0.119348   0.000000   0.000000   0.400924
   12  S  1  Y   -0.145713   0.000000   0.000000   0.000000   0.000000
   13  S  1  Z    0.000000   0.000000   0.000000  -0.245385   0.000000
   14  S  1 XX    0.000000   0.000000   0.000000   0.125097   0.000000
   15  S  1 YY    0.000000   0.000000   0.000000   0.086839   0.000000
   16  S  1 ZZ    0.000000   0.000000   0.000000  -0.211937   0.000000
   17  S  1 XY    0.000000   0.000000   0.312995   0.000000   0.000000
   18  S  1 XZ    0.000000  -0.147392   0.000000   0.000000   0.510476
   19  S  1 YZ   -0.162630   0.000000   0.000000   0.000000   0.000000
   20  O  2  S    0.000000   0.000719   0.000000   0.000138  -0.014671
   21  O  2  S    0.000000  -0.118454   0.000000  -0.190929  -0.485080
   22  O  2  S    0.000000   0.173633   0.000000   0.298096   0.845375
   23  O  2  X    0.000000  -0.023025   0.000000  -0.070787  -0.057274
   24  O  2  Y   -0.049986   0.000000  -0.037885   0.000000   0.000000
   25  O  2  Z    0.000000   0.049891   0.000000  -0.035171   0.032311
   26  O  2  X    0.000000   0.054168   0.000000   0.198727   0.452024
   27  O  2  Y    0.101399   0.000000   0.082805   0.000000   0.000000
   28  O  2  Z    0.000000  -0.094794   0.000000   0.071034  -0.220936
   29  O  2 XX    0.000000  -0.351760   0.000000   0.551245   0.605296
   30  O  2 YY    0.000000  -0.202553   0.000000  -0.095699  -0.338648
   31  O  2 ZZ    0.000000   0.554313   0.000000  -0.455546  -0.266648
   32  O  2 XY    0.708969   0.000000   0.586232   0.000000   0.000000
   33  O  2 XZ    0.000000  -0.433395   0.000000   0.400370  -0.432709
   34  O  2 YZ   -0.080904   0.000000  -0.408936   0.000000   0.000000
   35  O  3  S    0.000000  -0.000719   0.000000   0.000138   0.014671
   36  O  3  S    0.000000   0.118454   0.000000  -0.190929   0.485080
   37  O  3  S    0.000000  -0.173633   0.000000   0.298096  -0.845375
   38  O  3  X    0.000000  -0.023025   0.000000   0.070787  -0.057274
   39  O  3  Y   -0.049986   0.000000   0.037885   0.000000   0.000000
   40  O  3  Z    0.000000  -0.049891   0.000000  -0.035171  -0.032311
   41  O  3  X    0.000000   0.054168   0.000000  -0.198727   0.452024
   42  O  3  Y    0.101399   0.000000  -0.082805   0.000000   0.000000
   43  O  3  Z    0.000000   0.094794   0.000000   0.071034   0.220936
   44  O  3 XX    0.000000   0.351760   0.000000   0.551245  -0.605296
   45  O  3 YY    0.000000   0.202553   0.000000  -0.095699   0.338648
   46  O  3 ZZ    0.000000  -0.554313   0.000000  -0.455546   0.266648
   47  O  3 XY   -0.708969   0.000000   0.586232   0.000000   0.000000
   48  O  3 XZ    0.000000  -0.433395   0.000000  -0.400370  -0.432709
   49  O  3 YZ   -0.080904   0.000000   0.408936   0.000000   0.000000

                     46
                    2.5360
                     A1  
    1  S  1  S    0.016424
    2  S  1  S   -0.137054
    3  S  1  S    0.021302
    4  S  1  S    1.056689
    5  S  1  X    0.000000
    6  S  1  Y    0.000000
    7  S  1  Z   -0.075065
    8  S  1  X    0.000000
    9  S  1  Y    0.000000
   10  S  1  Z    0.321133
   11  S  1  X    0.000000
   12  S  1  Y    0.000000
   13  S  1  Z    0.218968
   14  S  1 XX    0.608813
   15  S  1 YY   -0.395392
   16  S  1 ZZ   -0.213421
   17  S  1 XY    0.000000
   18  S  1 XZ    0.000000
   19  S  1 YZ    0.000000
   20  O  2  S    0.016021
   21  O  2  S    0.546232
   22  O  2  S   -0.951399
   23  O  2  X    0.073752
   24  O  2  Y    0.000000
   25  O  2  Z   -0.029460
   26  O  2  X   -0.537971
   27  O  2  Y    0.000000
   28  O  2  Z    0.240654
   29  O  2 XX   -0.449487
   30  O  2 YY    0.380050
   31  O  2 ZZ    0.069437
   32  O  2 XY    0.000000
   33  O  2 XZ    0.560632
   34  O  2 YZ    0.000000
   35  O  3  S    0.016021
   36  O  3  S    0.546232
   37  O  3  S   -0.951399
   38  O  3  X   -0.073752
   39  O  3  Y    0.000000
   40  O  3  Z   -0.029460
   41  O  3  X    0.537971
   42  O  3  Y    0.000000
   43  O  3  Z    0.240654
   44  O  3 XX   -0.449487
   45  O  3 YY    0.380050
   46  O  3 ZZ    0.069437
   47  O  3 XY    0.000000
   48  O  3 XZ   -0.560632
   49  O  3 YZ    0.000000
 ...... END OF RHF CALCULATION ......
 STEP CPU TIME =     4.24 TOTAL CPU TIME =        4.4 (    0.1 MIN)
 TOTAL WALL CLOCK TIME=        4.4 SECONDS, CPU UTILIZATION IS 100.00%

     ---------------------------------------------------------------------
     PROPERTIES FOR THE PBE      DFT FUNCTIONAL (RHF  TYPE) DENSITY MATRIX
     ---------------------------------------------------------------------

          -----------------
          ENERGY COMPONENTS
          -----------------

         WAVEFUNCTION NORMALIZATION =       1.0000000000

                ONE ELECTRON ENERGY =    -935.8264718894
                TWO ELECTRON ENERGY =     296.9431040881
           NUCLEAR REPULSION ENERGY =      90.6785973826
                                      ------------------
                       TOTAL ENERGY =    -548.2047704187

 ELECTRON-ELECTRON POTENTIAL ENERGY =     296.9431040881
  NUCLEUS-ELECTRON POTENTIAL ENERGY =   -1482.6753909742
   NUCLEUS-NUCLEUS POTENTIAL ENERGY =      90.6785973826
                                      ------------------
             TOTAL POTENTIAL ENERGY =   -1095.0536895035
               TOTAL KINETIC ENERGY =     546.8489190847
                 VIRIAL RATIO (V/T) =       2.0024793893

          ---------------------------------------
          MULLIKEN AND LOWDIN POPULATION ANALYSES
          ---------------------------------------

     ATOMIC MULLIKEN POPULATION IN EACH MOLECULAR ORBITAL

                      1          2          3          4          5

                  2.000000   2.000000   2.000000   2.000000   2.000000

    1             2.000003   0.001003   0.000793   2.000357   1.999943
    2            -0.000002   0.999499   0.999604  -0.000178   0.000029
    3            -0.000002   0.999499   0.999604  -0.000178   0.000029

                      6          7          8          9         10

                  2.000000   2.000000   2.000000   2.000000   2.000000

    1             2.000004   1.999958   0.586873   0.212569   1.169921
    2            -0.000002   0.000021   0.706564   0.893715   0.415040
    3            -0.000002   0.000021   0.706564   0.893715   0.415040

                     11         12         13         14         15

                  2.000000   2.000000   2.000000   2.000000   2.000000

    1             0.534649   1.099822   1.144874   0.049251   0.085808
    2             0.732675   0.450089   0.427563   0.975375   0.957096
    3             0.732675   0.450089   0.427563   0.975375   0.957096

                     16

                  2.000000

    1             0.306748
    2             0.846626
    3             0.846626

               ----- POPULATIONS IN EACH AO -----
                             MULLIKEN      LOWDIN
              1  S  1  S      2.00021     1.99599
              2  S  1  S      2.01029     1.97349
              3  S  1  S      1.00836     0.63541
              4  S  1  S      0.87596     0.55265
              5  S  1  X      1.99627     1.95241
              6  S  1  Y      1.99624     1.95549
              7  S  1  Z      1.99674     1.95918
              8  S  1  X      0.63830     0.58246
              9  S  1  Y      0.66990     0.64522
             10  S  1  Z      0.76731     0.74077
             11  S  1  X      0.13127     0.29072
             12  S  1  Y      0.47361     0.52110
             13  S  1  Z      0.39181     0.48439
             14  S  1 XX      0.03666     0.26461
             15  S  1 YY      0.07712     0.26821
             16  S  1 ZZ      0.04925     0.26568
             17  S  1 XY      0.06813     0.05755
             18  S  1 XZ      0.00513     0.08578
             19  S  1 YZ      0.00000     0.00488
             20  O  2  S      1.99805     1.98112
             21  O  2  S      0.85255     0.66902
             22  O  2  S      1.10377     0.59649
             23  O  2  X      0.79421     0.75365
             24  O  2  Y      0.83530     0.80277
             25  O  2  Z      1.08187     1.05079
             26  O  2  X      0.48417     0.56784
             27  O  2  Y      0.56437     0.60111
             28  O  2  Z      0.67705     0.72066
             29  O  2 XX      0.00174     0.21202
             30  O  2 YY      0.00371     0.21147
             31  O  2 ZZ      0.00268     0.20579
             32  O  2 XY      0.00364     0.00329
             33  O  2 XZ      0.00058     0.00528
             34  O  2 YZ      0.00000     0.00070
             35  O  3  S      1.99805     1.98112
             36  O  3  S      0.85255     0.66902
             37  O  3  S      1.10377     0.59649
             38  O  3  X      0.79421     0.75365
             39  O  3  Y      0.83530     0.80277
             40  O  3  Z      1.08187     1.05079
             41  O  3  X      0.48417     0.56784
             42  O  3  Y      0.56437     0.60111
             43  O  3  Z      0.67705     0.72066
             44  O  3 XX      0.00174     0.21202
             45  O  3 YY      0.00371     0.21147
             46  O  3 ZZ      0.00268     0.20579
             47  O  3 XY      0.00364     0.00329
             48  O  3 XZ      0.00058     0.00528
             49  O  3 YZ      0.00000     0.00070

          ----- MULLIKEN ATOMIC OVERLAP POPULATIONS -----
          (OFF-DIAGONAL ELEMENTS NEED TO BE MULTIPLIED BY 2)

             1           2           3

    1   14.7235429
    2    0.2345166   8.1793247
    3    0.2345166  -0.0101292   8.1793247

          TOTAL MULLIKEN AND LOWDIN ATOMIC POPULATIONS
       ATOM         MULL.POP.    CHARGE          LOW.POP.     CHARGE
    1 S            15.192576    0.807424        15.236000    0.764000
    2 O             8.403712   -0.403712         8.382000   -0.382000
    3 O             8.403712   -0.403712         8.382000   -0.382000

          MULLIKEN SPHERICAL HARMONIC POPULATIONS
       ATOM           S       P       D      F      G      H      I    TOTAL
    1 S             5.89    9.06    0.24   0.00   0.00   0.00   0.00   15.19
    2 O             3.95    4.44    0.01   0.00   0.00   0.00   0.00    8.40
    3 O             3.95    4.44    0.01   0.00   0.00   0.00   0.00    8.40

          -------------------------------
          BOND ORDER AND VALENCE ANALYSIS     BOND ORDER THRESHOLD=0.050
          -------------------------------

                   BOND                       BOND                       BOND
  ATOM PAIR DIST  ORDER      ATOM PAIR DIST  ORDER      ATOM PAIR DIST  ORDER
    1   2  1.700  1.644        1   3  1.700  1.644        2   3  3.081  0.469

                       TOTAL       BONDED        FREE
      ATOM            VALENCE     VALENCE     VALENCE
    1 S                 3.288       3.288       0.000
    2 O                 2.113       2.113       0.000
    3 O                 2.113       2.113       0.000

          ---------------------
          ELECTROSTATIC MOMENTS
          ---------------------

 POINT   1           X           Y           Z (BOHR)    CHARGE
                 0.000000    0.000000    0.000000        0.00 (A.U.)
         DX          DY          DZ         /D/  (DEBYE)
     0.000000    0.000000   -1.690733    1.690733
 ...... END OF PROPERTY EVALUATION ......
 STEP CPU TIME =     0.00 TOTAL CPU TIME =        4.4 (    0.1 MIN)
 TOTAL WALL CLOCK TIME=        4.4 SECONDS, CPU UTILIZATION IS 100.00%
               580000  WORDS OF DYNAMIC MEMORY USED
 EXECUTION OF GAMESS TERMINATED NORMALLY Thu Feb 26 00:19:31 2015
 DDI: 263624 bytes (0.3 MB / 0 MWords) used by master data server.

 ----------------------------------------
 CPU timing information for all processes
 ========================================
 0: 4.399 + 0.31 = 4.431
 ----------------------------------------
 ddikick.x: exited gracefully.
----- accounting info -----
Files used on the master node dftfe.crc.nd.edu were:
-rw-r--r-- 1 pmehta1 campus   37475 Feb 26 00:19 /tmp/gamess.dat
-rw-r--r-- 1 pmehta1 campus     142 Feb 26 00:19 /tmp/gamess.F05
-rw-r--r-- 1 pmehta1 campus 1980264 Feb 26 00:19 /tmp/gamess.F08
-rw-r--r-- 1 pmehta1 campus 1220440 Feb 26 00:19 /tmp/gamess.F10
Thu Feb 26 00:19:34 EST 2015
0.252u 0.165s 0:07.86 5.2%	0+0k 0+112io 0pf+0w
