   1   1   1   0
  0.1510406E+02  0.2774616E-09  0.2774616E-09  0.2774616E-09  0.5000000E-15
   1.0000000000000000E-004
  CAR 
 Au, FCC                                 
     30.51739284     -5.41901458  301      6.74720642      1.00000000
     -5.419  0.0000E+00  0.0000E+00
     -5.299  0.0000E+00  0.0000E+00
     -5.179  0.0000E+00  0.0000E+00
     -5.060  0.0000E+00  0.0000E+00
     -4.940  0.0000E+00  0.0000E+00
     -4.820  0.0000E+00  0.0000E+00
     -4.700  0.0000E+00  0.0000E+00
     -4.580  0.0000E+00  0.0000E+00
     -4.461  0.0000E+00  0.0000E+00
     -4.341  0.9728E-16  0.1165E-16
     -4.221  0.1768E-10  0.2118E-11
     -4.101  0.1938E-06  0.2322E-07
     -3.982  0.1354E-03  0.1624E-04
     -3.862  0.6704E-02  0.8193E-03
     -3.742  0.2875E-01  0.4263E-02
     -3.622  0.1258E-01  0.5770E-02
     -3.502  0.5068E-03  0.5831E-02
     -3.383  0.1571E-05  0.5831E-02
     -3.263  0.1154E-03  0.5845E-02
     -3.143  0.1580E-01  0.7737E-02
     -3.023  0.1716E+00  0.2829E-01
     -2.903  0.1881E+00  0.5082E-01
     -2.784  0.1163E+00  0.6475E-01
     -2.664  0.1619E+00  0.8415E-01
     -2.544  0.2726E-01  0.8742E-01
     -2.424  0.3853E-03  0.8746E-01
     -2.305  0.3789E-06  0.8746E-01
     -2.185  0.3692E-05  0.8746E-01
     -2.065  0.2197E-02  0.8773E-01
     -1.945  0.9360E-01  0.9894E-01
     -1.825  0.3499E+00  0.1409E+00
     -1.706  0.1342E+00  0.1569E+00
     -1.586  0.3891E-01  0.1616E+00
     -1.466  0.2540E+00  0.1920E+00
     -1.346  0.6259E+00  0.2670E+00
     -1.226  0.6024E+00  0.3392E+00
     -1.107  0.2630E+00  0.3707E+00
     -0.987  0.1581E+00  0.3896E+00
     -0.867  0.1003E+00  0.4016E+00
     -0.747  0.3588E+00  0.4446E+00
     -0.627  0.1109E+01  0.5775E+00
     -0.508  0.2444E+01  0.8702E+00
     -0.388  0.1165E+01  0.1010E+01
     -0.268  0.8759E+00  0.1115E+01
     -0.148  0.1050E+01  0.1240E+01
     -0.029  0.1971E+01  0.1476E+01
      0.091  0.1268E+01  0.1628E+01
      0.211  0.1489E+01  0.1807E+01
      0.331  0.2786E+01  0.2140E+01
      0.451  0.1818E+01  0.2358E+01
      0.570  0.4731E+00  0.2415E+01
      0.690  0.4023E+00  0.2463E+01
      0.810  0.8648E+00  0.2567E+01
      0.930  0.1499E+01  0.2746E+01
      1.050  0.2357E+01  0.3029E+01
      1.169  0.1728E+01  0.3236E+01
      1.289  0.3116E+00  0.3273E+01
      1.409  0.5953E+00  0.3344E+01
      1.529  0.1246E+01  0.3493E+01
      1.648  0.1821E+01  0.3712E+01
      1.768  0.2547E+01  0.4017E+01
      1.888  0.2884E+01  0.4362E+01
      2.008  0.2120E+01  0.4616E+01
      2.128  0.1439E+01  0.4789E+01
      2.247  0.1919E+01  0.5018E+01
      2.367  0.2839E+01  0.5358E+01
      2.487  0.2405E+01  0.5647E+01
      2.607  0.2397E+01  0.5934E+01
      2.727  0.1179E+01  0.6075E+01
      2.846  0.1403E+01  0.6243E+01
      2.966  0.1587E+01  0.6433E+01
      3.086  0.6425E+00  0.6510E+01
      3.206  0.6015E+00  0.6582E+01
      3.326  0.2110E+01  0.6835E+01
      3.445  0.2014E+01  0.7076E+01
      3.565  0.6414E+00  0.7153E+01
      3.685  0.1204E+01  0.7297E+01
      3.805  0.2476E+01  0.7594E+01
      3.924  0.3169E+01  0.7973E+01
      4.044  0.2177E+01  0.8234E+01
      4.164  0.7355E+00  0.8322E+01
      4.284  0.1151E+01  0.8460E+01
      4.404  0.8303E+00  0.8559E+01
      4.523  0.1466E+01  0.8735E+01
      4.643  0.1226E+01  0.8882E+01
      4.763  0.3872E+00  0.8928E+01
      4.883  0.6460E+00  0.9006E+01
      5.003  0.1444E+01  0.9179E+01
      5.122  0.1979E+01  0.9416E+01
      5.242  0.2182E+01  0.9677E+01
      5.362  0.2283E+01  0.9951E+01
      5.482  0.2648E+01  0.1027E+02
      5.601  0.1167E+01  0.1041E+02
      5.721  0.1468E+00  0.1043E+02
      5.841  0.4787E-02  0.1043E+02
      5.961  0.9935E-01  0.1044E+02
      6.081  0.7834E+00  0.1053E+02
      6.200  0.1323E+01  0.1069E+02
      6.320  0.1053E+01  0.1082E+02
      6.440  0.2500E+00  0.1085E+02
      6.560  0.3051E+00  0.1088E+02
      6.680  0.7403E+00  0.1097E+02
      6.799  0.3395E+00  0.1101E+02
      6.919  0.6783E-01  0.1102E+02
      7.039  0.2148E-02  0.1102E+02
      7.159  0.5220E-05  0.1102E+02
      7.279  0.8219E-09  0.1102E+02
      7.398  0.7912E-14  0.1102E+02
      7.518  0.0000E+00  0.1102E+02
      7.638  0.0000E+00  0.1102E+02
      7.758  0.0000E+00  0.1102E+02
      7.877  0.4144E-11  0.1102E+02
      7.997  0.1430E-06  0.1102E+02
      8.117  0.3069E-03  0.1102E+02
      8.237  0.4459E-01  0.1103E+02
      8.357  0.5421E+00  0.1109E+02
      8.476  0.8587E+00  0.1119E+02
      8.596  0.2893E+00  0.1123E+02
      8.716  0.1728E-01  0.1123E+02
      8.836  0.1452E-01  0.1123E+02
      8.956  0.4757E+00  0.1129E+02
      9.075  0.1408E+01  0.1146E+02
      9.195  0.4267E+00  0.1151E+02
      9.315  0.1201E-01  0.1151E+02
      9.435  0.6027E-01  0.1152E+02
      9.554  0.5552E+00  0.1158E+02
      9.674  0.5067E+00  0.1164E+02
      9.794  0.4523E-01  0.1165E+02
      9.914  0.1122E-02  0.1165E+02
     10.034  0.5572E-01  0.1166E+02
     10.153  0.3250E+00  0.1170E+02
     10.273  0.1919E+00  0.1172E+02
     10.393  0.1070E-01  0.1172E+02
     10.513  0.4543E-04  0.1172E+02
     10.633  0.1292E-07  0.1172E+02
     10.752  0.2835E-05  0.1172E+02
     10.872  0.2343E-02  0.1172E+02
     10.992  0.1360E+00  0.1174E+02
     11.112  0.6740E+00  0.1182E+02
     11.232  0.3455E+00  0.1186E+02
     11.351  0.2273E+00  0.1189E+02
     11.471  0.7092E+00  0.1197E+02
     11.591  0.4711E+00  0.1203E+02
     11.711  0.1140E+01  0.1216E+02
     11.830  0.8689E+00  0.1227E+02
     11.950  0.9776E-01  0.1228E+02
     12.070  0.1095E-02  0.1228E+02
     12.190  0.1071E-05  0.1228E+02
     12.310  0.2551E-03  0.1228E+02
     12.429  0.2479E-01  0.1228E+02
     12.549  0.1966E+00  0.1231E+02
     12.669  0.1557E+00  0.1233E+02
     12.789  0.1194E-01  0.1233E+02
     12.909  0.7145E-04  0.1233E+02
     13.028  0.3316E-07  0.1233E+02
     13.148  0.3280E-04  0.1233E+02
     13.268  0.1528E-01  0.1233E+02
     13.388  0.5322E+00  0.1239E+02
     13.507  0.1733E+01  0.1260E+02
     13.627  0.6308E+00  0.1268E+02
     13.747  0.3339E+00  0.1272E+02
     13.867  0.6864E+00  0.1280E+02
     13.987  0.1541E+00  0.1282E+02
     14.106  0.2988E-02  0.1282E+02
     14.226  0.2198E-02  0.1282E+02
     14.346  0.1314E+00  0.1283E+02
     14.466  0.6703E+00  0.1291E+02
     14.586  0.3475E+00  0.1295E+02
     14.705  0.1749E-01  0.1296E+02
     14.825  0.6870E-01  0.1296E+02
     14.945  0.5769E+00  0.1303E+02
     15.065  0.4928E+00  0.1309E+02
     15.185  0.3187E+00  0.1313E+02
     15.304  0.6971E+00  0.1321E+02
     15.424  0.1776E+00  0.1324E+02
     15.544  0.3963E-02  0.1324E+02
     15.664  0.3766E-02  0.1324E+02
     15.783  0.1213E+00  0.1325E+02
     15.903  0.3527E+00  0.1329E+02
     16.023  0.1452E+00  0.1331E+02
     16.143  0.1755E+00  0.1333E+02
     16.263  0.7508E-01  0.1334E+02
     16.382  0.4101E-01  0.1335E+02
     16.502  0.4785E+00  0.1340E+02
     16.622  0.6685E+00  0.1348E+02
     16.742  0.7851E+00  0.1358E+02
     16.862  0.1072E+01  0.1371E+02
     16.981  0.4249E+00  0.1376E+02
     17.101  0.8944E-01  0.1377E+02
     17.221  0.5302E+00  0.1383E+02
     17.341  0.5329E+00  0.1389E+02
     17.460  0.5278E-01  0.1390E+02
     17.580  0.4366E-03  0.1390E+02
     17.700  0.8145E-02  0.1390E+02
     17.820  0.2518E+00  0.1393E+02
     17.940  0.7043E+00  0.1402E+02
     18.059  0.2675E+00  0.1405E+02
     18.179  0.2395E+00  0.1408E+02
     18.299  0.1289E+00  0.1409E+02
     18.419  0.5088E+00  0.1415E+02
     18.539  0.6499E+00  0.1423E+02
     18.658  0.8677E+00  0.1434E+02
     18.778  0.7720E+00  0.1443E+02
     18.898  0.7953E-01  0.1444E+02
     19.018  0.3500E-01  0.1444E+02
     19.138  0.3025E+00  0.1448E+02
     19.257  0.5689E+00  0.1455E+02
     19.377  0.9770E+00  0.1466E+02
     19.497  0.1498E+01  0.1484E+02
     19.617  0.6768E+00  0.1492E+02
     19.736  0.3133E-01  0.1493E+02
     19.856  0.1092E-03  0.1493E+02
     19.976  0.2858E-07  0.1493E+02
     20.096  0.2268E-04  0.1493E+02
     20.216  0.9127E-02  0.1493E+02
     20.335  0.2928E+00  0.1496E+02
     20.455  0.1349E+01  0.1512E+02
     20.575  0.1552E+01  0.1531E+02
     20.695  0.2968E+00  0.1535E+02
     20.815  0.3698E-01  0.1535E+02
     20.934  0.4461E+00  0.1540E+02
     21.054  0.6068E+00  0.1548E+02
     21.174  0.8271E-01  0.1549E+02
     21.294  0.1812E-02  0.1549E+02
     21.414  0.1093E+00  0.1550E+02
     21.533  0.1096E+01  0.1563E+02
     21.653  0.1287E+01  0.1579E+02
     21.773  0.3944E+00  0.1583E+02
     21.893  0.2009E+00  0.1586E+02
     22.012  0.8202E+00  0.1596E+02
     22.132  0.1410E+01  0.1612E+02
     22.252  0.1291E+01  0.1628E+02
     22.372  0.6309E+00  0.1635E+02
     22.492  0.1536E+00  0.1637E+02
     22.611  0.5886E-02  0.1637E+02
     22.731  0.1733E-01  0.1638E+02
     22.851  0.6972E-01  0.1638E+02
     22.971  0.5034E+00  0.1644E+02
     23.091  0.5623E+00  0.1651E+02
     23.210  0.8298E-01  0.1652E+02
     23.330  0.2489E+00  0.1655E+02
     23.450  0.5874E+00  0.1662E+02
     23.570  0.5795E+00  0.1669E+02
     23.689  0.9657E+00  0.1681E+02
     23.809  0.4062E+00  0.1686E+02
     23.929  0.1010E+00  0.1687E+02
     24.049  0.8420E+00  0.1697E+02
     24.169  0.8431E+00  0.1707E+02
     24.288  0.2760E+00  0.1710E+02
     24.408  0.7048E+00  0.1719E+02
     24.528  0.4170E+00  0.1724E+02
     24.648  0.6978E+00  0.1732E+02
     24.768  0.4230E+00  0.1737E+02
     24.887  0.6661E+00  0.1745E+02
     25.007  0.4218E+00  0.1750E+02
     25.127  0.3943E+00  0.1755E+02
     25.247  0.8941E+00  0.1766E+02
     25.367  0.6701E+00  0.1774E+02
     25.486  0.6313E-01  0.1774E+02
     25.606  0.4883E-03  0.1774E+02
     25.726  0.2583E-06  0.1774E+02
     25.846  0.8633E-11  0.1774E+02
     25.965  0.1055E-10  0.1774E+02
     26.085  0.2077E-06  0.1774E+02
     26.205  0.2574E-03  0.1774E+02
     26.325  0.2234E-01  0.1775E+02
     26.445  0.1877E+00  0.1777E+02
     26.564  0.3211E+00  0.1781E+02
     26.684  0.1419E+00  0.1782E+02
     26.804  0.1878E-01  0.1783E+02
     26.924  0.1914E+00  0.1785E+02
     27.044  0.3253E+00  0.1789E+02
     27.163  0.5631E-01  0.1789E+02
     27.283  0.1622E-01  0.1790E+02
     27.403  0.5826E-01  0.1790E+02
     27.523  0.2253E-01  0.1791E+02
     27.642  0.7921E-03  0.1791E+02
     27.762  0.2047E-05  0.1791E+02
     27.882  0.1336E-07  0.1791E+02
     28.002  0.4108E-04  0.1791E+02
     28.122  0.8582E-02  0.1791E+02
     28.241  0.1376E+00  0.1792E+02
     28.361  0.2104E+00  0.1795E+02
     28.481  0.3241E-01  0.1795E+02
     28.601  0.4274E-03  0.1795E+02
     28.721  0.4054E-02  0.1795E+02
     28.840  0.1007E+00  0.1797E+02
     28.960  0.2300E+00  0.1799E+02
     29.080  0.5363E-01  0.1800E+02
     29.200  0.1083E-02  0.1800E+02
     29.320  0.1550E-05  0.1800E+02
     29.439  0.1414E-09  0.1800E+02
     29.559  0.7782E-15  0.1800E+02
     29.679  0.0000E+00  0.1800E+02
     29.799  0.0000E+00  0.1800E+02
     29.918  0.0000E+00  0.1800E+02
     30.038  0.0000E+00  0.1800E+02
     30.158  0.0000E+00  0.1800E+02
     30.278  0.0000E+00  0.1800E+02
     30.398  0.0000E+00  0.1800E+02
     30.517  0.0000E+00  0.1800E+02
     30.51739284     -5.41901458  301      6.74720642      1.00000000
     -5.419  0.0000E+00  0.0000E+00  0.0000E+00  0.0000E+00  0.0000E+00  0.0000E+00  0.0000E+00  0.0000E+00  0.0000E+00
     -5.299  0.0000E+00  0.0000E+00  0.0000E+00  0.0000E+00  0.0000E+00  0.0000E+00  0.0000E+00  0.0000E+00  0.0000E+00
     -5.179  0.0000E+00  0.0000E+00  0.0000E+00  0.0000E+00  0.0000E+00  0.0000E+00  0.0000E+00  0.0000E+00  0.0000E+00
     -5.060  0.0000E+00  0.0000E+00  0.0000E+00  0.0000E+00  0.0000E+00  0.0000E+00  0.0000E+00  0.0000E+00  0.0000E+00
     -4.940  0.0000E+00  0.0000E+00  0.0000E+00  0.0000E+00  0.0000E+00  0.0000E+00  0.0000E+00  0.0000E+00  0.0000E+00
     -4.820  0.0000E+00  0.0000E+00  0.0000E+00  0.0000E+00  0.0000E+00  0.0000E+00  0.0000E+00  0.0000E+00  0.0000E+00
     -4.700  0.0000E+00  0.0000E+00  0.0000E+00  0.0000E+00  0.0000E+00  0.0000E+00  0.0000E+00  0.0000E+00  0.0000E+00
     -4.580  0.0000E+00  0.0000E+00  0.0000E+00  0.0000E+00  0.0000E+00  0.0000E+00  0.0000E+00  0.0000E+00  0.0000E+00
     -4.461  0.0000E+00  0.0000E+00  0.0000E+00  0.0000E+00  0.0000E+00  0.0000E+00  0.0000E+00  0.0000E+00  0.0000E+00
     -4.341  0.6697E-16  0.2209E-32  0.5929E-32  0.7103E-32  0.1123E-30  0.5081E-30  0.3083E-31  0.5096E-31  0.2454E-31
     -4.221  0.1217E-10  0.4016E-27  0.1078E-26  0.1291E-26  0.2042E-25  0.9236E-25  0.5604E-26  0.9262E-26  0.4461E-26
     -4.101  0.1334E-06  0.4402E-23  0.1181E-22  0.1415E-22  0.2238E-21  0.1012E-20  0.6143E-22  0.1015E-21  0.4890E-22
     -3.982  0.9319E-04  0.3074E-20  0.8250E-20  0.9884E-20  0.1563E-18  0.7071E-18  0.4291E-19  0.7091E-19  0.3415E-19
     -3.862  0.4615E-02  0.1523E-18  0.4086E-18  0.4895E-18  0.7743E-17  0.3502E-16  0.2125E-17  0.3512E-17  0.1691E-17
     -3.742  0.1979E-01  0.6529E-18  0.1752E-17  0.2099E-17  0.3320E-16  0.1502E-15  0.9112E-17  0.1506E-16  0.7253E-17
     -3.622  0.8663E-02  0.2858E-18  0.7669E-18  0.9188E-18  0.1453E-16  0.6573E-16  0.3988E-17  0.6591E-17  0.3175E-17
     -3.502  0.3489E-03  0.1996E-13  0.1996E-13  0.1996E-13  0.5397E-14  0.5399E-14  0.1606E-18  0.5396E-14  0.1279E-18
     -3.383  0.1079E-05  0.6522E-09  0.6522E-09  0.6522E-09  0.1763E-09  0.1763E-09  0.5879E-21  0.1763E-09  0.4892E-21
     -3.263  0.7462E-04  0.1326E-05  0.1326E-05  0.1326E-05  0.3584E-06  0.3584E-06  0.1022E-14  0.3584E-06  0.2176E-18
     -3.143  0.1021E-01  0.1815E-03  0.1815E-03  0.1815E-03  0.4906E-04  0.4906E-04  0.5811E-10  0.4906E-04  0.2979E-16
     -3.023  0.1109E+00  0.1971E-02  0.1972E-02  0.1971E-02  0.5327E-03  0.5327E-03  0.2036E-06  0.5327E-03  0.3234E-15
     -2.903  0.1215E+00  0.2097E-02  0.2365E-02  0.2097E-02  0.5670E-03  0.5670E-03  0.4706E-04  0.5670E-03  0.3461E-15
     -2.784  0.7376E-01  0.2206E-03  0.4926E-02  0.2206E-03  0.5964E-04  0.5964E-04  0.8282E-03  0.5964E-04  0.6901E-16
     -2.664  0.1023E+00  0.1863E-05  0.7841E-02  0.1863E-05  0.5036E-06  0.5036E-06  0.1380E-02  0.5036E-06  0.5495E-16
     -2.544  0.1722E-01  0.1066E-08  0.1321E-02  0.1066E-08  0.2881E-09  0.2881E-09  0.2325E-03  0.2881E-09  0.9209E-17
     -2.424  0.2434E-03  0.3816E-13  0.1867E-04  0.3816E-13  0.1040E-13  0.1031E-13  0.3287E-05  0.1029E-13  0.1302E-18
     -2.305  0.2394E-06  0.1603E-10  0.1834E-07  0.1603E-10  0.1699E-10  0.2421E-19  0.3230E-08  0.4857E-20  0.1279E-21
     -2.185  0.2104E-05  0.1492E-06  0.1138E-11  0.1492E-06  0.1581E-06  0.8235E-19  0.1608E-07  0.2396E-18  0.6806E-21
     -2.065  0.1252E-02  0.8878E-04  0.1079E-16  0.8878E-04  0.9408E-04  0.5609E-16  0.9570E-05  0.1497E-15  0.4051E-18
     -1.945  0.5334E-01  0.3782E-02  0.4462E-12  0.3782E-02  0.4008E-02  0.2001E-11  0.4077E-03  0.2005E-11  0.1726E-16
     -1.825  0.1994E+00  0.1414E-01  0.7652E-08  0.1414E-01  0.1498E-01  0.3430E-07  0.1524E-02  0.3430E-07  0.6451E-16
     -1.706  0.7644E-01  0.5413E-02  0.8287E-05  0.5413E-02  0.5765E-02  0.3710E-04  0.5827E-03  0.3710E-04  0.4062E-16
     -1.586  0.1797E-01  0.8098E-03  0.6426E-03  0.8098E-03  0.2985E-02  0.2788E-02  0.3255E-04  0.2788E-02  0.1199E-14
     -1.466  0.1156E+00  0.4132E-02  0.7240E-02  0.4132E-02  0.1824E-01  0.1852E-01  0.1859E-02  0.1852E-01  0.7891E-14
     -1.346  0.3048E+00  0.5433E-02  0.4238E-01  0.5433E-02  0.2112E-01  0.2442E-01  0.2210E-01  0.2442E-01  0.9612E-14
     -1.226  0.2928E+00  0.3642E-02  0.4644E-01  0.3642E-02  0.1738E-01  0.2120E-01  0.2559E-01  0.2120E-01  0.8230E-14
     -1.107  0.7758E-01  0.7221E-03  0.5646E-02  0.7221E-03  0.4084E-01  0.4128E-01  0.2950E-02  0.4128E-01  0.1878E-13
     -0.987  0.3579E-01  0.2575E-03  0.3377E-03  0.2575E-03  0.3094E-01  0.3095E-01  0.2025E-02  0.3095E-01  0.1421E-13
     -0.867  0.1432E-01  0.1984E-04  0.2055E-02  0.1984E-04  0.2373E-02  0.2352E-02  0.5720E-01  0.2352E-02  0.1106E-14
     -0.747  0.6925E-01  0.2545E-03  0.1458E-01  0.2545E-03  0.8404E-02  0.3245E-02  0.1829E+00  0.3245E-02  0.1586E-14
     -0.627  0.2250E+00  0.8523E-02  0.2456E-01  0.8523E-02  0.2117E+00  0.9646E-01  0.2293E+00  0.9646E-01  0.5053E-13
     -0.508  0.5034E+00  0.2686E-01  0.3357E-01  0.2686E-01  0.6107E+00  0.2885E+00  0.2285E+00  0.2885E+00  0.2990E-09
     -0.388  0.1872E+00  0.9203E-02  0.1707E-01  0.9201E-02  0.3874E+00  0.9900E-01  0.1610E+00  0.9900E-01  0.1024E-05
     -0.268  0.8904E-01  0.2334E-02  0.2123E-01  0.1773E-02  0.2478E+00  0.8541E-02  0.3476E+00  0.8472E-02  0.2314E-03
     -0.148  0.6523E-01  0.1520E-01  0.1398E-01  0.4187E-02  0.3252E+00  0.8916E-02  0.4415E+00  0.2511E-02  0.4012E-02
     -0.029  0.2447E+00  0.3228E-01  0.5946E-01  0.2440E-02  0.4156E+00  0.6577E-01  0.7784E+00  0.9013E-02  0.6750E-02
      0.091  0.1936E+00  0.1662E-01  0.5039E-01  0.5119E-02  0.3802E+00  0.5863E-01  0.3235E+00  0.7952E-02  0.1304E-02
      0.211  0.4168E-01  0.9260E-02  0.1209E-01  0.2905E-01  0.1015E+01  0.3797E-01  0.1352E+00  0.1735E-01  0.2290E-02
      0.331  0.1447E+00  0.2577E-01  0.4106E-01  0.4025E-01  0.1349E+01  0.2214E+00  0.4675E+00  0.8579E-01  0.2622E-01
      0.451  0.1232E+00  0.2258E-01  0.2735E-01  0.2136E-01  0.6975E+00  0.1548E+00  0.4204E+00  0.5823E-01  0.2977E-01
      0.570  0.4703E-01  0.7282E-02  0.1831E-02  0.6999E-02  0.2512E+00  0.1045E-01  0.7449E-01  0.5021E-02  0.3358E-02
      0.690  0.6941E-02  0.1042E-02  0.9910E-05  0.1059E-01  0.3091E+00  0.9928E-04  0.7163E-02  0.2329E-01  0.4976E-04
      0.810  0.8191E-03  0.6940E-02  0.2246E-04  0.2774E-01  0.6057E+00  0.2843E-02  0.7047E-01  0.4832E-01  0.2341E-02
      0.930  0.6744E-02  0.4497E-01  0.2467E-03  0.6517E-01  0.6247E+00  0.3163E-01  0.4497E+00  0.2433E-01  0.3663E-01
      1.050  0.1203E-01  0.6251E-01  0.2391E-02  0.5345E-01  0.7135E+00  0.1774E+00  0.8266E+00  0.2493E-01  0.1695E+00
      1.169  0.1021E-01  0.3746E-01  0.3888E-02  0.1429E-01  0.5507E+00  0.1650E+00  0.5692E+00  0.2449E-01  0.1404E+00
      1.289  0.1583E-02  0.3779E-02  0.2564E-02  0.1560E-02  0.9953E-01  0.5908E-01  0.5134E-01  0.4643E-01  0.1251E-01
      1.409  0.2454E-02  0.4324E-02  0.7722E-02  0.4308E-02  0.1325E+00  0.1620E+00  0.6226E-01  0.1619E+00  0.8919E-04
      1.529  0.1228E-01  0.2334E-01  0.1778E-01  0.2334E-01  0.1932E+00  0.1619E+00  0.5016E+00  0.1617E+00  0.4637E-04
      1.648  0.1220E-01  0.2046E-01  0.3465E-01  0.2013E-01  0.1520E+00  0.2915E+00  0.8160E+00  0.2669E+00  0.5065E-02
      1.768  0.4582E-01  0.2312E-01  0.5063E-01  0.2507E-01  0.3240E+00  0.6308E+00  0.8013E+00  0.3329E+00  0.4697E-01
      1.888  0.7083E-01  0.3444E-01  0.1130E+00  0.5752E-01  0.6286E+00  0.9757E+00  0.4069E+00  0.1773E+00  0.8064E-01
      2.008  0.3498E-01  0.2110E-01  0.1016E+00  0.3306E-01  0.3535E+00  0.8237E+00  0.2342E+00  0.1442E+00  0.1333E+00
      2.128  0.5312E-01  0.3938E-01  0.4025E-01  0.3990E-01  0.2043E+00  0.2720E+00  0.3802E+00  0.1619E+00  0.5803E-01
      2.247  0.5084E-01  0.3283E-01  0.3148E-01  0.3283E-01  0.4714E+00  0.3013E+00  0.4021E+00  0.2994E+00  0.1009E+00
      2.367  0.5807E-01  0.3157E-01  0.4669E-01  0.3157E-01  0.7111E+00  0.3879E+00  0.5565E+00  0.3879E+00  0.3681E+00
      2.487  0.2454E-01  0.1253E-01  0.6867E-01  0.1253E-01  0.3074E+00  0.5198E+00  0.1987E+00  0.5198E+00  0.5371E+00
      2.607  0.1129E-01  0.5944E-02  0.5540E-01  0.5943E-02  0.6552E-01  0.6319E+00  0.1069E-01  0.6317E+00  0.7988E+00
      2.727  0.2900E-02  0.2307E-02  0.9637E-02  0.2257E-02  0.4504E-02  0.3808E+00  0.6510E-03  0.3516E+00  0.3486E+00
      2.846  0.3201E-01  0.4190E-02  0.6429E-01  0.3625E-02  0.2846E-02  0.6459E+00  0.1870E-01  0.3134E+00  0.1970E+00
      2.966  0.9707E-01  0.2699E-02  0.1340E+00  0.2072E-02  0.1581E-01  0.6506E+00  0.1087E+00  0.2815E+00  0.1106E+00
      3.086  0.6949E-01  0.4522E-03  0.6617E-01  0.3831E-03  0.9214E-02  0.1395E+00  0.1484E+00  0.9894E-01  0.2175E-01
      3.206  0.1418E-01  0.5703E-02  0.1564E-01  0.5659E-02  0.2132E-01  0.1420E-01  0.1281E+00  0.1975E-01  0.3252E+00
      3.326  0.2762E-02  0.4048E-01  0.5361E-01  0.3954E-01  0.1718E+00  0.6859E-01  0.3320E+00  0.1989E+00  0.1009E+01
      3.445  0.1613E-02  0.3301E-01  0.5934E-01  0.3108E-01  0.1545E+00  0.5554E-01  0.2593E+00  0.3228E+00  0.9167E+00
      3.565  0.4935E-03  0.4921E-02  0.8432E-02  0.4547E-02  0.1638E-01  0.3479E-01  0.3905E-01  0.9058E-01  0.3981E+00
      3.685  0.1009E-01  0.5516E-02  0.3800E-02  0.5853E-02  0.4739E-02  0.7411E-01  0.9782E-01  0.7591E-01  0.8540E+00
      3.805  0.4221E-01  0.8984E-02  0.2662E-01  0.9005E-02  0.3567E-01  0.1319E+00  0.4730E+00  0.2616E+00  0.1337E+01
      3.924  0.4073E-01  0.1292E-01  0.2948E-01  0.1911E-01  0.9307E-01  0.5027E+00  0.4347E+00  0.1084E+01  0.7745E+00
      4.044  0.9253E-02  0.8433E-02  0.6158E-02  0.1181E-01  0.3518E-01  0.4942E+00  0.8971E-01  0.7419E+00  0.6729E+00
      4.164  0.2534E-03  0.1515E-02  0.6383E-02  0.1651E-02  0.1117E-01  0.1584E+00  0.2444E-01  0.1680E+00  0.3310E+00
      4.284  0.1161E-04  0.4332E-03  0.4169E-01  0.4146E-03  0.5630E-01  0.3440E+00  0.1256E+00  0.3439E+00  0.1742E+00
      4.404  0.8365E-03  0.1522E-02  0.3108E-01  0.4880E-03  0.4543E-01  0.1932E+00  0.1051E+00  0.1866E+00  0.2190E+00
      4.523  0.5376E-02  0.6900E-02  0.1608E-01  0.2058E-02  0.9126E-01  0.9015E-01  0.2219E+00  0.5888E-01  0.9126E+00
      4.643  0.3538E-02  0.4023E-02  0.6831E-02  0.1713E-02  0.6101E-01  0.8383E-01  0.1454E+00  0.6892E-01  0.8076E+00
      4.763  0.1396E-02  0.2420E-02  0.2137E-02  0.2320E-02  0.4517E-02  0.1087E-01  0.9349E-02  0.1062E-01  0.3290E+00
      4.883  0.1514E-01  0.2481E-01  0.2370E-01  0.2514E-01  0.1303E-01  0.1309E-01  0.3289E-02  0.6728E-01  0.3921E+00
      5.003  0.2036E-01  0.3012E-01  0.3174E-01  0.3367E-01  0.8071E-01  0.9731E-01  0.3580E-01  0.6729E+00  0.3374E+00
      5.122  0.4191E-02  0.4425E-02  0.6444E-02  0.8129E-02  0.1111E+00  0.3179E+00  0.7388E-01  0.9181E+00  0.4730E+00
      5.242  0.2185E-03  0.6709E-03  0.4737E-03  0.1070E-02  0.9595E-01  0.5749E+00  0.9844E-01  0.6435E+00  0.7188E+00
      5.362  0.1628E-05  0.1041E-02  0.7988E-03  0.1969E-02  0.2401E-01  0.5601E+00  0.2418E-01  0.8754E+00  0.7526E+00
      5.482  0.9003E-09  0.1646E-02  0.2823E-02  0.5674E-02  0.6850E-02  0.4705E+00  0.5376E-03  0.1735E+01  0.3746E+00
      5.601  0.5046E-11  0.5984E-03  0.1068E-02  0.2388E-02  0.2822E-02  0.2899E+00  0.8535E-06  0.8121E+00  0.3611E-01
      5.721  0.8946E-07  0.2552E-04  0.3670E-04  0.9877E-04  0.1160E-03  0.6189E-01  0.3680E-06  0.8177E-01  0.3423E-03
      5.841  0.1019E-03  0.3398E-04  0.5272E-05  0.3414E-04  0.5596E-03  0.1722E-02  0.4179E-03  0.1777E-02  0.9609E-06
      5.961  0.8229E-02  0.2700E-02  0.5236E-03  0.2655E-02  0.4388E-01  0.1424E-02  0.3302E-01  0.1514E-03  0.5600E-03
      6.081  0.6686E-01  0.1999E-01  0.1015E-01  0.1753E-01  0.2864E+00  0.7102E-01  0.2292E+00  0.2162E-02  0.3030E-01
      6.200  0.1242E+00  0.3032E-01  0.5509E-01  0.1891E-01  0.1956E+00  0.3629E+00  0.2516E+00  0.4283E-01  0.1409E+00
      6.320  0.1079E+00  0.2949E-01  0.8046E-01  0.2409E-01  0.3521E-01  0.2827E+00  0.1804E+00  0.1311E+00  0.6673E-01
      6.440  0.2669E-01  0.7807E-02  0.2309E-01  0.7570E-02  0.7547E-02  0.5079E-01  0.4752E-01  0.4413E-01  0.2929E-02
      6.560  0.4281E-01  0.3651E-02  0.4574E-01  0.3651E-02  0.1369E-02  0.6374E-01  0.3912E-01  0.6372E-01  0.9605E-05
      6.680  0.1047E+00  0.7994E-02  0.1266E+00  0.7994E-02  0.2691E-02  0.1453E+00  0.9181E-01  0.1453E+00  0.2056E-08
      6.799  0.4906E-01  0.1897E-02  0.1072E+00  0.1897E-02  0.6385E-03  0.3449E-01  0.3548E-01  0.3449E-01  0.4263E-13
      6.919  0.1000E-01  0.3904E-04  0.3088E-01  0.3904E-04  0.1314E-04  0.7098E-03  0.5816E-02  0.7098E-03  0.3457E-15
      7.039  0.3175E-03  0.5704E-07  0.1011E-02  0.5704E-07  0.1920E-07  0.1037E-05  0.1798E-03  0.1037E-05  0.1322E-17
      7.159  0.7714E-06  0.5313E-11  0.2459E-05  0.5313E-11  0.1788E-11  0.9660E-10  0.4363E-06  0.9660E-10  0.2123E-20
      7.279  0.1215E-09  0.2999E-16  0.3873E-09  0.2999E-16  0.1009E-16  0.5452E-15  0.6869E-10  0.5452E-15  0.3277E-24
      7.398  0.1169E-14  0.7075E-27  0.3728E-14  0.1245E-27  0.7395E-29  0.7793E-28  0.6612E-15  0.2210E-27  0.3152E-29
      7.518  0.0000E+00  0.0000E+00  0.0000E+00  0.0000E+00  0.0000E+00  0.0000E+00  0.0000E+00  0.0000E+00  0.0000E+00
      7.638  0.0000E+00  0.0000E+00  0.0000E+00  0.0000E+00  0.0000E+00  0.0000E+00  0.0000E+00  0.0000E+00  0.0000E+00
      7.758  0.0000E+00  0.0000E+00  0.0000E+00  0.0000E+00  0.0000E+00  0.0000E+00  0.0000E+00  0.0000E+00  0.0000E+00
      7.877  0.2138E-12  0.4863E-12  0.4418E-12  0.4863E-12  0.8616E-12  0.2286E-13  0.6760E-12  0.2286E-13  0.8863E-26
      7.997  0.7377E-08  0.1677E-07  0.1524E-07  0.1678E-07  0.2973E-07  0.7887E-09  0.2332E-07  0.7887E-09  0.3066E-21
      8.117  0.1590E-04  0.3599E-04  0.3269E-04  0.3599E-04  0.6385E-04  0.1691E-05  0.5005E-04  0.1691E-05  0.6749E-18
      8.237  0.2394E-02  0.5206E-02  0.4709E-02  0.5206E-02  0.9334E-02  0.2437E-03  0.7257E-02  0.2437E-03  0.1206E-15
      8.357  0.3663E-01  0.6119E-01  0.5359E-01  0.6119E-01  0.1185E+00  0.2773E-02  0.8681E-01  0.2773E-02  0.3497E-14
      8.476  0.1101E+00  0.8234E-01  0.5960E-01  0.8234E-01  0.2228E+00  0.3084E-02  0.1277E+00  0.3084E-02  0.2055E-13
      8.596  0.6492E-01  0.1996E-01  0.6569E-02  0.1996E-01  0.9382E-01  0.3399E-03  0.3782E-01  0.3399E-03  0.1113E-09
      8.716  0.4563E-02  0.9987E-03  0.6257E-04  0.9981E-03  0.6054E-02  0.1218E-04  0.2128E-02  0.3720E-05  0.7819E-06
      8.836  0.3274E-02  0.5389E-03  0.1908E-02  0.2560E-03  0.4794E-04  0.4151E-02  0.1388E-02  0.3174E-03  0.3543E-03
      8.956  0.1071E+00  0.1759E-01  0.6290E-01  0.8262E-02  0.4613E-03  0.1369E+00  0.4537E-01  0.1047E-01  0.1168E-01
      9.075  0.3169E+00  0.5207E-01  0.1862E+00  0.2445E-01  0.1365E-02  0.4051E+00  0.1343E+00  0.3098E-01  0.3458E-01
      9.195  0.9605E-01  0.1578E-01  0.5642E-01  0.7411E-02  0.4138E-03  0.1228E+00  0.4070E-01  0.9387E-02  0.1048E-01
      9.315  0.2683E-02  0.4287E-03  0.1663E-02  0.1995E-03  0.1114E-04  0.3449E-02  0.1134E-02  0.2527E-03  0.2833E-03
      9.435  0.1112E-01  0.4557E-03  0.1657E-01  0.3876E-06  0.2164E-07  0.1657E-01  0.4435E-02  0.4910E-06  0.1382E-03
      9.554  0.1025E+00  0.4192E-02  0.1527E+00  0.4907E-10  0.2707E-11  0.1527E+00  0.4086E-01  0.6130E-10  0.1269E-02
      9.674  0.9351E-01  0.3825E-02  0.1394E+00  0.6159E-12  0.4693E-14  0.1393E+00  0.3729E-01  0.6147E-11  0.1158E-02
      9.794  0.8347E-02  0.3415E-03  0.1244E-01  0.5494E-13  0.4171E-15  0.1244E-01  0.3329E-02  0.9709E-07  0.1034E-03
      9.914  0.5895E-04  0.2411E-05  0.4962E-03  0.4549E-15  0.3304E-17  0.1847E-03  0.2351E-04  0.9688E-04  0.7299E-06
     10.034  0.2798E-07  0.1145E-08  0.2835E-01  0.4642E-14  0.2492E-16  0.6725E-02  0.1116E-07  0.6725E-02  0.3465E-09
     10.153  0.8262E-12  0.6644E-13  0.1654E+00  0.2708E-13  0.1454E-15  0.3923E-01  0.3296E-12  0.3923E-01  0.1143E-13
     10.273  0.9708E-17  0.1927E-13  0.9761E-01  0.1598E-13  0.8581E-16  0.2316E-01  0.8921E-16  0.2316E-01  0.7082E-15
     10.393  0.5416E-18  0.1075E-14  0.5446E-02  0.8919E-15  0.4788E-17  0.1292E-02  0.4977E-17  0.1292E-02  0.3952E-16
     10.513  0.2821E-15  0.1391E-16  0.2312E-04  0.1314E-16  0.3077E-17  0.5484E-05  0.8097E-16  0.5484E-05  0.1677E-18
     10.633  0.5919E-10  0.1962E-11  0.6507E-08  0.1962E-11  0.6414E-12  0.1563E-08  0.1698E-10  0.1563E-08  0.4982E-22
     10.752  0.7709E-06  0.2555E-07  0.5602E-06  0.2555E-07  0.8353E-08  0.3818E-06  0.2212E-06  0.3818E-06  0.3807E-19
     10.872  0.6370E-03  0.2111E-04  0.4629E-03  0.2111E-04  0.6902E-05  0.3155E-03  0.1828E-03  0.3155E-03  0.3146E-16
     10.992  0.3698E-01  0.1226E-02  0.2688E-01  0.1226E-02  0.4007E-03  0.1831E-01  0.1061E-01  0.1831E-01  0.1826E-14
     11.112  0.1833E+00  0.6074E-02  0.1332E+00  0.6074E-02  0.1987E-02  0.9076E-01  0.5258E-01  0.9076E-01  0.9052E-14
     11.232  0.9496E-01  0.3111E-02  0.6741E-01  0.3111E-02  0.1425E-02  0.4650E-01  0.2659E-01  0.4650E-01  0.5006E-13
     11.351  0.1003E+00  0.1954E-02  0.1256E-01  0.1954E-02  0.1594E-01  0.2988E-01  0.4332E-02  0.2988E-01  0.2163E-08
     11.471  0.3211E+00  0.6611E-02  0.3176E-01  0.6623E-02  0.5367E-01  0.9234E-01  0.1044E-01  0.9234E-01  0.6361E-05
     11.591  0.1731E+00  0.2550E-01  0.2753E-01  0.2792E-01  0.4922E-01  0.3151E-01  0.9776E-02  0.3151E-01  0.1241E-02
     11.711  0.3879E+00  0.8842E-01  0.5880E-01  0.1248E+00  0.1480E+00  0.1048E-02  0.2191E-01  0.1048E-02  0.1868E-01
     11.830  0.3655E+00  0.4127E-01  0.2077E-01  0.9377E-01  0.1079E+00  0.3176E-04  0.7810E-02  0.3176E-04  0.2694E-01
     11.950  0.4600E-01  0.2803E-02  0.6652E-03  0.1041E-01  0.1178E-01  0.9487E-06  0.2600E-03  0.9487E-06  0.3905E-02
     12.070  0.5322E-03  0.2489E-04  0.1556E-05  0.1161E-03  0.1306E-03  0.2219E-08  0.7298E-06  0.2220E-08  0.4680E-04
     12.190  0.5049E-06  0.2686E-07  0.7959E-08  0.1022E-06  0.1260E-06  0.1988E-07  0.2121E-09  0.1988E-07  0.3865E-07
     12.310  0.9736E-04  0.1098E-04  0.1098E-04  0.1098E-04  0.2825E-04  0.2825E-04  0.7281E-14  0.2825E-04  0.2008E-11
     12.429  0.9462E-02  0.1067E-02  0.1067E-02  0.1067E-02  0.2745E-02  0.2745E-02  0.3254E-16  0.2745E-02  0.9680E-16
     12.549  0.7506E-01  0.8462E-02  0.8462E-02  0.8462E-02  0.2178E-01  0.2178E-01  0.2579E-15  0.2178E-01  0.7230E-15
     12.669  0.5944E-01  0.6701E-02  0.6701E-02  0.6701E-02  0.1724E-01  0.1724E-01  0.2043E-15  0.1724E-01  0.5726E-15
     12.789  0.4557E-02  0.5137E-03  0.5137E-03  0.5137E-03  0.1322E-02  0.1322E-02  0.1566E-16  0.1322E-02  0.4389E-16
     12.909  0.2727E-04  0.3075E-05  0.3075E-05  0.3075E-05  0.7913E-05  0.7913E-05  0.6684E-15  0.7913E-05  0.1683E-14
     13.028  0.1216E-07  0.1579E-08  0.1494E-08  0.1868E-08  0.3639E-08  0.3191E-08  0.8017E-10  0.3379E-08  0.1934E-09
     13.148  0.9102E-05  0.2466E-05  0.1862E-05  0.4497E-05  0.3355E-05  0.2040E-06  0.6148E-06  0.1522E-05  0.1357E-05
     13.268  0.4393E-02  0.1127E-02  0.8422E-03  0.2046E-02  0.1524E-02  0.9230E-04  0.3295E-03  0.6885E-03  0.6137E-03