    1    1    1    1
  0.1510406E+02  0.2774616E-09  0.2774616E-09  0.2774616E-09  0.5000000E-15
   1.0000000000000000E-004
  CAR 
 Au, FCC                                 
   11   20    9

  0.3742002E-15  0.3742002E-15  0.3742002E-15  0.2915452E-02
   1       -3.7855
   2        1.9660
   3        1.9660
   4        1.9660
   5        3.8423
   6        3.8423
   7       22.7544
   8       27.3529
   9       27.3529

  0.1428571E+00  0.3885781E-15  0.3885781E-15  0.2332362E-01
   1       -3.0200
   2        1.7337
   3        2.2110
   4        2.2110
   5        3.7606
   6        3.7606
   7       23.3268
   8       24.0382
   9       28.2639

  0.2857143E+00  0.3608225E-15  0.3608225E-15  0.2332362E-01
   1       -1.4903
   2        2.0736
   3        2.2477
   4        2.2477
   5        4.2545
   6        4.2545
   7       18.1253
   8       23.6480
   9       28.8839

  0.4285714E+00  0.3885781E-15  0.3885781E-15  0.2332362E-01
   1       -1.1196
   2        1.9589
   3        1.9589
   4        4.8941
   5        5.1705
   6        5.1705
   7       12.5368
   8       22.2537
   9       26.5402

  0.1428571E+00  0.1428571E+00  0.3742002E-15  0.1749271E-01
   1       -2.7567
   2        1.4066
   3        2.4803
   4        2.4803
   5        3.2506
   6        4.0929
   7       24.0589
   8       25.2537
   9       26.4262

  0.2857143E+00  0.1428571E+00  0.3747003E-15  0.6997085E-01
   1       -1.3385
   2        1.0759
   3        2.3014
   4        2.8076
   5        3.8657
   6        4.5412
   7       20.4917
   8       24.6056
   9       25.2432

  0.4285714E+00  0.1428571E+00  0.3608225E-15  0.6997085E-01
   1       -0.5891
   2        1.6653
   3        2.2843
   4        2.5645
   5        5.2940
   6        6.2600
   7       14.4311
   8       22.9770
   9       24.3562

 -0.4285714E+00  0.1428571E+00  0.3330669E-15  0.6997085E-01
   1       -0.5512
   2        1.5459
   3        2.3753
   4        3.3117
   5        5.1192
   6        8.3622
   7       11.4145
   8       21.9682
   9       24.0495

 -0.2857143E+00  0.1428571E+00  0.3885781E-15  0.6997085E-01
   1       -0.5680
   2        1.7338
   3        2.0962
   4        2.5563
   5        3.9655
   6        6.0584
   7       16.5126
   8       22.1442
   9       24.8586

 -0.1428571E+00  0.1428571E+00  0.3608225E-15  0.3498542E-01
   1       -1.8760
   2        1.3567
   3        2.3660
   4        2.6496
   5        3.2366
   6        4.5031
   7       21.6636
   8       23.4175
   9       26.9518

  0.2857143E+00  0.2857143E+00  0.3742002E-15  0.1749271E-01
   1       -0.7563
   2        0.3158
   3        3.0383
   4        3.8819
   5        3.8819
   6        4.6878
   7       22.3214
   8       22.3214
   9       23.4902

  0.4285714E+00  0.2857143E+00  0.3885781E-15  0.6997085E-01
   1       -0.3397
   2        0.2192
   3        2.9364
   4        3.9724
   5        5.3728
   6        6.6042
   7       16.7745
   8       20.4970
   9       20.9506

 -0.4285714E+00  0.2857143E+00  0.3330669E-15  0.6997085E-01
   1       -0.0421
   2        0.8954
   3        2.4821
   4        3.6078
   5        5.2249
   6       11.0756
   7       11.6562
   8       17.8739
   9       22.1118

 -0.2857143E+00  0.2857143E+00  0.3330669E-15  0.3498542E-01
   1        0.4788
   2        1.4928
   3        1.5635
   4        3.2516
   5        4.2384
   6        8.4619
   7       15.8395
   8       16.8723
   9       25.1099

  0.4285714E+00  0.4285714E+00  0.3742002E-15  0.1749271E-01
   1       -0.8202
   2       -0.4411
   3        5.2020
   4        5.4448
   5        5.4448
   6        6.7467
   7       16.0987
   8       18.6323
   9       18.6323

 -0.4285714E+00  0.4285714E+00  0.3330669E-15  0.3498542E-01
   1       -0.6130
   2       -0.1853
   3        4.2630
   4        4.8356
   5        5.5434
   6       10.1256
   7       13.4796
   8       16.7051
   9       19.1281

  0.4285714E+00  0.2857143E+00  0.1428571E+00  0.6997085E-01
   1       -0.0337
   2        0.7258
   3        1.7610
   4        3.7791
   5        3.8788
   6        6.1610
   7       18.4240
   8       20.3868
   9       23.6456

 -0.4285714E+00  0.2857143E+00  0.1428571E+00  0.1399417E+00
   1        0.3123
   2        1.0452
   3        1.8474
   4        3.3634
   5        5.0048
   6        9.0126
   7       13.4447
   8       19.4602
   9       21.5318

 -0.4285714E+00  0.4285714E+00  0.1428571E+00  0.6997085E-01
   1       -0.1224
   2        0.1720
   3        2.8519
   4        4.4843
   5        5.4389
   6        9.5496
   7       14.9355
   8       17.2212
   9       18.6674

 -0.2857143E+00  0.4285714E+00  0.1428571E+00  0.6997085E-01
   1        0.3376
   2        0.9253
   3        1.9265
   4        3.7321
   5        5.4305
   6       11.7300
   7       13.7887
   8       15.2327
   9       19.2968
