       N       E                     dE             d eps       ncg     rms          rms(c)
DAV:   1     0.381832862606E+02    0.38183E+02   -0.50044E+03   440   0.844E+02

DAV:   2    -0.271714590122E+01   -0.40900E+02   -0.37788E+02   364   0.200E+02

DAV:   3    -0.315767866511E+01   -0.44053E+00   -0.44045E+00   437   0.251E+01

DAV:   4    -0.315886307177E+01   -0.11844E-02   -0.11844E-02   409   0.117E+00

DAV:   5    -0.315887330627E+01   -0.10234E-04   -0.10234E-04   392   0.109E-01    0.293E+00
RMM:   6    -0.294552651159E+01    0.21335E+00   -0.30994E-01   361   0.781E+00    0.914E-01
RMM:   7    -0.291746134740E+01    0.28065E-01   -0.37142E-02   374   0.230E+00    0.244E-01
RMM:   8    -0.291278258206E+01    0.46788E-02   -0.19445E-03   369   0.795E-01    0.268E-02
RMM:   9    -0.291276599781E+01    0.16584E-04   -0.52770E-05   218   0.874E-02

   1 F= -.29127660E+01 E0= -.29120169E+01  d E =-.149820E-02

