PROCAR lm decomposed
# of k-points:   20         # of bands:   9         # of ions:   1

 k-point    1 :    0.00000000 0.00000000 0.00000000     weight = 0.00291545

band   1 # energy   -3.78554151 # occ.  2.00000000

ion      s     py     pz     px    dxy    dyz    dz2    dxz    dx2    tot
  1  0.688  0.000  0.000  0.000  0.000  0.000  0.000  0.000  0.000  0.688

band   2 # energy    1.96602212 # occ.  2.00000000

ion      s     py     pz     px    dxy    dyz    dz2    dxz    dx2    tot
  1  0.000  0.000  0.000  0.000  0.474  0.000  0.000  0.472  0.000  0.945

band   3 # energy    1.96602247 # occ.  2.00000000

ion      s     py     pz     px    dxy    dyz    dz2    dxz    dx2    tot
  1  0.000  0.000  0.000  0.000  0.166  0.611  0.000  0.168  0.000  0.945

band   4 # energy    1.96602329 # occ.  2.00000000

ion      s     py     pz     px    dxy    dyz    dz2    dxz    dx2    tot
  1  0.000  0.000  0.000  0.000  0.305  0.334  0.000  0.306  0.000  0.945

band   5 # energy    3.84232954 # occ.  2.00000000

ion      s     py     pz     px    dxy    dyz    dz2    dxz    dx2    tot
  1  0.000  0.000  0.000  0.000  0.000  0.000  0.238  0.000  0.733  0.972

band   6 # energy    3.84232972 # occ.  2.00000000

ion      s     py     pz     px    dxy    dyz    dz2    dxz    dx2    tot
  1  0.000  0.000  0.000  0.000  0.000  0.000  0.733  0.000  0.238  0.972

band   7 # energy   22.75442424 # occ.  0.00000000

ion      s     py     pz     px    dxy    dyz    dz2    dxz    dx2    tot
  1  0.000  0.000  0.000  0.000  0.000  0.000  0.000  0.000  0.000  0.000

band   8 # energy   27.35286043 # occ.  0.00000000

ion      s     py     pz     px    dxy    dyz    dz2    dxz    dx2    tot
  1  0.000  0.000  0.078  0.093  0.000  0.000  0.000  0.000  0.000  0.171

band   9 # energy   27.35286104 # occ.  0.00000000

ion      s     py     pz     px    dxy    dyz    dz2    dxz    dx2    tot
  1  0.000  0.014  0.085  0.071  0.000  0.000  0.000  0.000  0.000  0.171


 k-point    2 :    0.14285714 0.00000000 0.00000000     weight = 0.02332362

band   1 # energy   -3.01995701 # occ.  2.00000000

ion      s     py     pz     px    dxy    dyz    dz2    dxz    dx2    tot
  1  0.646  0.011  0.011  0.011  0.003  0.003  0.000  0.003  0.000  0.690

band   2 # energy    1.73365395 # occ.  2.00000000

ion      s     py     pz     px    dxy    dyz    dz2    dxz    dx2    tot
  1  0.003  0.004  0.004  0.004  0.303  0.303  0.000  0.303  0.000  0.926

band   3 # energy    2.21097043 # occ.  2.00000000

ion      s     py     pz     px    dxy    dyz    dz2    dxz    dx2    tot
  1  0.000  0.001  0.001  0.000  0.463  0.000  0.027  0.445  0.008  0.945

band   4 # energy    2.21097272 # occ.  2.00000000

ion      s     py     pz     px    dxy    dyz    dz2    dxz    dx2    tot
  1  0.000  0.000  0.000  0.001  0.142  0.605  0.008  0.161  0.027  0.945

band   5 # energy    3.76058685 # occ.  2.00000000

ion      s     py     pz     px    dxy    dyz    dz2    dxz    dx2    tot
  1  0.000  0.000  0.000  0.000  0.006  0.024  0.242  0.006  0.686  0.964

band   6 # energy    3.76058790 # occ.  2.00000000

ion      s     py     pz     px    dxy    dyz    dz2    dxz    dx2    tot
  1  0.000  0.000  0.000  0.000  0.018  0.000  0.686  0.018  0.242  0.964

band   7 # energy   23.32678342 # occ.  0.00000000

ion      s     py     pz     px    dxy    dyz    dz2    dxz    dx2    tot
  1  0.023  0.035  0.035  0.035  0.058  0.058  0.000  0.058  0.000  0.305

band   8 # energy   24.03815216 # occ.  0.00000000

ion      s     py     pz     px    dxy    dyz    dz2    dxz    dx2    tot
  1  0.029  0.026  0.026  0.026  0.000  0.000  0.000  0.000  0.000  0.107

band   9 # energy   28.26385697 # occ.  0.00000000

ion      s     py     pz     px    dxy    dyz    dz2    dxz    dx2    tot
  1  0.000  0.059  0.129  0.014  0.033  0.004  0.044  0.015  0.002  0.299


 k-point    3 :    0.28571429 0.00000000 0.00000000     weight = 0.02332362

band   1 # energy   -1.49031095 # occ.  2.00000000

ion      s     py     pz     px    dxy    dyz    dz2    dxz    dx2    tot
  1  0.447  0.018  0.018  0.018  0.082  0.082  0.000  0.082  0.000  0.747

band   2 # energy    2.07362813 # occ.  2.00000000

ion      s     py     pz     px    dxy    dyz    dz2    dxz    dx2    tot
  1  0.089  0.044  0.044  0.044  0.203  0.203  0.000  0.203  0.000  0.829

band   3 # energy    2.24768488 # occ.  2.00000000

ion      s     py     pz     px    dxy    dyz    dz2    dxz    dx2    tot
  1  0.000  0.001  0.001  0.000  0.274  0.000  0.275  0.288  0.102  0.940

band   4 # energy    2.24768821 # occ.  2.00000000

ion      s     py     pz     px    dxy    dyz    dz2    dxz    dx2    tot
  1  0.000  0.000  0.000  0.001  0.101  0.374  0.102  0.086  0.275  0.940

band   5 # energy    4.25449097 # occ.  2.00000000

ion      s     py     pz     px    dxy    dyz    dz2    dxz    dx2    tot
  1  0.000  0.001  0.000  0.002  0.055  0.257  0.122  0.075  0.452  0.962

band   6 # energy    4.25449248 # occ.  2.00000000

ion      s     py     pz     px    dxy    dyz    dz2    dxz    dx2    tot
  1  0.000  0.001  0.001  0.000  0.203  0.001  0.452  0.183  0.122  0.962

band   7 # energy   18.12529618 # occ.  0.00000000

ion      s     py     pz     px    dxy    dyz    dz2    dxz    dx2    tot
  1  0.166  0.090  0.090  0.090  0.077  0.077  0.000  0.077  0.000  0.667

band   8 # energy   23.64798227 # occ.  0.00000000

ion      s     py     pz     px    dxy    dyz    dz2    dxz    dx2    tot
  1  0.000  0.009  0.009  0.009  0.031  0.031  0.000  0.031  0.000  0.121

band   9 # energy   28.88391977 # occ.  0.00000000

ion      s     py     pz     px    dxy    dyz    dz2    dxz    dx2    tot
  1  0.000  0.229  0.005  0.207  0.002  0.099  0.000  0.110  0.010  0.662


 k-point    4 :    0.42857143 0.00000000 0.00000000     weight = 0.02332362

band   1 # energy   -1.11957453 # occ.  2.00000000

ion      s     py     pz     px    dxy    dyz    dz2    dxz    dx2    tot
  1  0.228  0.002  0.002  0.002  0.200  0.200  0.000  0.200  0.000  0.832

band   2 # energy    1.95888053 # occ.  2.00000000

ion      s     py     pz     px    dxy    dyz    dz2    dxz    dx2    tot
  1  0.000  0.000  0.000  0.000  0.197  0.000  0.404  0.197  0.135  0.934

band   3 # energy    1.95888344 # occ.  2.00000000

ion      s     py     pz     px    dxy    dyz    dz2    dxz    dx2    tot
  1  0.000  0.000  0.000  0.000  0.066  0.263  0.135  0.066  0.404  0.934

band   4 # energy    4.89409878 # occ.  2.00000000

ion      s     py     pz     px    dxy    dyz    dz2    dxz    dx2    tot
  1  0.095  0.149  0.149  0.149  0.040  0.040  0.000  0.040  0.000  0.661

band   5 # energy    5.17045918 # occ.  2.00000000

ion      s     py     pz     px    dxy    dyz    dz2    dxz    dx2    tot
  1  0.000  0.000  0.000  0.001  0.117  0.378  0.126  0.074  0.282  0.978

band   6 # energy    5.17045977 # occ.  2.00000000

ion      s     py     pz     px    dxy    dyz    dz2    dxz    dx2    tot
  1  0.000  0.000  0.000  0.000  0.263  0.002  0.282  0.306  0.126  0.978

band   7 # energy   12.53684702 # occ.  0.00000000

ion      s     py     pz     px    dxy    dyz    dz2    dxz    dx2    tot
  1  0.382  0.043  0.043  0.043  0.111  0.111  0.000  0.111  0.000  0.843

band   8 # energy   22.25374637 # occ.  0.00000000

ion      s     py     pz     px    dxy    dyz    dz2    dxz    dx2    tot
  1  0.000  0.008  0.008  0.008  0.003  0.003  0.000  0.003  0.000  0.034

band   9 # energy   26.54022495 # occ.  0.00000000

ion      s     py     pz     px    dxy    dyz    dz2    dxz    dx2    tot
  1  0.000  0.202  0.257  0.003  0.014  0.000  0.001  0.011  0.000  0.488


 k-point    5 :    0.14285714 0.14285714 0.00000000     weight = 0.01749271

band   1 # energy   -2.75670671 # occ.  2.00000000

ion      s     py     pz     px    dxy    dyz    dz2    dxz    dx2    tot
  1  0.632  0.000  0.048  0.000  0.000  0.000  0.009  0.000  0.000  0.689

band   2 # energy    1.40664488 # occ.  2.00000000

ion      s     py     pz     px    dxy    dyz    dz2    dxz    dx2    tot
  1  0.000  0.000  0.000  0.000  0.927  0.000  0.000  0.000  0.000  0.927

band   3 # energy    2.48027053 # occ.  2.00000000

ion      s     py     pz     px    dxy    dyz    dz2    dxz    dx2    tot
  1  0.000  0.001  0.000  0.007  0.000  0.095  0.000  0.841  0.000  0.944

band   4 # energy    2.48027088 # occ.  2.00000000

ion      s     py     pz     px    dxy    dyz    dz2    dxz    dx2    tot
  1  0.000  0.007  0.000  0.001  0.000  0.841  0.000  0.095  0.000  0.944

band   5 # energy    3.25060396 # occ.  2.00000000

ion      s     py     pz     px    dxy    dyz    dz2    dxz    dx2    tot
  1  0.006  0.000  0.002  0.000  0.000  0.000  0.938  0.000  0.000  0.947

band   6 # energy    4.09294795 # occ.  2.00000000

ion      s     py     pz     px    dxy    dyz    dz2    dxz    dx2    tot
  1  0.000  0.000  0.000  0.000  0.000  0.000  0.000  0.000  0.972  0.972

band   7 # energy   24.05885423 # occ.  0.00000000

ion      s     py     pz     px    dxy    dyz    dz2    dxz    dx2    tot
  1  0.000  0.000  0.000  0.000  0.138  0.000  0.000  0.000  0.000  0.138

band   8 # energy   25.25370335 # occ.  0.00000000

ion      s     py     pz     px    dxy    dyz    dz2    dxz    dx2    tot
  1  0.049  0.000  0.057  0.000  0.000  0.000  0.095  0.000  0.000  0.200

band   9 # energy   26.42619649 # occ.  0.00000000

ion      s     py     pz     px    dxy    dyz    dz2    dxz    dx2    tot
  1  0.000  0.162  0.000  0.145  0.000  0.082  0.000  0.074  0.000  0.463


 k-point    6 :    0.28571429 0.14285714 0.00000000     weight = 0.06997085

band   1 # energy   -1.33845076 # occ.  2.00000000

ion      s     py     pz     px    dxy    dyz    dz2    dxz    dx2    tot
  1  0.498  0.006  0.081  0.006  0.021  0.027  0.045  0.027  0.000  0.711

band   2 # energy    1.07593144 # occ.  2.00000000

ion      s     py     pz     px    dxy    dyz    dz2    dxz    dx2    tot
  1  0.013  0.010  0.006  0.010  0.803  0.024  0.007  0.024  0.000  0.898

band   3 # energy    2.30143775 # occ.  2.00000000

ion      s     py     pz     px    dxy    dyz    dz2    dxz    dx2    tot
  1  0.005  0.002  0.001  0.002  0.046  0.162  0.546  0.162  0.000  0.926

band   4 # energy    2.80763334 # occ.  2.00000000

ion      s     py     pz     px    dxy    dyz    dz2    dxz    dx2    tot
  1  0.000  0.005  0.000  0.005  0.000  0.356  0.000  0.356  0.221  0.944

band   5 # energy    3.86569065 # occ.  2.00000000

ion      s     py     pz     px    dxy    dyz    dz2    dxz    dx2    tot
  1  0.037  0.006  0.023  0.006  0.039  0.246  0.329  0.246  0.000  0.931

band   6 # energy    4.54116577 # occ.  2.00000000

ion      s     py     pz     px    dxy    dyz    dz2    dxz    dx2    tot
  1  0.000  0.001  0.000  0.001  0.000  0.112  0.000  0.112  0.745  0.972

band   7 # energy   20.49173622 # occ.  0.00000000

ion      s     py     pz     px    dxy    dyz    dz2    dxz    dx2    tot
  1  0.113  0.112  0.065  0.112  0.051  0.070  0.016  0.070  0.000  0.608

band   8 # energy   24.60564436 # occ.  0.00000000

ion      s     py     pz     px    dxy    dyz    dz2    dxz    dx2    tot
  1  0.000  0.012  0.005  0.012  0.148  0.009  0.074  0.009  0.000  0.270

band   9 # energy   25.24316642 # occ.  0.00000000

ion      s     py     pz     px    dxy    dyz    dz2    dxz    dx2    tot
  1  0.000  0.211  0.000  0.212  0.000  0.102  0.000  0.102  0.017  0.644


 k-point    7 :    0.42857143 0.14285714 0.00000000     weight = 0.06997085

band   1 # energy   -0.58908342 # occ.  2.00000000

ion      s     py     pz     px    dxy    dyz    dz2    dxz    dx2    tot
  1  0.217  0.000  0.035  0.000  0.273  0.133  0.031  0.133  0.000  0.823

band   2 # energy    1.66527960 # occ.  2.00000000

ion      s     py     pz     px    dxy    dyz    dz2    dxz    dx2    tot
  1  0.000  0.011  0.000  0.011  0.013  0.094  0.671  0.094  0.000  0.894

band   3 # energy    2.28434380 # occ.  2.00000000

ion      s     py     pz     px    dxy    dyz    dz2    dxz    dx2    tot
  1  0.076  0.037  0.057  0.037  0.553  0.031  0.017  0.031  0.000  0.839

band   4 # energy    2.56446760 # occ.  2.00000000

ion      s     py     pz     px    dxy    dyz    dz2    dxz    dx2    tot
  1  0.000  0.003  0.000  0.003  0.000  0.214  0.000  0.214  0.501  0.937

band   5 # energy    5.29396924 # occ.  2.00000000

ion      s     py     pz     px    dxy    dyz    dz2    dxz    dx2    tot
  1  0.000  0.000  0.000  0.000  0.000  0.264  0.000  0.264  0.453  0.982

band   6 # energy    6.25997667 # occ.  2.00000000

ion      s     py     pz     px    dxy    dyz    dz2    dxz    dx2    tot
  1  0.106  0.033  0.092  0.033  0.033  0.186  0.199  0.186  0.000  0.869

band   7 # energy   14.43111358 # occ.  0.00000000

ion      s     py     pz     px    dxy    dyz    dz2    dxz    dx2    tot
  1  0.278  0.096  0.059  0.096  0.097  0.066  0.007  0.066  0.000  0.764

band   8 # energy   22.97701633 # occ.  0.00000000

ion      s     py     pz     px    dxy    dyz    dz2    dxz    dx2    tot
  1  0.006  0.000  0.072  0.000  0.027  0.003  0.129  0.003  0.000  0.239

band   9 # energy   24.35620536 # occ.  0.00000000

ion      s     py     pz     px    dxy    dyz    dz2    dxz    dx2    tot
  1  0.000  0.238  0.000  0.239  0.000  0.043  0.000  0.043  0.047  0.611


 k-point    8 :   -0.42857143 0.14285714 0.00000000     weight = 0.06997085

band   1 # energy   -0.55117809 # occ.  2.00000000

ion      s     py     pz     px    dxy    dyz    dz2    dxz    dx2    tot
  1  0.171  0.006  0.012  0.006  0.289  0.179  0.003  0.179  0.000  0.845

band   2 # energy    1.54589064 # occ.  2.00000000

ion      s     py     pz     px    dxy    dyz    dz2    dxz    dx2    tot
  1  0.000  0.006  0.001  0.006  0.153  0.070  0.598  0.070  0.000  0.903

band   3 # energy    2.37530297 # occ.  2.00000000

ion      s     py     pz     px    dxy    dyz    dz2    dxz    dx2    tot
  1  0.000  0.002  0.000  0.002  0.000  0.165  0.000  0.165  0.598  0.933

band   4 # energy    3.31171886 # occ.  2.00000000

ion      s     py     pz     px    dxy    dyz    dz2    dxz    dx2    tot
  1  0.002  0.061  0.065  0.061  0.259  0.113  0.163  0.113  0.000  0.836

band   5 # energy    5.11920190 # occ.  2.00000000

ion      s     py     pz     px    dxy    dyz    dz2    dxz    dx2    tot
  1  0.000  0.000  0.000  0.000  0.000  0.318  0.000  0.318  0.340  0.976

band   6 # energy    8.36223088 # occ.  0.00000000

ion      s     py     pz     px    dxy    dyz    dz2    dxz    dx2    tot
  1  0.052  0.117  0.107  0.117  0.208  0.006  0.163  0.006  0.000  0.775

band   7 # energy   11.41450408 # occ.  0.00000000

ion      s     py     pz     px    dxy    dyz    dz2    dxz    dx2    tot
  1  0.454  0.009  0.044  0.009  0.075  0.131  0.015  0.131  0.000  0.868

band   8 # energy   21.96817053 # occ.  0.00000000

ion      s     py     pz     px    dxy    dyz    dz2    dxz    dx2    tot
  1  0.018  0.013  0.184  0.013  0.006  0.043  0.108  0.043  0.000  0.428

band   9 # energy   24.04954388 # occ.  0.00000000

ion      s     py     pz     px    dxy    dyz    dz2    dxz    dx2    tot
  1  0.029  0.071  0.119  0.071  0.048  0.010  0.000  0.010  0.000  0.358


 k-point    9 :   -0.28571429 0.14285714 0.00000000     weight = 0.06997085

band   1 # energy   -0.56796449 # occ.  2.00000000

ion      s     py     pz     px    dxy    dyz    dz2    dxz    dx2    tot
  1  0.309  0.032  0.001  0.032  0.201  0.105  0.002  0.105  0.000  0.788

band   2 # energy    1.73375118 # occ.  2.00000000

ion      s     py     pz     px    dxy    dyz    dz2    dxz    dx2    tot
  1  0.030  0.007  0.034  0.007  0.185  0.258  0.120  0.258  0.000  0.898

band   3 # energy    2.09618462 # occ.  2.00000000

ion      s     py     pz     px    dxy    dyz    dz2    dxz    dx2    tot
  1  0.046  0.042  0.021  0.042  0.102  0.056  0.478  0.056  0.000  0.842

band   4 # energy    2.55631451 # occ.  2.00000000

ion      s     py     pz     px    dxy    dyz    dz2    dxz    dx2    tot
  1  0.000  0.001  0.000  0.001  0.000  0.172  0.000  0.172  0.591  0.937

band   5 # energy    3.96549727 # occ.  2.00000000

ion      s     py     pz     px    dxy    dyz    dz2    dxz    dx2    tot
  1  0.000  0.001  0.000  0.001  0.000  0.305  0.000  0.305  0.342  0.955

band   6 # energy    6.05844600 # occ.  2.00000000

ion      s     py     pz     px    dxy    dyz    dz2    dxz    dx2    tot
  1  0.082  0.027  0.004  0.027  0.454  0.002  0.339  0.002  0.000  0.938

band   7 # energy   16.51263932 # occ.  0.00000000

ion      s     py     pz     px    dxy    dyz    dz2    dxz    dx2    tot
  1  0.219  0.091  0.097  0.091  0.062  0.068  0.028  0.068  0.000  0.723

band   8 # energy   22.14416546 # occ.  0.00000000

ion      s     py     pz     px    dxy    dyz    dz2    dxz    dx2    tot
  1  0.017  0.019  0.249  0.019  0.014  0.119  0.044  0.119  0.000  0.601

band   9 # energy   24.85862917 # occ.  0.00000000

ion      s     py     pz     px    dxy    dyz    dz2    dxz    dx2    tot
  1  0.023  0.070  0.056  0.071  0.000  0.003  0.015  0.003  0.000  0.242


 k-point   10 :   -0.14285714 0.14285714 0.00000000     weight = 0.03498542

band   1 # energy   -1.87600006 # occ.  2.00000000

ion      s     py     pz     px    dxy    dyz    dz2    dxz    dx2    tot
  1  0.570  0.040  0.000  0.040  0.043  0.000  0.004  0.000  0.000  0.698

band   2 # energy    1.35672132 # occ.  2.00000000

ion      s     py     pz     px    dxy    dyz    dz2    dxz    dx2    tot
  1  0.000  0.000  0.020  0.000  0.000  0.446  0.000  0.446  0.000  0.912

band   3 # energy    2.36597491 # occ.  2.00000000

ion      s     py     pz     px    dxy    dyz    dz2    dxz    dx2    tot
  1  0.004  0.008  0.000  0.008  0.604  0.000  0.304  0.000  0.000  0.929

band   4 # energy    2.64960743 # occ.  2.00000000

ion      s     py     pz     px    dxy    dyz    dz2    dxz    dx2    tot
  1  0.000  0.000  0.000  0.000  0.000  0.473  0.000  0.473  0.000  0.947

band   5 # energy    3.23657314 # occ.  2.00000000

ion      s     py     pz     px    dxy    dyz    dz2    dxz    dx2    tot
  1  0.000  0.001  0.000  0.001  0.000  0.000  0.000  0.000  0.945  0.947

band   6 # energy    4.50311560 # occ.  2.00000000

ion      s     py     pz     px    dxy    dyz    dz2    dxz    dx2    tot
  1  0.015  0.005  0.000  0.005  0.287  0.000  0.650  0.000  0.000  0.963

band   7 # energy   21.66357589 # occ.  0.00000000

ion      s     py     pz     px    dxy    dyz    dz2    dxz    dx2    tot
  1  0.111  0.104  0.000  0.104  0.100  0.000  0.034  0.000  0.000  0.453

band   8 # energy   23.41749054 # occ.  0.00000000

ion      s     py     pz     px    dxy    dyz    dz2    dxz    dx2    tot
  1  0.000  0.000  0.211  0.000  0.000  0.184  0.000  0.184  0.000  0.579

band   9 # energy   26.95176802 # occ.  0.00000000

ion      s     py     pz     px    dxy    dyz    dz2    dxz    dx2    tot
  1  0.000  0.000  0.174  0.000  0.000  0.002  0.000  0.002  0.000  0.178


 k-point   11 :    0.28571429 0.28571429 0.00000000     weight = 0.01749271

band   1 # energy   -0.75630867 # occ.  2.00000000

ion      s     py     pz     px    dxy    dyz    dz2    dxz    dx2    tot
  1  0.334  0.000  0.089  0.000  0.000  0.000  0.317  0.000  0.000  0.740

band   2 # energy    0.31581141 # occ.  2.00000000

ion      s     py     pz     px    dxy    dyz    dz2    dxz    dx2    tot
  1  0.000  0.000  0.000  0.000  0.902  0.000  0.000  0.000  0.000  0.902

band   3 # energy    3.03831246 # occ.  2.00000000

ion      s     py     pz     px    dxy    dyz    dz2    dxz    dx2    tot
  1  0.163  0.000  0.107  0.000  0.000  0.000  0.575  0.000  0.000  0.846

band   4 # energy    3.88192693 # occ.  2.00000000

ion      s     py     pz     px    dxy    dyz    dz2    dxz    dx2    tot
  1  0.000  0.006  0.000  0.013  0.000  0.311  0.000  0.620  0.000  0.950

band   5 # energy    3.88192752 # occ.  2.00000000

ion      s     py     pz     px    dxy    dyz    dz2    dxz    dx2    tot
  1  0.000  0.013  0.000  0.006  0.000  0.620  0.000  0.311  0.000  0.950

band   6 # energy    4.68779535 # occ.  2.00000000

ion      s     py     pz     px    dxy    dyz    dz2    dxz    dx2    tot
  1  0.000  0.000  0.000  0.000  0.000  0.000  0.000  0.000  0.977  0.977

band   7 # energy   22.32142772 # occ.  0.00000000

ion      s     py     pz     px    dxy    dyz    dz2    dxz    dx2    tot
  1  0.000  0.360  0.000  0.105  0.000  0.129  0.000  0.038  0.000  0.632

band   8 # energy   22.32142841 # occ.  0.00000000

ion      s     py     pz     px    dxy    dyz    dz2    dxz    dx2    tot
  1  0.000  0.105  0.000  0.360  0.000  0.038  0.000  0.129  0.000  0.632

band   9 # energy   23.49016174 # occ.  0.00000000

ion      s     py     pz     px    dxy    dyz    dz2    dxz    dx2    tot
  1  0.062  0.000  0.189  0.000  0.000  0.000  0.348  0.000  0.000  0.599


 k-point   12 :    0.42857143 0.28571429 0.00000000     weight = 0.06997085

band   1 # energy   -0.33968655 # occ.  2.00000000

ion      s     py     pz     px    dxy    dyz    dz2    dxz    dx2    tot
  1  0.119  0.001  0.030  0.001  0.191  0.008  0.463  0.008  0.000  0.820

band   2 # energy    0.21916650 # occ.  2.00000000

ion      s     py     pz     px    dxy    dyz    dz2    dxz    dx2    tot
  1  0.013  0.013  0.005  0.013  0.664  0.003  0.159  0.003  0.000  0.873

band   3 # energy    2.93636929 # occ.  2.00000000

ion      s     py     pz     px    dxy    dyz    dz2    dxz    dx2    tot
  1  0.104  0.001  0.110  0.001  0.024  0.251  0.120  0.251  0.000  0.861

band   4 # energy    3.97239433 # occ.  2.00000000

ion      s     py     pz     px    dxy    dyz    dz2    dxz    dx2    tot
  1  0.000  0.006  0.000  0.006  0.000  0.223  0.000  0.223  0.492  0.951

band   5 # energy    5.37280406 # occ.  2.00000000

ion      s     py     pz     px    dxy    dyz    dz2    dxz    dx2    tot
  1  0.000  0.001  0.000  0.001  0.000  0.254  0.000  0.254  0.475  0.984

band   6 # energy    6.60424118 # occ.  1.95680648

ion      s     py     pz     px    dxy    dyz    dz2    dxz    dx2    tot
  1  0.141  0.012  0.150  0.012  0.004  0.210  0.127  0.210  0.000  0.865

band   7 # energy   16.77445172 # occ.  0.00000000

ion      s     py     pz     px    dxy    dyz    dz2    dxz    dx2    tot
  1  0.234  0.134  0.096  0.134  0.042  0.025  0.000  0.025  0.000  0.689

band   8 # energy   20.49703178 # occ.  0.00000000

ion      s     py     pz     px    dxy    dyz    dz2    dxz    dx2    tot
  1  0.087  0.049  0.186  0.049  0.011  0.021  0.288  0.021  0.000  0.712

band   9 # energy   20.95061598 # occ.  0.00000000

ion      s     py     pz     px    dxy    dyz    dz2    dxz    dx2    tot
  1  0.000  0.251  0.000  0.251  0.000  0.039  0.000  0.039  0.030  0.611


 k-point   13 :   -0.42857143 0.28571429 0.00000000     weight = 0.06997085

band   1 # energy   -0.04213970 # occ.  2.00000000

ion      s     py     pz     px    dxy    dyz    dz2    dxz    dx2    tot
  1  0.062  0.001  0.007  0.001  0.482  0.015  0.283  0.015  0.000  0.866

band   2 # energy    0.89537373 # occ.  2.00000000

ion      s     py     pz     px    dxy    dyz    dz2    dxz    dx2    tot
  1  0.001  0.042  0.000  0.042  0.231  0.021  0.486  0.021  0.000  0.842

band   3 # energy    2.48214744 # occ.  2.00000000

ion      s     py     pz     px    dxy    dyz    dz2    dxz    dx2    tot
  1  0.022  0.003  0.109  0.003  0.096  0.321  0.000  0.321  0.000  0.875

band   4 # energy    3.60782991 # occ.  2.00000000

ion      s     py     pz     px    dxy    dyz    dz2    dxz    dx2    tot
  1  0.000  0.006  0.000  0.006  0.000  0.099  0.000  0.099  0.731  0.942

band   5 # energy    5.22491279 # occ.  2.00000000

ion      s     py     pz     px    dxy    dyz    dz2    dxz    dx2    tot
  1  0.000  0.000  0.000  0.000  0.000  0.386  0.000  0.386  0.205  0.978

band   6 # energy   11.07558790 # occ.  0.00000000

ion      s     py     pz     px    dxy    dyz    dz2    dxz    dx2    tot
  1  0.272  0.009  0.198  0.009  0.003  0.135  0.078  0.135  0.000  0.838

band   7 # energy   11.65619713 # occ.  0.00000000

ion      s     py     pz     px    dxy    dyz    dz2    dxz    dx2    tot
  1  0.247  0.113  0.083  0.113  0.137  0.000  0.031  0.000  0.000  0.724

band   8 # energy   17.87387193 # occ.  0.00000000

ion      s     py     pz     px    dxy    dyz    dz2    dxz    dx2    tot
  1  0.109  0.069  0.194  0.069  0.010  0.040  0.224  0.040  0.000  0.754

band   9 # energy   22.11179255 # occ.  0.00000000

ion      s     py     pz     px    dxy    dyz    dz2    dxz    dx2    tot
  1  0.000  0.250  0.000  0.250  0.000  0.005  0.000  0.005  0.128  0.637


 k-point   14 :   -0.28571429 0.28571429 0.00000000     weight = 0.03498542

band   1 # energy    0.47877738 # occ.  2.00000000

ion      s     py     pz     px    dxy    dyz    dz2    dxz    dx2    tot
  1  0.123  0.016  0.000  0.016  0.606  0.000  0.101  0.000  0.000  0.863

band   2 # energy    1.49275919 # occ.  2.00000000

ion      s     py     pz     px    dxy    dyz    dz2    dxz    dx2    tot
  1  0.036  0.061  0.000  0.061  0.013  0.000  0.642  0.000  0.000  0.813

band   3 # energy    1.56350991 # occ.  2.00000000

ion      s     py     pz     px    dxy    dyz    dz2    dxz    dx2    tot
  1  0.000  0.000  0.084  0.000  0.000  0.399  0.000  0.399  0.000  0.883

band   4 # energy    3.25155702 # occ.  2.00000000

ion      s     py     pz     px    dxy    dyz    dz2    dxz    dx2    tot
  1  0.000  0.005  0.000  0.005  0.000  0.000  0.000  0.000  0.924  0.934

band   5 # energy    4.23844793 # occ.  2.00000000

ion      s     py     pz     px    dxy    dyz    dz2    dxz    dx2    tot
  1  0.000  0.000  0.000  0.000  0.000  0.480  0.000  0.480  0.000  0.960

band   6 # energy    8.46187164 # occ.  0.00000000

ion      s     py     pz     px    dxy    dyz    dz2    dxz    dx2    tot
  1  0.271  0.056  0.000  0.056  0.356  0.000  0.122  0.000  0.000  0.861

band   7 # energy   15.83949780 # occ.  0.00000000

ion      s     py     pz     px    dxy    dyz    dz2    dxz    dx2    tot
  1  0.286  0.122  0.000  0.122  0.005  0.000  0.177  0.000  0.000  0.711

band   8 # energy   16.87229394 # occ.  0.00000000

ion      s     py     pz     px    dxy    dyz    dz2    dxz    dx2    tot
  1  0.000  0.000  0.463  0.000  0.000  0.171  0.000  0.171  0.000  0.805

band   9 # energy   25.10994044 # occ.  0.00000000

ion      s     py     pz     px    dxy    dyz    dz2    dxz    dx2    tot
  1  0.020  0.035  0.000  0.038  0.128  0.000  0.090  0.000  0.000  0.311


 k-point   15 :    0.42857143 0.42857143 0.00000000     weight = 0.01749271

band   1 # energy   -0.82021576 # occ.  2.00000000

ion      s     py     pz     px    dxy    dyz    dz2    dxz    dx2    tot
  1  0.083  0.000  0.007  0.000  0.000  0.000  0.725  0.000  0.000  0.816

band   2 # energy   -0.44111697 # occ.  2.00000000

ion      s     py     pz     px    dxy    dyz    dz2    dxz    dx2    tot
  1  0.000  0.000  0.000  0.000  0.892  0.000  0.000  0.000  0.000  0.892

band   3 # energy    5.20203786 # occ.  2.00000000

ion      s     py     pz     px    dxy    dyz    dz2    dxz    dx2    tot
  1  0.000  0.000  0.000  0.000  0.000  0.000  0.000  0.000  0.984  0.984

band   4 # energy    5.44476717 # occ.  2.00000000

ion      s     py     pz     px    dxy    dyz    dz2    dxz    dx2    tot
  1  0.000  0.002  0.000  0.004  0.000  0.337  0.000  0.635  0.000  0.979

band   5 # energy    5.44476782 # occ.  2.00000000

ion      s     py     pz     px    dxy    dyz    dz2    dxz    dx2    tot
  1  0.000  0.004  0.000  0.002  0.000  0.635  0.000  0.337  0.000  0.979

band   6 # energy    6.74666516 # occ.  1.00610743

ion      s     py     pz     px    dxy    dyz    dz2    dxz    dx2    tot
  1  0.148  0.000  0.471  0.000  0.000  0.000  0.084  0.000  0.000  0.703

band   7 # energy   16.09874275 # occ.  0.00000000

ion      s     py     pz     px    dxy    dyz    dz2    dxz    dx2    tot
  1  0.461  0.000  0.162  0.000  0.000  0.000  0.224  0.000  0.000  0.847

band   8 # energy   18.63226183 # occ.  0.00000000

ion      s     py     pz     px    dxy    dyz    dz2    dxz    dx2    tot
  1  0.000  0.212  0.000  0.322  0.000  0.012  0.000  0.018  0.000  0.564

band   9 # energy   18.63226220 # occ.  0.00000000

ion      s     py     pz     px    dxy    dyz    dz2    dxz    dx2    tot
  1  0.000  0.322  0.000  0.212  0.000  0.018  0.000  0.012  0.000  0.564


 k-point   16 :   -0.42857143 0.42857143 0.00000000     weight = 0.03498542

band   1 # energy   -0.61301634 # occ.  2.00000000

ion      s     py     pz     px    dxy    dyz    dz2    dxz    dx2    tot
  1  0.053  0.002  0.000  0.002  0.127  0.000  0.651  0.000  0.000  0.834

band   2 # energy   -0.18527393 # occ.  2.00000000

ion      s     py     pz     px    dxy    dyz    dz2    dxz    dx2    tot
  1  0.002  0.012  0.000  0.012  0.746  0.000  0.106  0.000  0.000  0.878

band   3 # energy    4.26298061 # occ.  2.00000000

ion      s     py     pz     px    dxy    dyz    dz2    dxz    dx2    tot
  1  0.000  0.000  0.132  0.000  0.000  0.383  0.000  0.383  0.000  0.897

band   4 # energy    4.83563107 # occ.  2.00000000

ion      s     py     pz     px    dxy    dyz    dz2    dxz    dx2    tot
  1  0.000  0.004  0.000  0.004  0.000  0.000  0.000  0.000  0.961  0.968

band   5 # energy    5.54339947 # occ.  2.00000000

ion      s     py     pz     px    dxy    dyz    dz2    dxz    dx2    tot
  1  0.000  0.000  0.000  0.000  0.000  0.492  0.000  0.492  0.000  0.984

band   6 # energy   10.12558044 # occ.  0.00000000

ion      s     py     pz     px    dxy    dyz    dz2    dxz    dx2    tot
  1  0.000  0.000  0.509  0.000  0.000  0.121  0.000  0.121  0.000  0.750

band   7 # energy   13.47957831 # occ.  0.00000000

ion      s     py     pz     px    dxy    dyz    dz2    dxz    dx2    tot
  1  0.626  0.026  0.000  0.026  0.014  0.000  0.117  0.000  0.000  0.809

band   8 # energy   16.70505390 # occ.  0.00000000
