<?xml version="1.0" encoding="ISO-8859-1"?>
<modeling>
 <generator>
  <i name="program"" type=""stringvasp</i>
  <i name="version"" type=""string4.6.26 </i>
  <i name="subversion"" type=""string15Dec04 complex  serial</i>
  <i name="platform"" type=""stringLinuxPgi</i>
  <i name="date"" type=""string2009 11 29</i>
  <i name="time"" type=""string22:34:16</i>
 </generator>
 <incar>
  <i type=""string"" nameSYSTEM"" Au, FCC</i>
  <i type=""int"" nameISTART""     0</i>
  <i type=""string"" namePREC""normal ! set fft mesh, cutoffs</i>
  <i type=""string"" nameALGO"" Fast   ! use fast algorithm for electro</i>
  <i type=""int"" nameISPIN""     1</i>
  <i name="EDIFF""      0.00010000</i>
  <i name="ENCUT""    350.00000000</i>
  <i type=""int"" nameISMEAR""     0</i>
  <i name="SIGMA""      0.10000000</i>
  <i type=""int"" nameNWRITE""     1</i>
  <i type=""logical"" nameLWAVE"" F  </i>
  <i type=""logical"" nameLCHARG"" T  </i>
  <i type=""logical"" nameLVTOT"" F  </i>
  <i type=""logical"" nameLORBIT"" F  </i>
 </incar>
 <kpoints>
  <generation param="Monkhorst-Pack">
   <v type=""int"" namedivisions""       7       7       7</v>
   <v name="usershift""      0.00000000      0.00000000      0.00000000</v>
   <v name="genvec1""      0.14285714      0.00000000      0.00000000</v>
   <v name="genvec2""      0.00000000      0.14285714      0.00000000</v>
   <v name="genvec3""      0.00000000      0.00000000      0.14285714</v>
   <v name="shift""      0.00000000      0.00000000      0.00000000</v>
  </generation>
  <varray name="kpointlist"">
   <v>       0.00000000      0.00000000      0.00000000</v>
   <v>       0.14285714      0.00000000      0.00000000</v>
   <v>       0.28571429      0.00000000      0.00000000</v>
   <v>       0.42857143      0.00000000      0.00000000</v>
   <v>       0.14285714      0.14285714      0.00000000</v>
   <v>       0.28571429      0.14285714      0.00000000</v>
   <v>       0.42857143      0.14285714      0.00000000</v>
   <v>      -0.42857143      0.14285714      0.00000000</v>
   <v>      -0.28571429      0.14285714      0.00000000</v>
   <v>      -0.14285714      0.14285714      0.00000000</v>
   <v>       0.28571429      0.28571429      0.00000000</v>
   <v>       0.42857143      0.28571429      0.00000000</v>
   <v>      -0.42857143      0.28571429      0.00000000</v>
   <v>      -0.28571429      0.28571429      0.00000000</v>
   <v>       0.42857143      0.42857143      0.00000000</v>
   <v>      -0.42857143      0.42857143      0.00000000</v>
   <v>       0.42857143      0.28571429      0.14285714</v>
   <v>      -0.42857143      0.28571429      0.14285714</v>
   <v>      -0.42857143      0.42857143      0.14285714</v>
   <v>      -0.28571429      0.42857143      0.14285714</v>
  </varray>
  <varray name="weights"">
   <v>       0.00291545</v>
   <v>       0.02332362</v>
   <v>       0.02332362</v>
   <v>       0.02332362</v>
   <v>       0.01749271</v>
   <v>       0.06997085</v>
   <v>       0.06997085</v>
   <v>       0.06997085</v>
   <v>       0.06997085</v>
   <v>       0.03498542</v>
   <v>       0.01749271</v>
   <v>       0.06997085</v>
   <v>       0.06997085</v>
   <v>       0.03498542</v>
   <v>       0.01749271</v>
   <v>       0.03498542</v>
   <v>       0.06997085</v>
   <v>       0.13994169</v>
   <v>       0.06997085</v>
   <v>       0.06997085</v>
  </varray>
 </kpoints>
 <parameters>
  <separator name="general"">
   <i type=""string"" nameSYSTEM""Au, FCC</i>
   <i type=""logical"" nameLCOMPAT"" F  </i>
  </separator>
  <separator name="electronic"">
   <i type=""string"" namePREC""normal</i>
   <i name="ENMAX""    350.00000000</i>
   <i name="ENAUG""    356.67000000</i>
   <i name="EDIFF""      0.00010000</i>
   <i type=""int"" nameIALGO""    68</i>
   <i type=""int"" nameIWAVPR""     0</i>
   <i type=""int"" nameNBANDS""     9</i>
   <i name="NELECT""     11.00000000</i>
   <separator name="electronic smearing"">
    <i type=""int"" nameISMEAR""     0</i>
    <i name="SIGMA""      0.10000000</i>
   </separator>
   <separator name="electronic projectors"">
    <i type=""logical"" nameLREAL"" F  </i>
    <v name="ROPT""      0.00000000</v>
    <i type=""int"" nameLMAXPAW""  -100</i>
    <i type=""int"" nameLMAXMIX""     2</i>
   </separator>
   <separator name="electronic startup"">
    <i type=""int"" nameISTART""     0</i>
    <i type=""int"" nameICHARG""     2</i>
    <i type=""int"" nameINIWAV""     1</i>
   </separator>
   <separator name="electronic spin"">
    <i type=""int"" nameISPIN""     1</i>
    <i type=""logical"" nameLNONCOLLINEAR"" F  </i>
    <v name="MAGMOM""      1.00000000</v>
    <i name="NUPDOWN""     -1.00000000</i>
    <i type=""logical"" nameLSORBIT"" F  </i>
    <v name="SAXIS""      0.00000000      0.00000000      1.00000000</v>
    <i type=""logical"" nameLSPIRAL"" F  </i>
    <v name="QSPIRAL""      0.00000000      0.00000000      0.00000000</v>
    <i type=""logical"" nameLZEROZ"" F  </i>
   </separator>
   <separator name="electronic exchange-correlation"">
    <i type=""string"" nameGGA""--</i>
    <i type=""int"" nameVOSKOWN""     0</i>
    <i type=""logical"" nameLASPH"" F  </i>
    <i type=""logical"" nameLMETAGGA"" F  </i>
    <i type=""string"" nameGGA2""--</i>
   </separator>
   <separator name="electronic convergence"">
    <i type=""int"" nameNELM""    60</i>
    <i type=""int"" nameNELMDL""    -5</i>
    <i type=""int"" nameNELMIN""     2</i>
    <i name="ENINI""    350.00000000</i>
    <separator name="electronic convergence detail"">
     <i type=""logical"" nameLDIAG"" T  </i>
     <i name="WEIMIN""      0.00000000</i>
     <i name="EBREAK""      0.00000278</i>
     <i name="DEPER""      0.30000000</i>
     <i type=""int"" nameNRMM""     4</i>
     <i name="TIME""      0.10000000</i>
    </separator>
   </separator>
   <separator name="electronic mixer"">
    <i name="AMIX""      0.40000000</i>
    <i name="BMIX""      1.00000000</i>
    <i name="AMIN""      0.10000000</i>
    <i name="AMIX_MAG""      1.60000000</i>
    <i name="BMIX_MAG""      1.00000000</i>
    <separator name="electronic mixer details"">
     <i type=""int"" nameIMIX""     4</i>
     <i type=""int"" nameMAXMIX""   -45</i>
     <i name="WC""    100.00000000</i>
     <i type=""int"" nameINIMIX""     1</i>
     <i type=""int"" nameMIXPRE""     1</i>
     <i type=""int"" nameMREMOVE""     5</i>
    </separator>
   </separator>
   <separator name="electronic dipolcorrection"">
    <i type=""int"" nameIDIPOL""     0</i>
    <i type=""logical"" nameLDIPOL"" F  </i>
    <v name="DIPOL""   -100.00000000</v>
    <i name="EFIELD""      0.00000000</i>
   </separator>
  </separator>
  <separator name="grids"">
   <i type=""int"" nameNGX""    14</i>
   <i type=""int"" nameNGY""    14</i>
   <i type=""int"" nameNGZ""    14</i>
   <i type=""int"" nameNGXF""    28</i>
   <i type=""int"" nameNGYF""    28</i>
   <i type=""int"" nameNGZF""    28</i>
   <i type=""logical"" nameADDGRID"" F  </i>
  </separator>
  <separator name="ionic"">
   <i type=""int"" nameNSW""     0</i>
   <i type=""int"" nameIBRION""    -1</i>
   <i type=""int"" nameISIF""     2</i>
   <i name="PSTRESS""      0.00000000</i>
   <i name="EDIFFG""      0.00100000</i>
   <i type=""int"" nameNFREE""     0</i>
   <i name="POTIM""      0.50000000</i>
   <i name="SMASS""     -3.00000000</i>
  </separator>
  <separator name="ionic md"">
   <i name="TEBEG""      0.00010000</i>
   <i name="TEEND""      0.00010000</i>
   <i type=""int"" nameNBLOCK""     1</i>
   <i type=""int"" nameKBLOCK""     1</i>
   <i type=""int"" nameNPACO""   256</i>
   <i name="APACO""     16.00000000</i>
  </separator>
  <separator name="symmetry"">
   <i type=""int"" nameISYM""     2</i>
   <i name="SYMPREC""      0.00001000</i>
  </separator>
  <separator name="dos"">
   <i type=""logical"" nameLORBIT"" F  </i>
   <v name="RWIGS""     -1.00000000</v>
   <i type=""int"" nameNEDOS""   301</i>
   <i name="EMIN""     10.00000000</i>
   <i name="EMAX""    -10.00000000</i>
  </separator>
  <separator name="writing"">
   <i type=""int"" nameNWRITE""     1</i>
   <i type=""logical"" nameLWAVE"" F  </i>
   <i type=""logical"" nameLCHARG"" T  </i>
   <i type=""logical"" nameLPARD"" F  </i>
   <i type=""logical"" nameLVTOT"" F  </i>
   <i type=""logical"" nameLELF"" F  </i>
   <i type=""logical"" nameLOPTICS"" F  </i>
   <i name="STM""      0.00000000</i>
  </separator>
  <separator name="performance"">
   <i type=""int"" nameNPAR""     1</i>
   <i type=""int"" nameNSIM""     4</i>
   <i type=""int"" nameNBLK""    32</i>
   <i type=""logical"" nameLPLANE"" T  </i>
   <i type=""logical"" nameLCRITICAL_MEM"" F  </i>
   <i type=""logical"" nameLSCALAPACK"" F  </i>
   <i type=""logical"" nameLSCALU"" F  </i>
   <i type=""logical"" nameLASYNC"" F  </i>
  </separator>
  <separator name="miscellaneous"">
   <i type=""int"" nameIDIOT""     3</i>
   <i type=""logical"" nameLMUSIC"" F  </i>
   <v name="POMASS""    196.96600000</v>
   <i type=""logical"" nameLCORR"" T  </i>
  </separator>
  <i type=""logical"" nameLREAL_COMPAT"" F  </i>
  <i type=""logical"" nameGGA_COMPAT"" T  </i>
  <i type=""logical"" nameLBERRY"" F  </i>
  <i type=""int"" nameICORELEVEL""     0</i>
  <i type=""logical"" nameLDAU"" F  </i>
  <i type=""int"" nameI_CONSTRAINED_M""     0</i>
 </parameters>
 <atominfo>
  <atoms>       1</atoms>
  <types>       1</types>
  <array name="atoms"">
   <dimension dim="1">ion</dimension>
   <field type="string">element</field>
   <field type="int">atomtype</field>
   <set>
    <rc><c>Au</c><c>   1</c></rc>
   </set>
  </array>
  <array name="atomtypes"">
   <dimension dim="1">type</dimension>
   <field type="int">atomspertype</field>
   <field type="string">element</field>
   <field>mass</field>
   <field>valence</field>
   <field type="string">pseudopotential</field>
   <set>
    <rc><c>   1</c><c>Au</c><c>    196.96600000</c><c>     11.00000000</c><c> PAW_GGA Au 18Jul2000                   </c></rc>
   </set>
  </array>
 </atominfo>
 <structure name="initialpos"">
  <crystal>
   <varray name="basis"">
    <v>       0.00000000      1.96195000      1.96195000</v>
    <v>       1.96195000      0.00000000      1.96195000</v>
    <v>       1.96195000      1.96195000      0.00000000</v>
   </varray>
   <i name="volume""     15.10406345</i>
   <varray name="rec_basis"">
    <v>      -0.25484849      0.25484849      0.25484849</v>
    <v>       0.25484849     -0.25484849      0.25484849</v>
    <v>       0.25484849      0.25484849     -0.25484849</v>
   </varray>
  </crystal>
  <varray name="positions"">
   <v>       0.00000000      0.00000000      0.00000000</v>
  </varray>
 </structure>
 <calculation>
  <scstep>
   <time name="dav""    0.39    0.39</time>
   <time name="total""    0.44    0.44</time>
   <energy>
    <i name="alphaZ""    123.73329044</i>
    <i name="ewald""  -1017.93440247</i>
    <i name="hartreedc""   -108.64682985</i>
    <i name="XCdc""     15.65807697</i>
    <i name="pawpsdc""    747.65313744</i>
    <i name="pawaedc""   -724.56448596</i>
    <i name="eentropy""     -0.00360047</i>
    <i name="bandstr""     75.21048572</i>
    <i name="atom""    927.07761444</i>
    <i name="e_fr_energy""     38.18328626</i>
    <i name="e_wo_entrp""     38.18688673</i>
    <i name="e_0_energy""     38.18508650</i>
   </energy>
  </scstep>
  <scstep>
   <time name="dav""    0.32    0.32</time>
   <time name="total""    0.32    0.33</time>
   <energy>
    <i name="e_fr_energy""     -2.71714590</i>
    <i name="e_wo_entrp""     -2.71488172</i>
    <i name="e_0_energy""     -2.71601381</i>
   </energy>
  </scstep>
  <scstep>
   <time name="dav""    0.38    0.38</time>
   <time name="total""    0.38    0.38</time>
   <energy>
    <i name="e_fr_energy""     -3.15767867</i>
    <i name="e_wo_entrp""     -3.15541456</i>
    <i name="e_0_energy""     -3.15654661</i>
   </energy>
  </scstep>
  <scstep>
   <time name="dav""    0.35    0.35</time>
   <time name="total""    0.35    0.36</time>
   <energy>
    <i name="e_fr_energy""     -3.15886307</i>
    <i name="e_wo_entrp""     -3.15659897</i>
    <i name="e_0_energy""     -3.15773102</i>
   </energy>
  </scstep>
  <scstep>
   <time name="dav""    0.34    0.34</time>
   <time name="total""    0.37    0.37</time>
   <energy>
    <i name="e_fr_energy""     -3.15887331</i>
    <i name="e_wo_entrp""     -3.15660920</i>
    <i name="e_0_energy""     -3.15774125</i>
   </energy>
  </scstep>
  <scstep>
   <time name="diag""    0.06    0.06</time>
   <time name="diis""    0.25    0.26</time>
   <time name="orth""    0.01    0.01</time>
   <time name="total""    0.40    0.40</time>
   <energy>
    <i name="e_fr_energy""     -2.94552651</i>
    <i name="e_wo_entrp""     -2.94314482</i>
    <i name="e_0_energy""     -2.94433567</i>
   </energy>
  </scstep>
  <scstep>
   <time name="diag""    0.06    0.06</time>
   <time name="diis""    0.26    0.26</time>
   <time name="orth""    0.01    0.01</time>
   <time name="total""    0.41    0.41</time>
   <energy>
    <i name="e_fr_energy""     -2.91746135</i>
    <i name="e_wo_entrp""     -2.91593037</i>
    <i name="e_0_energy""     -2.91669586</i>
   </energy>
  </scstep>
  <scstep>
   <time name="diag""    0.06    0.06</time>
   <time name="diis""    0.26    0.26</time>
   <time name="orth""    0.01    0.01</time>
   <time name="total""    0.40    0.41</time>
   <energy>
    <i name="e_fr_energy""     -2.91278258</i>
    <i name="e_wo_entrp""     -2.91124488</i>
    <i name="e_0_energy""     -2.91201373</i>
   </energy>
  </scstep>
  <scstep>
   <time name="diag""    0.06    0.06</time>
   <time name="diis""    0.17    0.17</time>
   <time name="orth""    0.01    0.01</time>
   <time name="total""    0.29    0.29</time>
   <energy>
    <i name="alphaZ""    123.73329044</i>
    <i name="ewald""  -1017.93440247</i>
    <i name="hartreedc""    -98.26955170</i>
    <i name="XCdc""     15.18334935</i>
    <i name="pawpsdc""    779.85772841</i>
    <i name="pawaedc""   -760.24972944</i>
    <i name="eentropy""     -0.00149820</i>
    <i name="bandstr""     27.69043318</i>
    <i name="atom""    927.07761444</i>
    <i name="e_fr_energy""     -2.91276600</i>
    <i name="e_wo_entrp""     -2.91126780</i>
    <i name="e_0_energy""     -2.91201690</i>
   </energy>
  </scstep>
  <structure>
   <crystal>
    <varray name="basis"">
     <v>       0.00000000      1.96195000      1.96195000</v>
     <v>       1.96195000      0.00000000      1.96195000</v>
     <v>       1.96195000      1.96195000      0.00000000</v>
    </varray>
    <i name="volume""     15.10406345</i>
    <varray name="rec_basis"">
     <v>      -0.25484849      0.25484849      0.25484849</v>
     <v>       0.25484849     -0.25484849      0.25484849</v>
     <v>       0.25484849      0.25484849     -0.25484849</v>
    </varray>
   </crystal>
   <varray name="positions"">
    <v>       0.00000000      0.00000000      0.00000000</v>
   </varray>
  </structure>
  <varray name="forces"">
   <v>       0.00000000      0.00000000      0.00000000</v>
  </varray>
  <varray name="stress"">
   <v>     430.95092338      0.00000000      0.00000000</v>
   <v>       0.00000000    430.95092338      0.00000000</v>
   <v>       0.00000000      0.00000000    430.95092338</v>
  </varray>
  <energy>
   <i name="e_fr_energy""     -2.91276600</i>
   <i name="e_wo_entrp""     -2.91201690</i>
   <i name="e_0_energy""     -0.00149820</i>
  </energy>
  <eigenvalues>
   <array>
    <dimension dim="1">band</dimension>
    <dimension dim="2">kpoint</dimension>
    <dimension dim="3">spin</dimension>
    <field>eigene</field>
    <field>occ</field>
    <set>
     <set comment="spin 1">
      <set comment="kpoint 1">
       <r>  -3.7855  1.0000</r>
       <r>   1.9660  1.0000</r>
       <r>   1.9660  1.0000</r>
       <r>   1.9660  1.0000</r>
       <r>   3.8423  1.0000</r>
       <r>   3.8423  1.0000</r>
       <r>  22.7544  0.0000</r>
       <r>  27.3529  0.0000</r>
       <r>  27.3529  0.0000</r>
      </set>
      <set comment="kpoint 2">
       <r>  -3.0200  1.0000</r>
       <r>   1.7337  1.0000</r>
       <r>   2.2110  1.0000</r>
       <r>   2.2110  1.0000</r>
       <r>   3.7606  1.0000</r>
       <r>   3.7606  1.0000</r>
       <r>  23.3268  0.0000</r>
       <r>  24.0382  0.0000</r>
       <r>  28.2639  0.0000</r>
      </set>
      <set comment="kpoint 3">
       <r>  -1.4903  1.0000</r>
       <r>   2.0736  1.0000</r>
       <r>   2.2477  1.0000</r>
       <r>   2.2477  1.0000</r>
       <r>   4.2545  1.0000</r>
       <r>   4.2545  1.0000</r>
       <r>  18.1253  0.0000</r>
       <r>  23.6480  0.0000</r>
       <r>  28.8839  0.0000</r>
      </set>
      <set comment="kpoint 4">
       <r>  -1.1196  1.0000</r>
       <r>   1.9589  1.0000</r>
       <r>   1.9589  1.0000</r>
       <r>   4.8941  1.0000</r>
       <r>   5.1705  1.0000</r>
       <r>   5.1705  1.0000</r>
       <r>  12.5368  0.0000</r>
       <r>  22.2537  0.0000</r>
       <r>  26.5402  0.0000</r>
      </set>
      <set comment="kpoint 5">
       <r>  -2.7567  1.0000</r>
       <r>   1.4066  1.0000</r>
       <r>   2.4803  1.0000</r>
       <r>   2.4803  1.0000</r>
       <r>   3.2506  1.0000</r>
       <r>   4.0929  1.0000</r>
       <r>  24.0589  0.0000</r>
       <r>  25.2537  0.0000</r>
       <r>  26.4262  0.0000</r>
      </set>
      <set comment="kpoint 6">
       <r>  -1.3385  1.0000</r>
       <r>   1.0759  1.0000</r>
       <r>   2.3014  1.0000</r>
       <r>   2.8076  1.0000</r>
       <r>   3.8657  1.0000</r>
       <r>   4.5412  1.0000</r>
       <r>  20.4917  0.0000</r>
       <r>  24.6056  0.0000</r>
       <r>  25.2432  0.0000</r>
      </set>
      <set comment="kpoint 7">
       <r>  -0.5891  1.0000</r>
       <r>   1.6653  1.0000</r>
       <r>   2.2843  1.0000</r>
       <r>   2.5645  1.0000</r>
       <r>   5.2940  1.0000</r>
       <r>   6.2600  1.0000</r>
       <r>  14.4311  0.0000</r>
       <r>  22.9770  0.0000</r>
       <r>  24.3562  0.0000</r>
      </set>
      <set comment="kpoint 8">
       <r>  -0.5512  1.0000</r>
       <r>   1.5459  1.0000</r>
       <r>   2.3753  1.0000</r>
       <r>   3.3117  1.0000</r>
       <r>   5.1192  1.0000</r>
       <r>   8.3622  0.0000</r>
       <r>  11.4145  0.0000</r>
       <r>  21.9682  0.0000</r>
       <r>  24.0495  0.0000</r>
      </set>
      <set comment="kpoint 9">
       <r>  -0.5680  1.0000</r>
       <r>   1.7338  1.0000</r>
       <r>   2.0962  1.0000</r>
       <r>   2.5563  1.0000</r>
       <r>   3.9655  1.0000</r>
       <r>   6.0584  1.0000</r>
       <r>  16.5126  0.0000</r>
       <r>  22.1442  0.0000</r>
       <r>  24.8586  0.0000</r>
      </set>
      <set comment="kpoint 10">
       <r>  -1.8760  1.0000</r>
       <r>   1.3567  1.0000</r>
       <r>   2.3660  1.0000</r>
       <r>   2.6496  1.0000</r>
       <r>   3.2366  1.0000</r>
       <r>   4.5031  1.0000</r>
       <r>  21.6636  0.0000</r>
       <r>  23.4175  0.0000</r>
       <r>  26.9518  0.0000</r>
      </set>
      <set comment="kpoint 11">
       <r>  -0.7563  1.0000</r>
       <r>   0.3158  1.0000</r>
       <r>   3.0383  1.0000</r>
       <r>   3.8819  1.0000</r>
       <r>   3.8819  1.0000</r>
       <r>   4.6878  1.0000</r>
       <r>  22.3214  0.0000</r>
       <r>  22.3214  0.0000</r>
       <r>  23.4902  0.0000</r>
      </set>
      <set comment="kpoint 12">
       <r>  -0.3397  1.0000</r>
       <r>   0.2192  1.0000</r>
       <r>   2.9364  1.0000</r>
       <r>   3.9724  1.0000</r>
       <r>   5.3728  1.0000</r>
       <r>   6.6042  0.9784</r>
       <r>  16.7745  0.0000</r>
       <r>  20.4970  0.0000</r>
       <r>  20.9506  0.0000</r>
      </set>
      <set comment="kpoint 13">
       <r>  -0.0421  1.0000</r>
       <r>   0.8954  1.0000</r>
       <r>   2.4821  1.0000</r>
       <r>   3.6078  1.0000</r>
       <r>   5.2249  1.0000</r>
       <r>  11.0756  0.0000</r>
       <r>  11.6562  0.0000</r>
       <r>  17.8739  0.0000</r>
       <r>  22.1118  0.0000</r>
      </set>
      <set comment="kpoint 14">
       <r>   0.4788  1.0000</r>
       <r>   1.4928  1.0000</r>
       <r>   1.5635  1.0000</r>
       <r>   3.2516  1.0000</r>
       <r>   4.2384  1.0000</r>
       <r>   8.4619  0.0000</r>
       <r>  15.8395  0.0000</r>
       <r>  16.8723  0.0000</r>
       <r>  25.1099  0.0000</r>
      </set>
      <set comment="kpoint 15">
       <r>  -0.8202  1.0000</r>
       <r>  -0.4411  1.0000</r>
       <r>   5.2020  1.0000</r>
       <r>   5.4448  1.0000</r>
       <r>   5.4448  1.0000</r>
       <r>   6.7467  0.5031</r>
       <r>  16.0987  0.0000</r>
       <r>  18.6323  0.0000</r>
       <r>  18.6323  0.0000</r>
      </set>
      <set comment="kpoint 16">
       <r>  -0.6130  1.0000</r>
       <r>  -0.1853  1.0000</r>
       <r>   4.2630  1.0000</r>
       <r>   4.8356  1.0000</r>
       <r>   5.5434  1.0000</r>
       <r>  10.1256  0.0000</r>
       <r>  13.4796  0.0000</r>
       <r>  16.7051  0.0000</r>
       <r>  19.1281  0.0000</r>
      </set>
      <set comment="kpoint 17">
       <r>  -0.0337  1.0000</r>
       <r>   0.7258  1.0000</r>
       <r>   1.7610  1.0000</r>
       <r>   3.7791  1.0000</r>
       <r>   3.8788  1.0000</r>
       <r>   6.1610  1.0000</r>
       <r>  18.4240  0.0000</r>
       <r>  20.3868  0.0000</r>
       <r>  23.6456  0.0000</r>
      </set>
      <set comment="kpoint 18">
       <r>   0.3123  1.0000</r>
       <r>   1.0452  1.0000</r>
       <r>   1.8474  1.0000</r>
       <r>   3.3634  1.0000</r>
       <r>   5.0048  1.0000</r>
       <r>   9.0126  0.0000</r>
       <r>  13.4447  0.0000</r>
       <r>  19.4602  0.0000</r>
       <r>  21.5318  0.0000</r>
      </set>
      <set comment="kpoint 19">
       <r>  -0.1224  1.0000</r>
       <r>   0.1720  1.0000</r>
       <r>   2.8519  1.0000</r>
       <r>   4.4843  1.0000</r>
       <r>   5.4389  1.0000</r>
       <r>   9.5496  0.0000</r>
       <r>  14.9355  0.0000</r>
       <r>  17.2212  0.0000</r>
       <r>  18.6674  0.0000</r>
      </set>
      <set comment="kpoint 20">
       <r>   0.3376  1.0000</r>
       <r>   0.9253  1.0000</r>
       <r>   1.9265  1.0000</r>
       <r>   3.7321  1.0000</r>
       <r>   5.4305  1.0000</r>
       <r>  11.7300  0.0000</r>
       <r>  13.7887  0.0000</r>
       <r>  15.2327  0.0000</r>
       <r>  19.2968  0.0000</r>
      </set>
     </set>
    </set>
   </array>
  </eigenvalues>
  <dos>
   <i name="efermi""      6.74720642</i>
   <total>
    <array>
     <dimension dim="1">gridpoints</dimension>
     <dimension dim="2">spin</dimension>
     <field>energy</field>
     <field>total</field>
     <field>integrated</field>
     <set>
      <set comment="spin 1">
       <r>  -5.4190   0.0000   0.0000 </r>
       <r>  -5.2992   0.0000   0.0000 </r>
       <r>  -5.1794   0.0000   0.0000 </r>
       <r>  -5.0597   0.0000   0.0000 </r>
       <r>  -4.9399   0.0000   0.0000 </r>
       <r>  -4.8201   0.0000   0.0000 </r>
       <r>  -4.7003   0.0000   0.0000 </r>
       <r>  -4.5805   0.0000   0.0000 </r>
       <r>  -4.4607   0.0000   0.0000 </r>
       <r>  -4.3409   0.0000   0.0000 </r>
       <r>  -4.2211   0.0000   0.0000 </r>
       <r>  -4.1013   0.0000   0.0000 </r>
       <r>  -3.9816   0.0001   0.0000 </r>
       <r>  -3.8618   0.0067   0.0008 </r>
       <r>  -3.7420   0.0287   0.0043 </r>
       <r>  -3.6222   0.0126   0.0058 </r>
       <r>  -3.5024   0.0005   0.0058 </r>
       <r>  -3.3826   0.0000   0.0058 </r>
       <r>  -3.2628   0.0001   0.0058 </r>
       <r>  -3.1430   0.0158   0.0077 </r>
       <r>  -3.0233   0.1716   0.0283 </r>
       <r>  -2.9035   0.1881   0.0508 </r>
       <r>  -2.7837   0.1163   0.0648 </r>
       <r>  -2.6639   0.1619   0.0842 </r>
       <r>  -2.5441   0.0273   0.0874 </r>
       <r>  -2.4243   0.0004   0.0875 </r>
       <r>  -2.3045   0.0000   0.0875 </r>
       <r>  -2.1847   0.0000   0.0875 </r>
       <r>  -2.0649   0.0022   0.0877 </r>
       <r>  -1.9452   0.0936   0.0989 </r>
       <r>  -1.8254   0.3499   0.1409 </r>
       <r>  -1.7056   0.1342   0.1569 </r>
       <r>  -1.5858   0.0389   0.1616 </r>
       <r>  -1.4660   0.2540   0.1920 </r>
       <r>  -1.3462   0.6259   0.2670 </r>
       <r>  -1.2264   0.6024   0.3392 </r>
       <r>  -1.1066   0.2630   0.3707 </r>
       <r>  -0.9869   0.1581   0.3896 </r>
       <r>  -0.8671   0.1003   0.4016 </r>
       <r>  -0.7473   0.3588   0.4446 </r>
       <r>  -0.6275   1.1092   0.5775 </r>
       <r>  -0.5077   2.4437   0.8702 </r>
       <r>  -0.3879   1.1649   1.0097 </r>
       <r>  -0.2681   0.8759   1.1147 </r>
       <r>  -0.1483   1.0497   1.2404 </r>
       <r>  -0.0286   1.9706   1.4765 </r>
       <r>   0.0912   1.2683   1.6284 </r>
       <r>   0.2110   1.4891   1.8068 </r>
       <r>   0.3308   2.7856   2.1404 </r>
       <r>   0.4506   1.8175   2.3582 </r>
       <r>   0.5704   0.4731   2.4148 </r>
       <r>   0.6902   0.4023   2.4630 </r>
       <r>   0.8100   0.8648   2.5666 </r>
       <r>   0.9298   1.4988   2.7462 </r>
       <r>   1.0495   2.3575   3.0286 </r>
       <r>   1.1693   1.7284   3.2356 </r>
       <r>   1.2891   0.3116   3.2729 </r>
       <r>   1.4089   0.5953   3.3442 </r>
       <r>   1.5287   1.2459   3.4935 </r>
       <r>   1.6485   1.8212   3.7116 </r>
       <r>   1.7683   2.5472   4.0168 </r>
       <r>   1.8881   2.8844   4.3623 </r>
       <r>   2.0078   2.1200   4.6162 </r>
       <r>   2.1276   1.4388   4.7886 </r>
       <r>   2.2474   1.9190   5.0184 </r>
       <r>   2.3672   2.8388   5.3585 </r>
       <r>   2.4870   2.4050   5.6466 </r>
       <r>   2.6068   2.3972   5.9337 </r>
       <r>   2.7266   1.1786   6.0749 </r>
       <r>   2.8464   1.4029   6.2430 </r>
       <r>   2.9661   1.5867   6.4330 </r>
       <r>   3.0859   0.6425   6.5100 </r>
       <r>   3.2057   0.6015   6.5821 </r>
       <r>   3.3255   2.1101   6.8348 </r>
       <r>   3.4453   2.0144   7.0761 </r>
       <r>   3.5651   0.6414   7.1530 </r>
       <r>   3.6849   1.2039   7.2972 </r>
       <r>   3.8047   2.4755   7.5937 </r>
       <r>   3.9245   3.1687   7.9733 </r>
       <r>   4.0442   2.1768   8.2340 </r>
       <r>   4.1640   0.7355   8.3221 </r>
       <r>   4.2838   1.1507   8.4600 </r>
       <r>   4.4036   0.8303   8.5594 </r>
       <r>   4.5234   1.4661   8.7351 </r>
       <r>   4.6432   1.2263   8.8819 </r>
       <r>   4.7630   0.3872   8.9283 </r>
       <r>   4.8828   0.6460   9.0057 </r>
       <r>   5.0025   1.4445   9.1787 </r>
       <r>   5.1223   1.9787   9.4158 </r>
       <r>   5.2421   2.1816   9.6771 </r>
       <r>   5.3619   2.2834   9.9506 </r>
       <r>   5.4817   2.6481  10.2678 </r>
       <r>   5.6015   1.1672  10.4076 </r>
       <r>   5.7213   0.1468  10.4252 </r>
       <r>   5.8411   0.0048  10.4258 </r>
       <r>   5.9608   0.0993  10.4377 </r>
       <r>   6.0806   0.7834  10.5315 </r>
       <r>   6.2004   1.3228  10.6900 </r>
       <r>   6.3202   1.0534  10.8162 </r>
       <r>   6.4400   0.2500  10.8461 </r>
       <r>   6.5598   0.3051  10.8827 </r>
       <r>   6.6796   0.7403  10.9714 </r>
       <r>   6.7994   0.3395  11.0120 </r>
       <r>   6.9192   0.0678  11.0202 </r>
       <r>   7.0389   0.0021  11.0204 </r>
       <r>   7.1587   0.0000  11.0204 </r>
       <r>   7.2785   0.0000  11.0204 </r>
       <r>   7.3983   0.0000  11.0204 </r>
       <r>   7.5181   0.0000  11.0204 </r>
       <r>   7.6379   0.0000  11.0204 </r>
       <r>   7.7577   0.0000  11.0204 </r>
       <r>   7.8775   0.0000  11.0204 </r>
       <r>   7.9972   0.0000  11.0204 </r>
       <r>   8.1170   0.0003  11.0204 </r>
       <r>   8.2368   0.0446  11.0258 </r>
       <r>   8.3566   0.5421  11.0907 </r>
       <r>   8.4764   0.8587  11.1936 </r>
       <r>   8.5962   0.2893  11.2282 </r>
       <r>   8.7160   0.0173  11.2303 </r>
       <r>   8.8358   0.0145  11.2321 </r>
       <r>   8.9555   0.4757  11.2890 </r>
       <r>   9.0753   1.4081  11.4577 </r>
       <r>   9.1951   0.4267  11.5088 </r>
       <r>   9.3149   0.0120  11.5103 </r>
       <r>   9.4347   0.0603  11.5175 </r>
       <r>   9.5545   0.5552  11.5840 </r>
       <r>   9.6743   0.5067  11.6447 </r>
       <r>   9.7941   0.0452  11.6501 </r>
       <r>   9.9139   0.0011  11.6502 </r>
       <r>  10.0336   0.0557  11.6569 </r>
       <r>  10.1534   0.3250  11.6958 </r>
       <r>  10.2732   0.1919  11.7188 </r>
       <r>  10.3930   0.0107  11.7201 </r>
       <r>  10.5128   0.0000  11.7201 </r>
       <r>  10.6326   0.0000  11.7201 </r>
       <r>  10.7524   0.0000  11.7201 </r>
       <r>  10.8722   0.0023  11.7204 </r>
       <r>  10.9919   0.1360  11.7367 </r>
       <r>  11.1117   0.6740  11.8174 </r>
       <r>  11.2315   0.3455  11.8588 </r>
       <r>  11.3513   0.2273  11.8860 </r>
       <r>  11.4711   0.7092  11.9710 </r>
       <r>  11.5909   0.4711  12.0274 </r>
       <r>  11.7107   1.1397  12.1640 </r>
       <r>  11.8305   0.8689  12.2680 </r>
       <r>  11.9502   0.0978  12.2798 </r>
       <r>  12.0700   0.0011  12.2799 </r>
       <r>  12.1898   0.0000  12.2799 </r>
       <r>  12.3096   0.0003  12.2799 </r>
       <r>  12.4294   0.0248  12.2829 </r>
       <r>  12.5492   0.1966  12.3064 </r>
       <r>  12.6690   0.1557  12.3251 </r>
       <r>  12.7888   0.0119  12.3265 </r>
       <r>  12.9086   0.0001  12.3265 </r>
       <r>  13.0283   0.0000  12.3265 </r>
       <r>  13.1481   0.0000  12.3265 </r>
       <r>  13.2679   0.0153  12.3284 </r>
       <r>  13.3877   0.5322  12.3921 </r>
       <r>  13.5075   1.7332  12.5997 </r>
       <r>  13.6273   0.6308  12.6753 </r>
       <r>  13.7471   0.3339  12.7153 </r>
       <r>  13.8669   0.6864  12.7975 </r>
       <r>  13.9866   0.1541  12.8160 </r>
       <r>  14.1064   0.0030  12.8163 </r>
       <r>  14.2262   0.0022  12.8166 </r>
       <r>  14.3460   0.1314  12.8323 </r>
       <r>  14.4658   0.6703  12.9126 </r>
       <r>  14.5856   0.3475  12.9542 </r>
       <r>  14.7054   0.0175  12.9563 </r>
       <r>  14.8252   0.0687  12.9646 </r>
       <r>  14.9449   0.5769  13.0337 </r>
       <r>  15.0647   0.4928  13.0927 </r>
       <r>  15.1845   0.3187  13.1309 </r>
       <r>  15.3043   0.6971  13.2144 </r>
       <r>  15.4241   0.1776  13.2357 </r>
       <r>  15.5439   0.0040  13.2362 </r>
       <r>  15.6637   0.0038  13.2366 </r>
       <r>  15.7835   0.1213  13.2511 </r>
       <r>  15.9033   0.3527  13.2934 </r>
       <r>  16.0230   0.1452  13.3108 </r>
       <r>  16.1428   0.1755  13.3318 </r>
       <r>  16.2626   0.0751  13.3408 </r>
       <r>  16.3824   0.0410  13.3457 </r>
       <r>  16.5022   0.4785  13.4030 </r>
       <r>  16.6220   0.6685  13.4831 </r>
       <r>  16.7418   0.7851  13.5771 </r>
       <r>  16.8616   1.0718  13.7055 </r>
       <r>  16.9813   0.4249  13.7564 </r>
       <r>  17.1011   0.0894  13.7671 </r>
       <r>  17.2209   0.5302  13.8307 </r>
       <r>  17.3407   0.5329  13.8945 </r>
       <r>  17.4605   0.0528  13.9008 </r>
       <r>  17.5803   0.0004  13.9009 </r>
       <r>  17.7001   0.0081  13.9019 </r>
       <r>  17.8199   0.2518  13.9320 </r>
       <r>  17.9397   0.7043  14.0164 </r>
       <r>  18.0594   0.2675  14.0484 </r>
       <r>  18.1792   0.2395  14.0771 </r>
       <r>  18.2990   0.1289  14.0925 </r>
       <r>  18.4188   0.5088  14.1535 </r>
       <r>  18.5386   0.6499  14.2313 </r>
       <r>  18.6584   0.8677  14.3353 </r>
       <r>  18.7782   0.7720  14.4277 </r>
       <r>  18.8980   0.0795  14.4373 </r>
       <r>  19.0177   0.0350  14.4415 </r>
       <r>  19.1375   0.3025  14.4777 </r>
       <r>  19.2573   0.5689  14.5458 </r>
       <r>  19.3771   0.9770  14.6629 </r>
       <r>  19.4969   1.4977  14.8423 </r>
       <r>  19.6167   0.6768  14.9233 </r>
       <r>  19.7365   0.0313  14.9271 </r>
       <r>  19.8563   0.0001  14.9271 </r>
       <r>  19.9760   0.0000  14.9271 </r>
       <r>  20.0958   0.0000  14.9271 </r>
       <r>  20.2156   0.0091  14.9282 </r>
       <r>  20.3354   0.2928  14.9633 </r>
       <r>  20.4552   1.3489  15.1249 </r>
       <r>  20.5750   1.5518  15.3108 </r>
       <r>  20.6948   0.2968  15.3463 </r>
       <r>  20.8146   0.0370  15.3507 </r>
       <r>  20.9344   0.4461  15.4042 </r>
       <r>  21.0541   0.6068  15.4769 </r>
       <r>  21.1739   0.0827  15.4868 </r>
       <r>  21.2937   0.0018  15.4870 </r>
       <r>  21.4135   0.1093  15.5001 </r>
       <r>  21.5333   1.0962  15.6314 </r>
       <r>  21.6531   1.2867  15.7855 </r>
       <r>  21.7729   0.3944  15.8328 </r>
       <r>  21.8927   0.2009  15.8568 </r>
       <r>  22.0124   0.8202  15.9551 </r>
       <r>  22.1322   1.4100  16.1240 </r>
       <r>  22.2520   1.2909  16.2786 </r>
       <r>  22.3718   0.6309  16.3542 </r>
       <r>  22.4916   0.1536  16.3726 </r>
       <r>  22.6114   0.0059  16.3733 </r>
       <r>  22.7312   0.0173  16.3754 </r>
       <r>  22.8510   0.0697  16.3837 </r>
       <r>  22.9707   0.5034  16.4440 </r>
       <r>  23.0905   0.5623  16.5114 </r>
       <r>  23.2103   0.0830  16.5213 </r>
       <r>  23.3301   0.2489  16.5511 </r>
       <r>  23.4499   0.5874  16.6215 </r>
       <r>  23.5697   0.5795  16.6909 </r>
       <r>  23.6895   0.9657  16.8066 </r>
       <r>  23.8093   0.4062  16.8553 </r>
       <r>  23.9291   0.1010  16.8673 </r>
       <r>  24.0488   0.8420  16.9682 </r>
       <r>  24.1686   0.8431  17.0692 </r>
       <r>  24.2884   0.2760  17.1023 </r>
       <r>  24.4082   0.7048  17.1867 </r>
       <r>  24.5280   0.4170  17.2366 </r>
       <r>  24.6478   0.6978  17.3202 </r>
       <r>  24.7676   0.4230  17.3709 </r>
       <r>  24.8874   0.6661  17.4507 </r>
       <r>  25.0071   0.4218  17.5012 </r>
       <r>  25.1269   0.3943  17.5485 </r>
       <r>  25.2467   0.8941  17.6555 </r>
       <r>  25.3665   0.6701  17.7358 </r>
       <r>  25.4863   0.0631  17.7434 </r>
       <r>  25.6061   0.0005  17.7434 </r>
       <r>  25.7259   0.0000  17.7434 </r>
       <r>  25.8457   0.0000  17.7434 </r>
       <r>  25.9654   0.0000  17.7434 </r>
       <r>  26.0852   0.0000  17.7434 </r>
       <r>  26.2050   0.0003  17.7435 </r>
       <r>  26.3248   0.0223  17.7461 </r>
       <r>  26.4446   0.1877  17.7686 </r>
       <r>  26.5644   0.3211  17.8071 </r>
       <r>  26.6842   0.1419  17.8241 </r>
       <r>  26.8040   0.0188  17.8263 </r>
       <r>  26.9238   0.1914  17.8493 </r>
       <r>  27.0435   0.3253  17.8882 </r>
       <r>  27.1633   0.0563  17.8950 </r>
       <r>  27.2831   0.0162  17.8969 </r>
       <r>  27.4029   0.0583  17.9039 </r>
       <r>  27.5227   0.0225  17.9066 </r>
       <r>  27.6425   0.0008  17.9067 </r>
       <r>  27.7623   0.0000  17.9067 </r>
       <r>  27.8821   0.0000  17.9067 </r>
       <r>  28.0018   0.0000  17.9067 </r>
       <r>  28.1216   0.0086  17.9077 </r>
       <r>  28.2414   0.1376  17.9242 </r>
       <r>  28.3612   0.2104  17.9494 </r>
       <r>  28.4810   0.0324  17.9533 </r>
       <r>  28.6008   0.0004  17.9534 </r>
       <r>  28.7206   0.0041  17.9538 </r>
       <r>  28.8404   0.1007  17.9659 </r>
       <r>  28.9601   0.2300  17.9934 </r>
       <r>  29.0799   0.0536  17.9999 </r>
       <r>  29.1997   0.0011  18.0000 </r>
       <r>  29.3195   0.0000  18.0000 </r>
       <r>  29.4393   0.0000  18.0000 </r>
       <r>  29.5591   0.0000  18.0000 </r>
       <r>  29.6789   0.0000  18.0000 </r>
       <r>  29.7987   0.0000  18.0000 </r>
       <r>  29.9185   0.0000  18.0000 </r>
       <r>  30.0382   0.0000  18.0000 </r>
       <r>  30.1580   0.0000  18.0000 </r>
       <r>  30.2778   0.0000  18.0000 </r>
       <r>  30.3976   0.0000  18.0000 </r>
       <r>  30.5174   0.0000  18.0000 </r>
      </set>
     </set>
    </array>
   </total>
   <partial>
    <array>
     <dimension dim="1">gridpoints</dimension>
     <dimension dim="2">spin</dimension>
     <dimension dim="3">ion</dimension>
     <field>energy</field>
     <field>  s</field>
     <field> py</field>
     <field> pz</field>
     <field> px</field>
     <field>dxy</field>
     <field>dyz</field>
     <field>dz2</field>
     <field>dxz</field>
     <field>dx2</field>
     <set>
      <set comment="ion 1">
       <set comment="spin 1">
        <r>  -5.4190   0.0000   0.0000   0.0000   0.0000   0.0000   0.0000   0.0000   0.0000   0.0000 </r>
        <r>  -5.2992   0.0000   0.0000   0.0000   0.0000   0.0000   0.0000   0.0000   0.0000   0.0000 </r>
        <r>  -5.1794   0.0000   0.0000   0.0000   0.0000   0.0000   0.0000   0.0000   0.0000   0.0000 </r>
        <r>  -5.0597   0.0000   0.0000   0.0000   0.0000   0.0000   0.0000   0.0000   0.0000   0.0000 </r>
        <r>  -4.9399   0.0000   0.0000   0.0000   0.0000   0.0000   0.0000   0.0000   0.0000   0.0000 </r>
        <r>  -4.8201   0.0000   0.0000   0.0000   0.0000   0.0000   0.0000   0.0000   0.0000   0.0000 </r>
        <r>  -4.7003   0.0000   0.0000   0.0000   0.0000   0.0000   0.0000   0.0000   0.0000   0.0000 </r>
        <r>  -4.5805   0.0000   0.0000   0.0000   0.0000   0.0000   0.0000   0.0000   0.0000   0.0000 </r>
        <r>  -4.4607   0.0000   0.0000   0.0000   0.0000   0.0000   0.0000   0.0000   0.0000   0.0000 </r>
        <r>  -4.3409   0.0000   0.0000   0.0000   0.0000   0.0000   0.0000   0.0000   0.0000   0.0000 </r>
        <r>  -4.2211   0.0000   0.0000   0.0000   0.0000   0.0000   0.0000   0.0000   0.0000   0.0000 </r>
        <r>  -4.1013   0.0000   0.0000   0.0000   0.0000   0.0000   0.0000   0.0000   0.0000   0.0000 </r>
        <r>  -3.9816   0.0001   0.0000   0.0000   0.0000   0.0000   0.0000   0.0000   0.0000   0.0000 </r>
        <r>  -3.8618   0.0046   0.0000   0.0000   0.0000   0.0000   0.0000   0.0000   0.0000   0.0000 </r>
        <r>  -3.7420   0.0198   0.0000   0.0000   0.0000   0.0000   0.0000   0.0000   0.0000   0.0000 </r>
        <r>  -3.6222   0.0087   0.0000   0.0000   0.0000   0.0000   0.0000   0.0000   0.0000   0.0000 </r>
        <r>  -3.5024   0.0003   0.0000   0.0000   0.0000   0.0000   0.0000   0.0000   0.0000   0.0000 </r>
        <r>  -3.3826   0.0000   0.0000   0.0000   0.0000   0.0000   0.0000   0.0000   0.0000   0.0000 </r>
        <r>  -3.2628   0.0001   0.0000   0.0000   0.0000   0.0000   0.0000   0.0000   0.0000   0.0000 </r>
        <r>  -3.1430   0.0102   0.0002   0.0002   0.0002   0.0000   0.0000   0.0000   0.0000   0.0000 </r>
        <r>  -3.0233   0.1109   0.0020   0.0020   0.0020   0.0005   0.0005   0.0000   0.0005   0.0000 </r>
        <r>  -2.9035   0.1215   0.0021   0.0024   0.0021   0.0006   0.0006   0.0000   0.0006   0.0000 </r>
        <r>  -2.7837   0.0738   0.0002   0.0049   0.0002   0.0001   0.0001   0.0008   0.0001   0.0000 </r>
        <r>  -2.6639   0.1023   0.0000   0.0078   0.0000   0.0000   0.0000   0.0014   0.0000   0.0000 </r>
        <r>  -2.5441   0.0172   0.0000   0.0013   0.0000   0.0000   0.0000   0.0002   0.0000   0.0000 </r>
        <r>  -2.4243   0.0002   0.0000   0.0000   0.0000   0.0000   0.0000   0.0000   0.0000   0.0000 </r>
        <r>  -2.3045   0.0000   0.0000   0.0000   0.0000   0.0000   0.0000   0.0000   0.0000   0.0000 </r>
        <r>  -2.1847   0.0000   0.0000   0.0000   0.0000   0.0000   0.0000   0.0000   0.0000   0.0000 </r>
        <r>  -2.0649   0.0013   0.0001   0.0000   0.0001   0.0001   0.0000   0.0000   0.0000   0.0000 </r>
        <r>  -1.9452   0.0533   0.0038   0.0000   0.0038   0.0040   0.0000   0.0004   0.0000   0.0000 </r>
        <r>  -1.8254   0.1994   0.0141   0.0000   0.0141   0.0150   0.0000   0.0015   0.0000   0.0000 </r>
        <r>  -1.7056   0.0764   0.0054   0.0000   0.0054   0.0058   0.0000   0.0006   0.0000   0.0000 </r>
        <r>  -1.5858   0.0180   0.0008   0.0006   0.0008   0.0030   0.0028   0.0000   0.0028   0.0000 </r>
        <r>  -1.4660   0.1156   0.0041   0.0072   0.0041   0.0182   0.0185   0.0019   0.0185   0.0000 </r>
        <r>  -1.3462   0.3048   0.0054   0.0424   0.0054   0.0211   0.0244   0.0221   0.0244   0.0000 </r>
        <r>  -1.2264   0.2928   0.0036   0.0464   0.0036   0.0174   0.0212   0.0256   0.0212   0.0000 </r>
        <r>  -1.1066   0.0776   0.0007   0.0056   0.0007   0.0408   0.0413   0.0030   0.0413   0.0000 </r>
        <r>  -0.9869   0.0358   0.0003   0.0003   0.0003   0.0309   0.0309   0.0020   0.0309   0.0000 </r>
        <r>  -0.8671   0.0143   0.0000   0.0021   0.0000   0.0024   0.0024   0.0572   0.0024   0.0000 </r>
        <r>  -0.7473   0.0693   0.0003   0.0146   0.0003   0.0084   0.0032   0.1829   0.0032   0.0000 </r>
        <r>  -0.6275   0.2250   0.0085   0.0246   0.0085   0.2117   0.0965   0.2293   0.0965   0.0000 </r>
        <r>  -0.5077   0.5034   0.0269   0.0336   0.0269   0.6107   0.2885   0.2285   0.2885   0.0000 </r>
        <r>  -0.3879   0.1872   0.0092   0.0171   0.0092   0.3874   0.0990   0.1610   0.0990   0.0000 </r>
        <r>  -0.2681   0.0890   0.0023   0.0212   0.0018   0.2478   0.0085   0.3476   0.0085   0.0002 </r>
        <r>  -0.1483   0.0652   0.0152   0.0140   0.0042   0.3252   0.0089   0.4415   0.0025   0.0040 </r>
        <r>  -0.0286   0.2447   0.0323   0.0595   0.0024   0.4156   0.0658   0.7784   0.0090   0.0067 </r>
        <r>   0.0912   0.1936   0.0166   0.0504   0.0051   0.3802   0.0586   0.3235   0.0080   0.0013 </r>
        <r>   0.2110   0.0417   0.0093   0.0121   0.0290   1.0151   0.0380   0.1352   0.0173   0.0023 </r>
        <r>   0.3308   0.1447   0.0258   0.0411   0.0403   1.3487   0.2214   0.4675   0.0858   0.0262 </r>
        <r>   0.4506   0.1232   0.0226   0.0274   0.0214   0.6975   0.1548   0.4204   0.0582   0.0298 </r>
        <r>   0.5704   0.0470   0.0073   0.0018   0.0070   0.2512   0.0105   0.0745   0.0050   0.0034 </r>
        <r>   0.6902   0.0069   0.0010   0.0000   0.0106   0.3091   0.0001   0.0072   0.0233   0.0000 </r>
        <r>   0.8100   0.0008   0.0069   0.0000   0.0277   0.6057   0.0028   0.0705   0.0483   0.0023 </r>
        <r>   0.9298   0.0067   0.0450   0.0002   0.0652   0.6247   0.0316   0.4497   0.0243   0.0366 </r>
        <r>   1.0495   0.0120   0.0625   0.0024   0.0534   0.7135   0.1774   0.8266   0.0249   0.1695 </r>
        <r>   1.1693   0.0102   0.0375   0.0039   0.0143   0.5507   0.1650   0.5692   0.0245   0.1404 </r>
        <r>   1.2891   0.0016   0.0038   0.0026   0.0016   0.0995   0.0591   0.0513   0.0464   0.0125 </r>
        <r>   1.4089   0.0025   0.0043   0.0077   0.0043   0.1325   0.1620   0.0623   0.1619   0.0001 </r>
        <r>   1.5287   0.0123   0.0233   0.0178   0.0233   0.1932   0.1619   0.5016   0.1617   0.0000 </r>
        <r>   1.6485   0.0122   0.0205   0.0347   0.0201   0.1520   0.2915   0.8160   0.2669   0.0051 </r>
        <r>   1.7683   0.0458   0.0231   0.0506   0.0251   0.3240   0.6308   0.8013   0.3329   0.0470 </r>
        <r>   1.8881   0.0708   0.0344   0.1130   0.0575   0.6286   0.9757   0.4069   0.1773   0.0806 </r>
        <r>   2.0078   0.0350   0.0211   0.1016   0.0331   0.3535   0.8237   0.2342   0.1442   0.1333 </r>
        <r>   2.1276   0.0531   0.0394   0.0402   0.0399   0.2043   0.2720   0.3802   0.1619   0.0580 </r>
        <r>   2.2474   0.0508   0.0328   0.0315   0.0328   0.4714   0.3013   0.4021   0.2994   0.1009 </r>
        <r>   2.3672   0.0581   0.0316   0.0467   0.0316   0.7111   0.3879   0.5565   0.3879   0.3681 </r>
        <r>   2.4870   0.0245   0.0125   0.0687   0.0125   0.3074   0.5198   0.1987   0.5198   0.5371 </r>
        <r>   2.6068   0.0113   0.0059   0.0554   0.0059   0.0655   0.6319   0.0107   0.6317   0.7988 </r>
        <r>   2.7266   0.0029   0.0023   0.0096   0.0023   0.0045   0.3808   0.0007   0.3516   0.3486 </r>
        <r>   2.8464   0.0320   0.0042   0.0643   0.0036   0.0028   0.6459   0.0187   0.3134   0.1970 </r>
        <r>   2.9661   0.0971   0.0027   0.1340   0.0021   0.0158   0.6506   0.1087   0.2815   0.1106 </r>
        <r>   3.0859   0.0695   0.0005   0.0662   0.0004   0.0092   0.1395   0.1484   0.0989   0.0218 </r>
        <r>   3.2057   0.0142   0.0057   0.0156   0.0057   0.0213   0.0142   0.1281   0.0197   0.3252 </r>
        <r>   3.3255   0.0028   0.0405   0.0536   0.0395   0.1718   0.0686   0.3320   0.1989   1.0090 </r>
        <r>   3.4453   0.0016   0.0330   0.0593   0.0311   0.1545   0.0555   0.2593   0.3228   0.9167 </r>
        <r>   3.5651   0.0005   0.0049   0.0084   0.0045   0.0164   0.0348   0.0391   0.0906   0.3981 </r>
        <r>   3.6849   0.0101   0.0055   0.0038   0.0059   0.0047   0.0741   0.0978   0.0759   0.8540 </r>
        <r>   3.8047   0.0422   0.0090   0.0266   0.0090   0.0357   0.1319   0.4730   0.2616   1.3370 </r>
        <r>   3.9245   0.0407   0.0129   0.0295   0.0191   0.0931   0.5027   0.4347   1.0842   0.7745 </r>
        <r>   4.0442   0.0093   0.0084   0.0062   0.0118   0.0352   0.4942   0.0897   0.7419   0.6729 </r>
        <r>   4.1640   0.0003   0.0015   0.0064   0.0017   0.0112   0.1584   0.0244   0.1680   0.3310 </r>
        <r>   4.2838   0.0000   0.0004   0.0417   0.0004   0.0563   0.3440   0.1256   0.3439   0.1742 </r>
        <r>   4.4036   0.0008   0.0015   0.0311   0.0005   0.0454   0.1932   0.1051   0.1866   0.2190 </r>
        <r>   4.5234   0.0054   0.0069   0.0161   0.0021   0.0913   0.0901   0.2219   0.0589   0.9126 </r>
        <r>   4.6432   0.0035   0.0040   0.0068   0.0017   0.0610   0.0838   0.1454   0.0689   0.8076 </r>
        <r>   4.7630   0.0014   0.0024   0.0021   0.0023   0.0045   0.0109   0.0093   0.0106   0.3290 </r>
        <r>   4.8828   0.0151   0.0248   0.0237   0.0251   0.0130   0.0131   0.0033   0.0673   0.3921 </r>
        <r>   5.0025   0.0204   0.0301   0.0317   0.0337   0.0807   0.0973   0.0358   0.6729   0.3374 </r>
        <r>   5.1223   0.0042   0.0044   0.0064   0.0081   0.1111   0.3179   0.0739   0.9181   0.4730 </r>
        <r>   5.2421   0.0002   0.0007   0.0005   0.0011   0.0960   0.5749   0.0984   0.6435   0.7188 </r>
        <r>   5.3619   0.0000   0.0010   0.0008   0.0020   0.0240   0.5601   0.0242   0.8754   0.7526 </r>
        <r>   5.4817   0.0000   0.0016   0.0028   0.0057   0.0069   0.4705   0.0005   1.7347   0.3746 </r>
        <r>   5.6015   0.0000   0.0006   0.0011   0.0024   0.0028   0.2899   0.0000   0.8121   0.0361 </r>
        <r>   5.7213   0.0000   0.0000   0.0000   0.0001   0.0001   0.0619   0.0000   0.0818   0.0003 </r>
        <r>   5.8411   0.0001   0.0000   0.0000   0.0000   0.0006   0.0017   0.0004   0.0018   0.0000 </r>
        <r>   5.9608   0.0082   0.0027   0.0005   0.0027   0.0439   0.0014   0.0330   0.0002   0.0006 </r>
        <r>   6.0806   0.0669   0.0200   0.0102   0.0175   0.2864   0.0710   0.2292   0.0022   0.0303 </r>
        <r>   6.2004   0.1242   0.0303   0.0551   0.0189   0.1956   0.3629   0.2516   0.0428   0.1409 </r>
        <r>   6.3202   0.1079   0.0295   0.0805   0.0241   0.0352   0.2827   0.1804   0.1311   0.0667 </r>
        <r>   6.4400   0.0267   0.0078   0.0231   0.0076   0.0075   0.0508   0.0475   0.0441   0.0029 </r>
        <r>   6.5598   0.0428   0.0037   0.0457   0.0037   0.0014   0.0637   0.0391   0.0637   0.0000 </r>
        <r>   6.6796   0.1047   0.0080   0.1266   0.0080   0.0027   0.1453   0.0918   0.1453   0.0000 </r>
        <r>   6.7994   0.0491   0.0019   0.1072   0.0019   0.0006   0.0345   0.0355   0.0345   0.0000 </r>
        <r>   6.9192   0.0100   0.0000   0.0309   0.0000   0.0000   0.0007   0.0058   0.0007   0.0000 </r>
        <r>   7.0389   0.0003   0.0000   0.0010   0.0000   0.0000   0.0000   0.0002   0.0000   0.0000 </r>
        <r>   7.1587   0.0000   0.0000   0.0000   0.0000   0.0000   0.0000   0.0000   0.0000   0.0000 </r>
        <r>   7.2785   0.0000   0.0000   0.0000   0.0000   0.0000   0.0000   0.0000   0.0000   0.0000 </r>
        <r>   7.3983   0.0000   0.0000   0.0000   0.0000   0.0000   0.0000   0.0000   0.0000   0.0000 </r>
        <r>   7.5181   0.0000   0.0000   0.0000   0.0000   0.0000   0.0000   0.0000   0.0000   0.0000 </r>
        <r>   7.6379   0.0000   0.0000   0.0000   0.0000   0.0000   0.0000   0.0000   0.0000   0.0000 </r>
        <r>   7.7577   0.0000   0.0000   0.0000   0.0000   0.0000   0.0000   0.0000   0.0000   0.0000 </r>
        <r>   7.8775   0.0000   0.0000   0.0000   0.0000   0.0000   0.0000   0.0000   0.0000   0.0000 </r>
        <r>   7.9972   0.0000   0.0000   0.0000   0.0000   0.0000   0.0000   0.0000   0.0000   0.0000 </r>
        <r>   8.1170   0.0000   0.0000   0.0000   0.0000   0.0001   0.0000   0.0001   0.0000   0.0000 </r>
        <r>   8.2368   0.0024   0.0052   0.0047   0.0052   0.0093   0.0002   0.0073   0.0002   0.0000 </r>
        <r>   8.3566   0.0366   0.0612   0.0536   0.0612   0.1185   0.0028   0.0868   0.0028   0.0000 </r>
        <r>   8.4764   0.1101   0.0823   0.0596   0.0823   0.2228   0.0031   0.1277   0.0031   0.0000 </r>
        <r>   8.5962   0.0649   0.0200   0.0066   0.0200   0.0938   0.0003   0.0378   0.0003   0.0000 </r>
        <r>   8.7160   0.0046   0.0010   0.0001   0.0010   0.0061   0.0000   0.0021   0.0000   0.0000 </r>
        <r>   8.8358   0.0033   0.0005   0.0019   0.0003   0.0000   0.0042   0.0014   0.0003   0.0004 </r>
        <r>   8.9555   0.1071   0.0176   0.0629   0.0083   0.0005   0.1369   0.0454   0.0105   0.0117 </r>
        <r>   9.0753   0.3169   0.0521   0.1862   0.0245   0.0014   0.4051   0.1343   0.0310   0.0346 </r>
        <r>   9.1951   0.0960   0.0158   0.0564   0.0074   0.0004   0.1228   0.0407   0.0094   0.0105 </r>
        <r>   9.3149   0.0027   0.0004   0.0017   0.0002   0.0000   0.0034   0.0011   0.0003   0.0003 </r>
        <r>   9.4347   0.0111   0.0005   0.0166   0.0000   0.0000   0.0166   0.0044   0.0000   0.0001 </r>
        <r>   9.5545   0.1025   0.0042   0.1527   0.0000   0.0000   0.1527   0.0409   0.0000   0.0013 </r>
        <r>   9.6743   0.0935   0.0038   0.1394   0.0000   0.0000   0.1393   0.0373   0.0000   0.0012 </r>
        <r>   9.7941   0.0083   0.0003   0.0124   0.0000   0.0000   0.0124   0.0033   0.0000   0.0001 </r>
        <r>   9.9139   0.0001   0.0000   0.0005   0.0000   0.0000   0.0002   0.0000   0.0001   0.0000 </r>
        <r>  10.0336   0.0000   0.0000   0.0283   0.0000   0.0000   0.0067   0.0000   0.0067   0.0000 </r>
        <r>  10.1534   0.0000   0.0000   0.1654   0.0000   0.0000   0.0392   0.0000   0.0392   0.0000 </r>
        <r>  10.2732   0.0000   0.0000   0.0976   0.0000   0.0000   0.0232   0.0000   0.0232   0.0000 </r>
        <r>  10.3930   0.0000   0.0000   0.0054   0.0000   0.0000   0.0013   0.0000   0.0013   0.0000 </r>
        <r>  10.5128   0.0000   0.0000   0.0000   0.0000   0.0000   0.0000   0.0000   0.0000   0.0000 </r>
        <r>  10.6326   0.0000   0.0000   0.0000   0.0000   0.0000   0.0000   0.0000   0.0000   0.0000 </r>
        <r>  10.7524   0.0000   0.0000   0.0000   0.0000   0.0000   0.0000   0.0000   0.0000   0.0000 </r>
        <r>  10.8722   0.0006   0.0000   0.0005   0.0000   0.0000   0.0003   0.0002   0.0003   0.0000 </r>
        <r>  10.9919   0.0370   0.0012   0.0269   0.0012   0.0004   0.0183   0.0106   0.0183   0.0000 </r>
        <r>  11.1117   0.1833   0.0061   0.1332   0.0061   0.0020   0.0908   0.0526   0.0908   0.0000 </r>
        <r>  11.2315   0.0950   0.0031   0.0674   0.0031   0.0014   0.0465   0.0266   0.0465   0.0000 </r>
        <r>  11.3513   0.1003   0.0020   0.0126   0.0020   0.0159   0.0299   0.0043   0.0299   0.0000 </r>
        <r>  11.4711   0.3211   0.0066   0.0318   0.0066   0.0537   0.0923   0.0104   0.0923   0.0000 </r>
        <r>  11.5909   0.1731   0.0255   0.0275   0.0279   0.0492   0.0315   0.0098   0.0315   0.0012 </r>
        <r>  11.7107   0.3879   0.0884   0.0588   0.1248   0.1480   0.0010   0.0219   0.0010   0.0187 </r>
        <r>  11.8305   0.3655   0.0413   0.0208   0.0938   0.1079   0.0000   0.0078   0.0000   0.0269 </r>
        <r>  11.9502   0.0460   0.0028   0.0007   0.0104   0.0118   0.0000   0.0003   0.0000   0.0039 </r>
        <r>  12.0700   0.0005   0.0000   0.0000   0.0001   0.0001   0.0000   0.0000   0.0000   0.0000 </r>
        <r>  12.1898   0.0000   0.0000   0.0000   0.0000   0.0000   0.0000   0.0000   0.0000   0.0000 </r>
        <r>  12.3096   0.0001   0.0000   0.0000   0.0000   0.0000   0.0000   0.0000   0.0000   0.0000 </r>
        <r>  12.4294   0.0095   0.0011   0.0011   0.0011   0.0027   0.0027   0.0000   0.0027   0.0000 </r>
        <r>  12.5492   0.0751   0.0085   0.0085   0.0085   0.0218   0.0218   0.0000   0.0218   0.0000 </r>
        <r>  12.6690   0.0594   0.0067   0.0067   0.0067   0.0172   0.0172   0.0000   0.0172   0.0000 </r>
        <r>  12.7888   0.0046   0.0005   0.0005   0.0005   0.0013   0.0013   0.0000   0.0013   0.0000 </r>
        <r>  12.9086   0.0000   0.0000   0.0000   0.0000   0.0000   0.0000   0.0000   0.0000   0.0000 </r>
        <r>  13.0283   0.0000   0.0000   0.0000   0.0000   0.0000   0.0000   0.0000   0.0000   0.0000 </r>
        <r>  13.1481   0.0000   0.0000   0.0000   0.0000   0.0000   0.0000   0.0000   0.0000   0.0000 </r>
        <r>  13.2679   0.0044   0.0011   0.0008   0.0020   0.0015   0.0001   0.0003   0.0007   0.0006 </r>
        <r>  13.3877   0.1630   0.0378   0.0277   0.0681   0.0506   0.0030   0.0143   0.0227   0.0202 </r>
        <r>  13.5075   0.5819   0.1160   0.0820   0.2053   0.1518   0.0090   0.0609   0.0670   0.0597 </r>
        <r>  13.6273   0.2345   0.0375   0.0314   0.0645   0.0472   0.0056   0.0293   0.0209   0.0181 </r>
        <r>  13.7471   0.0098   0.0011   0.1571   0.0019   0.0013   0.0690   0.0014   0.0145   0.0005 </r>
        <r>  13.8669   0.0000   0.0000   0.3443   0.0000   0.0000   0.1517   0.0000   0.0307   0.0000 </r>
        <r>  13.9866   0.0000   0.0000   0.0773   0.0000   0.0000   0.0341   0.0000   0.0069   0.0000 </r>
        <r>  14.1064   0.0000   0.0000   0.0015   0.0000   0.0000   0.0007   0.0000   0.0001   0.0000 </r>
        <r>  14.2262   0.0006   0.0002   0.0001   0.0002   0.0002   0.0001   0.0000   0.0001   0.0000 </r>
        <r>  14.3460   0.0366   0.0126   0.0077   0.0126   0.0127   0.0087   0.0010   0.0087   0.0000 </r>
        <r>  14.4658   0.1865   0.0642   0.0393   0.0642   0.0648   0.0441   0.0050   0.0441   0.0000 </r>
        <r>  14.5856   0.0967   0.0333   0.0204   0.0333   0.0336   0.0229   0.0026   0.0229   0.0000 </r>
        <r>  14.7054   0.0050   0.0017   0.0011   0.0016   0.0016   0.0011   0.0001   0.0011   0.0000 </r>
        <r>  14.8252   0.0301   0.0050   0.0110   0.0000   0.0000   0.0003   0.0015   0.0000   0.0030 </r>
        <r>  14.9449   0.2531   0.0417   0.0922   0.0000   0.0000   0.0022   0.0129   0.0000   0.0252 </r>
        <r>  15.0647   0.2135   0.0357   0.0771   0.0024   0.0006   0.0018   0.0129   0.0000   0.0211 </r>
        <r>  15.1845   0.0684   0.0249   0.0063   0.0665   0.0155   0.0001   0.0598   0.0000   0.0019 </r>
        <r>  15.3043   0.1277   0.0549   0.0000   0.1658   0.0387   0.0000   0.1469   0.0000   0.0006 </r>
        <r>  15.4241   0.0325   0.0140   0.0000   0.0423   0.0099   0.0000   0.0374   0.0000   0.0001 </r>
        <r>  15.5439   0.0007   0.0003   0.0000   0.0009   0.0002   0.0000   0.0008   0.0000   0.0000 </r>
        <r>  15.6637   0.0011   0.0005   0.0000   0.0005   0.0000   0.0000   0.0007   0.0000   0.0000 </r>
        <r>  15.7835   0.0347   0.0147   0.0000   0.0147   0.0006   0.0000   0.0215   0.0000   0.0000 </r>
        <r>  15.9033   0.1010   0.0428   0.0001   0.0428   0.0018   0.0000   0.0626   0.0000   0.0000 </r>
        <r>  16.0230   0.0486   0.0127   0.0066   0.0127   0.0005   0.0000   0.0276   0.0000   0.0000 </r>
        <r>  16.1428   0.0804   0.0003   0.0280   0.0003   0.0000   0.0000   0.0392   0.0000   0.0000 </r>
        <r>  16.2626   0.0346   0.0000   0.0121   0.0000   0.0000   0.0000   0.0168   0.0000   0.0000 </r>
        <r>  16.3824   0.0097   0.0035   0.0042   0.0035   0.0023   0.0026   0.0017   0.0026   0.0000 </r>
        <r>  16.5022   0.1048   0.0436   0.0465   0.0436   0.0295   0.0322   0.0136   0.0322   0.0000 </r>
        <r>  16.6220   0.1335   0.0693   0.0584   0.0693   0.0395   0.0397   0.0310   0.0397   0.0000 </r>
        <r>  16.7418   0.1076   0.1234   0.0498   0.1234   0.0334   0.0168   0.0741   0.0168   0.0000 </r>
        <r>  16.8616   0.1599   0.1236   0.1736   0.1236   0.0348   0.0571   0.0360   0.0571   0.0000 </r>
        <r>  16.9813   0.0295   0.0184   0.1468   0.0186   0.0056   0.0530   0.0017   0.0530   0.0000 </r>
        <r>  17.1011   0.0005   0.0003   0.0166   0.0274   0.0066   0.0061   0.0000   0.0078   0.0000 </r>
        <r>  17.2209   0.0000   0.0000   0.0002   0.2771   0.0671   0.0001   0.0000   0.0166   0.0000 </r>
        <r>  17.3407   0.0000   0.0000   0.0000   0.2787   0.0675   0.0000   0.0000   0.0166   0.0000 </r>
        <r>  17.4605   0.0000   0.0000   0.0000   0.0276   0.0067   0.0000   0.0000   0.0016   0.0000 </r>
        <r>  17.5803   0.0000   0.0000   0.0000   0.0002   0.0001   0.0000   0.0000   0.0000   0.0000 </r>
        <r>  17.7001   0.0009   0.0006   0.0016   0.0006   0.0001   0.0003   0.0018   0.0003   0.0000 </r>
        <r>  17.8199   0.0273   0.0174   0.0490   0.0174   0.0025   0.0099   0.0564   0.0099   0.0000 </r>
        <r>  17.9397   0.0766   0.0486   0.1368   0.0486   0.0070   0.0279   0.1573   0.0279   0.0000 </r>
        <r>  18.0594   0.0329   0.0198   0.0450   0.0198   0.0071   0.0131   0.0449   0.0131   0.0000 </r>
        <r>  18.1792   0.0395   0.0214   0.0221   0.0214   0.0181   0.0183   0.0011   0.0182   0.0000 </r>
        <r>  18.2990   0.0240   0.0165   0.0124   0.0076   0.0065   0.0094   0.0006   0.0065   0.0016 </r>
        <r>  18.4188   0.1132   0.1012   0.0550   0.0004   0.0002   0.0332   0.0074   0.0002   0.0183 </r>
        <r>  18.5386   0.1247   0.1357   0.0624   0.0143   0.0000   0.0384   0.0199   0.0008   0.0217 </r>
        <r>  18.6584   0.0188   0.2253   0.0321   0.0861   0.0000   0.0239   0.1461   0.0047   0.0199 </r>
        <r>  18.7782   0.0063   0.2034   0.0303   0.0525   0.0000   0.0209   0.1723   0.0029   0.0210 </r>
        <r>  18.8980   0.0007   0.0209   0.0036   0.0031   0.0000   0.0023   0.0203   0.0002   0.0025 </r>
        <r>  19.0177   0.0000   0.0093   0.0000   0.0091   0.0000   0.0000   0.0002   0.0000   0.0017 </r>
        <r>  19.1375   0.0001   0.0794   0.0000   0.0791   0.0007   0.0000   0.0021   0.0000   0.0155 </r>
        <r>  19.2573   0.0034   0.1260   0.0004   0.1198   0.0163   0.0000   0.0487   0.0003   0.0506 </r>
        <r>  19.3771   0.0272   0.1458   0.0210   0.2067   0.0588   0.0002   0.1030   0.0162   0.1008 </r>
        <r>  19.4969   0.1035   0.0793   0.1031   0.4530   0.1309   0.0012   0.0226   0.0796   0.1062 </r>
        <r>  19.6167   0.0510   0.0261   0.0515   0.2142   0.0618   0.0006   0.0006   0.0397   0.0445 </r>
        <r>  19.7365   0.0024   0.0012   0.0024   0.0099   0.0029   0.0000   0.0000   0.0018   0.0021 </r>
        <r>  19.8563   0.0000   0.0000   0.0000   0.0000   0.0000   0.0000   0.0000   0.0000   0.0000 </r>
        <r>  19.9760   0.0000   0.0000   0.0000   0.0000   0.0000   0.0000   0.0000   0.0000   0.0000 </r>
        <r>  20.0958   0.0000   0.0000   0.0000   0.0000   0.0000   0.0000   0.0000   0.0000   0.0000 </r>
        <r>  20.2156   0.0000   0.0000   0.0000   0.0040   0.0015   0.0000   0.0000   0.0014   0.0000 </r>
        <r>  20.3354   0.0029   0.0024   0.0034   0.1178   0.0436   0.0014   0.0040   0.0433   0.0000 </r>
        <r>  20.4552   0.0653   0.0531   0.0796   0.3591   0.1336   0.0302   0.0950   0.1413   0.0000 </r>
        <r>  20.5750   0.1362   0.1093   0.1713   0.1924   0.0722   0.0617   0.2087   0.0919   0.0000 </r>
        <r>  20.6948   0.0290   0.0230   0.0377   0.0250   0.0093   0.0129   0.0468   0.0136   0.0000 </r>
        <r>  20.8146   0.0005   0.0083   0.0007   0.0083   0.0002   0.0015   0.0009   0.0015   0.0010 </r>
        <r>  20.9344   0.0000   0.1119   0.0000   0.1119   0.0000   0.0175   0.0000   0.0175   0.0135 </r>
        <r>  21.0541   0.0000   0.1522   0.0000   0.1522   0.0000   0.0239   0.0000   0.0239   0.0183 </r>
        <r>  21.1739   0.0000   0.0208   0.0000   0.0208   0.0000   0.0033   0.0000   0.0033   0.0025 </r>
        <r>  21.2937   0.0000   0.0003   0.0002   0.0002   0.0000   0.0001   0.0002   0.0000   0.0000 </r>
        <r>  21.4135   0.0023   0.0090   0.0190   0.0002   0.0004   0.0067   0.0271   0.0001   0.0011 </r>
        <r>  21.5333   0.0249   0.0911   0.1875   0.0034   0.0055   0.0659   0.2681   0.0013   0.0108 </r>
        <r>  21.6531   0.0485   0.1115   0.1825   0.0262   0.0272   0.0642   0.2685   0.0013   0.0106 </r>
        <r>  21.7729   0.0343   0.0386   0.0181   0.0304   0.0293   0.0063   0.0353   0.0003   0.0010 </r>
        <r>  21.8927   0.0068   0.0062   0.0302   0.0061   0.0045   0.0071   0.0190   0.0071   0.0002 </r>
        <r>  22.0124   0.0129   0.0328   0.1360   0.0328   0.0048   0.0346   0.0761   0.0346   0.0118 </r>
        <r>  22.1322   0.0134   0.1693   0.1721   0.1694   0.0086   0.0718   0.0528   0.0718   0.0798 </r>
        <r>  22.2520   0.0104   0.1404   0.1504   0.1404   0.0090   0.0806   0.0271   0.0806   0.0542 </r>
        <r>  22.3718   0.0013   0.0911   0.0199   0.0911   0.0016   0.0386   0.0032   0.0386   0.0035 </r>
        <r>  22.4916   0.0000   0.0314   0.0003   0.0314   0.0001   0.0114   0.0000   0.0114   0.0000 </r>
        <r>  22.6114   0.0000   0.0011   0.0000   0.0011   0.0000   0.0004   0.0000   0.0004   0.0000 </r>
        <r>  22.7312   0.0000   0.0000   0.0000   0.0000   0.0000   0.0000   0.0000   0.0000   0.0000 </r>
        <r>  22.8510   0.0003   0.0000   0.0031   0.0000   0.0012   0.0001   0.0056   0.0001   0.0000 </r>
        <r>  22.9707   0.0031   0.0000   0.0357   0.0000   0.0137   0.0013   0.0643   0.0013   0.0000 </r>
        <r>  23.0905   0.0035   0.0001   0.0402   0.0001   0.0154   0.0014   0.0724   0.0014   0.0000 </r>
        <r>  23.2103   0.0008   0.0007   0.0054   0.0007   0.0028   0.0015   0.0081   0.0015   0.0000 </r>
        <r>  23.3301   0.0045   0.0064   0.0202   0.0064   0.0107   0.0222   0.0013   0.0222   0.0000 </r>
        <r>  23.4499   0.0090   0.0061   0.0916   0.0061   0.0101   0.0713   0.0286   0.0713   0.0000 </r>
        <r>  23.5697   0.0167   0.0015   0.0986   0.0010   0.0025   0.0386   0.1024   0.0357   0.0003 </r>
        <r>  23.6895   0.0272   0.0041   0.1280   0.0021   0.0071   0.0213   0.1958   0.0088   0.0011 </r>
        <r>  23.8093   0.0109   0.0019   0.0521   0.0010   0.0033   0.0087   0.0798   0.0033   0.0005 </r>
        <r>  23.9291   0.0026   0.0043   0.0088   0.0043   0.0039   0.0009   0.0032   0.0007   0.0000 </r>
        <r>  24.0488   0.0209   0.0423   0.0677   0.0426   0.0417   0.0053   0.0000   0.0053   0.0000 </r>
        <r>  24.1686   0.0201   0.0430   0.0676   0.0433   0.0455   0.0056   0.0000   0.0056   0.0002 </r>
        <r>  24.2884   0.0019   0.0500   0.0067   0.0501   0.0049   0.0089   0.0000   0.0089   0.0090 </r>
        <r>  24.4082   0.0000   0.1672   0.0001   0.1675   0.0005   0.0304   0.0002   0.0305   0.0328 </r>
        <r>  24.5280   0.0000   0.0642   0.0008   0.0643   0.0231   0.0128   0.0115   0.0128   0.0122 </r>
        <r>  24.6478   0.0002   0.0108   0.0035   0.0108   0.1016   0.0069   0.0506   0.0069   0.0004 </r>
        <r>  24.7676   0.0027   0.0119   0.0080   0.0119   0.0457   0.0033   0.0244   0.0033   0.0000 </r>
        <r>  24.8874   0.0152   0.0461   0.0369   0.0462   0.0020   0.0022   0.0107   0.0022   0.0000 </r>
        <r>  25.0071   0.0097   0.0282   0.0214   0.0285   0.0054   0.0012   0.0094   0.0012   0.0000 </r>
        <r>  25.1269   0.0070   0.0243   0.0018   0.0254   0.0389   0.0060   0.0289   0.0060   0.0010 </r>
        <r>  25.2467   0.0104   0.1237   0.0070   0.1247   0.0282   0.0560   0.0318   0.0560   0.0093 </r>
        <r>  25.3665   0.0072   0.1090   0.0080   0.1092   0.0020   0.0524   0.0148   0.0524   0.0087 </r>
        <r>  25.4863   0.0008   0.0099   0.0009   0.0100   0.0000   0.0048   0.0015   0.0048   0.0008 </r>
        <r>  25.6061   0.0000   0.0001   0.0000   0.0001   0.0000   0.0000   0.0000   0.0000   0.0000 </r>
        <r>  25.7259   0.0000   0.0000   0.0000   0.0000   0.0000   0.0000   0.0000   0.0000   0.0000 </r>
        <r>  25.8457   0.0000   0.0000   0.0000   0.0000   0.0000   0.0000   0.0000   0.0000   0.0000 </r>
        <r>  25.9654   0.0000   0.0000   0.0000   0.0000   0.0000   0.0000   0.0000   0.0000   0.0000 </r>
        <r>  26.0852   0.0000   0.0000   0.0000   0.0000   0.0000   0.0000   0.0000   0.0000   0.0000 </r>
        <r>  26.2050   0.0000   0.0000   0.0000   0.0000   0.0000   0.0000   0.0000   0.0000   0.0000 </r>
        <r>  26.3248   0.0000   0.0036   0.0001   0.0032   0.0000   0.0018   0.0000   0.0016   0.0000 </r>
        <r>  26.4446   0.0000   0.0317   0.0087   0.0224   0.0005   0.0127   0.0000   0.0117   0.0000 </r>
        <r>  26.5644   0.0000   0.0604   0.0545   0.0165   0.0030   0.0090   0.0001   0.0104   0.0000 </r>
        <r>  26.6842   0.0000   0.0283   0.0345   0.0015   0.0019   0.0006   0.0001   0.0021   0.0000 </r>
        <r>  26.8040   0.0000   0.0016   0.0039   0.0000   0.0001   0.0000   0.0000   0.0001   0.0000 </r>
        <r>  26.9238   0.0000   0.0000   0.0333   0.0000   0.0000   0.0004   0.0000   0.0004   0.0000 </r>
        <r>  27.0435   0.0000   0.0000   0.0567   0.0000   0.0000   0.0006   0.0000   0.0006   0.0000 </r>
        <r>  27.1633   0.0000   0.0000   0.0098   0.0000   0.0000   0.0001   0.0000   0.0001   0.0000 </r>
        <r>  27.2831   0.0000   0.0001   0.0014   0.0013   0.0000   0.0000   0.0000   0.0000   0.0000 </r>
        <r>  27.4029   0.0000   0.0004   0.0047   0.0048   0.0000   0.0000   0.0000   0.0000   0.0000 </r>
        <r>  27.5227   0.0000   0.0002   0.0018   0.0018   0.0000   0.0000   0.0000   0.0000   0.0000 </r>
        <r>  27.6425   0.0000   0.0000   0.0001   0.0001   0.0000   0.0000   0.0000   0.0000   0.0000 </r>
        <r>  27.7623   0.0000   0.0000   0.0000   0.0000   0.0000   0.0000   0.0000   0.0000   0.0000 </r>
        <r>  27.8821   0.0000   0.0000   0.0000   0.0000   0.0000   0.0000   0.0000   0.0000   0.0000 </r>
        <r>  28.0018   0.0000   0.0000   0.0000   0.0000   0.0000   0.0000   0.0000   0.0000   0.0000 </r>
        <r>  28.1216   0.0000   0.0005   0.0011   0.0001   0.0003   0.0000   0.0004   0.0001   0.0000 </r>
        <r>  28.2414   0.0000   0.0081   0.0178   0.0019   0.0045   0.0005   0.0060   0.0020   0.0003 </r>
        <r>  28.3612   0.0000   0.0124   0.0272   0.0029   0.0068   0.0007   0.0092   0.0031   0.0004 </r>
        <r>  28.4810   0.0000   0.0019   0.0042   0.0005   0.0011   0.0001   0.0014   0.0005   0.0001 </r>
        <r>  28.6008   0.0000   0.0000   0.0001   0.0000   0.0000   0.0000   0.0000   0.0000   0.0000 </r>
        <r>  28.7206   0.0000   0.0009   0.0000   0.0008   0.0000   0.0004   0.0000   0.0004   0.0000 </r>
        <r>  28.8404   0.0000   0.0231   0.0005   0.0208   0.0002   0.0100   0.0000   0.0111   0.0010 </r>
        <r>  28.9601   0.0000   0.0528   0.0011   0.0476   0.0005   0.0228   0.0000   0.0253   0.0022 </r>
        <r>  29.0799   0.0000   0.0123   0.0003   0.0111   0.0001   0.0053   0.0000   0.0059   0.0005 </r>
        <r>  29.1997   0.0000   0.0002   0.0000   0.0002   0.0000   0.0001   0.0000   0.0001   0.0000 </r>
        <r>  29.3195   0.0000   0.0000   0.0000   0.0000   0.0000   0.0000   0.0000   0.0000   0.0000 </r>
        <r>  29.4393   0.0000   0.0000   0.0000   0.0000   0.0000   0.0000   0.0000   0.0000   0.0000 </r>
        <r>  29.5591   0.0000   0.0000   0.0000   0.0000   0.0000   0.0000   0.0000   0.0000   0.0000 </r>
        <r>  29.6789   0.0000   0.0000   0.0000   0.0000   0.0000   0.0000   0.0000   0.0000   0.0000 </r>
        <r>  29.7987   0.0000   0.0000   0.0000   0.0000   0.0000   0.0000   0.0000   0.0000   0.0000 </r>
        <r>  29.9185   0.0000   0.0000   0.0000   0.0000   0.0000   0.0000   0.0000   0.0000   0.0000 </r>
        <r>  30.0382   0.0000   0.0000   0.0000   0.0000   0.0000   0.0000   0.0000   0.0000   0.0000 </r>
        <r>  30.1580   0.0000   0.0000   0.0000   0.0000   0.0000   0.0000   0.0000   0.0000   0.0000 </r>
        <r>  30.2778   0.0000   0.0000   0.0000   0.0000   0.0000   0.0000   0.0000   0.0000   0.0000 </r>
        <r>  30.3976   0.0000   0.0000   0.0000   0.0000   0.0000   0.0000   0.0000   0.0000   0.0000 </r>
        <r>  30.5174   0.0000   0.0000   0.0000   0.0000   0.0000   0.0000   0.0000   0.0000   0.0000 </r>
       </set>
      </set>
     </set>
    </array>
   </partial>
  </dos>
  <projected>
   <eigenvalues>
    <array>
     <dimension dim="1">band</dimension>
     <dimension dim="2">kpoint</dimension>
     <dimension dim="3">spin</dimension>
     <field>eigene</field>
     <field>occ</field>
     <set>
      <set comment="spin 1">
       <set comment="kpoint 1">
        <r>  -3.7855  1.0000</r>
        <r>   1.9660  1.0000</r>
        <r>   1.9660  1.0000</r>
        <r>   1.9660  1.0000</r>
        <r>   3.8423  1.0000</r>
        <r>   3.8423  1.0000</r>
        <r>  22.7544  0.0000</r>
        <r>  27.3529  0.0000</r>
        <r>  27.3529  0.0000</r>
       </set>
       <set comment="kpoint 2">
        <r>  -3.0200  1.0000</r>
        <r>   1.7337  1.0000</r>
        <r>   2.2110  1.0000</r>
        <r>   2.2110  1.0000</r>
        <r>   3.7606  1.0000</r>
        <r>   3.7606  1.0000</r>
        <r>  23.3268  0.0000</r>
        <r>  24.0382  0.0000</r>
        <r>  28.2639  0.0000</r>
       </set>
       <set comment="kpoint 3">
        <r>  -1.4903  1.0000</r>
        <r>   2.0736  1.0000</r>
        <r>   2.2477  1.0000</r>
        <r>   2.2477  1.0000</r>
        <r>   4.2545  1.0000</r>
        <r>   4.2545  1.0000</r>
        <r>  18.1253  0.0000</r>
        <r>  23.6480  0.0000</r>
        <r>  28.8839  0.0000</r>
       </set>
       <set comment="kpoint 4">
        <r>  -1.1196  1.0000</r>
        <r>   1.9589  1.0000</r>
        <r>   1.9589  1.0000</r>
        <r>   4.8941  1.0000</r>
        <r>   5.1705  1.0000</r>
        <r>   5.1705  1.0000</r>
        <r>  12.5368  0.0000</r>
        <r>  22.2537  0.0000</r>
        <r>  26.5402  0.0000</r>
       </set>
       <set comment="kpoint 5">
        <r>  -2.7567  1.0000</r>
        <r>   1.4066  1.0000</r>
        <r>   2.4803  1.0000</r>
        <r>   2.4803  1.0000</r>
        <r>   3.2506  1.0000</r>
        <r>   4.0929  1.0000</r>
        <r>  24.0589  0.0000</r>
        <r>  25.2537  0.0000</r>
        <r>  26.4262  0.0000</r>
       </set>
       <set comment="kpoint 6">
        <r>  -1.3385  1.0000</r>
        <r>   1.0759  1.0000</r>
        <r>   2.3014  1.0000</r>
        <r>   2.8076  1.0000</r>
        <r>   3.8657  1.0000</r>
        <r>   4.5412  1.0000</r>
        <r>  20.4917  0.0000</r>
        <r>  24.6056  0.0000</r>
        <r>  25.2432  0.0000</r>
       </set>
       <set comment="kpoint 7">
        <r>  -0.5891  1.0000</r>
        <r>   1.6653  1.0000</r>
        <r>   2.2843  1.0000</r>
        <r>   2.5645  1.0000</r>
        <r>   5.2940  1.0000</r>
        <r>   6.2600  1.0000</r>
        <r>  14.4311  0.0000</r>
        <r>  22.9770  0.0000</r>
        <r>  24.3562  0.0000</r>
       </set>
       <set comment="kpoint 8">
        <r>  -0.5512  1.0000</r>
        <r>   1.5459  1.0000</r>
        <r>   2.3753  1.0000</r>
        <r>   3.3117  1.0000</r>
        <r>   5.1192  1.0000</r>
        <r>   8.3622  0.0000</r>
        <r>  11.4145  0.0000</r>
        <r>  21.9682  0.0000</r>
        <r>  24.0495  0.0000</r>
       </set>
       <set comment="kpoint 9">
        <r>  -0.5680  1.0000</r>
        <r>   1.7338  1.0000</r>
        <r>   2.0962  1.0000</r>
        <r>   2.5563  1.0000</r>
        <r>   3.9655  1.0000</r>
        <r>   6.0584  1.0000</r>
        <r>  16.5126  0.0000</r>
        <r>  22.1442  0.0000</r>
        <r>  24.8586  0.0000</r>
       </set>
       <set comment="kpoint 10">
        <r>  -1.8760  1.0000</r>
        <r>   1.3567  1.0000</r>
        <r>   2.3660  1.0000</r>
        <r>   2.6496  1.0000</r>
        <r>   3.2366  1.0000</r>
        <r>   4.5031  1.0000</r>
        <r>  21.6636  0.0000</r>
        <r>  23.4175  0.0000</r>
        <r>  26.9518  0.0000</r>
       </set>
       <set comment="kpoint 11">
        <r>  -0.7563  1.0000</r>
        <r>   0.3158  1.0000</r>
        <r>   3.0383  1.0000</r>
        <r>   3.8819  1.0000</r>
        <r>   3.8819  1.0000</r>
        <r>   4.6878  1.0000</r>
        <r>  22.3214  0.0000</r>
        <r>  22.3214  0.0000</r>
        <r>  23.4902  0.0000</r>
       </set>
       <set comment="kpoint 12">
        <r>  -0.3397  1.0000</r>
        <r>   0.2192  1.0000</r>
        <r>   2.9364  1.0000</r>
        <r>   3.9724  1.0000</r>
        <r>   5.3728  1.0000</r>
        <r>   6.6042  0.9784</r>
        <r>  16.7745  0.0000</r>
        <r>  20.4970  0.0000</r>
        <r>  20.9506  0.0000</r>
       </set>
       <set comment="kpoint 13">
        <r>  -0.0421  1.0000</r>
        <r>   0.8954  1.0000</r>
        <r>   2.4821  1.0000</r>
        <r>   3.6078  1.0000</r>
        <r>   5.2249  1.0000</r>
        <r>  11.0756  0.0000</r>
        <r>  11.6562  0.0000</r>
        <r>  17.8739  0.0000</r>
        <r>  22.1118  0.0000</r>
       </set>
       <set comment="kpoint 14">
        <r>   0.4788  1.0000</r>
        <r>   1.4928  1.0000</r>
        <r>   1.5635  1.0000</r>
        <r>   3.2516  1.0000</r>
        <r>   4.2384  1.0000</r>
        <r>   8.4619  0.0000</r>
        <r>  15.8395  0.0000</r>
        <r>  16.8723  0.0000</r>
        <r>  25.1099  0.0000</r>
       </set>
       <set comment="kpoint 15">
        <r>  -0.8202  1.0000</r>
        <r>  -0.4411  1.0000</r>
        <r>   5.2020  1.0000</r>
        <r>   5.4448  1.0000</r>
        <r>   5.4448  1.0000</r>
        <r>   6.7467  0.5031</r>
        <r>  16.0987  0.0000</r>
        <r>  18.6323  0.0000</r>
        <r>  18.6323  0.0000</r>
       </set>
       <set comment="kpoint 16">
        <r>  -0.6130  1.0000</r>
        <r>  -0.1853  1.0000</r>
        <r>   4.2630  1.0000</r>
        <r>   4.8356  1.0000</r>
        <r>   5.5434  1.0000</r>
        <r>  10.1256  0.0000</r>
        <r>  13.4796  0.0000</r>
        <r>  16.7051  0.0000</r>
        <r>  19.1281  0.0000</r>
       </set>
       <set comment="kpoint 17">
        <r>  -0.0337  1.0000</r>
        <r>   0.7258  1.0000</r>
        <r>   1.7610  1.0000</r>
        <r>   3.7791  1.0000</r>
        <r>   3.8788  1.0000</r>
        <r>   6.1610  1.0000</r>
        <r>  18.4240  0.0000</r>
        <r>  20.3868  0.0000</r>
        <r>  23.6456  0.0000</r>
       </set>
       <set comment="kpoint 18">
        <r>   0.3123  1.0000</r>
        <r>   1.0452  1.0000</r>
        <r>   1.8474  1.0000</r>
        <r>   3.3634  1.0000</r>
        <r>   5.0048  1.0000</r>
        <r>   9.0126  0.0000</r>
        <r>  13.4447  0.0000</r>
        <r>  19.4602  0.0000</r>
        <r>  21.5318  0.0000</r>
       </set>
       <set comment="kpoint 19">
        <r>  -0.1224  1.0000</r>
        <r>   0.1720  1.0000</r>
        <r>   2.8519  1.0000</r>
        <r>   4.4843  1.0000</r>
        <r>   5.4389  1.0000</r>
        <r>   9.5496  0.0000</r>
        <r>  14.9355  0.0000</r>
        <r>  17.2212  0.0000</r>
        <r>  18.6674  0.0000</r>
       </set>
       <set comment="kpoint 20">
        <r>   0.3376  1.0000</r>
        <r>   0.9253  1.0000</r>
        <r>   1.9265  1.0000</r>
        <r>   3.7321  1.0000</r>
        <r>   5.4305  1.0000</r>
        <r>  11.7300  0.0000</r>
        <r>  13.7887  0.0000</r>
        <r>  15.2327  0.0000</r>
        <r>  19.2968  0.0000</r>
       </set>
      </set>
     </set>
    </array>
   </eigenvalues>
   <array>
    <dimension dim="1">ion</dimension>
    <dimension dim="2">band</dimension>
    <dimension dim="3">kpoint</dimension>
    <dimension dim="4">spin</dimension>
    <field>  s</field>
    <field> py</field>
    <field> pz</field>
    <field> px</field>
    <field>dxy</field>
    <field>dyz</field>
    <field>dz2</field>
    <field>dxz</field>
    <field>dx2</field>
    <set>
     <set comment="spin1">
      <set comment="kpoint 1">
       <set comment="band 1">
        <r>  0.6885  0.0000  0.0000  0.0000  0.0000  0.0000  0.0000  0.0000  0.0000 </r>
       </set>
       <set comment="band 2">
        <r>  0.0000  0.0000  0.0000  0.0000  0.4739  0.0000  0.0000  0.4715  0.0000 </r>
       </set>
       <set comment="band 3">
        <r>  0.0000  0.0000  0.0000  0.0000  0.1664  0.6110  0.0000  0.1679  0.0000 </r>
       </set>
       <set comment="band 4">
        <r>  0.0000  0.0000  0.0000  0.0000  0.3051  0.3344  0.0000  0.3059  0.0000 </r>
       </set>
       <set comment="band 5">
        <r>  0.0000  0.0000  0.0000  0.0000  0.0000  0.0000  0.2382  0.0000  0.7334 </r>
       </set>
       <set comment="band 6">
        <r>  0.0000  0.0000  0.0000  0.0000  0.0000  0.0000  0.7334  0.0000  0.2382 </r>
       </set>
       <set comment="band 7">
        <r>  0.0000  0.0000  0.0000  0.0000  0.0000  0.0000  0.0000  0.0000  0.0000 </r>
       </set>
       <set comment="band 8">
        <r>  0.0000  0.0001  0.0776  0.0930  0.0000  0.0000  0.0000  0.0000  0.0000 </r>
       </set>
       <set comment="band 9">
        <r>  0.0000  0.0145  0.0849  0.0713  0.0000  0.0000  0.0000  0.0000  0.0000 </r>
       </set>
      </set>
      <set comment="kpoint 2">
       <set comment="band 1">
        <r>  0.6464  0.0115  0.0115  0.0115  0.0031  0.0031  0.0000  0.0031  0.0000 </r>
       </set>
       <set comment="band 2">
        <r>  0.0032  0.0044  0.0044  0.0044  0.3032  0.3032  0.0000  0.3032  0.0000 </r>
       </set>
       <set comment="band 3">
        <r>  0.0000  0.0008  0.0008  0.0000  0.4630  0.0002  0.0273  0.4445  0.0084 </r>
       </set>
       <set comment="band 4">
        <r>  0.0000  0.0003  0.0003  0.0011  0.1421  0.6050  0.0084  0.1606  0.0273 </r>
       </set>
       <set comment="band 5">
        <r>  0.0000  0.0001  0.0001  0.0002  0.0062  0.0240  0.2417  0.0057  0.6859 </r>
       </set>
       <set comment="band 6">
        <r>  0.0000  0.0002  0.0002  0.0000  0.0177  0.0000  0.6859  0.0182  0.2417 </r>
       </set>
       <set comment="band 7">
        <r>  0.0233  0.0353  0.0353  0.0353  0.0585  0.0585  0.0000  0.0585  0.0000 </r>
       </set>
       <set comment="band 8">
        <r>  0.0294  0.0256  0.0256  0.0257  0.0001  0.0001  0.0000  0.0001  0.0000 </r>
       </set>
       <set comment="band 9">
        <r>  0.0000  0.0588  0.1295  0.0140  0.0325  0.0035  0.0439  0.0149  0.0019 </r>
       </set>
      </set>
      <set comment="kpoint 3">
       <set comment="band 1">
        <r>  0.4469  0.0183  0.0183  0.0183  0.0818  0.0818  0.0000  0.0818  0.0000 </r>
       </set>
       <set comment="band 2">
        <r>  0.0888  0.0444  0.0444  0.0444  0.2025  0.2025  0.0000  0.2025  0.0000 </r>
       </set>
       <set comment="band 3">
        <r>  0.0000  0.0007  0.0006  0.0000  0.2735  0.0002  0.2753  0.2882  0.1018 </r>
       </set>
       <set comment="band 4">
        <r>  0.0000  0.0002  0.0002  0.0008  0.1011  0.3744  0.1018  0.0864  0.2753 </r>
       </set>
       <set comment="band 5">
        <r>  0.0000  0.0005  0.0004  0.0017  0.0546  0.2567  0.1219  0.0745  0.4518 </r>
       </set>
       <set comment="band 6">
        <r>  0.0000  0.0012  0.0014  0.0000  0.2026  0.0006  0.4518  0.1827  0.1219 </r>
       </set>
       <set comment="band 7">
        <r>  0.1662  0.0898  0.0898  0.0898  0.0770  0.0770  0.0000  0.0770  0.0000 </r>
       </set>
       <set comment="band 8">
        <r>  0.0001  0.0092  0.0093  0.0092  0.0312  0.0312  0.0000  0.0312  0.0000 </r>
       </set>
       <set comment="band 9">
        <r>  0.0000  0.2294  0.0047  0.2071  0.0023  0.0993  0.0002  0.1100  0.0096 </r>
       </set>
      </set>
      <set comment="kpoint 4">
       <set comment="band 1">
        <r>  0.2276  0.0016  0.0016  0.0016  0.2000  0.2000  0.0000  0.2000  0.0000 </r>
       </set>
       <set comment="band 2">
        <r>  0.0000  0.0001  0.0001  0.0000  0.1973  0.0000  0.4045  0.1972  0.1346 </r>
[...]
       </set>
       <set comment="band 6">
        <r>  0.0000  0.0000  0.0000  0.0000  0.0000  0.0000  0.0000  0.0000  0.9723 </r>
       </set>
       <set comment="band 7">
        <r>  0.0000  0.0000  0.0000  0.0000  0.1376  0.0000  0.0000  0.0000  0.0000 </r>
       </set>
       <set comment="band 8">
        <r>  0.0487  0.0000  0.0567  0.0000  0.0000  0.0000  0.0949  0.0000  0.0000 </r>
       </set>
       <set comment="band 9">
        <r>  0.0000  0.1619  0.0000  0.1451  0.0000  0.0822  0.0000  0.0737  0.0000 </r>
       </set>
      </set>
      <set comment="kpoint 6">
       <set comment="band 1">
        <r>  0.4981  0.0061  0.0813  0.0061  0.0205  0.0272  0.0450  0.0272  0.0000 </r>
       </set>
       <set comment="band 2">
        <r>  0.0134  0.0098  0.0059  0.0098  0.8030  0.0243  0.0068  0.0243  0.0000 </r>
       </set>
       <set comment="band 3">
        <r>  0.0051  0.0024  0.0011  0.0024  0.0456  0.1618  0.5455  0.1618  0.0000 </r>
       </set>
       <set comment="band 4">
        <r>  0.0000  0.0051  0.0000  0.0051  0.0000  0.3559  0.0000  0.3559  0.2215 </r>
       </set>
       <set comment="band 5">
        <r>  0.0372  0.0060  0.0230  0.0060  0.0387  0.2456  0.3287  0.2456  0.0000 </r>
       </set>
       <set comment="band 6">
        <r>  0.0000  0.0010  0.0000  0.0010  0.0000  0.1124  0.0000  0.1124  0.7454 </r>
       </set>
       <set comment="band 7">
        <r>  0.1134  0.1116  0.0646  0.1116  0.0506  0.0699  0.0165  0.0699  0.0000 </r>
       </set>
       <set comment="band 8">
        <r>  0.0002  0.0125  0.0050  0.0124  0.1479  0.0095  0.0736  0.0095  0.0000 </r>
       </set>
       <set comment="band 9">
        <r>  0.0000  0.2113  0.0000  0.2117  0.0000  0.1020  0.0000  0.1020  0.0169 </r>
       </set>
      </set>
      <set comment="kpoint 7">
       <set comment="band 1">
        <r>  0.2171  0.0000  0.0348  0.0000  0.2732  0.1334  0.0311  0.1334  0.0000 </r>
       </set>
       <set comment="band 2">
        <r>  0.0001  0.0114  0.0002  0.0114  0.0127  0.0936  0.6715  0.0936  0.0000 </r>
       </set>
       <set comment="band 3">
        <r>  0.0755  0.0372  0.0570  0.0372  0.5529  0.0314  0.0169  0.0314  0.0000 </r>
       </set>
       <set comment="band 4">
        <r>  0.0000  0.0035  0.0000  0.0035  0.0000  0.2144  0.0000  0.2144  0.5014 </r>
       </set>
       <set comment="band 5">
        <r>  0.0000  0.0005  0.0000  0.0005  0.0000  0.2643  0.0000  0.2643  0.4528 </r>
       </set>
       <set comment="band 6">
        <r>  0.1056  0.0332  0.0922  0.0332  0.0332  0.1860  0.1992  0.1860  0.0000 </r>
       </set>
       <set comment="band 7">
        <r>  0.2783  0.0958  0.0586  0.0958  0.0966  0.0659  0.0074  0.0659  0.0000 </r>
       </set>
       <set comment="band 8">
        <r>  0.0062  0.0001  0.0715  0.0001  0.0274  0.0026  0.1289  0.0026  0.0000 </r>
       </set>
       <set comment="band 9">
        <r>  0.0000  0.2384  0.0000  0.2388  0.0000  0.0434  0.0000  0.0435  0.0468 </r>
       </set>
      </set>
      <set comment="kpoint 8">
       <set comment="band 1">
        <r>  0.1707  0.0057  0.0119  0.0057  0.2891  0.1792  0.0032  0.1792  0.0000 </r>
       </set>
       <set comment="band 2">
        <r>  0.0003  0.0056  0.0011  0.0056  0.1527  0.0696  0.5985  0.0696  0.0000 </r>
       </set>
       <set comment="band 3">
        <r>  0.0000  0.0020  0.0000  0.0020  0.0000  0.1654  0.0000  0.1654  0.5982 </r>
       </set>
       <set comment="band 4">
        <r>  0.0016  0.0607  0.0646  0.0607  0.2592  0.1131  0.1629  0.1131  0.0000 </r>
       </set>
       <set comment="band 5">
        <r>  0.0000  0.0004  0.0000  0.0004  0.0000  0.3176  0.0000  0.3176  0.3401 </r>
       </set>
       <set comment="band 6">
        <r>  0.0516  0.1173  0.1066  0.1173  0.2079  0.0055  0.1631  0.0055  0.0000 </r>
       </set>
       <set comment="band 7">
        <r>  0.4542  0.0086  0.0445  0.0086  0.0752  0.1312  0.0146  0.1312  0.0000 </r>
       </set>
       <set comment="band 8">
        <r>  0.0176  0.0131  0.1837  0.0131  0.0061  0.0432  0.1078  0.0432  0.0000 </r>
       </set>
       <set comment="band 9">
        <r>  0.0288  0.0707  0.1188  0.0712  0.0477  0.0101  0.0000  0.0101  0.0000 </r>
       </set>
      </set>
      <set comment="kpoint 9">
       <set comment="band 1">
        <r>  0.3089  0.0318  0.0007  0.0318  0.2012  0.1053  0.0023  0.1053  0.0000 </r>
       </set>
       <set comment="band 2">
        <r>  0.0299  0.0065  0.0339  0.0065  0.1845  0.2580  0.1204  0.2580  0.0000 </r>
       </set>
       <set comment="band 3">
        <r>  0.0456  0.0420  0.0209  0.0420  0.1017  0.0556  0.4784  0.0556  0.0000 </r>
       </set>
       <set comment="band 4">
        <r>  0.0000  0.0008  0.0000  0.0008  0.0000  0.1717  0.0000  0.1717  0.5915 </r>
       </set>
       <set comment="band 5">
        <r>  0.0000  0.0013  0.0000  0.0013  0.0000  0.3048  0.0000  0.3048  0.3424 </r>
       </set>
       <set comment="band 6">
        <r>  0.0824  0.0275  0.0041  0.0275  0.4542  0.0015  0.3391  0.0015  0.0000 </r>
       </set>
       <set comment="band 7">
        <r>  0.2194  0.0907  0.0974  0.0907  0.0616  0.0675  0.0280  0.0675  0.0000 </r>
       </set>
       <set comment="band 8">
        <r>  0.0173  0.0192  0.2495  0.0192  0.0144  0.1186  0.0439  0.1186  0.0000 </r>
       </set>
       <set comment="band 9">
        <r>  0.0233  0.0704  0.0564  0.0706  0.0001  0.0032  0.0148  0.0032  0.0000 </r>
       </set>
      </set>
      <set comment="kpoint 10">
       <set comment="band 1">
        <r>  0.5698  0.0404  0.0000  0.0404  0.0428  0.0000  0.0044  0.0000  0.0000 </r>
       </set>
       <set comment="band 2">
        <r>  0.0000  0.0000  0.0199  0.0000  0.0000  0.4461  0.0000  0.4461  0.0000 </r>
       </set>
       <set comment="band 3">
        <r>  0.0039  0.0085  0.0000  0.0085  0.6040  0.0000  0.3041  0.0000  0.0000 </r>
       </set>
       <set comment="band 4">
        <r>  0.0000  0.0000  0.0000  0.0000  0.0000  0.4733  0.0000  0.4733  0.0000 </r>
       </set>
       <set comment="band 5">
        <r>  0.0000  0.0007  0.0000  0.0007  0.0000  0.0000  0.0000  0.0000  0.9454 </r>
       </set>
       <set comment="band 6">
        <r>  0.0152  0.0052  0.0000  0.0052  0.2874  0.0000  0.6504  0.0000  0.0000 </r>
       </set>
       <set comment="band 7">
        <r>  0.1106  0.1040  0.0000  0.1040  0.0996  0.0000  0.0344  0.0000  0.0000 </r>
       </set>
       <set comment="band 8">
        <r>  0.0000  0.0000  0.2106  0.0000  0.0000  0.1843  0.0000  0.1843  0.0000 </r>
       </set>
       <set comment="band 9">
        <r>  0.0000  0.0000  0.1742  0.0000  0.0000  0.0019  0.0000  0.0019  0.0000 </r>
       </set>
      </set>
      <set comment="kpoint 11">
       <set comment="band 1">
        <r>  0.3345  0.0000  0.0886  0.0000  0.0000  0.0000  0.3173  0.0000  0.0000 </r>
       </set>
       <set comment="band 2">
        <r>  0.0000  0.0000  0.0000  0.0000  0.9017  0.0000  0.0000  0.0000  0.0000 </r>
       </set>
       <set comment="band 3">
        <r>  0.1629  0.0000  0.1073  0.0000  0.0000  0.0000  0.5753  0.0000  0.0000 </r>
       </set>
       <set comment="band 4">
        <r>  0.0000  0.0064  0.0000  0.0127  0.0000  0.3113  0.0000  0.6197  0.0000 </r>
       </set>
       <set comment="band 5">
        <r>  0.0000  0.0127  0.0000  0.0064  0.0000  0.6197  0.0000  0.3113  0.0000 </r>
       </set>
       <set comment="band 6">
        <r>  0.0000  0.0000  0.0000  0.0000  0.0000  0.0000  0.0000  0.0000  0.9767 </r>
       </set>
       <set comment="band 7">
        <r>  0.0000  0.3597  0.0000  0.1052  0.0000  0.1292  0.0000  0.0378  0.0000 </r>
       </set>
       <set comment="band 8">
        <r>  0.0000  0.1052  0.0000  0.3597  0.0000  0.0378  0.0000  0.1292  0.0000 </r>
       </set>
       <set comment="band 9">
        <r>  0.0615  0.0000  0.1892  0.0000  0.0000  0.0000  0.3485  0.0000  0.0000 </r>
       </set>
      </set>
      <set comment="kpoint 12">
       <set comment="band 1">
        <r>  0.1190  0.0010  0.0298  0.0010  0.1911  0.0075  0.4630  0.0075  0.0000 </r>
       </set>
       <set comment="band 2">
        <r>  0.0131  0.0126  0.0046  0.0126  0.6642  0.0033  0.1589  0.0033  0.0000 </r>
       </set>
       <set comment="band 3">
        <r>  0.1037  0.0006  0.1103  0.0006  0.0241  0.2508  0.1202  0.2508  0.0000 </r>
       </set>
       <set comment="band 4">
        <r>  0.0000  0.0065  0.0000  0.0065  0.0000  0.2232  0.0000  0.2232  0.4921 </r>
       </set>
       <set comment="band 5">
        <r>  0.0000  0.0008  0.0000  0.0008  0.0000  0.2537  0.0000  0.2537  0.4753 </r>
       </set>
       <set comment="band 6">
        <r>  0.1410  0.0116  0.1499  0.0116  0.0039  0.2102  0.1269  0.2102  0.0000 </r>
       </set>
       <set comment="band 7">
        <r>  0.2341  0.1341  0.0955  0.1341  0.0417  0.0246  0.0001  0.0246  0.0000 </r>
       </set>
       <set comment="band 8">
        <r>  0.0868  0.0495  0.1860  0.0495  0.0106  0.0212  0.2878  0.0212  0.0000 </r>
       </set>
       <set comment="band 9">
        <r>  0.0000  0.2509  0.0000  0.2509  0.0000  0.0393  0.0000  0.0393  0.0302 </r>
       </set>
      </set>
      <set comment="kpoint 13">
       <set comment="band 1">
        <r>  0.0620  0.0007  0.0073  0.0007  0.4824  0.0151  0.2826  0.0151  0.0000 </r>
       </set>
       <set comment="band 2">
        <r>  0.0006  0.0419  0.0002  0.0419  0.2309  0.0206  0.4856  0.0206  0.0000 </r>
       </set>
       <set comment="band 3">
        <r>  0.0217  0.0030  0.1090  0.0030  0.0960  0.3210  0.0003  0.3210  0.0000 </r>
       </set>
       <set comment="band 4">
        <r>  0.0000  0.0061  0.0000  0.0061  0.0000  0.0992  0.0000  0.0992  0.7313 </r>
       </set>
       <set comment="band 5">
        <r>  0.0000  0.0002  0.0000  0.0002  0.0000  0.3863  0.0000  0.3863  0.2050 </r>
       </set>
       <set comment="band 6">
        <r>  0.2719  0.0090  0.1976  0.0090  0.0029  0.1347  0.0780  0.1347  0.0000 </r>
       </set>
       <set comment="band 7">
        <r>  0.2475  0.1128  0.0832  0.1128  0.1371  0.0001  0.0309  0.0001  0.0000 </r>
       </set>
       <set comment="band 8">
        <r>  0.1086  0.0690  0.1945  0.0690  0.0098  0.0395  0.2238  0.0395  0.0000 </r>
       </set>
       <set comment="band 9">
        <r>  0.0000  0.2497  0.0000  0.2499  0.0000  0.0048  0.0000  0.0048  0.1280 </r>
       </set>
      </set>
      <set comment="kpoint 14">
       <set comment="band 1">
        <r>  0.1227  0.0164  0.0000  0.0164  0.6063  0.0000  0.1014  0.0000  0.0000 </r>
       </set>
       <set comment="band 2">
        <r>  0.0358  0.0608  0.0000  0.0608  0.0129  0.0000  0.6422  0.0000  0.0000 </r>
       </set>
       <set comment="band 3">
        <r>  0.0000  0.0000  0.0842  0.0000  0.0000  0.3993  0.0000  0.3993  0.0000 </r>
       </set>
       <set comment="band 4">
        <r>  0.0000  0.0053  0.0000  0.0053  0.0000  0.0000  0.0000  0.0000  0.9238 </r>
       </set>
       <set comment="band 5">
        <r>  0.0000  0.0000  0.0000  0.0000  0.0000  0.4802  0.0000  0.4802  0.0000 </r>
       </set>
       <set comment="band 6">
        <r>  0.2711  0.0559  0.0000  0.0559  0.3557  0.0000  0.1219  0.0000  0.0000 </r>
       </set>
       <set comment="band 7">
        <r>  0.2859  0.1216  0.0000  0.1216  0.0050  0.0000  0.1773  0.0000  0.0000 </r>
       </set>
       <set comment="band 8">
        <r>  0.0000  0.0000  0.4626  0.0000  0.0000  0.1712  0.0000  0.1712  0.0000 </r>
       </set>
       <set comment="band 9">
        <r>  0.0197  0.0347  0.0000  0.0383  0.1275  0.0000  0.0905  0.0000  0.0001 </r>
       </set>
      </set>
      <set comment="kpoint 15">
       <set comment="band 1">
        <r>  0.0835  0.0000  0.0074  0.0000  0.0000  0.0000  0.7246  0.0000  0.0000 </r>
       </set>
       <set comment="band 2">
        <r>  0.0000  0.0000  0.0000  0.0000  0.8921  0.0000  0.0000  0.0000  0.0000 </r>
       </set>
       <set comment="band 3">
        <r>  0.0000  0.0000  0.0000  0.0000  0.0000  0.0000  0.0000  0.0000  0.9838 </r>
       </set>
       <set comment="band 4">
        <r>  0.0000  0.0022  0.0000  0.0042  0.0000  0.3372  0.0000  0.6353  0.0000 </r>
       </set>
       <set comment="band 5">
        <r>  0.0000  0.0042  0.0000  0.0022  0.0000  0.6353  0.0000  0.3372  0.0000 </r>
       </set>
       <set comment="band 6">
        <r>  0.1478  0.0000  0.4712  0.0000  0.0000  0.0000  0.0836  0.0000  0.0000 </r>
       </set>
       <set comment="band 7">
        <r>  0.4612  0.0000  0.1619  0.0000  0.0000  0.0000  0.2241  0.0000  0.0000 </r>
       </set>
       <set comment="band 8">
        <r>  0.0000  0.2121  0.0000  0.3223  0.0000  0.0117  0.0000  0.0178  0.0000 </r>
       </set>
       <set comment="band 9">
        <r>  0.0000  0.3223  0.0000  0.2121  0.0000  0.0178  0.0000  0.0117  0.0000 </r>
       </set>
      </set>
      <set comment="kpoint 16">
       <set comment="band 1">
        <r>  0.0530  0.0016  0.0000  0.0016  0.1266  0.0000  0.6507  0.0000  0.0000 </r>
       </set>
       <set comment="band 2">
        <r>  0.0024  0.0117  0.0000  0.0117  0.7460  0.0000  0.1061  0.0000  0.0000 </r>
       </set>
       <set comment="band 3">
        <r>  0.0000  0.0000  0.1320  0.0000  0.0000  0.3825  0.0000  0.3825  0.0000 </r>
       </set>
       <set comment="band 4">
        <r>  0.0000  0.0038  0.0000  0.0038  0.0000  0.0000  0.0000  0.0000  0.9609 </r>
       </set>
       <set comment="band 5">
        <r>  0.0000  0.0000  0.0000  0.0000  0.0000  0.4919  0.0000  0.4919  0.0000 </r>
       </set>
       <set comment="band 6">
        <r>  0.0000  0.0000  0.5088  0.0000  0.0000  0.1207  0.0000  0.1207  0.0000 </r>
       </set>
       <set comment="band 7">
        <r>  0.6263  0.0257  0.0000  0.0257  0.0142  0.0000  0.1168  0.0000  0.0000 </r>
       </set>
       <set comment="band 8">
        <r>  0.0246  0.2043  0.0000  0.2043  0.0418  0.0000  0.2134  0.0000  0.0000 </r>
       </set>
       <set comment="band 9">
        <r>  0.0000  0.2661  0.0000  0.2661  0.0000  0.0000  0.0000  0.0000  0.0479 </r>
       </set>
      </set>
      <set comment="kpoint 17">
       <set comment="band 1">
        <r>  0.3148  0.0260  0.0913  0.0000  0.0000  0.1012  0.2136  0.0000  0.0004 </r>
       </set>
       <set comment="band 2">
        <r>  0.0000  0.0000  0.0000  0.0279  0.7996  0.0000  0.0000  0.0678  0.0000 </r>
       </set>
       <set comment="band 3">
        <r>  0.0252  0.0068  0.0100  0.0000  0.0000  0.3559  0.4249  0.0000  0.0778 </r>
       </set>
       <set comment="band 4">
        <r>  0.0256  0.0072  0.0334  0.0000  0.0000  0.0211  0.1690  0.0000  0.6698 </r>
       </set>
       <set comment="band 5">
        <r>  0.0000  0.0000  0.0000  0.0121  0.0891  0.0000  0.0000  0.8507  0.0000 </r>
       </set>
       <set comment="band 6">
        <r>  0.0970  0.0167  0.0476  0.0000  0.0000  0.4695  0.0968  0.0000  0.2066 </r>
       </set>
       <set comment="band 7">
        <r>  0.2233  0.1993  0.1083  0.0000  0.0000  0.0652  0.0144  0.0000  0.0363 </r>
       </set>
       <set comment="band 8">
        <r>  0.0000  0.0000  0.0000  0.4369  0.1616  0.0000  0.0000  0.1586  0.0000 </r>
       </set>
       <set comment="band 9">
        <r>  0.0360  0.0029  0.1693  0.0000  0.0000  0.0180  0.2647  0.0000  0.0016 </r>
       </set>
      </set>
      <set comment="kpoint 18">
       <set comment="band 1">
        <r>  0.1042  0.0044  0.0312  0.0184  0.3787  0.1781  0.0690  0.0667  0.0001 </r>
       </set>
       <set comment="band 2">
        <r>  0.0010  0.0288  0.0000  0.0045  0.0002  0.1453  0.5418  0.0073  0.1363 </r>
       </set>
       <set comment="band 3">
        <r>  0.0346  0.0198  0.0467  0.0392  0.3693  0.2910  0.0473  0.0070  0.0071 </r>
       </set>
       <set comment="band 4">
        <r>  0.0005  0.0034  0.0218  0.0019  0.0261  0.0017  0.1074  0.1988  0.5697 </r>
       </set>
       <set comment="band 5">
        <r>  0.0018  0.0005  0.0026  0.0039  0.0689  0.0670  0.0331  0.6202  0.1713 </r>
       </set>
       <set comment="band 6">
        <r>  0.2251  0.0370  0.1322  0.0174  0.0010  0.2877  0.0954  0.0220  0.0246 </r>
       </set>
       <set comment="band 7">
        <r>  0.2687  0.0764  0.0582  0.1399  0.1045  0.0064  0.0163  0.0476  0.0424 </r>
       </set>
       <set comment="band 8">
        <r>  0.0756  0.0379  0.0764  0.3172  0.0915  0.0009  0.0004  0.0590  0.0655 </r>
       </set>
       <set comment="band 9">
        <r>  0.0211  0.0827  0.1741  0.0013  0.0033  0.0612  0.2483  0.0012  0.0101 </r>
       </set>
      </set>
      <set comment="kpoint 19">
       <set comment="band 1">
        <r>  0.0491  0.0240  0.0065  0.0000  0.0000  0.0006  0.7326  0.0000  0.0101 </r>
       </set>
       <set comment="band 2">
        <r>  0.0000  0.0000  0.0000  0.0287  0.8544  0.0000  0.0000  0.0051  0.0000 </r>
       </set>
       <set comment="band 3">
        <r>  0.0392  0.0011  0.1019  0.0000  0.0000  0.6609  0.0081  0.0000  0.0684 </r>
       </set>
       <set comment="band 4">
        <r>  0.0010  0.0071  0.0210  0.0000  0.0000  0.0459  0.0227  0.0000  0.8509 </r>
       </set>
       <set comment="band 5">
        <r>  0.0000  0.0000  0.0000  0.0059  0.0092  0.0000  0.0000  0.9641  0.0000 </r>
       </set>
       <set comment="band 6">
        <r>  0.1845  0.0075  0.2751  0.0000  0.0000  0.2750  0.0736  0.0000  0.0023 </r>
       </set>
       <set comment="band 7">
        <r>  0.4387  0.0723  0.1598  0.0000  0.0000  0.0038  0.0224  0.0000  0.0437 </r>
       </set>
       <set comment="band 8">
        <r>  0.0000  0.0000  0.0000  0.5230  0.1266  0.0000  0.0000  0.0311  0.0000 </r>
       </set>
       <set comment="band 9">
        <r>  0.0108  0.2623  0.0527  0.0000  0.0000  0.0312  0.2996  0.0000  0.0365 </r>
       </set>
      </set>
      <set comment="kpoint 20">
       <set comment="band 1">
        <r>  0.0149  0.0262  0.0000  0.0018  0.1675  0.0000  0.5855  0.0000  0.0525 </r>
       </set>
       <set comment="band 2">
        <r>  0.0107  0.0240  0.0000  0.0590  0.6224  0.0000  0.1085  0.0000  0.0369 </r>
       </set>
       <set comment="band 3">
        <r>  0.0000  0.0000  0.0963  0.0000  0.0000  0.7494  0.0000  0.0361  0.0000 </r>
       </set>
       <set comment="band 4">
        <r>  0.0252  0.0017  0.0000  0.0055  0.0095  0.0000  0.0933  0.0000  0.7970 </r>
       </set>
       <set comment="band 5">
        <r>  0.0000  0.0000  0.0040  0.0000  0.0000  0.0591  0.0000  0.9165  0.0000 </r>
       </set>
       <set comment="band 6">
        <r>  0.4904  0.0212  0.0000  0.1060  0.1190  0.0000  0.0001  0.0000  0.0435 </r>
       </set>
       <set comment="band 7">
        <r>  0.0000  0.0000  0.5017  0.0000  0.0000  0.2211  0.0000  0.0447  0.0000 </r>
       </set>
       <set comment="band 8">
        <r>  0.1831  0.0788  0.0000  0.2379  0.0556  0.0000  0.2108  0.0000  0.0008 </r>
       </set>
       <set comment="band 9">
        <r>  0.0093  0.1908  0.0000  0.1674  0.0493  0.0000  0.1509  0.0000  0.1200 </r>
       </set>
      </set>
     </set>
    </set>
   </array>
  </projected>
 </calculation>
 <structure name="finalpos"">
  <crystal>
   <varray name="basis"">
    <v>       0.00000000      1.96195000      1.96195000</v>
    <v>       1.96195000      0.00000000      1.96195000</v>
    <v>       1.96195000      1.96195000      0.00000000</v>
   </varray>
   <i name="volume""     15.10406345</i>
   <varray name="rec_basis"">
    <v>      -0.25484849      0.25484849      0.25484849</v>
    <v>       0.25484849     -0.25484849      0.25484849</v>
    <v>       0.25484849      0.25484849     -0.25484849</v>
   </varray>
  </crystal>
  <varray name="positions"">
   <v>       0.00000000      0.00000000      0.00000000</v>
  </varray>
 </structure>
</modeling>
