   2   2   0   0
  0.5000000E+03  0.1000000E-08  0.1000000E-08  0.1000000E-08  0.5000000E-15
  1.000000000000000E-004
  CAR 
 unknown system                          
      1.27996756    -30.62842829  301     -8.91467660      1.00000000
    -30.628  0.0000E+00  0.0000E+00
    -30.522  0.0000E+00  0.0000E+00
    -30.416  0.0000E+00  0.0000E+00
    -30.309  0.0000E+00  0.0000E+00
    -30.203  0.0000E+00  0.0000E+00
    -30.097  0.0000E+00  0.0000E+00
    -29.990  0.0000E+00  0.0000E+00
    -29.884  0.0000E+00  0.0000E+00
    -29.778  0.0000E+00  0.0000E+00
    -29.671  0.0000E+00  0.0000E+00
    -29.565  0.0000E+00  0.0000E+00
    -29.458  0.0000E+00  0.0000E+00
    -29.352 -0.1282-130 -0.1364-131
    -29.246 -0.2282E-19 -0.2427E-20
    -29.139  0.9402E+00  0.1000E+00
    -29.033  0.0000E+00  0.1000E+00
    -28.927  0.0000E+00  0.1000E+00
    -28.820  0.0000E+00  0.1000E+00
    -28.714  0.0000E+00  0.1000E+00
    -28.608  0.0000E+00  0.1000E+00
    -28.501  0.0000E+00  0.1000E+00
    -28.395  0.0000E+00  0.1000E+00
    -28.288  0.0000E+00  0.1000E+00
    -28.182  0.0000E+00  0.1000E+00
    -28.076  0.0000E+00  0.1000E+00
    -27.969  0.0000E+00  0.1000E+00
    -27.863  0.0000E+00  0.1000E+00
    -27.757  0.0000E+00  0.1000E+00
    -27.650  0.0000E+00  0.1000E+00
    -27.544  0.0000E+00  0.1000E+00
    -27.438  0.0000E+00  0.1000E+00
    -27.331  0.0000E+00  0.1000E+00
    -27.225  0.0000E+00  0.1000E+00
    -27.119  0.0000E+00  0.1000E+00
    -27.012  0.0000E+00  0.1000E+00
    -26.906  0.0000E+00  0.1000E+00
    -26.799  0.0000E+00  0.1000E+00
    -26.693  0.0000E+00  0.1000E+00
    -26.587  0.0000E+00  0.1000E+00
    -26.480  0.0000E+00  0.1000E+00
    -26.374  0.0000E+00  0.1000E+00
    -26.268  0.0000E+00  0.1000E+00
    -26.161  0.0000E+00  0.1000E+00
    -26.055  0.0000E+00  0.1000E+00
    -25.949  0.0000E+00  0.1000E+00
    -25.842  0.0000E+00  0.1000E+00
    -25.736  0.0000E+00  0.1000E+00
    -25.629  0.0000E+00  0.1000E+00
    -25.523  0.0000E+00  0.1000E+00
    -25.417  0.0000E+00  0.1000E+00
    -25.310  0.0000E+00  0.1000E+00
    -25.204  0.0000E+00  0.1000E+00
    -25.098  0.0000E+00  0.1000E+00
    -24.991  0.0000E+00  0.1000E+00
    -24.885  0.0000E+00  0.1000E+00
    -24.779  0.0000E+00  0.1000E+00
    -24.672  0.0000E+00  0.1000E+00
    -24.566  0.0000E+00  0.1000E+00
    -24.459  0.0000E+00  0.1000E+00
    -24.353  0.0000E+00  0.1000E+00
    -24.247  0.0000E+00  0.1000E+00
    -24.140  0.0000E+00  0.1000E+00
    -24.034  0.0000E+00  0.1000E+00
    -23.928  0.0000E+00  0.1000E+00
    -23.821  0.0000E+00  0.1000E+00
    -23.715  0.0000E+00  0.1000E+00
    -23.609  0.0000E+00  0.1000E+00
    -23.502  0.0000E+00  0.1000E+00
    -23.396  0.0000E+00  0.1000E+00
    -23.289  0.0000E+00  0.1000E+00
    -23.183  0.0000E+00  0.1000E+00
    -23.077  0.0000E+00  0.1000E+00
    -22.970  0.0000E+00  0.1000E+00
    -22.864  0.0000E+00  0.1000E+00
    -22.758  0.0000E+00  0.1000E+00
    -22.651  0.0000E+00  0.1000E+00
    -22.545  0.0000E+00  0.1000E+00
    -22.439  0.0000E+00  0.1000E+00
    -22.332  0.0000E+00  0.1000E+00
    -22.226  0.0000E+00  0.1000E+00
    -22.120  0.0000E+00  0.1000E+00
    -22.013  0.0000E+00  0.1000E+00
    -21.907  0.0000E+00  0.1000E+00
    -21.800  0.0000E+00  0.1000E+00
    -21.694  0.0000E+00  0.1000E+00
    -21.588  0.0000E+00  0.1000E+00
    -21.481  0.0000E+00  0.1000E+00
    -21.375  0.0000E+00  0.1000E+00
    -21.269  0.0000E+00  0.1000E+00
    -21.162  0.0000E+00  0.1000E+00
    -21.056  0.0000E+00  0.1000E+00
    -20.950  0.0000E+00  0.1000E+00
    -20.843  0.0000E+00  0.1000E+00
    -20.737  0.0000E+00  0.1000E+00
    -20.630  0.0000E+00  0.1000E+00
    -20.524  0.0000E+00  0.1000E+00
    -20.418  0.0000E+00  0.1000E+00
    -20.311  0.0000E+00  0.1000E+00
    -20.205  0.0000E+00  0.1000E+00
    -20.099  0.0000E+00  0.1000E+00
    -19.992  0.0000E+00  0.1000E+00
    -19.886  0.0000E+00  0.1000E+00
    -19.780  0.0000E+00  0.1000E+00
    -19.673  0.0000E+00  0.1000E+00
    -19.567  0.0000E+00  0.1000E+00
    -19.460  0.0000E+00  0.1000E+00
    -19.354  0.0000E+00  0.1000E+00
    -19.248  0.0000E+00  0.1000E+00
    -19.141  0.0000E+00  0.1000E+00
    -19.035  0.0000E+00  0.1000E+00
    -18.929  0.0000E+00  0.1000E+00
    -18.822  0.0000E+00  0.1000E+00
    -18.716  0.0000E+00  0.1000E+00
    -18.610  0.0000E+00  0.1000E+00
    -18.503  0.0000E+00  0.1000E+00
    -18.397  0.0000E+00  0.1000E+00
    -18.291  0.0000E+00  0.1000E+00
    -18.184  0.0000E+00  0.1000E+00
    -18.078  0.0000E+00  0.1000E+00
    -17.971  0.0000E+00  0.1000E+00
    -17.865  0.0000E+00  0.1000E+00
    -17.759  0.0000E+00  0.1000E+00
    -17.652  0.0000E+00  0.1000E+00
    -17.546  0.0000E+00  0.1000E+00
    -17.440  0.0000E+00  0.1000E+00
    -17.333  0.0000E+00  0.1000E+00
    -17.227  0.0000E+00  0.1000E+00
    -17.121  0.0000E+00  0.1000E+00
    -17.014  0.0000E+00  0.1000E+00
    -16.908  0.0000E+00  0.1000E+00
    -16.801  0.0000E+00  0.1000E+00
    -16.695  0.0000E+00  0.1000E+00
    -16.589  0.0000E+00  0.1000E+00
    -16.482  0.0000E+00  0.1000E+00
    -16.376  0.0000E+00  0.1000E+00
    -16.270  0.0000E+00  0.1000E+00
    -16.163  0.0000E+00  0.1000E+00
    -16.057  0.0000E+00  0.1000E+00
    -15.951  0.0000E+00  0.1000E+00
    -15.844  0.0000E+00  0.1000E+00
    -15.738  0.0000E+00  0.1000E+00
    -15.631  0.0000E+00  0.1000E+00
    -15.525  0.0000E+00  0.1000E+00
    -15.419  0.0000E+00  0.1000E+00
    -15.312  0.0000E+00  0.1000E+00
    -15.206  0.0000E+00  0.1000E+00
    -15.100  0.0000E+00  0.1000E+00
    -14.993  0.0000E+00  0.1000E+00
    -14.887  0.0000E+00  0.1000E+00
    -14.781  0.0000E+00  0.1000E+00
    -14.674  0.0000E+00  0.1000E+00
    -14.568  0.0000E+00  0.1000E+00
    -14.462  0.0000E+00  0.1000E+00
    -14.355  0.0000E+00  0.1000E+00
    -14.249  0.0000E+00  0.1000E+00
    -14.142  0.0000E+00  0.1000E+00
    -14.036 -0.9798E-32  0.1000E+00
    -13.930  0.9476E+00  0.2008E+00
    -13.823  0.0000E+00  0.2000E+00
    -13.717  0.0000E+00  0.2000E+00
    -13.611  0.0000E+00  0.2000E+00
    -13.504  0.0000E+00  0.2000E+00
    -13.398  0.0000E+00  0.2000E+00
    -13.292  0.0000E+00  0.2000E+00
    -13.185  0.0000E+00  0.2000E+00
    -13.079  0.0000E+00  0.2000E+00
    -12.972  0.0000E+00  0.2000E+00
    -12.866  0.0000E+00  0.2000E+00
    -12.760  0.0000E+00  0.2000E+00
    -12.653  0.0000E+00  0.2000E+00
    -12.547  0.0000E+00  0.2000E+00
    -12.441  0.0000E+00  0.2000E+00
    -12.334  0.0000E+00  0.2000E+00
    -12.228  0.0000E+00  0.2000E+00
    -12.122  0.0000E+00  0.2000E+00
    -12.015  0.0000E+00  0.2000E+00
    -11.909  0.0000E+00  0.2000E+00
    -11.802 -0.5206-128  0.2000E+00
    -11.696 -0.3483E-18  0.2000E+00
    -11.590  0.1880E+01  0.4000E+00
    -11.483  0.0000E+00  0.4000E+00
    -11.377  0.0000E+00  0.4000E+00
    -11.271  0.0000E+00  0.4000E+00
    -11.164  0.0000E+00  0.4000E+00
    -11.058  0.0000E+00  0.4000E+00
    -10.952  0.0000E+00  0.4000E+00
    -10.845  0.0000E+00  0.4000E+00
    -10.739  0.0000E+00  0.4000E+00
    -10.633  0.0000E+00  0.4000E+00
    -10.526  0.0000E+00  0.4000E+00
    -10.420  0.0000E+00  0.4000E+00
    -10.313  0.0000E+00  0.4000E+00
    -10.207  0.0000E+00  0.4000E+00
    -10.101  0.0000E+00  0.4000E+00
     -9.994  0.0000E+00  0.4000E+00
     -9.888  0.0000E+00  0.4000E+00
     -9.782  0.0000E+00  0.4000E+00
     -9.675  0.0000E+00  0.4000E+00
     -9.569  0.0000E+00  0.4000E+00
     -9.463  0.0000E+00  0.4000E+00
     -9.356  0.0000E+00  0.4000E+00
     -9.250  0.0000E+00  0.4000E+00
     -9.143  0.0000E+00  0.4000E+00
     -9.037 -0.1133E-55  0.4000E+00
     -8.931  0.1901E-01  0.4020E+00
     -8.824  0.0000E+00  0.5000E+00
     -8.718  0.0000E+00  0.5000E+00
     -8.612  0.0000E+00  0.5000E+00
     -8.505  0.0000E+00  0.5000E+00
     -8.399  0.0000E+00  0.5000E+00
     -8.293  0.0000E+00  0.5000E+00
     -8.186  0.0000E+00  0.5000E+00
     -8.080  0.0000E+00  0.5000E+00
     -7.973  0.0000E+00  0.5000E+00
     -7.867  0.0000E+00  0.5000E+00
     -7.761  0.0000E+00  0.5000E+00
     -7.654  0.0000E+00  0.5000E+00
     -7.548  0.0000E+00  0.5000E+00
     -7.442  0.0000E+00  0.5000E+00
     -7.335  0.0000E+00  0.5000E+00
     -7.229  0.0000E+00  0.5000E+00
     -7.123  0.0000E+00  0.5000E+00
     -7.016  0.0000E+00  0.5000E+00
     -6.910  0.0000E+00  0.5000E+00
     -6.803  0.0000E+00  0.5000E+00
     -6.697  0.0000E+00  0.5000E+00
     -6.591  0.0000E+00  0.5000E+00
     -6.484  0.0000E+00  0.5000E+00
     -6.378  0.0000E+00  0.5000E+00
     -6.272  0.0000E+00  0.5000E+00
     -6.165  0.0000E+00  0.5000E+00
     -6.059  0.0000E+00  0.5000E+00
     -5.953  0.0000E+00  0.5000E+00
     -5.846  0.0000E+00  0.5000E+00
     -5.740  0.0000E+00  0.5000E+00
     -5.634  0.0000E+00  0.5000E+00
     -5.527  0.0000E+00  0.5000E+00
     -5.421  0.0000E+00  0.5000E+00
     -5.314  0.0000E+00  0.5000E+00
     -5.208  0.0000E+00  0.5000E+00
     -5.102  0.0000E+00  0.5000E+00
     -4.995  0.0000E+00  0.5000E+00
     -4.889  0.0000E+00  0.5000E+00
     -4.783  0.0000E+00  0.5000E+00
     -4.676  0.0000E+00  0.5000E+00
     -4.570  0.0000E+00  0.5000E+00
     -4.464  0.0000E+00  0.5000E+00
     -4.357  0.0000E+00  0.5000E+00
     -4.251  0.0000E+00  0.5000E+00
     -4.144  0.0000E+00  0.5000E+00
     -4.038  0.0000E+00  0.5000E+00
     -3.932  0.0000E+00  0.5000E+00
     -3.825  0.0000E+00  0.5000E+00
     -3.719  0.0000E+00  0.5000E+00
     -3.613  0.0000E+00  0.5000E+00
     -3.506  0.0000E+00  0.5000E+00
     -3.400  0.0000E+00  0.5000E+00
     -3.294  0.0000E+00  0.5000E+00
     -3.187  0.0000E+00  0.5000E+00
     -3.081  0.0000E+00  0.5000E+00
     -2.974  0.0000E+00  0.5000E+00
     -2.868  0.0000E+00  0.5000E+00
     -2.762  0.0000E+00  0.5000E+00
     -2.655  0.0000E+00  0.5000E+00
     -2.549  0.0000E+00  0.5000E+00
     -2.443  0.0000E+00  0.5000E+00
     -2.336  0.0000E+00  0.5000E+00
     -2.230  0.0000E+00  0.5000E+00
     -2.124 -0.2298E-58  0.5000E+00
     -2.017 -0.5720E-01  0.4939E+00
     -1.911  0.0000E+00  0.7000E+00
     -1.805  0.0000E+00  0.7000E+00
     -1.698  0.0000E+00  0.7000E+00
     -1.592  0.0000E+00  0.7000E+00
     -1.485  0.0000E+00  0.7000E+00
     -1.379  0.0000E+00  0.7000E+00
     -1.273  0.0000E+00  0.7000E+00
     -1.166  0.0000E+00  0.7000E+00
     -1.060  0.0000E+00  0.7000E+00
     -0.954  0.0000E+00  0.7000E+00
     -0.847  0.0000E+00  0.7000E+00
     -0.741  0.0000E+00  0.7000E+00
     -0.635  0.0000E+00  0.7000E+00
     -0.528  0.0000E+00  0.7000E+00
     -0.422  0.0000E+00  0.7000E+00
     -0.315 -0.1685E-90  0.7000E+00
     -0.209 -0.3057E-06  0.7000E+00
     -0.103  0.9402E+00  0.8000E+00
      0.004  0.0000E+00  0.8000E+00
      0.110  0.0000E+00  0.8000E+00
      0.216  0.0000E+00  0.8000E+00
      0.323  0.0000E+00  0.8000E+00
      0.429  0.0000E+00  0.8000E+00
      0.535  0.0000E+00  0.8000E+00
      0.642  0.0000E+00  0.8000E+00
      0.748  0.0000E+00  0.8000E+00
      0.855  0.0000E+00  0.8000E+00
      0.961  0.0000E+00  0.8000E+00
      1.067  0.0000E+00  0.8000E+00
      1.174  0.0000E+00  0.8000E+00
      1.280  0.0000E+00  0.8000E+00
