    2    2   20    1
  0.5000000E+03  0.1000000E-08  0.1000000E-08  0.1000000E-08  0.5000000E-15
  1.000000000000000E-004
  CAR 
 unknown system                          
     10      1      8
 
  0.0000000E+00  0.0000000E+00  0.0000000E+00  0.1000000E+01
    1      -29.178047   1.000000
    2      -13.949731   1.000000
    3      -11.629965   1.000000
    4      -11.629965   1.000000
    5       -8.923095   1.000000
    6       -2.006614   0.000000
    7       -2.006614   0.000000
    8       -0.170414   0.000000
