 running on    8 total cores
 distrk:  each k-point on    8 cores,    1 groups
 distr:  one band on    1 cores,    8 groups
 using from now: INCAR     
 vasp.5.4.1 05Feb16 (build Feb 08 2018 09:21:51) complex                        
  
 POSCAR found :  2 types and       2 ions

 ----------------------------------------------------------------------------- 
|                                                                             |
|           W    W    AA    RRRRR   N    N  II  N    N   GGGG   !!!           |
|           W    W   A  A   R    R  NN   N  II  NN   N  G    G  !!!           |
|           W    W  A    A  R    R  N N  N  II  N N  N  G       !!!           |
|           W WW W  AAAAAA  RRRRR   N  N N  II  N  N N  G  GGG   !            |
|           WW  WW  A    A  R   R   N   NN  II  N   NN  G    G                |
|           W    W  A    A  R    R  N    N  II  N    N   GGGG   !!!           |
|                                                                             |
|      For optimal performance we recommend to set                            |
|        NCORE= 4 - approx SQRT( number of cores)                             |
|      NCORE specifies how many cores store one orbital (NPAR=cpu/NCORE).     |
|      This setting can  greatly improve the performance of VASP for DFT.     |
|      The default, NPAR=number of cores might be grossly inefficient         |
|      on modern multi-core architectures or massively parallel machines.     |
|      Do your own testing !!!!                                               |
|      Unfortunately you need to use the default for GW and RPA calculations. |
|      (for HF NCORE is supported but not extensively tested yet)             |
|                                                                             |
 ----------------------------------------------------------------------------- 

 LDA part: xc-table for Pade appr. of Perdew
 POSCAR, INCAR and KPOINTS ok, starting setup
 WARNING: small aliasing (wrap around) errors must be expected
 FFT: planning ...
 WAVECAR not read
 entering main loop
       N       E                     dE             d eps       ncg     rms          rms(c)
DAV:   1     0.860066896231E+02    0.86007E+02   -0.18010E+03    16   0.499E+02
DAV:   2     0.459935955108E+00   -0.85547E+02   -0.85547E+02    32   0.151E+02
DAV:   3    -0.154624176277E+02   -0.15922E+02   -0.15922E+02    32   0.893E+01
DAV:   4    -0.155962691698E+02   -0.13385E+00   -0.13385E+00    24   0.804E+00
DAV:   5    -0.155963520171E+02   -0.82847E-04   -0.82849E-04    24   0.208E-01    0.734E+00
DAV:   6    -0.148676500893E+02    0.72870E+00   -0.26877E+00    16   0.137E+01    0.395E+00
DAV:   7    -0.147158194042E+02    0.15183E+00   -0.58290E-01    24   0.573E+00    0.186E+00
DAV:   8    -0.146876236833E+02    0.28196E-01   -0.13005E-01    24   0.332E+00    0.531E-01
DAV:   9    -0.146870163614E+02    0.60732E-03   -0.91983E-03    16   0.916E-01    0.890E-02
DAV:  10    -0.146877354131E+02   -0.71905E-03   -0.58031E-04    16   0.196E-01    0.409E-02
DAV:  11    -0.146893365346E+02   -0.16011E-02   -0.77065E-04    16   0.166E-01    0.239E-02
DAV:  12    -0.146899927052E+02   -0.65617E-03   -0.72431E-05    16   0.541E-02    0.141E-02
DAV:  13    -0.146911529781E+02   -0.11603E-02   -0.17725E-04    16   0.726E-02    0.981E-03
DAV:  14    -0.146914574792E+02   -0.30450E-03   -0.28058E-05    16   0.295E-02    0.460E-03
DAV:  15    -0.146922840056E+02   -0.82653E-03   -0.18682E-05    16   0.251E-02    0.360E-03
DAV:  16    -0.146923279676E+02   -0.43962E-04   -0.23614E-06    16   0.112E-02
   1 F= -.14692328E+02 E0= -.14692328E+02  d E =-.146923E+02
 curvature:   0.00 expect dE= 0.000E+00 dE for cont linesearch  0.000E+00
 trial: gam= 0.00000 g(F)=  0.322E+01 g(S)=  0.000E+00 ort = 0.000E+00 (trialstep = 0.100E+01)
 search vector abs. value=  0.322E+01
 bond charge predicted
       N       E                     dE             d eps       ncg     rms          rms(c)
DAV:   1    -0.973881286354E+01    0.49535E+01   -0.66987E+02    16   0.283E+02    0.804E+00
DAV:   2    -0.986688014357E+01   -0.12807E+00   -0.25152E+01    16   0.395E+01    0.685E+00
DAV:   3    -0.979179848198E+01    0.75082E-01   -0.13109E+01    24   0.172E+01    0.464E+00
DAV:   4    -0.950459982300E+01    0.28720E+00   -0.20781E+00    32   0.699E+00    0.145E+00
DAV:   5    -0.953156036126E+01   -0.26961E-01   -0.18356E-01    24   0.295E+00    0.585E-01
DAV:   6    -0.952893937628E+01    0.26210E-02   -0.84440E-02    24   0.138E+00    0.266E-01
DAV:   7    -0.952996134320E+01   -0.10220E-02   -0.15266E-02    32   0.659E-01    0.998E-02
DAV:   8    -0.953120909644E+01   -0.12478E-02   -0.15884E-03    32   0.218E-01    0.401E-02
DAV:   9    -0.953381362949E+01   -0.26045E-02   -0.97469E-04    32   0.195E-01    0.242E-02
DAV:  10    -0.953441583083E+01   -0.60220E-03   -0.84451E-05    32   0.616E-02    0.229E-02
DAV:  11    -0.953502574679E+01   -0.60992E-03   -0.20301E-04    32   0.736E-02    0.154E-02
DAV:  12    -0.953522089341E+01   -0.19515E-03   -0.52740E-05    32   0.397E-02    0.756E-03
DAV:  13    -0.953526617493E+01   -0.45282E-04   -0.77168E-06    32   0.196E-02
   2 F= -.95352662E+01 E0= -.95356527E+01  d E =0.515706E+01
 trial-energy change:    5.157062  1 .order    1.606129   -3.219758    6.432017
 step:   0.3336(harm=  0.3336)  dis= 0.09297  next Energy=   -15.229371 (dE=-0.537E+00)
 bond charge predicted
       N       E                     dE             d eps       ncg     rms          rms(c)
DAV:   1    -0.136240748763E+02   -0.40889E+01   -0.28563E+02    16   0.183E+02    0.443E+00
DAV:   2    -0.142091893585E+02   -0.58511E+00   -0.10212E+01    32   0.296E+01    0.365E+00
DAV:   3    -0.140482307763E+02    0.16096E+00   -0.74962E-01    16   0.611E+00    0.175E+00
DAV:   4    -0.139815622845E+02    0.66668E-01   -0.32799E-01    16   0.509E+00    0.408E-01
DAV:   5    -0.139827538245E+02   -0.11915E-02   -0.60002E-03    16   0.658E-01    0.246E-01
DAV:   6    -0.139848624614E+02   -0.21086E-02   -0.20671E-03    16   0.386E-01    0.471E-02
DAV:   7    -0.139861616494E+02   -0.12992E-02   -0.15223E-04    16   0.105E-01    0.309E-02
DAV:   8    -0.139894634949E+02   -0.33018E-02   -0.99848E-04    16   0.188E-01    0.161E-02
DAV:   9    -0.139909054634E+02   -0.14420E-02   -0.11669E-04    16   0.586E-02    0.103E-02
DAV:  10    -0.139910933678E+02   -0.18790E-03   -0.10123E-04    16   0.525E-02    0.487E-03
DAV:  11    -0.139913575570E+02   -0.26419E-03   -0.12094E-05    16   0.249E-02    0.371E-03
DAV:  12    -0.139914403510E+02   -0.82794E-04   -0.33798E-06    16   0.128E-02
   3 F= -.13991440E+02 E0= -.13991634E+02  d E =0.700888E+00
 curvature:  -0.17 expect dE=-0.153E+01 dE for cont linesearch -0.153E+01
 ZBRENT: interpolating
 opt :   0.1240  next Energy=   -14.891996 (dE=-0.200E+00)
 bond charge predicted
       N       E                     dE             d eps       ncg     rms          rms(c)
DAV:   1    -0.147778508764E+02   -0.78649E+00   -0.33477E+01    16   0.676E+01    0.250E+00
DAV:   2    -0.147978480624E+02   -0.19997E-01   -0.84262E-01    16   0.925E+00    0.106E+00
DAV:   3    -0.147778393118E+02    0.20009E-01   -0.52115E-02    24   0.227E+00    0.475E-01
DAV:   4    -0.147756032554E+02    0.22361E-02   -0.18007E-02    16   0.127E+00    0.147E-01
DAV:   5    -0.147759899984E+02   -0.38674E-03   -0.57575E-04    16   0.240E-01    0.789E-02
DAV:   6    -0.147765497184E+02   -0.55972E-03   -0.29195E-04    16   0.135E-01    0.166E-02
DAV:   7    -0.147770141375E+02   -0.46442E-03   -0.49284E-05    16   0.513E-02    0.108E-02
DAV:   8    -0.147770767761E+02   -0.62639E-04   -0.11497E-04    16   0.591E-02
   4 F= -.14777077E+02 E0= -.14777270E+02  d E =-.847488E-01
 curvature:  -0.02 expect dE=-0.142E-01 dE for cont linesearch -0.142E-01
 ZBRENT: interpolating
 opt :   0.0855  next Energy=   -14.805108 (dE=-0.113E+00)
 bond charge predicted
       N       E                     dE             d eps       ncg     rms          rms(c)
DAV:   1    -0.148123490384E+02   -0.35335E-01   -0.11993E+00    16   0.130E+01    0.510E-01
DAV:   2    -0.148110194653E+02    0.13296E-02   -0.26383E-02    16   0.167E+00    0.224E-01
DAV:   3    -0.148109003905E+02    0.11907E-03   -0.29556E-03    24   0.545E-01    0.812E-02
DAV:   4    -0.148110093983E+02   -0.10901E-03   -0.23362E-04    16   0.172E-01    0.336E-02
DAV:   5    -0.148111019310E+02   -0.92533E-04   -0.38073E-05    16   0.565E-02
   5 F= -.14811102E+02 E0= -.14811102E+02  d E =-.118774E+00
 curvature:  -0.04 expect dE=-0.749E-03 dE for cont linesearch -0.749E-03
 trial: gam= 0.00000 g(F)=  0.175E-01 g(S)=  0.000E+00 ort =-0.238E+00 (trialstep = 0.817E+00)
 search vector abs. value=  0.175E-01
 bond charge predicted
       N       E                     dE             d eps       ncg     rms          rms(c)
DAV:   1    -0.147627925944E+02    0.48217E-01   -0.29956E+00    16   0.207E+01    0.834E-01
DAV:   2    -0.147597835190E+02    0.30091E-02   -0.60375E-02    16   0.263E+00    0.371E-01
DAV:   3    -0.147579243179E+02    0.18592E-02   -0.90741E-03    24   0.952E-01    0.125E-01
DAV:   4    -0.147580655873E+02   -0.14127E-03   -0.57267E-04    16   0.270E-01    0.560E-02
DAV:   5    -0.147582396793E+02   -0.17409E-03   -0.14684E-04    16   0.106E-01    0.167E-02
DAV:   6    -0.147582822917E+02   -0.42612E-04   -0.15649E-05    16   0.305E-02
   6 F= -.14758282E+02 E0= -.14758282E+02  d E =0.528196E-01
 trial-energy change:    0.052820  1 .order    0.055425   -0.014321    0.125170
 step:   0.0931(harm=  0.0839)  dis= 0.00191  next Energy=   -14.811922 (dE=-0.820E-03)
 bond charge predicted
       N       E                     dE             d eps       ncg     rms          rms(c)
DAV:   1    -0.148158385625E+02   -0.57599E-01   -0.23610E+00    16   0.183E+01    0.721E-01
DAV:   2    -0.148126172122E+02    0.32214E-02   -0.46308E-02    16   0.228E+00    0.330E-01
DAV:   3    -0.148112575742E+02    0.13596E-02   -0.72746E-03    16   0.848E-01    0.106E-01
DAV:   4    -0.148120267810E+02   -0.76921E-03   -0.35239E-04    16   0.211E-01    0.489E-02
DAV:   5    -0.148115490484E+02    0.47773E-03   -0.12271E-04    16   0.889E-02    0.170E-02
DAV:   6    -0.148115662766E+02   -0.17228E-04   -0.18495E-05    16   0.307E-02
   7 F= -.14811566E+02 E0= -.14811760E+02  d E =-.464346E-03
 curvature:  -0.04 expect dE=-0.482E-07 dE for cont linesearch -0.482E-07
 trial: gam=-0.00803 g(F)=  0.115E-05 g(S)=  0.000E+00 ort = 0.142E-03 (trialstep = 0.672E+00)
 search vector abs. value=  0.175E-09
 reached required accuracy - stopping structural energy minimisation
Running "mpirun -np 8 vasp"
