<?xml version="1.0" encoding="ISO-8859-1"?>
<modeling>
 <generator>
  <i name="program" type="string">vasp </i>
  <i name="version" type="string">5.4.1  </i>
  <i name="subversion" type="string">05Feb16 (build Feb 08 2018 09:21:51) complex                          parallel </i>
  <i name="platform" type="string">LinuxIFC </i>
  <i name="date" type="string">2019 10 28 </i>
  <i name="time" type="string">15:19:02 </i>
 </generator>
 <incar>
  <i type="string" name="PREC">normal</i>
  <i type="int" name="IBRION">     2</i>
  <i type="int" name="NSW">    20</i>
  <i name="ENCUT">    350.00000000</i>
  <i type="int" name="NBANDS">     8</i>
  <i type="int" name="ISMEAR">     1</i>
  <i name="SIGMA">      0.01000000</i>
  <i type="logical" name="LWAVE"> F  </i>
  <i type="logical" name="LCHARG"> F  </i>
  <v type="int" name="KPOINT_BSE">    -1     0     0     0</v>
 </incar>
 <kpoints>
  <generation param="Monkhorst-Pack">
   <v type="int" name="divisions">       1        1        1 </v>
   <v name="usershift">      0.00000000       0.00000000       0.00000000 </v>
   <v name="genvec1">      1.00000000       0.00000000       0.00000000 </v>
   <v name="genvec2">      0.00000000       1.00000000       0.00000000 </v>
   <v name="genvec3">      0.00000000       0.00000000       1.00000000 </v>
   <v name="shift">      0.00000000       0.00000000       0.00000000 </v>
  </generation>
  <varray name="kpointlist" >
   <v>       0.00000000       0.00000000       0.00000000 </v>
  </varray>
  <varray name="weights" >
   <v>       1.00000000 </v>
  </varray>
 </kpoints>
 <parameters>
  <separator name="general" >
   <i type="string" name="SYSTEM">unknown system</i>
   <i type="logical" name="LCOMPAT"> F  </i>
  </separator>
  <separator name="electronic" >
   <i type="string" name="PREC">normal</i>
   <i name="ENMAX">    350.00000000</i>
   <i name="ENAUG">    644.87300000</i>
   <i name="EDIFF">      0.00010000</i>
   <i type="int" name="IALGO">    38</i>
   <i type="int" name="IWAVPR">    11</i>
   <i type="int" name="NBANDS">     8</i>
   <i name="NELECT">     10.00000000</i>
   <i type="int" name="TURBO">     0</i>
   <i type="int" name="IRESTART">     0</i>
   <i type="int" name="NREBOOT">     0</i>
   <i type="int" name="NMIN">     0</i>
   <i name="EREF">      0.00000000</i>
   <separator name="electronic smearing" >
    <i type="int" name="ISMEAR">     1</i>
    <i name="SIGMA">      0.01000000</i>
    <i name="KSPACING">      0.50000000</i>
    <i type="logical" name="KGAMMA"> T  </i>
   </separator>
   <separator name="electronic projectors" >
    <i type="logical" name="LREAL"> F  </i>
    <v name="ROPT">      0.00000000      0.00000000</v>
    <i type="int" name="LMAXPAW">  -100</i>
    <i type="int" name="LMAXMIX">     2</i>
    <i type="logical" name="NLSPLINE"> F  </i>
   </separator>
   <separator name="electronic startup" >
    <i type="int" name="ISTART">     0</i>
    <i type="int" name="ICHARG">     2</i>
    <i type="int" name="INIWAV">     1</i>
   </separator>
   <separator name="electronic spin" >
    <i type="int" name="ISPIN">     1</i>
    <i type="logical" name="LNONCOLLINEAR"> F  </i>
    <v name="MAGMOM">      1.00000000      1.00000000</v>
    <i name="NUPDOWN">     -1.00000000</i>
    <i type="logical" name="LSORBIT"> F  </i>
    <v name="SAXIS">      0.00000000      0.00000000      1.00000000</v>
    <i type="logical" name="LSPIRAL"> F  </i>
    <v name="QSPIRAL">      0.00000000      0.00000000      0.00000000</v>
    <i type="logical" name="LZEROZ"> F  </i>
   </separator>
   <separator name="electronic exchange-correlation" >
    <i type="logical" name="LASPH"> F  </i>
    <i type="logical" name="LMETAGGA"> F  </i>
   </separator>
   <separator name="electronic convergence" >
    <i type="int" name="NELM">    60</i>
    <i type="int" name="NELMDL">     0</i>
    <i type="int" name="NELMIN">     2</i>
    <i name="ENINI">    350.00000000</i>
    <separator name="electronic convergence detail" >
     <i type="logical" name="LDIAG"> T  </i>
     <i type="logical" name="LSUBROT"> F  </i>
     <i name="WEIMIN">      0.00100000</i>
     <i name="EBREAK">      0.00000313</i>
     <i name="DEPER">      0.30000000</i>
     <i type="int" name="NRMM">     4</i>
     <i name="TIME">      0.40000000</i>
    </separator>
   </separator>
   <separator name="electronic mixer" >
    <i name="AMIX">      0.40000000</i>
    <i name="BMIX">      1.00000000</i>
    <i name="AMIN">      0.10000000</i>
    <i name="AMIX_MAG">      1.60000000</i>
    <i name="BMIX_MAG">      1.00000000</i>
    <separator name="electronic mixer details" >
     <i type="int" name="IMIX">     4</i>
     <i type="logical" name="MIXFIRST"> F  </i>
     <i type="int" name="MAXMIX">   -45</i>
     <i name="WC">    100.00000000</i>
     <i type="int" name="INIMIX">     1</i>
     <i type="int" name="MIXPRE">     1</i>
     <i type="int" name="MREMOVE">     5</i>
    </separator>
   </separator>
   <separator name="electronic dipolcorrection" >
    <i type="logical" name="LDIPOL"> F  </i>
    <i type="logical" name="LMONO"> F  </i>
    <i type="int" name="IDIPOL">     0</i>
    <i name="EPSILON">      1.00000000</i>
    <v name="DIPOL">   -100.00000000   -100.00000000   -100.00000000</v>
    <i name="EFIELD">      0.00000000</i>
   </separator>
  </separator>
  <separator name="grids" >
   <i type="int" name="NGX">    48</i>
   <i type="int" name="NGY">    48</i>
   <i type="int" name="NGZ">    48</i>
   <i type="int" name="NGXF">    96</i>
   <i type="int" name="NGYF">    96</i>
   <i type="int" name="NGZF">    96</i>
   <i type="logical" name="ADDGRID"> F  </i>
  </separator>
  <separator name="ionic" >
   <i type="int" name="NSW">    20</i>
   <i type="int" name="IBRION">     2</i>
   <i type="int" name="ISIF">     2</i>
   <i name="PSTRESS">      0.00000000</i>
   <i name="EDIFFG">      0.00100000</i>
   <i type="int" name="NFREE">     1</i>
   <i name="POTIM">      0.50000000</i>
   <i name="SMASS">     -3.00000000</i>
   <i name="SCALEE">      1.00000000</i>
  </separator>
  <separator name="ionic md" >
   <i name="TEBEG">      0.00010000</i>
   <i name="TEEND">      0.00010000</i>
   <i type="int" name="NBLOCK">     1</i>
   <i type="int" name="KBLOCK">    20</i>
   <i type="int" name="NPACO">   256</i>
   <i name="APACO">     16.00000000</i>
  </separator>
  <separator name="symmetry" >
   <i type="int" name="ISYM">     2</i>
   <i name="SYMPREC">      0.00001000</i>
  </separator>
  <separator name="dos" >
   <i type="logical" name="LORBIT"> F  </i>
   <v name="RWIGS">     -1.00000000     -1.00000000</v>
   <i type="int" name="NEDOS">   301</i>
   <i name="EMIN">     10.00000000</i>
   <i name="EMAX">    -10.00000000</i>
   <i name="EFERMI">      0.00000000</i>
  </separator>
  <separator name="writing" >
   <i type="int" name="NWRITE">     2</i>
   <i type="logical" name="LWAVE"> F  </i>
   <i type="logical" name="LCHARG"> F  </i>
   <i type="logical" name="LPARD"> F  </i>
   <i type="logical" name="LVTOT"> F  </i>
   <i type="logical" name="LVHAR"> F  </i>
   <i type="logical" name="LELF"> F  </i>
   <i type="logical" name="LOPTICS"> F  </i>
   <v name="STM">      0.00000000      0.00000000      0.00000000      0.00000000      0.00000000      0.00000000      0.00000000</v>
  </separator>
  <separator name="performance" >
   <i type="int" name="NPAR">     8</i>
   <i type="int" name="NSIM">     4</i>
   <i type="int" name="NBLK">    -1</i>
   <i type="logical" name="LPLANE"> T  </i>
   <i type="logical" name="LSCALAPACK"> F  </i>
   <i type="logical" name="LSCAAWARE"> F  </i>
   <i type="logical" name="LSCALU"> F  </i>
   <i type="logical" name="LASYNC"> F  </i>
   <i type="logical" name="LORBITALREAL"> F  </i>
  </separator>
  <separator name="miscellaneous" >
   <i type="int" name="IDIOT">     3</i>
   <i type="logical" name="LMUSIC"> F  </i>
   <v name="POMASS">     12.01100000     16.00000000</v>
   <v name="DARWINR">      0.00000000      0.00000000</v>
   <v name="DARWINV">      1.00000000      1.00000000</v>
   <i type="logical" name="LCORR"> T  </i>
  </separator>
  <i type="logical" name="GGA_COMPAT"> T  </i>
  <i type="logical" name="LBERRY"> F  </i>
  <i type="int" name="ICORELEVEL">     0</i>
  <i type="logical" name="LDAU"> F  </i>
  <i type="int" name="I_CONSTRAINED_M">     0</i>
  <separator name="electronic exchange-correlation" >
   <i type="string" name="GGA">--</i>
   <i type="int" name="VOSKOWN">     0</i>
   <i type="logical" name="LHFCALC"> F  </i>
   <i type="string" name="PRECFOCK"></i>
   <i type="logical" name="LSYMGRAD"> F  </i>
   <i type="logical" name="LHFONE"> F  </i>
   <i type="logical" name="LRHFCALC"> F  </i>
   <i type="logical" name="LTHOMAS"> F  </i>
   <i type="logical" name="LMODELHF"> F  </i>
   <i name="ENCUT4O">     -1.00000000</i>
   <i type="int" name="EXXOEP">     0</i>
   <i type="int" name="FOURORBIT">     0</i>
   <i name="AEXX">      0.00000000</i>
   <i name="HFALPHA">      0.00000000</i>
   <i name="MCALPHA">      0.00000000</i>
   <i name="ALDAX">      1.00000000</i>
   <i name="AGGAX">      1.00000000</i>
   <i name="ALDAC">      1.00000000</i>
   <i name="AGGAC">      1.00000000</i>
   <i type="int" name="NKREDX">     1</i>
   <i type="int" name="NKREDY">     1</i>
   <i type="int" name="NKREDZ">     1</i>
   <i type="logical" name="SHIFTRED"> F  </i>
   <i type="logical" name="ODDONLY"> F  </i>
   <i type="logical" name="EVENONLY"> F  </i>
   <i type="int" name="LMAXFOCK">     0</i>
   <i type="int" name="NMAXFOCKAE">     0</i>
   <i type="logical" name="LFOCKAEDFT"> F  </i>
   <i name="HFSCREEN">      0.00000000</i>
   <i name="HFSCREENC">      0.00000000</i>
   <i type="int" name="NBANDSGWLOW">     0</i>
  </separator>
  <separator name="vdW DFT" >
   <i type="logical" name="LUSE_VDW"> F  </i>
   <i name="Zab_VDW">     -0.84910000</i>
   <i name="PARAM1">      0.12340000</i>
   <i name="PARAM2">      1.00000000</i>
   <i name="PARAM3">      0.00000000</i>
  </separator>
  <separator name="model GW" >
   <i type="int" name="MODEL_GW">     0</i>
   <i name="MODEL_EPS0">    300.00000000</i>
   <i name="MODEL_ALPHA">      1.00000000</i>
  </separator>
  <separator name="linear response parameters" >
   <i type="logical" name="LEPSILON"> F  </i>
   <i type="logical" name="LRPA"> F  </i>
   <i type="logical" name="LNABLA"> F  </i>
   <i type="logical" name="LVEL"> F  </i>
   <i type="int" name="KINTER">     0</i>
   <i name="CSHIFT">      0.10000000</i>
   <i name="OMEGAMAX">     -1.00000000</i>
   <i name="DEG_THRESHOLD">      0.00200000</i>
  </separator>
  <separator name="orbital magnetization" >
   <i type="logical" name="NUCIND"> F  </i>
   <v name="MAGPOS">      0.00000000      0.00000000      0.00000000</v>
   <i type="logical" name="LNICSALL"> T  </i>
   <i type="logical" name="ORBITALMAG"> F  </i>
   <i type="logical" name="LMAGBLOCH"> F  </i>
   <i type="logical" name="LCHIMAG"> F  </i>
   <i type="logical" name="LGAUGE"> T  </i>
   <i type="int" name="MAGATOM">     0</i>
   <v name="MAGDIPOL">      0.00000000      0.00000000      0.00000000</v>
   <v name="AVECCONST">      0.00000000      0.00000000      0.00000000</v>
  </separator>
  <separator name="response functions" >
   <i type="logical" name="LADDER"> F  </i>
   <i type="logical" name="LFXC"> F  </i>
   <i type="logical" name="LHARTREE"> T  </i>
   <i type="int" name="IBSE">     0</i>
   <v type="int" name="KPOINT">    -1     0     0     0</v>
   <i type="logical" name="LTCTE"> F  </i>
   <i type="logical" name="LTETE"> F  </i>
   <i type="logical" name="LTRIPLET"> F  </i>
   <i type="logical" name="LFXCEPS"> F  </i>
   <i type="logical" name="LFXHEG"> F  </i>
   <i type="int" name="NATURALO">     0</i>
   <i type="logical" name="L2ORDER"> F  </i>
   <i type="logical" name="LUSEW"> F  </i>
   <i name="ENCUTGW">     -2.00000000</i>
   <i name="ENCUTGWSOFT">     -2.00000000</i>
   <i name="ENCUTLF">     -1.00000000</i>
   <i type="int" name="LMAXMP2">    -1</i>
   <i name="SCISSOR">      0.00000000</i>
   <i type="int" name="NOMEGA">     0</i>
   <i type="int" name="NOMEGAR">     0</i>
   <i type="int" name="NBANDSGW">    -1</i>
   <i type="int" name="NBANDSO">    -1</i>
   <i type="int" name="NBANDSV">    -1</i>
   <i type="int" name="NELM">     1</i>
   <i type="int" name="NELMHF">     1</i>
   <i type="int" name="DIM">     3</i>
   <i type="int" name="ANTIRES">     0</i>
   <i name="OMEGAMAX">    -30.00000000</i>
   <i name="OMEGAMIN">    -30.00000000</i>
   <i name="OMEGATL">   -200.00000000</i>
   <i type="int" name="OMEGAGRID">     0</i>
   <i name="CSHIFT">     -0.10000000</i>
   <i type="logical" name="SELFENERGY"> F  </i>
   <i type="logical" name="LSPECTRAL"> F  </i>
   <i type="logical" name="LSPECTRALGW"> F  </i>
   <i type="logical" name="LSINGLES"> F  </i>
   <i type="logical" name="LFERMIGW"> F  </i>
   <i type="logical" name="ODDONLYGW"> F  </i>
   <i type="logical" name="EVENONLYGW"> F  </i>
   <i type="int" name="NKREDLFX">     1</i>
   <i type="int" name="NKREDLFY">     1</i>
   <i type="int" name="NKREDLFZ">     1</i>
   <i type="int" name="MAXMEM">  1800</i>
   <i type="int" name="TELESCOPE">     0</i>
   <i type="int" name="TAUPAR">     1</i>
   <i type="int" name="OMEGAPAR">    -1</i>
   <i name="LAMBDA">      1.00000000</i>
  </separator>
  <separator name="External order field" >
   <i name="OFIELD_KAPPA">      0.00000000</i>
   <v name="OFIELD_K">      0.00000000      0.00000000      0.00000000</v>
   <i name="OFIELD_Q6_NEAR">      0.00000000</i>
   <i name="OFIELD_Q6_FAR">      0.00000000</i>
   <i name="OFIELD_A">      0.00000000</i>
  </separator>
 </parameters>
 <atominfo>
  <atoms>       2 </atoms>
  <types>       2 </types>
  <array name="atoms" >
   <dimension dim="1">ion</dimension>
   <field type="string">element</field>
   <field type="int">atomtype</field>
   <set>
    <rc><c>C </c><c>   1</c></rc>
    <rc><c>O </c><c>   2</c></rc>
   </set>
  </array>
  <array name="atomtypes" >
   <dimension dim="1">type</dimension>
   <field type="int">atomspertype</field>
   <field type="string">element</field>
   <field>mass</field>
   <field>valence</field>
   <field type="string">pseudopotential</field>
   <set>
    <rc><c>   1</c><c>C </c><c>     12.01100000</c><c>      4.00000000</c><c>  PAW_PBE C 08Apr2002                   </c></rc>
    <rc><c>   1</c><c>O </c><c>     16.00000000</c><c>      6.00000000</c><c>  PAW_PBE O 08Apr2002                   </c></rc>
   </set>
  </array>
 </atominfo>
 <structure name="initialpos" >
  <crystal>
   <varray name="basis" >
    <v>      10.00000000       0.00000000       0.00000000 </v>
    <v>       0.00000000      10.00000000       0.00000000 </v>
    <v>       0.00000000       0.00000000      10.00000000 </v>
   </varray>
   <i name="volume">   1000.00000000 </i>
   <varray name="rec_basis" >
    <v>       0.10000000       0.00000000       0.00000000 </v>
    <v>       0.00000000       0.10000000       0.00000000 </v>
    <v>       0.00000000       0.00000000       0.10000000 </v>
   </varray>
  </crystal>
  <varray name="positions" >
   <v>       0.00000000       0.00000000       0.00000000 </v>
   <v>       0.11000000       0.00000000       0.00000000 </v>
  </varray>
 </structure>
 <calculation>
  <scstep>
   <time name="dav">    0.08    0.08</time>
   <time name="total">    0.22    0.22</time>
   <energy>
    <i name="alphaZ">      0.43695755 </i>
    <i name="ewald">    110.78635065 </i>
    <i name="hartreedc">   -567.18250745 </i>
    <i name="XCdc">     39.40112230 </i>
    <i name="pawpsdc">    455.07152327 </i>
    <i name="pawaedc">   -457.43959975 </i>
    <i name="eentropy">      0.00057979 </i>
    <i name="bandstr">    -74.13896721 </i>
    <i name="atom">    579.07123046 </i>
    <i name="e_fr_energy">     86.00668962 </i>
    <i name="e_wo_entrp">     86.00610983 </i>
    <i name="e_0_energy">     86.00649636 </i>
   </energy>
  </scstep>
  <scstep>
   <time name="dav">    0.11    0.11</time>
   <time name="total">    0.11    0.12</time>
   <energy>
    <i name="e_fr_energy">      0.45993596 </i>
    <i name="e_wo_entrp">      0.45935616 </i>
    <i name="e_0_energy">      0.45974269 </i>
   </energy>
  </scstep>
  <scstep>
   <time name="dav">    0.12    0.12</time>
   <time name="total">    0.12    0.13</time>
   <energy>
    <i name="e_fr_energy">    -15.46241763 </i>
    <i name="e_wo_entrp">    -15.46299742 </i>
    <i name="e_0_energy">    -15.46261089 </i>
   </energy>
  </scstep>
  <scstep>
   <time name="dav">    0.10    0.10</time>
   <time name="total">    0.10    0.10</time>
   <energy>
    <i name="e_fr_energy">    -15.59626917 </i>
    <i name="e_wo_entrp">    -15.59684896 </i>
    <i name="e_0_energy">    -15.59646243 </i>
   </energy>
  </scstep>
  <scstep>
   <time name="dav">    0.08    0.08</time>
   <time name="total">    0.13    0.14</time>
   <energy>
    <i name="e_fr_energy">    -15.59635202 </i>
    <i name="e_wo_entrp">    -15.59693181 </i>
    <i name="e_0_energy">    -15.59654528 </i>
   </energy>
  </scstep>
  <scstep>
   <time name="dav">    0.07    0.07</time>
   <time name="total">    0.28    0.28</time>
   <energy>
    <i name="e_fr_energy">    -14.86765009 </i>
    <i name="e_wo_entrp">    -14.86765009 </i>
    <i name="e_0_energy">    -14.86765009 </i>
   </energy>
  </scstep>
  <scstep>
   <time name="dav">    0.11    0.11</time>
   <time name="total">    0.35    0.35</time>
   <energy>
    <i name="e_fr_energy">    -14.71581940 </i>
    <i name="e_wo_entrp">    -14.71581940 </i>
    <i name="e_0_energy">    -14.71581940 </i>
   </energy>
  </scstep>
  <scstep>
   <time name="dav">    0.10    0.10</time>
   <time name="total">    0.33    0.33</time>
   <energy>
    <i name="e_fr_energy">    -14.68762368 </i>
    <i name="e_wo_entrp">    -14.68762368 </i>
    <i name="e_0_energy">    -14.68762368 </i>
   </energy>
  </scstep>
  <scstep>
   <time name="dav">    0.07    0.07</time>
   <time name="total">    0.29    0.30</time>
   <energy>
    <i name="e_fr_energy">    -14.68701636 </i>
    <i name="e_wo_entrp">    -14.68701636 </i>
    <i name="e_0_energy">    -14.68701636 </i>
   </energy>
  </scstep>
  <scstep>
   <time name="dav">    0.07    0.07</time>
   <time name="total">    0.30    0.30</time>
   <energy>
    <i name="e_fr_energy">    -14.68773541 </i>
    <i name="e_wo_entrp">    -14.68773541 </i>
    <i name="e_0_energy">    -14.68773541 </i>
   </energy>
  </scstep>
  <scstep>
   <time name="dav">    0.05    0.05</time>
   <time name="total">    0.24    0.25</time>
   <energy>
    <i name="e_fr_energy">    -14.68933653 </i>
    <i name="e_wo_entrp">    -14.68991633 </i>
    <i name="e_0_energy">    -14.68952980 </i>
   </energy>
  </scstep>
  <scstep>
   <time name="dav">    0.07    0.07</time>
   <time name="total">    0.27    0.27</time>
   <energy>
    <i name="e_fr_energy">    -14.68999271 </i>
    <i name="e_wo_entrp">    -14.69057250 </i>
    <i name="e_0_energy">    -14.69018597 </i>
   </energy>
  </scstep>
  <scstep>
   <time name="dav">    0.07    0.07</time>
   <time name="total">    0.29    0.29</time>
   <energy>
    <i name="e_fr_energy">    -14.69115298 </i>
    <i name="e_wo_entrp">    -14.69173277 </i>
    <i name="e_0_energy">    -14.69134624 </i>
   </energy>
  </scstep>
  <scstep>
   <time name="dav">    0.07    0.07</time>
   <time name="total">    0.31    0.32</time>
   <energy>
    <i name="e_fr_energy">    -14.69145748 </i>
    <i name="e_wo_entrp">    -14.69203727 </i>
    <i name="e_0_energy">    -14.69165074 </i>
   </energy>
  </scstep>
  <scstep>
   <time name="dav">    0.08    0.08</time>
   <time name="total">    0.30    0.30</time>
   <energy>
    <i name="e_fr_energy">    -14.69228401 </i>
    <i name="e_wo_entrp">    -14.69228401 </i>
    <i name="e_0_energy">    -14.69228401 </i>
   </energy>
  </scstep>
  <scstep>
   <time name="dav">    0.07    0.07</time>
   <time name="total">    0.23    0.23</time>
   <energy>
    <i name="alphaZ">      0.43695755 </i>
    <i name="ewald">    110.78635065 </i>
    <i name="hartreedc">   -590.05129738 </i>
    <i name="XCdc">     40.73215450 </i>
    <i name="pawpsdc">    961.31324862 </i>
    <i name="pawaedc">   -963.72811061 </i>
    <i name="eentropy">      0.00000000 </i>
    <i name="bandstr">   -153.25286176 </i>
    <i name="atom">    579.07123046 </i>
    <i name="e_fr_energy">    -14.69232797 </i>
    <i name="e_wo_entrp">    -14.69232797 </i>
    <i name="e_0_energy">    -14.69232797 </i>
   </energy>
  </scstep>
  <structure>
   <crystal>
    <varray name="basis" >
     <v>      10.00000000       0.00000000       0.00000000 </v>
     <v>       0.00000000      10.00000000       0.00000000 </v>
     <v>       0.00000000       0.00000000      10.00000000 </v>
    </varray>
    <i name="volume">   1000.00000000 </i>
    <varray name="rec_basis" >
     <v>       0.10000000       0.00000000       0.00000000 </v>
     <v>       0.00000000       0.10000000       0.00000000 </v>
     <v>       0.00000000       0.00000000       0.10000000 </v>
    </varray>
   </crystal>
   <varray name="positions" >
    <v>       0.00000000       0.00000000       0.00000000 </v>
    <v>       0.11000000       0.00000000       0.00000000 </v>
   </varray>
  </structure>
  <varray name="forces" >
   <v>      -5.77671642      -0.00000000       0.00000000 </v>
   <v>       5.77671642       0.00000000      -0.00000000 </v>
  </varray>
  <varray name="stress" >
   <v>       6.17788932       0.00000000       0.00000000 </v>
   <v>       0.00000000      -3.72185233      -0.00000000 </v>
   <v>      -0.00000000      -0.00000000      -3.72185233 </v>
  </varray>
  <energy>
   <i name="e_fr_energy">    -14.69232797 </i>
   <i name="e_wo_entrp">    -14.69232797 </i>
   <i name="e_0_energy">      0.00000000 </i>
  </energy>
  <time name="totalsc">    4.49    4.54</time>
 </calculation>
 <calculation>
  <scstep>
   <time name="dav">    0.07    0.07</time>
   <time name="total">    0.28    0.28</time>
   <energy>
    <i name="alphaZ">      0.43695755 </i>
    <i name="ewald">      6.30762120 </i>
    <i name="hartreedc">   -515.56551181 </i>
    <i name="XCdc">     38.89471955 </i>
    <i name="pawpsdc">    961.38075498 </i>
    <i name="pawaedc">   -963.79553573 </i>
    <i name="eentropy">      0.00057979 </i>
    <i name="bandstr">   -116.46962885 </i>
    <i name="atom">    579.07123046 </i>
    <i name="e_fr_energy">     -9.73881286 </i>
    <i name="e_wo_entrp">     -9.73939265 </i>
    <i name="e_0_energy">     -9.73900613 </i>
   </energy>
  </scstep>
  <scstep>
   <time name="dav">    0.07    0.07</time>
   <time name="total">    0.28    0.28</time>
   <energy>
    <i name="e_fr_energy">     -9.86688014 </i>
    <i name="e_wo_entrp">     -9.86803972 </i>
    <i name="e_0_energy">     -9.86726667 </i>
   </energy>
  </scstep>
  <scstep>
   <time name="dav">    0.10    0.10</time>
   <time name="total">    0.31    0.31</time>
   <energy>
    <i name="e_fr_energy">     -9.79179848 </i>
    <i name="e_wo_entrp">     -9.79179848 </i>
    <i name="e_0_energy">     -9.79179848 </i>
   </energy>
  </scstep>
  <scstep>
   <time name="dav">    0.13    0.13</time>
   <time name="total">    0.34    0.34</time>
   <energy>
    <i name="e_fr_energy">     -9.50459982 </i>
    <i name="e_wo_entrp">     -9.50575940 </i>
    <i name="e_0_energy">     -9.50498635 </i>
   </energy>
  </scstep>
  <scstep>
   <time name="dav">    0.10    0.10</time>
   <time name="total">    0.31    0.31</time>
   <energy>
    <i name="e_fr_energy">     -9.53156036 </i>
    <i name="e_wo_entrp">     -9.53156036 </i>
    <i name="e_0_energy">     -9.53156036 </i>
   </energy>
  </scstep>
  <scstep>
   <time name="dav">    0.08    0.08</time>
   <time name="total">    0.26    0.27</time>
   <energy>
    <i name="e_fr_energy">     -9.52893938 </i>
    <i name="e_wo_entrp">     -9.53009896 </i>
    <i name="e_0_energy">     -9.52932590 </i>
   </energy>
  </scstep>
  <scstep>
   <time name="dav">    0.11    0.11</time>
   <time name="total">    0.30    0.31</time>
   <energy>
    <i name="e_fr_energy">     -9.52996134 </i>
    <i name="e_wo_entrp">     -9.53112092 </i>
    <i name="e_0_energy">     -9.53034787 </i>
   </energy>
  </scstep>
  <scstep>
   <time name="dav">    0.13    0.13</time>
   <time name="total">    0.34    0.34</time>
   <energy>
    <i name="e_fr_energy">     -9.53120910 </i>
    <i name="e_wo_entrp">     -9.53236868 </i>
    <i name="e_0_energy">     -9.53159562 </i>
   </energy>
  </scstep>
  <scstep>
   <time name="dav">    0.13    0.13</time>
   <time name="total">    0.35    0.35</time>
   <energy>
    <i name="e_fr_energy">     -9.53381363 </i>
    <i name="e_wo_entrp">     -9.53497321 </i>
    <i name="e_0_energy">     -9.53420016 </i>
   </energy>
  </scstep>
  <scstep>
   <time name="dav">    0.12    0.12</time>
   <time name="total">    0.34    0.34</time>
   <energy>
    <i name="e_fr_energy">     -9.53441583 </i>
    <i name="e_wo_entrp">     -9.53557541 </i>
    <i name="e_0_energy">     -9.53480236 </i>
   </energy>
  </scstep>
  <scstep>
   <time name="dav">    0.13    0.13</time>
   <time name="total">    0.35    0.35</time>
   <energy>
    <i name="e_fr_energy">     -9.53502575 </i>
    <i name="e_wo_entrp">     -9.53618533 </i>
    <i name="e_0_energy">     -9.53541227 </i>
   </energy>
  </scstep>
  <scstep>
   <time name="dav">    0.11    0.11</time>
   <time name="total">    0.32    0.32</time>
   <energy>
    <i name="e_fr_energy">     -9.53522089 </i>
    <i name="e_wo_entrp">     -9.53638047 </i>
    <i name="e_0_energy">     -9.53560742 </i>
   </energy>
  </scstep>
  <scstep>
   <time name="dav">    0.11    0.11</time>
   <time name="total">    0.25    0.26</time>
   <energy>
    <i name="alphaZ">      0.43695755 </i>
    <i name="ewald">      6.30762120 </i>
    <i name="hartreedc">   -501.39883204 </i>
    <i name="XCdc">     37.83981566 </i>
    <i name="pawpsdc">    523.88156840 </i>
    <i name="pawaedc">   -525.95495529 </i>
    <i name="eentropy">      0.00115958 </i>
    <i name="bandstr">   -129.71983169 </i>
    <i name="atom">    579.07123046 </i>
    <i name="e_fr_energy">     -9.53526617 </i>
    <i name="e_wo_entrp">     -9.53642576 </i>
    <i name="e_0_energy">     -9.53565270 </i>
   </energy>
  </scstep>
  <structure>
   <crystal>
    <varray name="basis" >
     <v>      10.00000000       0.00000000       0.00000000 </v>
     <v>       0.00000000      10.00000000       0.00000000 </v>
     <v>       0.00000000       0.00000000      10.00000000 </v>
    </varray>
    <i name="volume">   1000.00000000 </i>
    <varray name="rec_basis" >
     <v>       0.10000000       0.00000000       0.00000000 </v>
     <v>       0.00000000       0.10000000       0.00000000 </v>
     <v>       0.00000000       0.00000000       0.10000000 </v>
    </varray>
   </crystal>
   <varray name="positions" >
    <v>      -0.02786841      -0.00000000       0.00000000 </v>
    <v>       0.13786841       0.00000000      -0.00000000 </v>
   </varray>
  </structure>
  <varray name="forces" >
   <v>      11.53997678       0.00000000      -0.00000000 </v>
   <v>     -11.53997678      -0.00000000       0.00000000 </v>
  </varray>
  <varray name="stress" >
   <v>     -34.51941225       0.00000000       0.00000000 </v>
   <v>       0.00000000      -3.82379318       0.00000000 </v>
   <v>      -0.00000000       0.00000000      -3.82379318 </v>
  </varray>
  <energy>
   <i name="e_fr_energy">     -9.53526617 </i>
   <i name="e_wo_entrp">     -9.53565270 </i>
   <i name="e_0_energy">      0.00115958 </i>
  </energy>
  <time name="totalsc">    4.70    4.76</time>
 </calculation>
 <calculation>
  <scstep>
   <time name="dav">    0.07    0.07</time>
   <time name="total">    0.30    0.30</time>
   <energy>
    <i name="alphaZ">      0.43695755 </i>
    <i name="ewald">     65.69412928 </i>
    <i name="hartreedc">   -545.82652323 </i>
    <i name="XCdc">     38.83524335 </i>
    <i name="pawpsdc">    523.90954099 </i>
    <i name="pawaedc">   -525.98300212 </i>
    <i name="eentropy">      0.00000000 </i>
    <i name="bandstr">   -149.76165116 </i>
    <i name="atom">    579.07123046 </i>
    <i name="e_fr_energy">    -13.62407488 </i>
    <i name="e_wo_entrp">    -13.62407488 </i>
    <i name="e_0_energy">    -13.62407488 </i>
   </energy>
  </scstep>
  <scstep>
   <time name="dav">    0.13    0.13</time>
   <time name="total">    0.34    0.35</time>
   <energy>
    <i name="e_fr_energy">    -14.20918936 </i>
    <i name="e_wo_entrp">    -14.20918936 </i>
    <i name="e_0_energy">    -14.20918936 </i>
   </energy>
  </scstep>
  <scstep>
   <time name="dav">    0.07    0.07</time>
   <time name="total">    0.29    0.29</time>
   <energy>
    <i name="e_fr_energy">    -14.04823078 </i>
    <i name="e_wo_entrp">    -14.04823078 </i>
    <i name="e_0_energy">    -14.04823078 </i>
   </energy>
  </scstep>
  <scstep>
   <time name="dav">    0.06    0.06</time>
   <time name="total">    0.25    0.25</time>
   <energy>
    <i name="e_fr_energy">    -13.98156228 </i>
    <i name="e_wo_entrp">    -13.98214208 </i>
    <i name="e_0_energy">    -13.98175555 </i>
   </energy>
  </scstep>
  <scstep>
   <time name="dav">    0.06    0.06</time>
   <time name="total">    0.25    0.26</time>
   <energy>
    <i name="e_fr_energy">    -13.98275382 </i>
    <i name="e_wo_entrp">    -13.98333362 </i>
    <i name="e_0_energy">    -13.98294709 </i>
   </energy>
  </scstep>
  <scstep>
   <time name="dav">    0.07    0.07</time>
   <time name="total">    0.28    0.29</time>
   <energy>
    <i name="e_fr_energy">    -13.98486246 </i>
    <i name="e_wo_entrp">    -13.98544225 </i>
    <i name="e_0_energy">    -13.98505572 </i>
   </energy>
  </scstep>
  <scstep>
   <time name="dav">    0.07    0.07</time>
   <time name="total">    0.29    0.30</time>
   <energy>
    <i name="e_fr_energy">    -13.98616165 </i>
    <i name="e_wo_entrp">    -13.98674144 </i>
    <i name="e_0_energy">    -13.98635491 </i>
   </energy>
  </scstep>
  <scstep>
   <time name="dav">    0.08    0.08</time>
   <time name="total">    0.30    0.30</time>
   <energy>
    <i name="e_fr_energy">    -13.98946349 </i>
    <i name="e_wo_entrp">    -13.99004329 </i>
    <i name="e_0_energy">    -13.98965676 </i>
   </energy>
  </scstep>
  <scstep>
   <time name="dav">    0.08    0.08</time>
   <time name="total">    0.30    0.31</time>
   <energy>
    <i name="e_fr_energy">    -13.99090546 </i>
    <i name="e_wo_entrp">    -13.99090546 </i>
    <i name="e_0_energy">    -13.99090546 </i>
   </energy>
  </scstep>
  <scstep>
   <time name="dav">    0.07    0.07</time>
   <time name="total">    0.30    0.30</time>
   <energy>
    <i name="e_fr_energy">    -13.99109337 </i>
    <i name="e_wo_entrp">    -13.99167316 </i>
    <i name="e_0_energy">    -13.99128663 </i>
   </energy>
  </scstep>
  <scstep>
   <time name="dav">    0.06    0.06</time>
   <time name="total">    0.25    0.26</time>
   <energy>
    <i name="e_fr_energy">    -13.99135756 </i>
    <i name="e_wo_entrp">    -13.99193735 </i>
    <i name="e_0_energy">    -13.99155082 </i>
   </energy>
  </scstep>
  <scstep>
   <time name="dav">    0.07    0.07</time>
   <time name="total">    0.21    0.22</time>
   <energy>
    <i name="alphaZ">      0.43695755 </i>
    <i name="ewald">     65.69412928 </i>
    <i name="hartreedc">   -553.36639079 </i>
    <i name="XCdc">     39.41785804 </i>
    <i name="pawpsdc">    690.82014558 </i>
    <i name="pawaedc">   -693.02727248 </i>
    <i name="eentropy">      0.00057979 </i>
    <i name="bandstr">   -143.03867778 </i>
    <i name="atom">    579.07123046 </i>
    <i name="e_fr_energy">    -13.99144035 </i>
    <i name="e_wo_entrp">    -13.99202014 </i>
    <i name="e_0_energy">    -13.99163361 </i>
   </energy>
  </scstep>
  <structure>
   <crystal>
    <varray name="basis" >
     <v>      10.00000000       0.00000000       0.00000000 </v>
     <v>       0.00000000      10.00000000       0.00000000 </v>
     <v>       0.00000000       0.00000000      10.00000000 </v>
    </varray>
    <i name="volume">   1000.00000000 </i>
    <varray name="rec_basis" >
     <v>       0.10000000       0.00000000       0.00000000 </v>
     <v>       0.00000000       0.10000000       0.00000000 </v>
     <v>       0.00000000       0.00000000       0.10000000 </v>
    </varray>
   </crystal>
   <varray name="positions" >
    <v>      -0.00929669      -0.00000000       0.00000000 </v>
    <v>       0.11929669       0.00000000      -0.00000000 </v>
   </varray>
  </structure>
  <varray name="forces" >
   <v>       9.76084227       0.00000000      -0.00000000 </v>
   <v>      -9.76084227      -0.00000000       0.00000000 </v>
  </varray>
  <varray name="stress" >
   <v>     -23.68839009       0.00000000       0.00000000 </v>
   <v>       0.00000000      -3.77718195       0.00000000 </v>
   <v>       0.00000000      -0.00000000      -3.77718195 </v>
  </varray>
  <energy>
   <i name="e_fr_energy">    -13.99144035 </i>
   <i name="e_wo_entrp">    -13.99163361 </i>
   <i name="e_0_energy">      0.00057979 </i>
  </energy>
  <time name="totalsc">    4.00    4.08</time>
 </calculation>
 <calculation>
  <scstep>
   <time name="dav">    0.07    0.07</time>
   <time name="total">    0.29    0.29</time>
   <energy>
    <i name="alphaZ">      0.43695755 </i>
    <i name="ewald">     92.32752915 </i>
    <i name="hartreedc">   -570.13572938 </i>
    <i name="XCdc">     39.87500884 </i>
    <i name="pawpsdc">    690.78346580 </i>
    <i name="pawaedc">   -692.99062969 </i>
    <i name="eentropy">      0.00057979 </i>
    <i name="bandstr">   -154.14626339 </i>
    <i name="atom">    579.07123046 </i>
    <i name="e_fr_energy">    -14.77785088 </i>
    <i name="e_wo_entrp">    -14.77843067 </i>
    <i name="e_0_energy">    -14.77804414 </i>
   </energy>
  </scstep>
  <scstep>
   <time name="dav">    0.08    0.08</time>
   <time name="total">    0.30    0.30</time>
   <energy>
    <i name="e_fr_energy">    -14.79784806 </i>
    <i name="e_wo_entrp">    -14.79842785 </i>
    <i name="e_0_energy">    -14.79804133 </i>
   </energy>
  </scstep>
  <scstep>
   <time name="dav">    0.10    0.10</time>
   <time name="total">    0.31    0.31</time>
   <energy>
    <i name="e_fr_energy">    -14.77783931 </i>
    <i name="e_wo_entrp">    -14.77783931 </i>
    <i name="e_0_energy">    -14.77783931 </i>
   </energy>
  </scstep>
  <scstep>
   <time name="dav">    0.05    0.05</time>
   <time name="total">    0.24    0.24</time>
   <energy>
    <i name="e_fr_energy">    -14.77560326 </i>
    <i name="e_wo_entrp">    -14.77560326 </i>
    <i name="e_0_energy">    -14.77560326 </i>
   </energy>
  </scstep>
  <scstep>
   <time name="dav">    0.06    0.06</time>
   <time name="total">    0.25    0.26</time>
   <energy>
    <i name="e_fr_energy">    -14.77599000 </i>
    <i name="e_wo_entrp">    -14.77599000 </i>
    <i name="e_0_energy">    -14.77599000 </i>
   </energy>
  </scstep>
  <scstep>
   <time name="dav">    0.07    0.07</time>
   <time name="total">    0.28    0.29</time>
   <energy>
    <i name="e_fr_energy">    -14.77654972 </i>
    <i name="e_wo_entrp">    -14.77654972 </i>
    <i name="e_0_energy">    -14.77654972 </i>
   </energy>
  </scstep>
  <scstep>
   <time name="dav">    0.07    0.07</time>
   <time name="total">    0.29    0.30</time>
   <energy>
    <i name="e_fr_energy">    -14.77701414 </i>
    <i name="e_wo_entrp">    -14.77701414 </i>
    <i name="e_0_energy">    -14.77701414 </i>
   </energy>
  </scstep>
  <scstep>
   <time name="dav">    0.07    0.07</time>
   <time name="total">    0.23    0.23</time>
   <energy>
    <i name="alphaZ">      0.43695755 </i>
    <i name="ewald">     92.32752915 </i>
    <i name="hartreedc">   -575.30278168 </i>
    <i name="XCdc">     40.18948023 </i>
    <i name="pawpsdc">    835.25619668 </i>
    <i name="pawaedc">   -837.56820160 </i>
    <i name="eentropy">      0.00057979 </i>
    <i name="bandstr">   -149.18806735 </i>
    <i name="atom">    579.07123046 </i>
    <i name="e_fr_energy">    -14.77707678 </i>
    <i name="e_wo_entrp">    -14.77765657 </i>
    <i name="e_0_energy">    -14.77727004 </i>
   </energy>
  </scstep>
  <structure>
   <crystal>
    <varray name="basis" >
     <v>      10.00000000       0.00000000       0.00000000 </v>
     <v>       0.00000000      10.00000000       0.00000000 </v>
     <v>       0.00000000       0.00000000      10.00000000 </v>
    </varray>
    <i name="volume">   1000.00000000 </i>
    <varray name="rec_basis" >
     <v>       0.10000000       0.00000000       0.00000000 </v>
     <v>       0.00000000       0.10000000       0.00000000 </v>
     <v>       0.00000000       0.00000000       0.10000000 </v>
    </varray>
   </crystal>
   <varray name="positions" >
    <v>      -0.00345642      -0.00000000       0.00000000 </v>
    <v>       0.11345642       0.00000000      -0.00000000 </v>
   </varray>
  </structure>
  <varray name="forces" >
   <v>       2.60759140       0.00000000       0.00000000 </v>
   <v>      -2.60759140       0.00000000      -0.00000000 </v>
  </varray>
  <varray name="stress" >
   <v>      -8.90366209      -0.00000000       0.00000000 </v>
   <v>       0.00000000      -3.73109019      -0.00000000 </v>
   <v>       0.00000000       0.00000000      -3.73109019 </v>
  </varray>
  <energy>
   <i name="e_fr_energy">    -14.77707678 </i>
   <i name="e_wo_entrp">    -14.77727004 </i>
   <i name="e_0_energy">      0.00057979 </i>
  </energy>
  <time name="totalsc">    2.83    2.86</time>
 </calculation>
 <calculation>
  <scstep>
   <time name="dav">    0.06    0.06</time>
   <time name="total">    0.26    0.27</time>
   <energy>
    <i name="alphaZ">      0.43695755 </i>
    <i name="ewald">     97.82777449 </i>
    <i name="hartreedc">   -578.58473237 </i>
    <i name="XCdc">     40.28387403 </i>
    <i name="pawpsdc">    835.36756959 </i>
    <i name="pawaedc">   -837.67992172 </i>
    <i name="eentropy">      0.00000000 </i>
    <i name="bandstr">   -151.53510108 </i>
    <i name="atom">    579.07123046 </i>
    <i name="e_fr_energy">    -14.81234904 </i>
    <i name="e_wo_entrp">    -14.81234904 </i>
    <i name="e_0_energy">    -14.81234904 </i>
   </energy>
  </scstep>
  <scstep>
   <time name="dav">    0.07    0.07</time>
   <time name="total">    0.25    0.26</time>
   <energy>
    <i name="e_fr_energy">    -14.81101947 </i>
    <i name="e_wo_entrp">    -14.81159926 </i>
    <i name="e_0_energy">    -14.81121273 </i>
   </energy>
  </scstep>
  <scstep>
   <time name="dav">    0.10    0.10</time>
   <time name="total">    0.30    0.31</time>
   <energy>
    <i name="e_fr_energy">    -14.81090039 </i>
    <i name="e_wo_entrp">    -14.81090039 </i>
    <i name="e_0_energy">    -14.81090039 </i>
   </energy>
  </scstep>
  <scstep>
   <time name="dav">    0.07    0.07</time>
   <time name="total">    0.29    0.29</time>
   <energy>
    <i name="e_fr_energy">    -14.81100940 </i>
    <i name="e_wo_entrp">    -14.81100940 </i>
    <i name="e_0_energy">    -14.81100940 </i>
   </energy>
  </scstep>
  <scstep>
   <time name="dav">    0.07    0.07</time>
   <time name="total">    0.24    0.24</time>
   <energy>
    <i name="alphaZ">      0.43695755 </i>
    <i name="ewald">     97.82777449 </i>
    <i name="hartreedc">   -579.72768223 </i>
    <i name="XCdc">     40.34981325 </i>
    <i name="pawpsdc">    871.64681946 </i>
    <i name="pawaedc">   -873.98746095 </i>
    <i name="eentropy">      0.00000000 </i>
    <i name="bandstr">   -150.42855397 </i>
    <i name="atom">    579.07123046 </i>
    <i name="e_fr_energy">    -14.81110193 </i>
    <i name="e_wo_entrp">    -14.81110193 </i>
    <i name="e_0_energy">    -14.81110193 </i>
   </energy>
  </scstep>
  <structure>
   <crystal>
    <varray name="basis" >
     <v>      10.00000000       0.00000000       0.00000000 </v>
     <v>       0.00000000      10.00000000       0.00000000 </v>
     <v>       0.00000000       0.00000000      10.00000000 </v>
    </varray>
    <i name="volume">   1000.00000000 </i>
    <varray name="rec_basis" >
     <v>       0.10000000       0.00000000       0.00000000 </v>
     <v>       0.00000000       0.10000000       0.00000000 </v>
     <v>       0.00000000       0.00000000       0.10000000 </v>
    </varray>
   </crystal>
   <varray name="positions" >
    <v>      -0.00238144      -0.00000000       0.00000000 </v>
    <v>       0.11238144       0.00000000      -0.00000000 </v>
   </varray>
  </structure>
  <varray name="forces" >
   <v>       0.42620381       0.00000000      -0.00000000 </v>
   <v>      -0.42620381       0.00000000       0.00000000 </v>
  </varray>
  <varray name="stress" >
   <v>      -4.81911375       0.00000000       0.00000000 </v>
   <v>       0.00000000      -3.71845669       0.00000000 </v>
   <v>      -0.00000000       0.00000000      -3.71845669 </v>
  </varray>
  <energy>
   <i name="e_fr_energy">    -14.81110193 </i>
   <i name="e_wo_entrp">    -14.81110193 </i>
   <i name="e_0_energy">      0.00000000 </i>
  </energy>
  <time name="totalsc">    1.98    2.01</time>
 </calculation>
 <calculation>
  <scstep>
   <time name="dav">    0.07    0.07</time>
   <time name="total">    0.26    0.26</time>
   <energy>
    <i name="alphaZ">      0.43695755 </i>
    <i name="ewald">    106.85344546 </i>
    <i name="hartreedc">   -584.94672621 </i>
    <i name="XCdc">     40.50361626 </i>
    <i name="pawpsdc">    871.51497068 </i>
    <i name="pawaedc">   -873.85551940 </i>
    <i name="eentropy">      0.00000000 </i>
    <i name="bandstr">   -154.34076740 </i>
    <i name="atom">    579.07123046 </i>
    <i name="e_fr_energy">    -14.76279259 </i>
    <i name="e_wo_entrp">    -14.76279259 </i>
    <i name="e_0_energy">    -14.76279259 </i>
   </energy>
  </scstep>
  <scstep>
   <time name="dav">    0.06    0.06</time>
   <time name="total">    0.27    0.27</time>
   <energy>
    <i name="e_fr_energy">    -14.75978352 </i>
    <i name="e_wo_entrp">    -14.76036331 </i>
    <i name="e_0_energy">    -14.75997678 </i>
   </energy>
  </scstep>
  <scstep>
   <time name="dav">    0.09    0.09</time>
   <time name="total">    0.31    0.31</time>
   <energy>
    <i name="e_fr_energy">    -14.75792432 </i>
    <i name="e_wo_entrp">    -14.75792432 </i>
    <i name="e_0_energy">    -14.75792432 </i>
   </energy>
  </scstep>
  <scstep>
   <time name="dav">    0.07    0.07</time>
   <time name="total">    0.29    0.30</time>
   <energy>
    <i name="e_fr_energy">    -14.75806559 </i>
    <i name="e_wo_entrp">    -14.75806559 </i>
    <i name="e_0_energy">    -14.75806559 </i>
   </energy>
  </scstep>
  <scstep>
   <time name="dav">    0.07    0.07</time>
   <time name="total">    0.29    0.30</time>
   <energy>
    <i name="e_fr_energy">    -14.75823968 </i>
    <i name="e_wo_entrp">    -14.75823968 </i>
    <i name="e_0_energy">    -14.75823968 </i>
   </energy>
  </scstep>
  <scstep>
   <time name="dav">    0.08    0.08</time>
   <time name="total">    0.24    0.24</time>
   <energy>
    <i name="alphaZ">      0.43695755 </i>
    <i name="ewald">    106.85344546 </i>
    <i name="hartreedc">   -586.91391840 </i>
    <i name="XCdc">     40.61506102 </i>
    <i name="pawpsdc">    933.92492411 </i>
    <i name="pawaedc">   -936.31618055 </i>
    <i name="eentropy">      0.00000000 </i>
    <i name="bandstr">   -152.42980195 </i>
    <i name="atom">    579.07123046 </i>
    <i name="e_fr_energy">    -14.75828229 </i>
    <i name="e_wo_entrp">    -14.75828229 </i>
    <i name="e_0_energy">    -14.75828229 </i>
   </energy>
  </scstep>
  <structure>
   <crystal>
    <varray name="basis" >
     <v>      10.00000000       0.00000000       0.00000000 </v>
     <v>       0.00000000      10.00000000       0.00000000 </v>
     <v>       0.00000000       0.00000000      10.00000000 </v>
    </varray>
    <i name="volume">   1000.00000000 </i>
    <varray name="rec_basis" >
     <v>       0.10000000       0.00000000       0.00000000 </v>
     <v>       0.00000000       0.10000000       0.00000000 </v>
     <v>       0.00000000       0.00000000       0.10000000 </v>
    </varray>
   </crystal>
   <varray name="positions" >
    <v>      -0.00070141      -0.00000000      -0.00000000 </v>
    <v>       0.11070141       0.00000000       0.00000000 </v>
   </varray>
  </structure>
  <varray name="forces" >
   <v>      -3.72522850       0.00000000       0.00000000 </v>
   <v>       3.72522850       0.00000000      -0.00000000 </v>
  </varray>
  <varray name="stress" >
   <v>       2.64450219       0.00000000       0.00000000 </v>
   <v>       0.00000000      -3.70121850       0.00000000 </v>
   <v>       0.00000000      -0.00000000      -3.70121850 </v>
  </varray>
  <energy>
   <i name="e_fr_energy">    -14.75828229 </i>
   <i name="e_wo_entrp">    -14.75828229 </i>
   <i name="e_0_energy">      0.00000000 </i>
  </energy>
  <time name="totalsc">    2.28    2.31</time>
 </calculation>
 <calculation>
  <scstep>
   <time name="dav">    0.06    0.06</time>
   <time name="total">    0.24    0.24</time>
   <energy>
    <i name="alphaZ">      0.43695755 </i>
    <i name="ewald">     98.82949098 </i>
    <i name="hartreedc">   -582.27506334 </i>
    <i name="XCdc">     40.47850476 </i>
    <i name="pawpsdc">    933.68056311 </i>
    <i name="pawaedc">   -936.07135502 </i>
    <i name="eentropy">      0.00000000 </i>
    <i name="bandstr">   -148.96616708 </i>
    <i name="atom">    579.07123046 </i>
    <i name="e_fr_energy">    -14.81583856 </i>
    <i name="e_wo_entrp">    -14.81583856 </i>
    <i name="e_0_energy">    -14.81583856 </i>
   </energy>
  </scstep>
  <scstep>
   <time name="dav">    0.07    0.07</time>
   <time name="total">    0.26    0.26</time>
   <energy>
    <i name="e_fr_energy">    -14.81261721 </i>
    <i name="e_wo_entrp">    -14.81319700 </i>
    <i name="e_0_energy">    -14.81281048 </i>
   </energy>
  </scstep>
  <scstep>
   <time name="dav">    0.07    0.07</time>
   <time name="total">    0.28    0.28</time>
   <energy>
    <i name="e_fr_energy">    -14.81125757 </i>
    <i name="e_wo_entrp">    -14.81183736 </i>
    <i name="e_0_energy">    -14.81145084 </i>
   </energy>
  </scstep>
  <scstep>
   <time name="dav">    0.07    0.07</time>
   <time name="total">    0.28    0.29</time>
   <energy>
    <i name="e_fr_energy">    -14.81202678 </i>
    <i name="e_wo_entrp">    -14.81202678 </i>
    <i name="e_0_energy">    -14.81202678 </i>
   </energy>
  </scstep>
  <scstep>
   <time name="dav">    0.07    0.07</time>
   <time name="total">    0.29    0.30</time>
   <energy>
    <i name="e_fr_energy">    -14.81154905 </i>
    <i name="e_wo_entrp">    -14.81212884 </i>
    <i name="e_0_energy">    -14.81174231 </i>
   </energy>
  </scstep>
  <scstep>
   <time name="dav">    0.08    0.08</time>
   <time name="total">    0.23    0.23</time>
   <energy>
    <i name="alphaZ">      0.43695755 </i>
    <i name="ewald">     98.82949098 </i>
    <i name="hartreedc">   -580.56395711 </i>
    <i name="XCdc">     40.38083234 </i>
    <i name="pawpsdc">    878.07495509 </i>
    <i name="pawaedc">   -880.42005117 </i>
    <i name="eentropy">      0.00057979 </i>
    <i name="bandstr">   -150.62160421 </i>
    <i name="atom">    579.07123046 </i>
    <i name="e_fr_energy">    -14.81156628 </i>
    <i name="e_wo_entrp">    -14.81214607 </i>
    <i name="e_0_energy">    -14.81175954 </i>
   </energy>
  </scstep>
  <structure>
   <crystal>
    <varray name="basis" >
     <v>      10.00000000       0.00000000       0.00000000 </v>
     <v>       0.00000000      10.00000000       0.00000000 </v>
     <v>       0.00000000       0.00000000      10.00000000 </v>
    </varray>
    <i name="volume">   1000.00000000 </i>
    <varray name="rec_basis" >
     <v>       0.10000000       0.00000000       0.00000000 </v>
     <v>       0.00000000       0.10000000       0.00000000 </v>
     <v>       0.00000000       0.00000000       0.10000000 </v>
    </varray>
   </crystal>
   <varray name="positions" >
    <v>      -0.00218995      -0.00000000      -0.00000000 </v>
    <v>       0.11218995       0.00000000       0.00000000 </v>
   </varray>
  </structure>
  <varray name="forces" >
   <v>       0.00345167      -0.00000000       0.00000000 </v>
   <v>      -0.00345167       0.00000000      -0.00000000 </v>
  </varray>
  <varray name="stress" >
   <v>      -4.06913707       0.00000000       0.00000000 </v>
   <v>       0.00000000      -3.74361019       0.00000000 </v>
   <v>       0.00000000       0.00000000      -3.74361019 </v>
  </varray>
  <energy>
   <i name="e_fr_energy">    -14.81156628 </i>
   <i name="e_wo_entrp">    -14.81175954 </i>
   <i name="e_0_energy">      0.00057979 </i>
  </energy>
  <time name="totalsc">    2.13    2.16</time>
  <eigenvalues>
   <array>
    <dimension dim="1">band</dimension>
    <dimension dim="2">kpoint</dimension>
    <dimension dim="3">spin</dimension>
    <field>eigene</field>
    <field>occ</field>
    <set>
     <set comment="spin 1">
      <set comment="kpoint 1">
       <r>  -29.1780    1.0000 </r>
       <r>  -13.9497    1.0000 </r>
       <r>  -11.6300    1.0000 </r>
       <r>  -11.6300    1.0000 </r>
       <r>   -8.9231    1.0000 </r>
       <r>   -2.0066    0.0000 </r>
       <r>   -2.0066    0.0000 </r>
       <r>   -0.1704    0.0000 </r>
      </set>
     </set>
    </set>
   </array>
  </eigenvalues>
  <separator name="orbital magnetization" >
   <v name="MAGDIPOLOUT">      0.00000000      0.00000000      0.00000000</v>
  </separator>
  <dos>
   <i name="efermi">     -8.91467660 </i>
   <total>
    <array>
     <dimension dim="1">gridpoints</dimension>
     <dimension dim="2">spin</dimension>
     <field>energy</field>
     <field>total</field>
     <field>integrated</field>
     <set>
      <set comment="spin 1">
       <r>   -30.6284     0.0000     0.0000 </r>
       <r>   -30.5221     0.0000     0.0000 </r>
       <r>   -30.4157     0.0000     0.0000 </r>
       <r>   -30.3093     0.0000     0.0000 </r>
       <r>   -30.2030     0.0000     0.0000 </r>
       <r>   -30.0966     0.0000     0.0000 </r>
       <r>   -29.9903     0.0000     0.0000 </r>
       <r>   -29.8839     0.0000     0.0000 </r>
       <r>   -29.7775     0.0000     0.0000 </r>
       <r>   -29.6712     0.0000     0.0000 </r>
       <r>   -29.5648     0.0000     0.0000 </r>
       <r>   -29.4585     0.0000     0.0000 </r>
       <r>   -29.3521    -0.0000    -0.0000 </r>
       <r>   -29.2457    -0.0000    -0.0000 </r>
       <r>   -29.1394    18.8038     2.0000 </r>
       <r>   -29.0330     0.0000     2.0000 </r>
       <r>   -28.9266     0.0000     2.0000 </r>
       <r>   -28.8203     0.0000     2.0000 </r>
       <r>   -28.7139     0.0000     2.0000 </r>
       <r>   -28.6076     0.0000     2.0000 </r>
       <r>   -28.5012     0.0000     2.0000 </r>
       <r>   -28.3948     0.0000     2.0000 </r>
       <r>   -28.2885     0.0000     2.0000 </r>
       <r>   -28.1821     0.0000     2.0000 </r>
       <r>   -28.0758     0.0000     2.0000 </r>
       <r>   -27.9694     0.0000     2.0000 </r>
       <r>   -27.8630     0.0000     2.0000 </r>
       <r>   -27.7567     0.0000     2.0000 </r>
       <r>   -27.6503     0.0000     2.0000 </r>
       <r>   -27.5440     0.0000     2.0000 </r>
       <r>   -27.4376     0.0000     2.0000 </r>
       <r>   -27.3312     0.0000     2.0000 </r>
       <r>   -27.2249     0.0000     2.0000 </r>
       <r>   -27.1185     0.0000     2.0000 </r>
       <r>   -27.0121     0.0000     2.0000 </r>
       <r>   -26.9058     0.0000     2.0000 </r>
       <r>   -26.7994     0.0000     2.0000 </r>
       <r>   -26.6931     0.0000     2.0000 </r>
       <r>   -26.5867     0.0000     2.0000 </r>
       <r>   -26.4803     0.0000     2.0000 </r>
       <r>   -26.3740     0.0000     2.0000 </r>
       <r>   -26.2676     0.0000     2.0000 </r>
       <r>   -26.1613     0.0000     2.0000 </r>
       <r>   -26.0549     0.0000     2.0000 </r>
       <r>   -25.9485     0.0000     2.0000 </r>
       <r>   -25.8422     0.0000     2.0000 </r>
       <r>   -25.7358     0.0000     2.0000 </r>
       <r>   -25.6294     0.0000     2.0000 </r>
       <r>   -25.5231     0.0000     2.0000 </r>
       <r>   -25.4167     0.0000     2.0000 </r>
       <r>   -25.3104     0.0000     2.0000 </r>
       <r>   -25.2040     0.0000     2.0000 </r>
       <r>   -25.0976     0.0000     2.0000 </r>
       <r>   -24.9913     0.0000     2.0000 </r>
       <r>   -24.8849     0.0000     2.0000 </r>
       <r>   -24.7786     0.0000     2.0000 </r>
       <r>   -24.6722     0.0000     2.0000 </r>
       <r>   -24.5658     0.0000     2.0000 </r>
       <r>   -24.4595     0.0000     2.0000 </r>
       <r>   -24.3531     0.0000     2.0000 </r>
       <r>   -24.2467     0.0000     2.0000 </r>
       <r>   -24.1404     0.0000     2.0000 </r>
       <r>   -24.0340     0.0000     2.0000 </r>
       <r>   -23.9277     0.0000     2.0000 </r>
       <r>   -23.8213     0.0000     2.0000 </r>
       <r>   -23.7149     0.0000     2.0000 </r>
       <r>   -23.6086     0.0000     2.0000 </r>
       <r>   -23.5022     0.0000     2.0000 </r>
       <r>   -23.3959     0.0000     2.0000 </r>
       <r>   -23.2895     0.0000     2.0000 </r>
       <r>   -23.1831     0.0000     2.0000 </r>
       <r>   -23.0768     0.0000     2.0000 </r>
       <r>   -22.9704     0.0000     2.0000 </r>
       <r>   -22.8641     0.0000     2.0000 </r>
       <r>   -22.7577     0.0000     2.0000 </r>
       <r>   -22.6513     0.0000     2.0000 </r>
       <r>   -22.5450     0.0000     2.0000 </r>
       <r>   -22.4386     0.0000     2.0000 </r>
       <r>   -22.3322     0.0000     2.0000 </r>
       <r>   -22.2259     0.0000     2.0000 </r>
       <r>   -22.1195     0.0000     2.0000 </r>
       <r>   -22.0132     0.0000     2.0000 </r>
       <r>   -21.9068     0.0000     2.0000 </r>
       <r>   -21.8004     0.0000     2.0000 </r>
       <r>   -21.6941     0.0000     2.0000 </r>
       <r>   -21.5877     0.0000     2.0000 </r>
       <r>   -21.4814     0.0000     2.0000 </r>
       <r>   -21.3750     0.0000     2.0000 </r>
       <r>   -21.2686     0.0000     2.0000 </r>
       <r>   -21.1623     0.0000     2.0000 </r>
       <r>   -21.0559     0.0000     2.0000 </r>
       <r>   -20.9495     0.0000     2.0000 </r>
       <r>   -20.8432     0.0000     2.0000 </r>
       <r>   -20.7368     0.0000     2.0000 </r>
       <r>   -20.6305     0.0000     2.0000 </r>
       <r>   -20.5241     0.0000     2.0000 </r>
       <r>   -20.4177     0.0000     2.0000 </r>
       <r>   -20.3114     0.0000     2.0000 </r>
       <r>   -20.2050     0.0000     2.0000 </r>
       <r>   -20.0987     0.0000     2.0000 </r>
       <r>   -19.9923     0.0000     2.0000 </r>
       <r>   -19.8859     0.0000     2.0000 </r>
       <r>   -19.7796     0.0000     2.0000 </r>
       <r>   -19.6732     0.0000     2.0000 </r>
       <r>   -19.5669     0.0000     2.0000 </r>
       <r>   -19.4605     0.0000     2.0000 </r>
       <r>   -19.3541     0.0000     2.0000 </r>
       <r>   -19.2478     0.0000     2.0000 </r>
       <r>   -19.1414     0.0000     2.0000 </r>
       <r>   -19.0350     0.0000     2.0000 </r>
       <r>   -18.9287     0.0000     2.0000 </r>
       <r>   -18.8223     0.0000     2.0000 </r>
       <r>   -18.7160     0.0000     2.0000 </r>
       <r>   -18.6096     0.0000     2.0000 </r>
       <r>   -18.5032     0.0000     2.0000 </r>
       <r>   -18.3969     0.0000     2.0000 </r>
       <r>   -18.2905     0.0000     2.0000 </r>
       <r>   -18.1842     0.0000     2.0000 </r>
       <r>   -18.0778     0.0000     2.0000 </r>
       <r>   -17.9714     0.0000     2.0000 </r>
       <r>   -17.8651     0.0000     2.0000 </r>
       <r>   -17.7587     0.0000     2.0000 </r>
       <r>   -17.6523     0.0000     2.0000 </r>
       <r>   -17.5460     0.0000     2.0000 </r>
       <r>   -17.4396     0.0000     2.0000 </r>
       <r>   -17.3333     0.0000     2.0000 </r>
       <r>   -17.2269     0.0000     2.0000 </r>
       <r>   -17.1205     0.0000     2.0000 </r>
       <r>   -17.0142     0.0000     2.0000 </r>
       <r>   -16.9078     0.0000     2.0000 </r>
       <r>   -16.8015     0.0000     2.0000 </r>
       <r>   -16.6951     0.0000     2.0000 </r>
       <r>   -16.5887     0.0000     2.0000 </r>
       <r>   -16.4824     0.0000     2.0000 </r>
       <r>   -16.3760     0.0000     2.0000 </r>
       <r>   -16.2697     0.0000     2.0000 </r>
       <r>   -16.1633     0.0000     2.0000 </r>
       <r>   -16.0569     0.0000     2.0000 </r>
       <r>   -15.9506     0.0000     2.0000 </r>
       <r>   -15.8442     0.0000     2.0000 </r>
       <r>   -15.7378     0.0000     2.0000 </r>
       <r>   -15.6315     0.0000     2.0000 </r>
       <r>   -15.5251     0.0000     2.0000 </r>
       <r>   -15.4188     0.0000     2.0000 </r>
       <r>   -15.3124     0.0000     2.0000 </r>
       <r>   -15.2060     0.0000     2.0000 </r>
       <r>   -15.0997     0.0000     2.0000 </r>
       <r>   -14.9933     0.0000     2.0000 </r>
       <r>   -14.8870     0.0000     2.0000 </r>
       <r>   -14.7806     0.0000     2.0000 </r>
       <r>   -14.6742     0.0000     2.0000 </r>
       <r>   -14.5679     0.0000     2.0000 </r>
       <r>   -14.4615     0.0000     2.0000 </r>
       <r>   -14.3551     0.0000     2.0000 </r>
       <r>   -14.2488     0.0000     2.0000 </r>
       <r>   -14.1424     0.0000     2.0000 </r>
       <r>   -14.0361    -0.0000     2.0000 </r>
       <r>   -13.9297    18.9527     4.0158 </r>
       <r>   -13.8233     0.0000     4.0000 </r>
       <r>   -13.7170     0.0000     4.0000 </r>
       <r>   -13.6106     0.0000     4.0000 </r>
       <r>   -13.5043     0.0000     4.0000 </r>
       <r>   -13.3979     0.0000     4.0000 </r>
       <r>   -13.2915     0.0000     4.0000 </r>
       <r>   -13.1852     0.0000     4.0000 </r>
       <r>   -13.0788     0.0000     4.0000 </r>
       <r>   -12.9724     0.0000     4.0000 </r>
       <r>   -12.8661     0.0000     4.0000 </r>
       <r>   -12.7597     0.0000     4.0000 </r>
       <r>   -12.6534     0.0000     4.0000 </r>
       <r>   -12.5470     0.0000     4.0000 </r>
       <r>   -12.4406     0.0000     4.0000 </r>
       <r>   -12.3343     0.0000     4.0000 </r>
       <r>   -12.2279     0.0000     4.0000 </r>
       <r>   -12.1216     0.0000     4.0000 </r>
       <r>   -12.0152     0.0000     4.0000 </r>
       <r>   -11.9088     0.0000     4.0000 </r>
       <r>   -11.8025    -0.0000     4.0000 </r>
       <r>   -11.6961    -0.0000     4.0000 </r>
       <r>   -11.5898    37.6077     8.0000 </r>
       <r>   -11.4834     0.0000     8.0000 </r>
       <r>   -11.3770     0.0000     8.0000 </r>
       <r>   -11.2707     0.0000     8.0000 </r>
       <r>   -11.1643     0.0000     8.0000 </r>
       <r>   -11.0579     0.0000     8.0000 </r>
       <r>   -10.9516     0.0000     8.0000 </r>
       <r>   -10.8452     0.0000     8.0000 </r>
       <r>   -10.7389     0.0000     8.0000 </r>
       <r>   -10.6325     0.0000     8.0000 </r>
       <r>   -10.5261     0.0000     8.0000 </r>
       <r>   -10.4198     0.0000     8.0000 </r>
       <r>   -10.3134     0.0000     8.0000 </r>
       <r>   -10.2071     0.0000     8.0000 </r>
       <r>   -10.1007     0.0000     8.0000 </r>
       <r>    -9.9943     0.0000     8.0000 </r>
       <r>    -9.8880     0.0000     8.0000 </r>
       <r>    -9.7816     0.0000     8.0000 </r>
       <r>    -9.6752     0.0000     8.0000 </r>
       <r>    -9.5689     0.0000     8.0000 </r>
       <r>    -9.4625     0.0000     8.0000 </r>
       <r>    -9.3562     0.0000     8.0000 </r>
       <r>    -9.2498     0.0000     8.0000 </r>
       <r>    -9.1434     0.0000     8.0000 </r>
       <r>    -9.0371    -0.0000     8.0000 </r>
       <r>    -8.9307     0.3801     8.0404 </r>
       <r>    -8.8244     0.0000    10.0000 </r>
       <r>    -8.7180     0.0000    10.0000 </r>
       <r>    -8.6116     0.0000    10.0000 </r>
       <r>    -8.5053     0.0000    10.0000 </r>
       <r>    -8.3989     0.0000    10.0000 </r>
       <r>    -8.2926     0.0000    10.0000 </r>
       <r>    -8.1862     0.0000    10.0000 </r>
       <r>    -8.0798     0.0000    10.0000 </r>
       <r>    -7.9735     0.0000    10.0000 </r>
       <r>    -7.8671     0.0000    10.0000 </r>
       <r>    -7.7607     0.0000    10.0000 </r>
       <r>    -7.6544     0.0000    10.0000 </r>
       <r>    -7.5480     0.0000    10.0000 </r>
       <r>    -7.4417     0.0000    10.0000 </r>
       <r>    -7.3353     0.0000    10.0000 </r>
       <r>    -7.2289     0.0000    10.0000 </r>
       <r>    -7.1226     0.0000    10.0000 </r>
       <r>    -7.0162     0.0000    10.0000 </r>
       <r>    -6.9099     0.0000    10.0000 </r>
       <r>    -6.8035     0.0000    10.0000 </r>
       <r>    -6.6971     0.0000    10.0000 </r>
       <r>    -6.5908     0.0000    10.0000 </r>
       <r>    -6.4844     0.0000    10.0000 </r>
       <r>    -6.3780     0.0000    10.0000 </r>
       <r>    -6.2717     0.0000    10.0000 </r>
       <r>    -6.1653     0.0000    10.0000 </r>
       <r>    -6.0590     0.0000    10.0000 </r>
       <r>    -5.9526     0.0000    10.0000 </r>
       <r>    -5.8462     0.0000    10.0000 </r>
       <r>    -5.7399     0.0000    10.0000 </r>
       <r>    -5.6335     0.0000    10.0000 </r>
       <r>    -5.5272     0.0000    10.0000 </r>
       <r>    -5.4208     0.0000    10.0000 </r>
       <r>    -5.3144     0.0000    10.0000 </r>
       <r>    -5.2081     0.0000    10.0000 </r>
       <r>    -5.1017     0.0000    10.0000 </r>
       <r>    -4.9954     0.0000    10.0000 </r>
       <r>    -4.8890     0.0000    10.0000 </r>
       <r>    -4.7826     0.0000    10.0000 </r>
       <r>    -4.6763     0.0000    10.0000 </r>
       <r>    -4.5699     0.0000    10.0000 </r>
       <r>    -4.4635     0.0000    10.0000 </r>
       <r>    -4.3572     0.0000    10.0000 </r>
       <r>    -4.2508     0.0000    10.0000 </r>
       <r>    -4.1445     0.0000    10.0000 </r>
       <r>    -4.0381     0.0000    10.0000 </r>
       <r>    -3.9317     0.0000    10.0000 </r>
       <r>    -3.8254     0.0000    10.0000 </r>
       <r>    -3.7190     0.0000    10.0000 </r>
       <r>    -3.6127     0.0000    10.0000 </r>
       <r>    -3.5063     0.0000    10.0000 </r>
       <r>    -3.3999     0.0000    10.0000 </r>
       <r>    -3.2936     0.0000    10.0000 </r>
       <r>    -3.1872     0.0000    10.0000 </r>
       <r>    -3.0808     0.0000    10.0000 </r>
       <r>    -2.9745     0.0000    10.0000 </r>
       <r>    -2.8681     0.0000    10.0000 </r>
       <r>    -2.7618     0.0000    10.0000 </r>
       <r>    -2.6554     0.0000    10.0000 </r>
       <r>    -2.5490     0.0000    10.0000 </r>
       <r>    -2.4427     0.0000    10.0000 </r>
       <r>    -2.3363     0.0000    10.0000 </r>
       <r>    -2.2300     0.0000    10.0000 </r>
       <r>    -2.1236    -0.0000    10.0000 </r>
       <r>    -2.0172    -1.1441     9.8783 </r>
       <r>    -1.9109     0.0000    14.0000 </r>
       <r>    -1.8045     0.0000    14.0000 </r>
       <r>    -1.6981     0.0000    14.0000 </r>
       <r>    -1.5918     0.0000    14.0000 </r>
       <r>    -1.4854     0.0000    14.0000 </r>
       <r>    -1.3791     0.0000    14.0000 </r>
       <r>    -1.2727     0.0000    14.0000 </r>
       <r>    -1.1663     0.0000    14.0000 </r>
       <r>    -1.0600     0.0000    14.0000 </r>
       <r>    -0.9536     0.0000    14.0000 </r>
       <r>    -0.8473     0.0000    14.0000 </r>
       <r>    -0.7409     0.0000    14.0000 </r>
       <r>    -0.6345     0.0000    14.0000 </r>
       <r>    -0.5282     0.0000    14.0000 </r>
       <r>    -0.4218     0.0000    14.0000 </r>
       <r>    -0.3155    -0.0000    14.0000 </r>
       <r>    -0.2091    -0.0000    14.0000 </r>
       <r>    -0.1027    18.8038    16.0000 </r>
       <r>     0.0036     0.0000    16.0000 </r>
       <r>     0.1100     0.0000    16.0000 </r>
       <r>     0.2164     0.0000    16.0000 </r>
       <r>     0.3227     0.0000    16.0000 </r>
       <r>     0.4291     0.0000    16.0000 </r>
       <r>     0.5354     0.0000    16.0000 </r>
       <r>     0.6418     0.0000    16.0000 </r>
       <r>     0.7482     0.0000    16.0000 </r>
       <r>     0.8545     0.0000    16.0000 </r>
       <r>     0.9609     0.0000    16.0000 </r>
       <r>     1.0672     0.0000    16.0000 </r>
       <r>     1.1736     0.0000    16.0000 </r>
       <r>     1.2800     0.0000    16.0000 </r>
      </set>
     </set>
    </array>
   </total>
  </dos>
 </calculation>
 <structure name="finalpos" >
  <crystal>
   <varray name="basis" >
    <v>      10.00000000       0.00000000       0.00000000 </v>
    <v>       0.00000000      10.00000000       0.00000000 </v>
    <v>       0.00000000       0.00000000      10.00000000 </v>
   </varray>
   <i name="volume">   1000.00000000 </i>
   <varray name="rec_basis" >
    <v>       0.10000000       0.00000000       0.00000000 </v>
    <v>       0.00000000       0.10000000       0.00000000 </v>
    <v>       0.00000000       0.00000000       0.10000000 </v>
   </varray>
  </crystal>
  <varray name="positions" >
   <v>      -0.00218995      -0.00000000      -0.00000000 </v>
   <v>       0.11218995       0.00000000       0.00000000 </v>
  </varray>
 </structure>
</modeling>
