unknown system                          
           1
    10.000000    0.000000    0.000000
     0.000000   10.000000    0.000000
     0.000000    0.000000   10.000000
   C    O 
   1   1
Direct configuration=     1
   0.00000000  0.00000000  0.00000000
   0.11000000  0.00000000  0.00000000
Direct configuration=     2
  -0.02786841 -0.00000000  0.00000000
   0.13786841  0.00000000 -0.00000000
Direct configuration=     3
  -0.00929669 -0.00000000  0.00000000
   0.11929669  0.00000000 -0.00000000
Direct configuration=     4
  -0.00345642 -0.00000000  0.00000000
   0.11345642  0.00000000 -0.00000000
Direct configuration=     5
  -0.00238144 -0.00000000  0.00000000
   0.11238144  0.00000000 -0.00000000
Direct configuration=     6
  -0.00070141 -0.00000000 -0.00000000
   0.11070141  0.00000000  0.00000000
Direct configuration=     7
  -0.00218995 -0.00000000 -0.00000000
   0.11218995  0.00000000  0.00000000
