----- GAMESS execution script 'rungms' -----
This job is running on host dftfe.crc.nd.edu
under operating system Linux at Thu Feb 26 01:16:00 EST 2015
Available scratch disk space (Kbyte units) at beginning of the job is
Filesystem     1K-blocks     Used Available Use% Mounted on
/dev/sda2      147771864 22819724 117445708  17% /
GAMESS temporary binary files will be written to /tmp
GAMESS supplementary output files will be written to /tmp
Copying input file CO2.inp to your run's scratch directory...

 Distributed Data Interface kickoff program.
 Initiating 1 compute processes on 1 nodes to run the following command:
 /opt/crc/gamess/2012R1/gamess/gamess.00.x CO2 

          ******************************************************
          *         GAMESS VERSION =  1 MAY 2012 (R1)          *
          *             FROM IOWA STATE UNIVERSITY             *
          * M.W.SCHMIDT, K.K.BALDRIDGE, J.A.BOATZ, S.T.ELBERT, *
          *   M.S.GORDON, J.H.JENSEN, S.KOSEKI, N.MATSUNAGA,   *
          *          K.A.NGUYEN, S.J.SU, T.L.WINDUS,           *
          *       TOGETHER WITH M.DUPUIS, J.A.MONTGOMERY       *
          *         J.COMPUT.CHEM.  14, 1347-1363(1993)        *
          **************** 64 BIT LINUX VERSION ****************

  SINCE 1993, STUDENTS AND POSTDOCS WORKING AT IOWA STATE UNIVERSITY
  AND ALSO IN THEIR VARIOUS JOBS AFTER LEAVING ISU HAVE MADE IMPORTANT
  CONTRIBUTIONS TO THE CODE:
     IVANA ADAMOVIC, CHRISTINE AIKENS, YURI ALEXEEV, POOJA ARORA,
     ANDREY ASADCHEV, ROB BELL, PRADIPTA BANDYOPADHYAY, JONATHAN BENTZ,
     BRETT BODE, GALINA CHABAN, WEI CHEN, CHEOL HO CHOI, PAUL DAY,
     ALBERT DEFUSCO, TIM DUDLEY, DMITRI FEDOROV, GRAHAM FLETCHER,
     MARK FREITAG, KURT GLAESEMANN, DAN KEMP, GRANT MERRILL,
     NORIYUKI MINEZAWA, JONATHAN MULLIN, TAKESHI NAGATA,
     SEAN NEDD, HEATHER NETZLOFF, BOSILJKA NJEGIC, RYAN OLSON, MIKE PAK,
     JIM SHOEMAKER, LYUDMILA SLIPCHENKO, SAROM SOK, JIE SONG,
     TETSUYA TAKETSUGU, SIMON WEBB, SOOHAENG YOO, FEDERICO ZAHARIEV

  ADDITIONAL CODE HAS BEEN PROVIDED BY COLLABORATORS IN OTHER GROUPS:
     IOWA STATE UNIVERSITY:
          JOE IVANIC, LAIMUTIS BYTAUTAS, KLAUS RUEDENBERG
     UNIVERSITY OF TOKYO: KIMIHIKO HIRAO, TAKAHITO NAKAJIMA,
          TAKAO TSUNEDA, MUNEAKI KAMIYA, SUSUMU YANAGISAWA,
          KIYOSHI YAGI, MAHITO CHIBA, SEIKEN TOKURA, NAOAKI KAWAKAMI
     UNIVERSITY OF AARHUS: FRANK JENSEN
     UNIVERSITY OF IOWA: VISVALDAS KAIRYS, HUI LI
     NATIONAL INST. OF STANDARDS AND TECHNOLOGY: WALT STEVENS, DAVID GARMER
     UNIVERSITY OF PISA: BENEDETTA MENNUCCI, JACOPO TOMASI
     UNIVERSITY OF MEMPHIS: HENRY KURTZ, PRAKASHAN KORAMBATH
     UNIVERSITY OF ALBERTA: TOBY ZENG, MARIUSZ KLOBUKOWSKI
     UNIVERSITY OF NEW ENGLAND: MARK SPACKMAN
     MIE UNIVERSITY: HIROAKI UMEDA
     MICHIGAN STATE UNIVERSITY:
          KAROL KOWALSKI, MARTA WLOCH, JEFFREY GOUR, JESSE LUTZ, PIOTR PIECUCH
     UNIVERSITY OF SILESIA: MONIKA MUSIAL, STANISLAW KUCHARSKI
     FACULTES UNIVERSITAIRES NOTRE-DAME DE LA PAIX:
          OLIVIER QUINET, BENOIT CHAMPAGNE
     UNIVERSITY OF CALIFORNIA - SANTA BARBARA: BERNARD KIRTMAN
     INSTITUTE FOR MOLECULAR SCIENCE:
          KAZUYA ISHIMURA, MICHIO KATOUDA, AND SHIGERU NAGASE
     UNIVERSITY OF NOTRE DAME: DAN CHIPMAN
     KYUSHU UNIVERSITY:
          HARUYUKI NAKANO,
          FENG LONG GU, JACEK KORCHOWIEC, MARCIN MAKOWSKI, AND YURIKO AOKI,
          HIROTOSHI MORI AND EISAKU MIYOSHI
     PENNSYLVANIA STATE UNIVERSITY:
          TZVETELIN IORDANOV, CHET SWALINA, JONATHAN SKONE,
          SHARON HAMMES-SCHIFFER
     WASEDA UNIVERSITY:
          MASATO KOBAYASHI, TOMOKO AKAMA, TSUGUKI TOUMA,
          TAKESHI YOSHIKAWA, YASUHIRO IKABATA, HIROMI NAKAI
     UNIVERSITY OF NEBRASKA:
          PEIFENG SU, DEJUN SI, NANDUN THELLAMUREGE, YALI WANG, HUI LI
     UNIVERSITY OF ZURICH:
          ROBERTO PEVERATI, KIM BALDRIDGE
     N. COPERNICUS UNIVERSITY AND JACKSON STATE UNIVERSITY:
          MARIA BARYSZ

 EXECUTION OF GAMESS BEGUN Thu Feb 26 01:16:00 2015

            ECHO OF THE FIRST FEW INPUT CARDS -
 INPUT CARD>!   File created by the GAMESS Input Deck Generator Plugin for Avogadro         
 INPUT CARD> $BASIS GBASIS=PC1 $END                                                         
 INPUT CARD> $CONTRL COORD=ZMT ISPHER=1 RUNTYP=OPTIMIZE DFTTYP=PBE $END                     
 INPUT CARD>                                                                                
 INPUT CARD> $DATA                                                                          
 INPUT CARD>Title                                                                           
 INPUT CARD>Cnv 2                                                                           
 INPUT CARD>                                                                                
 INPUT CARD>C                                                                               
 INPUT CARD>O 1 rso                                                                         
 INPUT CARD>O 1 rso 2 ang                                                                   
 INPUT CARD>                                                                                
 INPUT CARD>rso = 1.15                                                                      
 INPUT CARD>ang = 178                                                                       
 INPUT CARD> $END                                                                           
 INPUT CARD>                                                                                
    1000000 WORDS OF MEMORY AVAILABLE

     BASIS OPTIONS
     -------------
     GBASIS=PC1          IGAUSS=       0      POLAR=NONE    
     NDFUNC=       0     NFFUNC=       0     DIFFSP=       F
     NPFUNC=       0      DIFFS=       F     BASNAM=        


     RUN TITLE
     ---------
 Title                                                                           

 THE POINT GROUP OF THE MOLECULE IS CNV     
 THE ORDER OF THE PRINCIPAL AXIS IS     2

 YOUR FULLY SUBSTITUTED Z-MATRIX IS
 C   
 O      1   1.1500000
 O      1   1.1500000  2  178.0000

 THE MOMENTS OF INERTIA ARE (AMU-ANGSTROM**2)
 IXX=     0.004   IYY=    42.294   IZZ=    42.297

 ATOM      ATOMIC                      COORDINATES (BOHR)
           CHARGE         X                   Y                   Z
 C           6.0     0.0000000000        0.0000000000       -0.0275811015
 O           8.0    -2.1728538993        0.0000000000        0.0103462044
 O           8.0     2.1728538993        0.0000000000        0.0103462044

          INTERNUCLEAR DISTANCES (ANGS.)
          ------------------------------

                1 C          2 O          3 O     

   1 C       0.0000000    1.1500000 *  1.1500000 *
   2 O       1.1500000 *  0.0000000    2.2996497 *
   3 O       1.1500000 *  2.2996497 *  0.0000000  

  * ... LESS THAN  3.000


     ATOMIC BASIS SET
     ----------------
 THE CONTRACTED PRIMITIVE FUNCTIONS HAVE BEEN UNNORMALIZED
 THE CONTRACTED BASIS FUNCTIONS ARE NOW NORMALIZED TO UNITY

  SHELL TYPE  PRIMITIVE        EXPONENT          CONTRACTION COEFFICIENT(S)

 C         

      1   S       1          1252.6000000    0.005602580684
      1   S       2           188.5700000    0.041711764039
      1   S       3            42.8390000    0.183579609275
      1   S       4            11.8180000    0.463688539465
      1   S       5             3.5567000    0.451646247842

      2   S       6           188.5700000   -0.000563415307
      2   S       7            42.8390000   -0.005252862176
      2   S       8            11.8180000   -0.068527645363
      2   S       9             3.5567000   -0.179260107219
      2   S      10             0.5425800    1.096750315228

      3   S      11             0.1605800    1.000000000000

      4   P      12             9.1426000    0.064319596846
      4   P      13             1.9298000    0.334006886427
      4   P      14             0.5252200    0.740443602691

      5   P      15             0.1360800    1.000000000000

      6   D      16             0.8000000    1.000000000000

 O         

     13   S      17          2306.7000000    0.005424388755
     13   S      18           347.1500000    0.040474749465
     13   S      19            78.8900000    0.180219634554
     13   S      20            21.8760000    0.462370311787
     13   S      21             6.6646000    0.454888396263

     14   S      22           347.1500000   -0.000655003786
     14   S      23            78.8900000   -0.005362052952
     14   S      24            21.8760000   -0.074902158894
     14   S      25             6.6646000   -0.181442579655
     14   S      26             1.0669000    1.102006874042

     15   S      27             0.3070000    1.000000000000

     16   P      28            17.0220000    0.068979967443
     16   P      29             3.6838000    0.351985516325
     16   P      30             0.9923400    0.724036547822

     17   P      31             0.2448700    1.000000000000

     18   D      32             1.0000000    1.000000000000

 TOTAL NUMBER OF BASIS SET SHELLS             =   18
 NUMBER OF CARTESIAN GAUSSIAN BASIS FUNCTIONS =   45
 NOTE: THIS RUN WILL RESTRICT THE MO VARIATION SPACE TO SPHERICAL HARMONICS.
 THE NUMBER OF ORBITALS KEPT IN THE VARIATIONAL SPACE WILL BE PRINTED LATER.
 NUMBER OF ELECTRONS                          =   22
 CHARGE OF MOLECULE                           =    0
 SPIN MULTIPLICITY                            =    1
 NUMBER OF OCCUPIED ORBITALS (ALPHA)          =   11
 NUMBER OF OCCUPIED ORBITALS (BETA )          =   11
 TOTAL NUMBER OF ATOMS                        =    3
 THE NUCLEAR REPULSION ENERGY IS       58.9019716312

     LEBEDEV GRID-BASED DFT OPTIONS
     ------------------------------
     DFTTYP=PBE     
     NRAD  =      96     NLEB  =     302
     NRAD0 =      24     NLEB0 =     110
     SWOFF =    5.00E-03 (PURE SCF -> DFT)
     SWITCH=    3.00E-04 (COARSE -> TIGHT GRID)
     THRESH=    0.00E+00 GTHRE=    1.00E+00

 GRIMME'S EMPIRICAL DISPERSION CORRECTION= F

     $CONTRL OPTIONS
     ---------------
 SCFTYP=RHF          RUNTYP=OPTIMIZE     EXETYP=RUN     
 MPLEVL=       0     CITYP =NONE         CCTYP =NONE         VBTYP =NONE    
 DFTTYP=PBE          TDDFT =NONE    
 MULT  =       1     ICHARG=       0     NZVAR =       0     COORD =ZMT     
 PP    =NONE         RELWFN=NONE         LOCAL =NONE         NUMGRD=       F
 ISPHER=       1     NOSYM =       0     MAXIT =      30     UNITS =ANGS    
 PLTORB=       F     MOLPLT=       F     AIMPAC=       F     FRIEND=        
 NPRINT=       7     IREST =       0     GEOM  =INPUT   
 NORMF =       0     NORMP =       0     ITOL  =      20     ICUT  =       9
 INTTYP=BEST         GRDTYP=BEST         QMTTOL= 1.0E-06

     $SYSTEM OPTIONS
     ---------------
  REPLICATED MEMORY=     1000000 WORDS (ON EVERY NODE).
 DISTRIBUTED MEMDDI=           0 MILLION WORDS IN AGGREGATE,
 MEMDDI DISTRIBUTED OVER   1 PROCESSORS IS           0 WORDS/PROCESSOR.
 TOTAL MEMORY REQUESTED ON EACH PROCESSOR=     1000000 WORDS.
 TIMLIM=      525600.00 MINUTES, OR     365.0 DAYS.
 PARALL= F  BALTYP=  DLB     KDIAG=    0  COREFL= F
 MXSEQ2=     300 MXSEQ3=     150

          ----------------
          PROPERTIES INPUT
          ----------------

     MOMENTS            FIELD           POTENTIAL          DENSITY
 IEMOM =       1   IEFLD =       0   IEPOT =       0   IEDEN =       0
 WHERE =COMASS     WHERE =NUCLEI     WHERE =NUCLEI     WHERE =NUCLEI  
 OUTPUT=BOTH       OUTPUT=BOTH       OUTPUT=BOTH       OUTPUT=BOTH    
 IEMINT=       0   IEFINT=       0                     IEDINT=       0
                                                       MORB  =       0
          EXTRAPOLATION IN EFFECT
          DIIS IN EFFECT
 ORBITAL PRINTING OPTION: NPREO=     1    45     2     1

     -------------------------------
     INTEGRAL TRANSFORMATION OPTIONS
     -------------------------------
     NWORD  =            0
     CUTOFF = 1.0E-09     MPTRAN =       0
     DIRTRF =       F     AOINTS =DUP     

          ----------------------
          INTEGRAL INPUT OPTIONS
          ----------------------
 NOPK  =       1 NORDER=       0 SCHWRZ=       F

   --- ENCODED Z MATRIX ---
 COORD  TYPE   I   J   K   L   M   N
    1      1    3   1
    2      1    2   1
    3      2    2   1   3

 THE DETERMINANT OF THE G MATRIX IS 10**(    -3)

     ------------------------------------------
     THE POINT GROUP IS CNV, NAXIS= 2, ORDER= 4
     ------------------------------------------

 -- VARIATIONAL SPACE WILL BE RESTRICTED TO PURE SPHERICAL HARMONICS ONLY --
 AFTER EXCLUDING CONTAMINANT COMBINATIONS FROM THE CARTESIAN GAUSSIAN BASIS
 SET, THE NUMBER OF SPHERICAL HARMONICS KEPT IN THE VARIATION SPACE IS   42

     DIMENSIONS OF THE SYMMETRY SUBSPACES ARE
 A1  =   17     A2  =    5     B1  =   13     B2  =    7

 ..... DONE SETTING UP THE RUN .....
 STEP CPU TIME =     0.01 TOTAL CPU TIME =        0.0 (    0.0 MIN)
 TOTAL WALL CLOCK TIME=        0.0 SECONDS, CPU UTILIZATION IS  50.00%


          -----------------------------
          STATIONARY POINT LOCATION RUN
          -----------------------------

 OBTAINING INITIAL HESSIAN, HESS=GUESS   
 CARTESIAN COORDINATE OPTIMIZATION USING BADGER'S RULE FORCE CONSTANT GUESS

          PARAMETERS CONTROLLING GEOMETRY SEARCH ARE
          METHOD =QA                  UPHESS =BFGS    
          NNEG   =         0          NFRZ   =         0
          NSTEP  =        50          IFOLOW =         1
          HESS   =GUESS               RESTAR =         F
          IHREP  =         0          HSSEND =         F
          NPRT   =         0          NPUN   =         0
          OPTTOL = 1.000E-04          RMIN   = 1.500E-03
          RMAX   = 1.000E-01          RLIM   = 7.000E-02
          DXMAX  = 3.000E-01          PURIFY =         F
          MOVIE  =         F          TRUPD  =         T
          TRMAX  = 5.000E-01          TRMIN  = 5.000E-02
          ITBMAT =         5          STPT   =         F
          STSTEP = 1.000E-02          PROJCT=          T

 BEGINNING GEOMETRY SEARCH POINT NSERCH=   0 ...

 COORDINATES OF SYMMETRY UNIQUE ATOMS (ANGS)
   ATOM   CHARGE       X              Y              Z
 ------------------------------------------------------------
 C           6.0   0.0000000000   0.0000000000  -0.0145952914
 O           8.0   1.1498248494   0.0000000000   0.0054749760
 COORDINATES OF ALL ATOMS ARE (ANGS)
   ATOM   CHARGE       X              Y              Z
 ------------------------------------------------------------
 C           6.0   0.0000000000   0.0000000000  -0.0145952914
 O           8.0  -1.1498248494   0.0000000000   0.0054749760
 O           8.0   1.1498248494   0.0000000000   0.0054749760

 THE CURRENT FULLY SUBSTITUTED Z-MATRIX IS
 C   
 O      1   1.1500000
 O      1   1.1500000  2   178.0000000

          ********************
          1 ELECTRON INTEGRALS
          ********************
 ...... END OF ONE-ELECTRON INTEGRALS ......
 STEP CPU TIME =     0.01 TOTAL CPU TIME =        0.0 (    0.0 MIN)
 TOTAL WALL CLOCK TIME=        0.0 SECONDS, CPU UTILIZATION IS 100.00%

          -------------
          GUESS OPTIONS
          -------------
          GUESS =HUCKEL            NORB  =       0          NORDER=       0
          MIX   =       F          PRTMO =       F          PUNMO =       F
          TOLZ  = 1.0E-08          TOLE  = 1.0E-05
          SYMDEN=       F          PURIFY=       F

 INITIAL GUESS ORBITALS GENERATED BY HUCKEL   ROUTINE.
 HUCKEL GUESS REQUIRES     18183 WORDS.

 STATISTICS FOR GENERATION OF SYMMETRY ORBITAL -Q- MATRIX
 NUMBER OF CARTESIAN ATOMIC ORBITALS=         45
 NUMBER OF SPHERICAL CONTAMINANTS DROPPED=     3
 NUMBER OF LINEARLY DEPENDENT MOS DROPPED=     0
 TOTAL NUMBER OF MOS IN VARIATION SPACE=      42

 SYMMETRIES FOR INITIAL GUESS ORBITALS FOLLOW.   BOTH SET(S).
    11 ORBITALS ARE OCCUPIED (    3 CORE ORBITALS).
     4=A1       5=B1       6=B2       7=A1       8=A1       9=B1      10=A2  
    11=B1      12=A1      13=B2      14=A1      15=B1      16=A1      17=A1  
    18=A1      19=A1      20=A1      21=A1  
 ...... END OF INITIAL ORBITAL SELECTION ......
 STEP CPU TIME =     0.00 TOTAL CPU TIME =        0.0 (    0.0 MIN)
 TOTAL WALL CLOCK TIME=        0.0 SECONDS, CPU UTILIZATION IS  66.67%

                    ----------------------
                    AO INTEGRAL TECHNOLOGY
                    ----------------------
     S,P,L SHELL ROTATED AXIS INTEGRALS, REPROGRAMMED BY
        KAZUYA ISHIMURA (IMS) AND JOSE SIERRA (SYNSTAR).
     S,P,D,L SHELL ROTATED AXIS INTEGRALS PROGRAMMED BY
        KAZUYA ISHIMURA (INSTITUTE FOR MOLECULAR SCIENCE).
     S,P,D,F,G SHELL TO TOTAL QUARTET ANGULAR MOMENTUM SUM 5,
        ERIC PROGRAM BY GRAHAM FLETCHER (ELORET AND NASA ADVANCED
        SUPERCOMPUTING DIVISION, AMES RESEARCH CENTER).
     S,P,D,F,G,L SHELL GENERAL RYS QUADRATURE PROGRAMMED BY
        MICHEL DUPUIS (PACIFIC NORTHWEST NATIONAL LABORATORY).

          --------------------
          2 ELECTRON INTEGRALS
          --------------------

 THE -PK- OPTION IS OFF, THE INTEGRALS ARE NOT IN SUPERMATRIX FORM.
 STORING   15000 INTEGRALS/RECORD ON DISK, USING 12 BYTES/INTEGRAL.
 TWO ELECTRON INTEGRAL EVALUATION REQUIRES   90567 WORDS OF MEMORY.
 II,JST,KST,LST =  1  1  1  1 NREC =         1 INTLOC =    1
 II,JST,KST,LST =  2  1  1  1 NREC =         1 INTLOC =    2
 II,JST,KST,LST =  3  1  1  1 NREC =         1 INTLOC =    7
 II,JST,KST,LST =  4  1  1  1 NREC =         1 INTLOC =   22
 II,JST,KST,LST =  5  1  1  1 NREC =         1 INTLOC =   67
 II,JST,KST,LST =  6  1  1  1 NREC =         1 INTLOC =  214
 II,JST,KST,LST =  7  1  1  1 NREC =         1 INTLOC = 1189
 II,JST,KST,LST =  8  1  1  1 NREC =         1 INTLOC = 1189
 II,JST,KST,LST =  9  1  1  1 NREC =         1 INTLOC = 1189
 II,JST,KST,LST = 10  1  1  1 NREC =         1 INTLOC = 1189
 II,JST,KST,LST = 11  1  1  1 NREC =         1 INTLOC = 1189
 II,JST,KST,LST = 12  1  1  1 NREC =         1 INTLOC = 1189
 II,JST,KST,LST = 13  1  1  1 NREC =         1 INTLOC = 1189
 II,JST,KST,LST = 14  1  1  1 NREC =         1 INTLOC = 2458
 II,JST,KST,LST = 15  1  1  1 NREC =         1 INTLOC = 4315
 II,JST,KST,LST = 16  1  1  1 NREC =         1 INTLOC = 6999
 II,JST,KST,LST = 17  1  1  1 NREC =         2 INTLOC = 3485
 II,JST,KST,LST = 18  1  1  1 NREC =         3 INTLOC = 9790
 TOTAL NUMBER OF NONZERO TWO-ELECTRON INTEGRALS =              125347
          9 INTEGRAL RECORDS WERE STORED ON DISK FILE  8.
  ...... END OF TWO-ELECTRON INTEGRALS .....
 STEP CPU TIME =     0.09 TOTAL CPU TIME =        0.1 (    0.0 MIN)
 TOTAL WALL CLOCK TIME=        0.1 SECONDS, CPU UTILIZATION IS  91.67%

          --------------------------
               R-PBE SCF CALCULATION
          --------------------------

     NUCLEAR ENERGY =        58.9019716312
     MAXIT =   30     NPUNCH=    2
     EXTRAP=T  DAMP=F  SHIFT=F  RSTRCT=F  DIIS=T  DEM=F  SOSCF=F
         DENSITY MATRIX CONVERGENCE THRESHOLD=  1.00E-05
     COARSE -> FINE DFT GRID SWITCH THRESHOLD=  3.00E-04 (SWITCH IN $DFT)
                   HF -> DFT SWITCH THRESHOLD=  5.00E-03 (SWOFF IN $DFT)
     MEMORY REQUIRED FOR RHF ITERS=    180183 WORDS.

 DFT CODE IS SWITCHING FROM THE FINE GRID NRAD= 96,  NLEB=  302
                      TO THE COARSE GRID NRAD0= 24, NLEB0=  110

     EXCHANGE FUNCTIONAL   =PBE       
     CORRELATION FUNCTIONAL=PBE       
     DFT THRESHOLD         =.460E-07
     GRID CHANGE THRESHOLD =.300E-03
 FOR AN EULER-MACLAURIN QUADRATURE USING  96 RADIAL POINTS:
 SMALLEST GAUSSIAN PRIMITIVE EXPONENT=        0.1360800000 OF TYPE -P-
 ON ATOM NUMBER   1 HAS RADIAL NORMALIZATION=  1.000000
  LARGEST GAUSSIAN PRIMITIVE EXPONENT=     2306.7000000000 OF TYPE -S-
 ON ATOM NUMBER   2 HAS RADIAL NORMALIZATION=  1.000000
 DFT IS SWITCHED OFF, PERFORMING PURE SCF UNTIL SWOFF THRESHOLD IS REACHED.

 ITER EX DEM     TOTAL ENERGY        E CHANGE  DENSITY CHANGE    DIIS ERROR
   1  0  0     -186.9983060693  -186.9983060693   0.221050286   0.886881398
          * * *   INITIATING DIIS PROCEDURE   * * *
   2  1  0     -187.5421968651    -0.5438907958   0.137824072   0.141791520
   3  2  0     -187.5733361356    -0.0311392706   0.051983139   0.090741078
   4  3  0     -187.5878494223    -0.0145132867   0.012899320   0.011332210
   5  4  0     -187.5884056048    -0.0005561825   0.003772243   0.003745975
 CONVERGED TO SWOFF, SO DFT CALCULATION IS NOW SWITCHED ON.
          * * *   INITIATING DIIS PROCEDURE   * * *
   6  5  0     -188.3441169365    -0.7557113316   0.170964450   0.107556700
   7  6  0     -188.3526398912    -0.0085229548   0.119851455   0.097389805
   8  7  0     -188.3598371204    -0.0071972292   0.040277000   0.067030628
   9  8  0     -188.3711422642    -0.0113051438   0.006656063   0.015100115
  10  9  0     -188.3714765209    -0.0003342567   0.000120198   0.000541217
 DFT CODE IS SWITCHING BACK TO THE FINE GRID
          * * *   INITIATING DIIS PROCEDURE   * * *
  11 10  0     -188.3678442710     0.0036322500   0.003718605   0.003873482
  12 11  0     -188.3678583719    -0.0000141009   0.001719442   0.001070850
  13 12  0     -188.3678559979     0.0000023740   0.000875141   0.001302874
  14 13  0     -188.3678606433    -0.0000046454   0.000074577   0.000088796
  15 14  0     -188.3678606565    -0.0000000133   0.000014979   0.000026334
  16 15  0     -188.3678606581    -0.0000000016   0.000000670   0.000001448
  17 16  0     -188.3678606581     0.0000000000   0.000000028   0.000000051

          -----------------
          DENSITY CONVERGED
          -----------------
     TIME TO FORM FOCK OPERATORS=       3.2 SECONDS (       0.2 SEC/ITER)
     TIME TO SOLVE SCF EQUATIONS=       0.0 SECONDS (       0.0 SEC/ITER)

 FINAL R-PBE ENERGY IS     -188.3678606581 AFTER  17 ITERATIONS
 DFT EXCHANGE + CORRELATION ENERGY =       -22.3759151725
 TOTAL ELECTRON NUMBER             =        21.9999998107

          ------------
          EIGENVECTORS
          ------------

                      1          2          3          4          5
                  -18.8258   -18.8257   -10.0608    -1.0831    -1.0450
                     A1         B1         A1         A1         B1  
    1  C  1  S    0.000600   0.000000   0.994659  -0.154413   0.000000
    2  C  1  S   -0.000352   0.000000   0.039872   0.291253   0.000000
    3  C  1  S    0.009147   0.000000  -0.001631   0.065873   0.000000
    4  C  1  X    0.000000   0.000628   0.000000   0.000000   0.344356
    5  C  1  Y    0.000000   0.000000   0.000000   0.000000   0.000000
    6  C  1  Z    0.000002   0.000000   0.000108   0.004709   0.000000
    7  C  1  X    0.000000  -0.009705   0.000000   0.000000   0.001583
    8  C  1  Y    0.000000   0.000000   0.000000   0.000000   0.000000
    9  C  1  Z    0.000205   0.000000   0.000053  -0.000805   0.000000
   10  C  1 XX   -0.003660   0.000000   0.005217   0.044287   0.000000
   11  C  1 YY    0.001830   0.000000  -0.002609  -0.022151   0.000000
   12  C  1 ZZ    0.001831   0.000000  -0.002608  -0.022135   0.000000
   13  C  1 XY    0.000000   0.000000   0.000000   0.000000   0.000000
   14  C  1 XZ    0.000000   0.000109   0.000000   0.000000   0.001476
   15  C  1 YZ    0.000000   0.000000   0.000000   0.000000   0.000000
   16  O  2  S    0.703263   0.703311  -0.000205  -0.130634   0.142347
   17  O  2  S    0.027028   0.026827  -0.000363   0.255585  -0.286601
   18  O  2  S   -0.012700  -0.016300  -0.006261   0.271652  -0.272698
   19  O  2  X    0.002685   0.001343  -0.002305   0.132585  -0.140295
   20  O  2  Y    0.000000   0.000000   0.000000   0.000000   0.000000
   21  O  2  Z   -0.000051  -0.000026   0.000055  -0.002044   0.003213
   22  O  2  X   -0.003487  -0.002003  -0.004889   0.043521  -0.015628
   23  O  2  Y    0.000000   0.000000   0.000000   0.000000   0.000000
   24  O  2  Z   -0.000040   0.000127   0.000095  -0.000434   0.000567
   25  O  2 XX    0.000647   0.000237  -0.001376   0.009673  -0.012281
   26  O  2 YY   -0.000325  -0.000118   0.000689  -0.004836   0.006150
   27  O  2 ZZ   -0.000323  -0.000119   0.000687  -0.004837   0.006132
   28  O  2 XY    0.000000   0.000000   0.000000   0.000000   0.000000
   29  O  2 XZ   -0.000065   0.000035   0.000081  -0.000147   0.000711
   30  O  2 YZ    0.000000   0.000000   0.000000   0.000000   0.000000
   31  O  3  S    0.703263  -0.703311  -0.000205  -0.130634  -0.142347
   32  O  3  S    0.027028  -0.026827  -0.000363   0.255585   0.286601
   33  O  3  S   -0.012700   0.016300  -0.006261   0.271652   0.272698
   34  O  3  X   -0.002685   0.001343   0.002305  -0.132585  -0.140295
   35  O  3  Y    0.000000   0.000000   0.000000   0.000000   0.000000
   36  O  3  Z   -0.000051   0.000026   0.000055  -0.002044  -0.003213
   37  O  3  X    0.003487  -0.002003   0.004889  -0.043521  -0.015628
   38  O  3  Y    0.000000   0.000000   0.000000   0.000000   0.000000
   39  O  3  Z   -0.000040  -0.000127   0.000095  -0.000434  -0.000567
   40  O  3 XX    0.000647  -0.000237  -0.001376   0.009673   0.012281
   41  O  3 YY   -0.000325   0.000118   0.000689  -0.004836  -0.006150
   42  O  3 ZZ   -0.000323   0.000119   0.000687  -0.004837  -0.006132
   43  O  3 XY    0.000000   0.000000   0.000000   0.000000   0.000000
   44  O  3 XZ    0.000065   0.000035  -0.000081   0.000147   0.000711
   45  O  3 YZ    0.000000   0.000000   0.000000   0.000000   0.000000

                      6          7          8          9         10
                   -0.5024    -0.4717    -0.4717    -0.4635    -0.3317
                     A1         B2         A1         B1         A2  
    1  C  1  S   -0.123386   0.000000   0.000604   0.000000   0.000000
    2  C  1  S    0.300960   0.000000  -0.001336   0.000000   0.000000
    3  C  1  S    0.083326   0.000000  -0.007401   0.000000   0.000000
    4  C  1  X    0.000000   0.000000   0.000000  -0.349745   0.000000
    5  C  1  Y    0.000000   0.436461   0.000000   0.000000   0.000000
    6  C  1  Z   -0.003812   0.000000   0.436423   0.000000   0.000000
    7  C  1  X    0.000000   0.000000   0.000000   0.068509   0.000000
    8  C  1  Y    0.000000   0.136019   0.000000   0.000000   0.000000
    9  C  1  Z   -0.004071   0.000000   0.135956   0.000000   0.000000
   10  C  1 XX   -0.005186   0.000000  -0.001761   0.000000   0.000000
   11  C  1 YY    0.002601   0.000000   0.000250   0.000000   0.000000
   12  C  1 ZZ    0.002586   0.000000   0.001511   0.000000   0.000000
   13  C  1 XY    0.000000   0.000000   0.000000   0.000000  -0.066286
   14  C  1 XZ    0.000000   0.000000   0.000000   0.000234   0.000000
   15  C  1 YZ    0.000000   0.000728   0.000000   0.000000   0.000000
   16  O  2  S    0.091824   0.000000   0.001056   0.069150   0.000000
   17  O  2  S   -0.193252   0.000000  -0.002066  -0.147071   0.000000
   18  O  2  S   -0.312278   0.000000  -0.003485  -0.248655   0.000000
   19  O  2  X    0.333029   0.000000   0.012125   0.398491   0.000000
   20  O  2  Y    0.000000   0.352097   0.000000   0.000000   0.483554
   21  O  2  Z   -0.009071   0.000000   0.351899  -0.011756   0.000000
   22  O  2  X    0.189256   0.000000   0.006692   0.191313   0.000000
   23  O  2  Y    0.000000   0.187157   0.000000   0.000000   0.324262
   24  O  2  Z   -0.004397   0.000000   0.187061  -0.006599   0.000000
   25  O  2 XX    0.019159   0.000000   0.001474   0.019802   0.000000
   26  O  2 YY   -0.009588   0.000000  -0.000290  -0.009910   0.000000
   27  O  2 ZZ   -0.009571   0.000000  -0.001184  -0.009891   0.000000
   28  O  2 XY    0.000000   0.027924   0.000000   0.000000   0.016867
   29  O  2 XZ   -0.000860   0.000000   0.027879  -0.000888   0.000000
   30  O  2 YZ    0.000000  -0.000516   0.000000   0.000000  -0.000352
   31  O  3  S    0.091824   0.000000   0.001056  -0.069150   0.000000
   32  O  3  S   -0.193252   0.000000  -0.002066   0.147071   0.000000
   33  O  3  S   -0.312278   0.000000  -0.003485   0.248655   0.000000
   34  O  3  X   -0.333029   0.000000  -0.012125   0.398491   0.000000
   35  O  3  Y    0.000000   0.352097   0.000000   0.000000  -0.483554
   36  O  3  Z   -0.009071   0.000000   0.351899   0.011756   0.000000
   37  O  3  X   -0.189256   0.000000  -0.006692   0.191313   0.000000
   38  O  3  Y    0.000000   0.187157   0.000000   0.000000  -0.324262
   39  O  3  Z   -0.004397   0.000000   0.187061   0.006599   0.000000
   40  O  3 XX    0.019159   0.000000   0.001474  -0.019802   0.000000
   41  O  3 YY   -0.009588   0.000000  -0.000290   0.009910   0.000000
   42  O  3 ZZ   -0.009571   0.000000  -0.001184   0.009891   0.000000
   43  O  3 XY    0.000000  -0.027924   0.000000   0.000000   0.016867
   44  O  3 XZ    0.000860   0.000000  -0.027879  -0.000888   0.000000
   45  O  3 YZ    0.000000  -0.000516   0.000000   0.000000   0.000352

                     11         12         13         14         15
                   -0.3316     0.0004     0.0021     0.0482     0.2796
                     B1         A1         B2         A1         B1  
    1  C  1  S    0.000000   0.018840   0.000000  -0.089895   0.000000
    2  C  1  S    0.000000  -0.019090   0.000000   0.055084   0.000000
    3  C  1  S    0.000000  -0.353139   0.000000   1.987283   0.000000
    4  C  1  X   -0.002362   0.000000   0.000000   0.000000   0.062356
    5  C  1  Y    0.000000   0.000000   0.634892   0.000000   0.000000
    6  C  1  Z    0.000000   0.622572   0.000000   0.123536   0.000000
    7  C  1  X    0.004456   0.000000   0.000000   0.000000   2.333317
    8  C  1  Y    0.000000   0.000000   0.642943   0.000000   0.000000
    9  C  1  Z    0.000000   0.625959   0.000000   0.152513   0.000000
   10  C  1 XX    0.000000   0.014629   0.000000  -0.069747   0.000000
   11  C  1 YY    0.000000  -0.006180   0.000000   0.035133   0.000000
   12  C  1 ZZ    0.000000  -0.008449   0.000000   0.034614   0.000000
   13  C  1 XY    0.000000   0.000000   0.000000   0.000000   0.000000
   14  C  1 XZ   -0.066276   0.000000   0.000000   0.000000   0.000757
   15  C  1 YZ    0.000000   0.000000  -0.001343   0.000000   0.000000
   16  O  2  S    0.000027  -0.013426   0.000000   0.075732  -0.080632
   17  O  2  S   -0.000423   0.026105   0.000000  -0.146785   0.079204
   18  O  2  S    0.001201   0.127959   0.000000  -0.767398   1.453475
   19  O  2  X    0.014352   0.050907   0.000000  -0.284266  -0.098474
   20  O  2  Y    0.000000   0.000000  -0.399384   0.000000   0.000000
   21  O  2  Z    0.483360  -0.393039   0.000000  -0.071111  -0.006018
   22  O  2  X    0.008795   0.074588   0.000000  -0.460447   0.258526
   23  O  2  Y    0.000000   0.000000  -0.414605   0.000000   0.000000
   24  O  2  Z    0.324123  -0.407518   0.000000  -0.075637  -0.014112
   25  O  2 XX    0.000540   0.002691   0.000000  -0.012488   0.020337
   26  O  2 YY    0.000035  -0.001026   0.000000   0.006329  -0.010163
   27  O  2 ZZ   -0.000575  -0.001665   0.000000   0.006160  -0.010174
   28  O  2 XY    0.000000   0.000000   0.016758   0.000000   0.000000
   29  O  2 XZ    0.016860   0.016224   0.000000   0.004352  -0.000281
   30  O  2 YZ    0.000000   0.000000  -0.000381   0.000000   0.000000
   31  O  3  S   -0.000027  -0.013426   0.000000   0.075732   0.080632
   32  O  3  S    0.000423   0.026105   0.000000  -0.146785  -0.079204
   33  O  3  S   -0.001201   0.127959   0.000000  -0.767398  -1.453475
   34  O  3  X    0.014352  -0.050907   0.000000   0.284266  -0.098474
   35  O  3  Y    0.000000   0.000000  -0.399384   0.000000   0.000000
   36  O  3  Z   -0.483360  -0.393039   0.000000  -0.071111   0.006018
   37  O  3  X    0.008795  -0.074588   0.000000   0.460447   0.258526
   38  O  3  Y    0.000000   0.000000  -0.414605   0.000000   0.000000
   39  O  3  Z   -0.324123  -0.407518   0.000000  -0.075637   0.014112
   40  O  3 XX   -0.000540   0.002691   0.000000  -0.012488  -0.020337
   41  O  3 YY   -0.000035  -0.001026   0.000000   0.006329   0.010163
   42  O  3 ZZ    0.000575  -0.001665   0.000000   0.006160   0.010174
   43  O  3 XY    0.000000   0.000000  -0.016758   0.000000   0.000000
   44  O  3 XZ    0.016860  -0.016224   0.000000  -0.004352  -0.000281
   45  O  3 YZ    0.000000   0.000000  -0.000381   0.000000   0.000000

                     16         17         18         19         20
                    0.3278     0.3278     0.5272     0.6488     0.6883
                     B2         A1         A1         B1         A1  
    1  C  1  S    0.000000  -0.000482   0.118405   0.000000   0.031807
    2  C  1  S    0.000000   0.015837  -0.887107   0.000000   1.403082
    3  C  1  S    0.000000  -0.015585   2.011492   0.000000   0.309898
    4  C  1  X    0.000000   0.000000   0.000000   0.998608   0.000000
    5  C  1  Y   -0.823588   0.000000   0.000000   0.000000   0.000000
    6  C  1  Z    0.000000  -0.823685  -0.004792   0.000000   0.012159
    7  C  1  X    0.000000   0.000000   0.000000  -0.316138   0.000000
    8  C  1  Y    1.261787   0.000000   0.000000   0.000000   0.000000
    9  C  1  Z    0.000000   1.261578   0.011415   0.000000   0.007977
   10  C  1 XX    0.000000   0.003472   0.303070   0.000000   0.102228
   11  C  1 YY    0.000000  -0.001016  -0.151608   0.000000  -0.051153
   12  C  1 ZZ    0.000000  -0.002456  -0.151463   0.000000  -0.051074
   13  C  1 XY    0.000000   0.000000   0.000000   0.000000   0.000000
   14  C  1 XZ    0.000000   0.000000   0.000000  -0.004451   0.000000
   15  C  1 YZ   -0.000833   0.000000   0.000000   0.000000   0.000000
   16  O  2  S    0.000000  -0.000036   0.010923  -0.046024   0.050695
   17  O  2  S    0.000000   0.001935   0.072427   0.100740  -0.117804
   18  O  2  S    0.000000  -0.007179  -0.727871   0.320286  -0.421325
   19  O  2  X    0.000000   0.002242   0.444235  -0.082095   0.264000
   20  O  2  Y   -0.073843   0.000000   0.000000   0.000000   0.000000
   21  O  2  Z    0.000000  -0.073741  -0.005039   0.015593   0.003085
   22  O  2  X    0.000000  -0.000375  -0.578893   1.008621  -1.050846
   23  O  2  Y   -0.162623   0.000000   0.000000   0.000000   0.000000
   24  O  2  Z    0.000000  -0.162541   0.011734  -0.036148   0.007995
   25  O  2 XX    0.000000  -0.002150  -0.120535  -0.084540   0.024884
   26  O  2 YY    0.000000   0.000548   0.060288   0.042306  -0.012431
   27  O  2 ZZ    0.000000   0.001603   0.060246   0.042234  -0.012453
   28  O  2 XY   -0.038697   0.000000   0.000000   0.000000   0.000000
   29  O  2 XZ    0.000000  -0.038649   0.003193   0.003353  -0.000333
   30  O  2 YZ    0.000609   0.000000   0.000000   0.000000   0.000000
   31  O  3  S    0.000000  -0.000036   0.010923   0.046024   0.050695
   32  O  3  S    0.000000   0.001935   0.072427  -0.100740  -0.117804
   33  O  3  S    0.000000  -0.007179  -0.727871  -0.320286  -0.421325
   34  O  3  X    0.000000  -0.002242  -0.444235  -0.082095  -0.264000
   35  O  3  Y   -0.073843   0.000000   0.000000   0.000000   0.000000
   36  O  3  Z    0.000000  -0.073741  -0.005039  -0.015593   0.003085
   37  O  3  X    0.000000   0.000375   0.578893   1.008621   1.050846
   38  O  3  Y   -0.162623   0.000000   0.000000   0.000000   0.000000
   39  O  3  Z    0.000000  -0.162541   0.011734   0.036148   0.007995
   40  O  3 XX    0.000000  -0.002150  -0.120535   0.084540   0.024884
   41  O  3 YY    0.000000   0.000548   0.060288  -0.042306  -0.012431
   42  O  3 ZZ    0.000000   0.001603   0.060246  -0.042234  -0.012453
   43  O  3 XY    0.038697   0.000000   0.000000   0.000000   0.000000
   44  O  3 XZ    0.000000   0.038649  -0.003193   0.003353   0.000333
   45  O  3 YZ    0.000609   0.000000   0.000000   0.000000   0.000000

                     21         22         23         24         25
                    0.7450     0.7452     0.9276     0.9278     0.9982
                     A2         B1         A1         B2         B1  
    1  C  1  S    0.000000   0.000000   0.001171   0.000000   0.000000
    2  C  1  S    0.000000   0.000000   0.024226   0.000000   0.000000
    3  C  1  S    0.000000   0.000000  -0.004874   0.000000   0.000000
    4  C  1  X    0.000000   0.034489   0.000000   0.000000   0.768426
    5  C  1  Y    0.000000   0.000000   0.000000   0.026571   0.000000
    6  C  1  Z    0.000000   0.000000   0.026711   0.000000   0.000000
    7  C  1  X    0.000000  -0.037456   0.000000   0.000000   0.353367
    8  C  1  Y    0.000000   0.000000   0.000000  -1.113482   0.000000
    9  C  1  Z    0.000000   0.000000  -1.113166   0.000000   0.000000
   10  C  1 XX    0.000000   0.000000   0.008785   0.000000   0.000000
   11  C  1 YY    0.000000   0.000000  -0.006796   0.000000   0.000000
   12  C  1 ZZ    0.000000   0.000000  -0.001989   0.000000   0.000000
   13  C  1 XY    0.137315   0.000000   0.000000   0.000000   0.000000
   14  C  1 XZ    0.000000   0.137059   0.000000   0.000000  -0.033830
   15  C  1 YZ    0.000000   0.000000   0.000000   0.002777   0.000000
   16  O  2  S    0.000000  -0.000567  -0.000148   0.000000  -0.034928
   17  O  2  S    0.000000  -0.000248   0.006477   0.000000   0.217435
   18  O  2  S    0.000000  -0.000428  -0.004239   0.000000   0.301897
   19  O  2  X    0.000000  -0.002089  -0.011578   0.000000   0.729345
   20  O  2  Y   -0.612386   0.000000   0.000000  -0.624491   0.000000
   21  O  2  Z    0.000000  -0.612272  -0.624266   0.000000  -0.016634
   22  O  2  X    0.000000   0.035981   0.005183   0.000000  -0.462666
   23  O  2  Y    0.806011   0.000000   0.000000   1.179161   0.000000
   24  O  2  Z    0.000000   0.805403   1.178945   0.000000  -0.012683
   25  O  2 XX    0.000000  -0.003722  -0.000862   0.000000  -0.083245
   26  O  2 YY    0.000000   0.001919  -0.001308   0.000000   0.041809
   27  O  2 ZZ    0.000000   0.001803   0.002171   0.000000   0.041436
   28  O  2 XY   -0.010735   0.000000   0.000000  -0.051628   0.000000
   29  O  2 XZ    0.000000  -0.010636  -0.051550   0.000000   0.010425
   30  O  2 YZ   -0.000065   0.000000   0.000000   0.002010   0.000000
   31  O  3  S    0.000000   0.000567  -0.000148   0.000000   0.034928
   32  O  3  S    0.000000   0.000248   0.006477   0.000000  -0.217435
   33  O  3  S    0.000000   0.000428  -0.004239   0.000000  -0.301897
   34  O  3  X    0.000000  -0.002089   0.011578   0.000000   0.729345
   35  O  3  Y    0.612386   0.000000   0.000000  -0.624491   0.000000
   36  O  3  Z    0.000000   0.612272  -0.624266   0.000000   0.016634
   37  O  3  X    0.000000   0.035981  -0.005183   0.000000  -0.462666
   38  O  3  Y   -0.806011   0.000000   0.000000   1.179161   0.000000
   39  O  3  Z    0.000000  -0.805403   1.178945   0.000000   0.012683
   40  O  3 XX    0.000000   0.003722  -0.000862   0.000000   0.083245
   41  O  3 YY    0.000000  -0.001919  -0.001308   0.000000  -0.041809
   42  O  3 ZZ    0.000000  -0.001803   0.002171   0.000000  -0.041436
   43  O  3 XY   -0.010735   0.000000   0.000000   0.051628   0.000000
   44  O  3 XZ    0.000000  -0.010636   0.051550   0.000000   0.010425
   45  O  3 YZ    0.000065   0.000000   0.000000   0.002010   0.000000

                     26         27         28         29         30
                    1.4135     1.4135     1.4465     1.4478     1.6617
                     A1         B2         A2         B1         A1  
    1  C  1  S   -0.000033   0.000000   0.000000   0.000000   0.030553
    2  C  1  S   -0.000348   0.000000   0.000000   0.000000   0.408717
    3  C  1  S   -0.001171   0.000000   0.000000   0.000000   2.394196
    4  C  1  X    0.000000   0.000000   0.000000   0.044408   0.000000
    5  C  1  Y    0.000000  -0.003676   0.000000   0.000000   0.000000
    6  C  1  Z   -0.003683   0.000000   0.000000   0.000000   0.010868
    7  C  1  X    0.000000   0.000000   0.000000   0.048570   0.000000
    8  C  1  Y    0.000000   0.014549   0.000000   0.000000   0.000000
    9  C  1  Z    0.014518   0.000000   0.000000   0.000000   0.049803
   10  C  1 XX   -0.000443   0.000000   0.000000   0.000000   0.441206
   11  C  1 YY   -0.769104   0.000000   0.000000   0.000000  -0.221179
   12  C  1 ZZ    0.769547   0.000000   0.000000   0.000000  -0.220027
   13  C  1 XY    0.000000   0.000000   0.723329   0.000000   0.000000
   14  C  1 XZ    0.000000   0.000000   0.000000   0.722574   0.000000
   15  C  1 YZ    0.000000   0.888341   0.000000   0.000000   0.000000
   16  O  2  S    0.000003   0.000000   0.000000  -0.002212   0.012803
   17  O  2  S   -0.000772   0.000000   0.000000   0.009400   1.126511
   18  O  2  S    0.001300   0.000000   0.000000   0.045742  -2.364947
   19  O  2  X    0.000098   0.000000   0.000000   0.043408  -0.198175
   20  O  2  Y    0.000000  -0.000460   0.211087   0.000000   0.000000
   21  O  2  Z   -0.000470   0.000000   0.000000   0.210263   0.012327
   22  O  2  X    0.000283   0.000000   0.000000  -0.014957  -0.740366
   23  O  2  Y    0.000000  -0.011321   0.069201   0.000000   0.000000
   24  O  2  Z   -0.011309   0.000000   0.000000   0.068397  -0.011709
   25  O  2 XX    0.000140   0.000000   0.000000  -0.013808   0.132919
   26  O  2 YY   -0.203526   0.000000   0.000000  -0.001015  -0.066582
   27  O  2 ZZ    0.203386   0.000000   0.000000   0.014823  -0.066338
   28  O  2 XY    0.000000   0.009973  -0.308178   0.000000   0.000000
   29  O  2 XZ    0.009971   0.000000   0.000000  -0.308030   0.000427
   30  O  2 YZ    0.000000   0.234930   0.009136   0.000000   0.000000
   31  O  3  S    0.000003   0.000000   0.000000   0.002212   0.012803
   32  O  3  S   -0.000772   0.000000   0.000000  -0.009400   1.126511
   33  O  3  S    0.001300   0.000000   0.000000  -0.045742  -2.364947
   34  O  3  X   -0.000098   0.000000   0.000000   0.043408   0.198175
   35  O  3  Y    0.000000  -0.000460  -0.211087   0.000000   0.000000
   36  O  3  Z   -0.000470   0.000000   0.000000  -0.210263   0.012327
   37  O  3  X   -0.000283   0.000000   0.000000  -0.014957   0.740366
   38  O  3  Y    0.000000  -0.011321  -0.069201   0.000000   0.000000
   39  O  3  Z   -0.011309   0.000000   0.000000  -0.068397  -0.011709
   40  O  3 XX    0.000140   0.000000   0.000000   0.013808   0.132919
   41  O  3 YY   -0.203526   0.000000   0.000000   0.001015  -0.066582
   42  O  3 ZZ    0.203386   0.000000   0.000000  -0.014823  -0.066338
   43  O  3 XY    0.000000  -0.009973  -0.308178   0.000000   0.000000
   44  O  3 XZ   -0.009971   0.000000   0.000000  -0.308030  -0.000427
   45  O  3 YZ    0.000000   0.234930  -0.009136   0.000000   0.000000

                     31         32         33         34         35
                    1.9008     2.0431     2.0431     2.2323     2.2323
                     B1         A2         B1         A1         B2  
    1  C  1  S    0.000000   0.000000   0.000000  -0.000359   0.000000
    2  C  1  S    0.000000   0.000000   0.000000  -0.000584   0.000000
    3  C  1  S    0.000000   0.000000   0.000000   0.000689   0.000000
    4  C  1  X    0.252182   0.000000   0.000080   0.000000   0.000000
    5  C  1  Y    0.000000   0.000000   0.000000   0.000000   0.031562
    6  C  1  Z    0.000000   0.000000   0.000000   0.031820   0.000000
    7  C  1  X    2.099865   0.000000   0.000242   0.000000   0.000000
    8  C  1  Y    0.000000   0.000000   0.000000   0.000000   0.014140
    9  C  1  Z    0.000000   0.000000   0.000000   0.014272   0.000000
   10  C  1 XX    0.000000   0.000000   0.000000   0.003241   0.000000
   11  C  1 YY    0.000000   0.000000   0.000000   0.420718   0.000000
   12  C  1 ZZ    0.000000   0.000000   0.000000  -0.423959   0.000000
   13  C  1 XY    0.000000   0.000803   0.000000   0.000000   0.000000
   14  C  1 XZ    0.008665   0.000000  -0.000799   0.000000   0.000000
   15  C  1 YZ    0.000000   0.000000   0.000000   0.000000  -0.487708
   16  O  2  S   -0.014059   0.000000  -0.000006   0.000062   0.000000
   17  O  2  S   -1.395210   0.000000  -0.000023  -0.002349   0.000000
   18  O  2  S    2.850548   0.000000   0.000180   0.000721   0.000000
   19  O  2  X    0.066168   0.000000   0.000093  -0.001795   0.000000
   20  O  2  Y    0.000000  -0.000795   0.000000   0.000000   0.007369
   21  O  2  Z    0.004551   0.000000   0.000796   0.007464   0.000000
   22  O  2  X    0.312634   0.000000  -0.000109   0.000721   0.000000
   23  O  2  Y    0.000000   0.001313   0.000000   0.000000  -0.018446
   24  O  2  Z   -0.023392   0.000000  -0.001316  -0.018612   0.000000
   25  O  2 XX   -0.147202   0.000000  -0.000436  -0.001006   0.000000
   26  O  2 YY    0.073833   0.000000   0.612393  -0.585828   0.000000
   27  O  2 ZZ    0.073369   0.000000  -0.611957   0.586834   0.000000
   28  O  2 XY    0.000000   0.019085   0.000000   0.000000  -0.041184
   29  O  2 XZ    0.014227   0.000000  -0.019084  -0.041577   0.000000
   30  O  2 YZ    0.000000   0.706879   0.000000   0.000000   0.677060
   31  O  3  S    0.014059   0.000000   0.000006   0.000062   0.000000
   32  O  3  S    1.395210   0.000000   0.000023  -0.002349   0.000000
   33  O  3  S   -2.850548   0.000000  -0.000180   0.000721   0.000000
   34  O  3  X    0.066168   0.000000   0.000093   0.001795   0.000000
   35  O  3  Y    0.000000   0.000795   0.000000   0.000000   0.007369
   36  O  3  Z   -0.004551   0.000000  -0.000796   0.007464   0.000000
   37  O  3  X    0.312634   0.000000  -0.000109  -0.000721   0.000000
   38  O  3  Y    0.000000  -0.001313   0.000000   0.000000  -0.018446
   39  O  3  Z    0.023392   0.000000   0.001316  -0.018612   0.000000
   40  O  3 XX    0.147202   0.000000   0.000436  -0.001006   0.000000
   41  O  3 YY   -0.073833   0.000000  -0.612393  -0.585828   0.000000
   42  O  3 ZZ   -0.073369   0.000000   0.611957   0.586834   0.000000
   43  O  3 XY    0.000000   0.019085   0.000000   0.000000   0.041184
   44  O  3 XZ    0.014227   0.000000  -0.019084   0.041577   0.000000
   45  O  3 YZ    0.000000  -0.706879   0.000000   0.000000   0.677060

                     36         37         38         39         40
                    2.3467     2.3478     2.7933     3.0765     3.1625
                     A1         B2         A1         B1         A2  
    1  C  1  S    0.006106   0.000000  -0.126785   0.000000   0.000000
    2  C  1  S    0.015587   0.000000  -1.128222   0.000000   0.000000
    3  C  1  S   -0.008214   0.000000  -0.868018   0.000000   0.000000
    4  C  1  X    0.000000   0.000000   0.000000   1.462975   0.000000
    5  C  1  Y    0.000000  -0.448182   0.000000   0.000000   0.000000
    6  C  1  Z   -0.447499   0.000000  -0.037685   0.000000   0.000000
    7  C  1  X    0.000000   0.000000   0.000000   0.342689   0.000000
    8  C  1  Y    0.000000  -0.270196   0.000000   0.000000   0.000000
    9  C  1  Z   -0.269429   0.000000  -0.029470   0.000000   0.000000
   10  C  1 XX   -0.051142   0.000000   0.525229   0.000000   0.000000
   11  C  1 YY    0.072031   0.000000  -0.261552   0.000000   0.000000
   12  C  1 ZZ   -0.020889   0.000000  -0.263678   0.000000   0.000000
   13  C  1 XY    0.000000   0.000000   0.000000   0.000000   1.143439
   14  C  1 XZ    0.000000   0.000000   0.000000  -0.022968   0.000000
   15  C  1 YZ    0.000000  -0.053357   0.000000   0.000000   0.000000
   16  O  2  S   -0.000788   0.000000  -0.022099  -0.038585   0.000000
   17  O  2  S    0.039640   0.000000  -0.892798  -0.393952   0.000000
   18  O  2  S   -0.016090   0.000000   1.355460   1.326212   0.000000
   19  O  2  X    0.029128   0.000000  -0.252827   0.203248   0.000000
   20  O  2  Y    0.000000  -0.084071   0.000000   0.000000   0.148509
   21  O  2  Z   -0.084710   0.000000   0.003562  -0.007448   0.000000
   22  O  2  X   -0.014591   0.000000   0.798529   0.715827   0.000000
   23  O  2  Y    0.000000   0.312847   0.000000   0.000000   0.249544
   24  O  2  Z    0.312246   0.000000   0.010339  -0.021875   0.000000
   25  O  2 XX    0.013056   0.000000   0.580783   0.881240   0.000000
   26  O  2 YY   -0.036229   0.000000  -0.290193  -0.441409   0.000000
   27  O  2 ZZ    0.023174   0.000000  -0.290590  -0.439830   0.000000
   28  O  2 XY    0.000000   0.756526   0.000000   0.000000   0.828525
   29  O  2 XZ    0.754959   0.000000   0.023948  -0.054801   0.000000
   30  O  2 YZ    0.000000   0.033838   0.000000   0.000000  -0.020535
   31  O  3  S   -0.000788   0.000000  -0.022099   0.038585   0.000000
   32  O  3  S    0.039640   0.000000  -0.892798   0.393952   0.000000
   33  O  3  S   -0.016090   0.000000   1.355460  -1.326212   0.000000
   34  O  3  X   -0.029128   0.000000   0.252827   0.203248   0.000000
   35  O  3  Y    0.000000  -0.084071   0.000000   0.000000  -0.148509
   36  O  3  Z   -0.084710   0.000000   0.003562   0.007448   0.000000
   37  O  3  X    0.014591   0.000000  -0.798529   0.715827   0.000000
   38  O  3  Y    0.000000   0.312847   0.000000   0.000000  -0.249544
   39  O  3  Z    0.312246   0.000000   0.010339   0.021875   0.000000
   40  O  3 XX    0.013056   0.000000   0.580783  -0.881240   0.000000
   41  O  3 YY   -0.036229   0.000000  -0.290193   0.441409   0.000000
   42  O  3 ZZ    0.023174   0.000000  -0.290590   0.439830   0.000000
   43  O  3 XY    0.000000  -0.756526   0.000000   0.000000   0.828525
   44  O  3 XZ   -0.754959   0.000000  -0.023948  -0.054801   0.000000
   45  O  3 YZ    0.000000   0.033838   0.000000   0.000000   0.020535

                     41         42
                    3.1625     3.2442
                     B1         A1  
    1  C  1  S    0.000000   0.006660
    2  C  1  S    0.000000   1.644521
    3  C  1  S    0.000000   1.251438
    4  C  1  X    0.060532   0.000000
    5  C  1  Y    0.000000   0.000000
    6  C  1  Z    0.000000   0.018201
    7  C  1  X   -0.009747   0.000000
    8  C  1  Y    0.000000   0.000000
    9  C  1  Z    0.000000  -0.002150
   10  C  1 XX    0.000000   1.642302
   11  C  1 YY    0.000000  -0.820897
   12  C  1 ZZ    0.000000  -0.821406
   13  C  1 XY    0.000000   0.000000
   14  C  1 XZ    1.143490   0.000000
   15  C  1 YZ    0.000000   0.000000
   16  O  2  S   -0.001338   0.048043
   17  O  2  S    0.016208  -0.216717
   18  O  2  S    0.017683  -1.293426
   19  O  2  X    0.026372  -0.767218
   20  O  2  Y    0.000000   0.000000
   21  O  2  Z    0.147895   0.018218
   22  O  2  X    0.022857  -0.610258
   23  O  2  Y    0.000000   0.000000
   24  O  2  Z    0.249151   0.022274
   25  O  2 XX    0.061947  -0.843810
   26  O  2 YY   -0.013214   0.422544
   27  O  2 ZZ   -0.048734   0.421266
   28  O  2 XY    0.000000   0.000000
   29  O  2 XZ    0.826287   0.054832
   30  O  2 YZ    0.000000   0.000000
   31  O  3  S    0.001338   0.048043
   32  O  3  S   -0.016208  -0.216717
   33  O  3  S   -0.017683  -1.293426
   34  O  3  X    0.026372   0.767218
   35  O  3  Y    0.000000   0.000000
   36  O  3  Z   -0.147895   0.018218
   37  O  3  X    0.022857   0.610258
   38  O  3  Y    0.000000   0.000000
   39  O  3  Z   -0.249151   0.022274
   40  O  3 XX   -0.061947  -0.843810
   41  O  3 YY    0.013214   0.422544
   42  O  3 ZZ    0.048734   0.421266
   43  O  3 XY    0.000000   0.000000
   44  O  3 XZ    0.826287  -0.054832
   45  O  3 YZ    0.000000   0.000000
 ...... END OF RHF CALCULATION ......
 STEP CPU TIME =     3.19 TOTAL CPU TIME =        3.3 (    0.1 MIN)
 TOTAL WALL CLOCK TIME=        3.3 SECONDS, CPU UTILIZATION IS 100.00%

     ---------------------------------------------------------------------
     PROPERTIES FOR THE PBE      DFT FUNCTIONAL (RHF  TYPE) DENSITY MATRIX
     ---------------------------------------------------------------------

          -----------------
          ENERGY COMPONENTS
          -----------------

         WAVEFUNCTION NORMALIZATION =       1.0000000000

                ONE ELECTRON ENERGY =    -373.7264647784
                TWO ELECTRON ENERGY =     126.4566324891
           NUCLEAR REPULSION ENERGY =      58.9019716312
                                      ------------------
                       TOTAL ENERGY =    -188.3678606581

 ELECTRON-ELECTRON POTENTIAL ENERGY =     126.4566324891
  NUCLEUS-ELECTRON POTENTIAL ENERGY =    -561.6916857125
   NUCLEUS-NUCLEUS POTENTIAL ENERGY =      58.9019716312
                                      ------------------
             TOTAL POTENTIAL ENERGY =    -376.3330815922
               TOTAL KINETIC ENERGY =     187.9652209341
                 VIRIAL RATIO (V/T) =       2.0021420969

          ---------------------------------------
          MULLIKEN AND LOWDIN POPULATION ANALYSES
          ---------------------------------------

     ATOMIC MULLIKEN POPULATION IN EACH MOLECULAR ORBITAL

                      1          2          3          4          5

                  2.000000   2.000000   2.000000   2.000000   2.000000

    1             0.000619   0.002426   2.006182   0.570738   0.558012
    2             0.999690   0.998787  -0.003091   0.714631   0.720994
    3             0.999690   0.998787  -0.003091   0.714631   0.720994

                      6          7          8          9         10

                  2.000000   2.000000   2.000000   2.000000   2.000000

    1             0.281328   0.814149   0.814008   0.308496   0.059572
    2             0.859336   0.592926   0.592996   0.845752   0.970214
    3             0.859336   0.592926   0.592996   0.845752   0.970214

                     11

                  2.000000

    1             0.059657
    2             0.970172
    3             0.970172

               ----- POPULATIONS IN EACH AO -----
                             MULLIKEN      LOWDIN
              1  C  1  S      1.99670     1.97250
              2  C  1  S      0.69904     0.36891
              3  C  1  S      0.12944     0.21514
              4  C  1  X      0.81682     0.71035
              5  C  1  Y      0.62616     0.55011
              6  C  1  Z      0.62620     0.55018
              7  C  1  X      0.05219     0.25959
              8  C  1  Y      0.18798     0.26303
              9  C  1  Z      0.18796     0.26308
             10  C  1 XX      0.00840     0.30579
             11  C  1 YY      0.02515     0.08760
             12  C  1 ZZ      0.05957     0.08762
             13  C  1 XY      0.05959     0.12344
             14  C  1 XZ      0.00001     0.12346
             15  C  1 YZ      0.00000     0.00001
             16  O  2  S      1.99778     1.97931
             17  O  2  S      0.82261     0.61248
             18  O  2  S      0.95889     0.49257
             19  O  2  X      0.93679     0.86358
             20  O  2  Y      0.98680     0.93056
             21  O  2  Z      0.98658     0.93036
             22  O  2  X      0.40959     0.47613
             23  O  2  Y      0.56698     0.58844
             24  O  2  Z      0.56683     0.58834
             25  O  2 XX      0.00271     0.20693
             26  O  2 YY      0.00813     0.18274
             27  O  2 ZZ      0.00935     0.18275
             28  O  2 XY      0.00935     0.01270
             29  O  2 XZ      0.00000     0.01271
             30  O  2 YZ      0.00000     0.00000
             31  O  3  S      1.99778     1.97931
             32  O  3  S      0.82261     0.61248
             33  O  3  S      0.95889     0.49257
             34  O  3  X      0.93679     0.86358
             35  O  3  Y      0.98680     0.93056
             36  O  3  Z      0.98658     0.93036
             37  O  3  X      0.40959     0.47613
             38  O  3  Y      0.56698     0.58844
             39  O  3  Z      0.56683     0.58834
             40  O  3 XX      0.00271     0.20693
             41  O  3 YY      0.00813     0.18274
             42  O  3 ZZ      0.00935     0.18275
             43  O  3 XY      0.00935     0.01270
             44  O  3 XZ      0.00000     0.01271
             45  O  3 YZ      0.00000     0.00000

          ----- MULLIKEN ATOMIC OVERLAP POPULATIONS -----
          (OFF-DIAGONAL ELEMENTS NEED TO BE MULTIPLIED BY 2)

             1           2           3

    1    4.0609003
    2    0.7071437   7.5926593
    3    0.7071437  -0.0373969   7.5926593

          TOTAL MULLIKEN AND LOWDIN ATOMIC POPULATIONS
       ATOM         MULL.POP.    CHARGE          LOW.POP.     CHARGE
    1 C             5.475188    0.524812         5.880811    0.119189
    2 O             8.262406   -0.262406         8.059594   -0.059594
    3 O             8.262406   -0.262406         8.059594   -0.059594

          MULLIKEN SPHERICAL HARMONIC POPULATIONS
       ATOM           S       P       D      F      G      H      I    TOTAL
    1 C             2.83    2.50    0.15   0.00   0.00   0.00   0.00    5.48
    2 O             3.78    4.45    0.03   0.00   0.00   0.00   0.00    8.26
    3 O             3.78    4.45    0.03   0.00   0.00   0.00   0.00    8.26

          -------------------------------
          BOND ORDER AND VALENCE ANALYSIS     BOND ORDER THRESHOLD=0.050
          -------------------------------

                   BOND                       BOND                       BOND
  ATOM PAIR DIST  ORDER      ATOM PAIR DIST  ORDER      ATOM PAIR DIST  ORDER
    1   2  1.150  2.124        1   3  1.150  2.124        2   3  2.300  0.281

                       TOTAL       BONDED        FREE
      ATOM            VALENCE     VALENCE     VALENCE
    1 C                 4.248       4.248       0.000
    2 O                 2.405       2.405       0.000
    3 O                 2.405       2.405       0.000

          ---------------------
          ELECTROSTATIC MOMENTS
          ---------------------

 POINT   1           X           Y           Z (BOHR)    CHARGE
                 0.000000    0.000000    0.000000        0.00 (A.U.)
         DX          DY          DZ         /D/  (DEBYE)
     0.000000    0.000000   -0.048671    0.048671
 ...... END OF PROPERTY EVALUATION ......
 STEP CPU TIME =     0.00 TOTAL CPU TIME =        3.3 (    0.1 MIN)
 TOTAL WALL CLOCK TIME=        3.3 SECONDS, CPU UTILIZATION IS  99.70%

 BEGINNING ONE ELECTRON GRADIENT...
 ..... END OF 1-ELECTRON GRADIENT ......
 STEP CPU TIME =     0.01 TOTAL CPU TIME =        3.3 (    0.1 MIN)
 TOTAL WALL CLOCK TIME=        3.3 SECONDS, CPU UTILIZATION IS 100.00%

          ----------------------
          GRADIENT OF THE ENERGY
          ----------------------
 MEMORY FOR GRID POINT CONTRIBUTIONS TO THE DFT GRADIENT=    144181 WORDS.
 STEP CPU TIME =     0.57 TOTAL CPU TIME =        3.9 (    0.1 MIN)
 TOTAL WALL CLOCK TIME=        3.9 SECONDS, CPU UTILIZATION IS 100.00%

 THE MINIMUM MEMORY REQUIRED FOR THIS RUN IS      87674 WORDS.
 USING     990030 WORDS FOR 2E- DERIVATIVE INTEGRAL CONTRIBUTIONS.
 THE COARSE/FINE SCHWARZ SCREENINGS SKIPPED            0/           0 BLOCKS.
 THE NUMBER OF GRADIENT INTEGRAL BLOCKS COMPUTED WAS      7066
 ...... END OF 2-ELECTRON GRADIENT ......
 STEP CPU TIME =     0.15 TOTAL CPU TIME =        4.0 (    0.1 MIN)
 TOTAL WALL CLOCK TIME=        4.0 SECONDS, CPU UTILIZATION IS  99.75%

          NSERCH=  0     ENERGY=    -188.3678607

                                 -----------------------
                                 GRADIENT (HARTREE/BOHR)
                                 -----------------------
        ATOM     ZNUC       DE/DX         DE/DY         DE/DZ
 --------------------------------------------------------------
    1  C            6.0     0.0000000     0.0000000    -0.0037735
    2  O            8.0     0.0566512     0.0000000     0.0018867
    3  O            8.0    -0.0566512     0.0000000     0.0018867

          MAXIMUM GRADIENT = 0.0566512    RMS GRADIENT = 0.0267500

 NSERCH:   0  E=     -188.3678606581  GRAD. MAX=  0.0566512  R.M.S.=  0.0267500

          FORCE CONSTANT MATRIX NOT UPDATED --- TAKING FIRST STEP
          MIN SEARCH, CORRECT HESSIAN, TRYING PURE NR STEP
               NR STEP HAS LENGTH         =  80.036559
          TRIM/QA LAMBDA FOR NON-TS MODES =  -0.02374693
          TRIM/QA STEP HAS LENGTH         =   0.300000
          RADIUS OF STEP TAKEN=   0.30000  CURRENT TRUST RADIUS=   0.30000

 BEGINNING GEOMETRY SEARCH POINT NSERCH=   1 ...

 COORDINATES OF SYMMETRY UNIQUE ATOMS (ANGS)
   ATOM   CHARGE       X              Y              Z
 ------------------------------------------------------------
 C           6.0   0.0000000000   0.0000000000   0.1053817860
 O           8.0   1.1923149766   0.0000000000  -0.0545135627
 COORDINATES OF ALL ATOMS ARE (ANGS)
   ATOM   CHARGE       X              Y              Z
 ------------------------------------------------------------
 C           6.0   0.0000000000   0.0000000000   0.1053817860
 O           8.0  -1.1923149766   0.0000000000  -0.0545135627
 O           8.0   1.1923149766   0.0000000000  -0.0545135627

 THE CURRENT FULLY SUBSTITUTED Z-MATRIX IS
 C   
 O      1   1.2029886
 O      1   1.2029886  2   164.7238450

          INTERNUCLEAR DISTANCES (ANGS.)
          ------------------------------

                1 C          2 O          3 O     

   1 C       0.0000000    1.2029886 *  1.2029886 *
   2 O       1.2029886 *  0.0000000    2.3846300 *
   3 O       1.2029886 *  2.3846300 *  0.0000000  

  * ... LESS THAN  3.000

 ...... END OF ONE-ELECTRON INTEGRALS ......
 STEP CPU TIME =     0.00 TOTAL CPU TIME =        4.0 (    0.1 MIN)
 TOTAL WALL CLOCK TIME=        4.0 SECONDS, CPU UTILIZATION IS  99.75%
 TOTAL NUMBER OF NONZERO TWO-ELECTRON INTEGRALS =              124813
          9 INTEGRAL RECORDS WERE STORED ON DISK FILE  8.
  ...... END OF TWO-ELECTRON INTEGRALS .....
 STEP CPU TIME =     0.04 TOTAL CPU TIME =        4.1 (    0.1 MIN)
 TOTAL WALL CLOCK TIME=        4.1 SECONDS, CPU UTILIZATION IS  99.75%

          --------------------------
               R-PBE SCF CALCULATION
          --------------------------
         DENSITY MATRIX CONVERGENCE THRESHOLD=  2.00E-04
     COARSE -> FINE DFT GRID SWITCH THRESHOLD=  6.00E-03 (SWITCH IN $DFT)
                   HF -> DFT SWITCH THRESHOLD=  5.00E-03 (SWOFF IN $DFT)

 DFT CODE IS SWITCHING FROM THE FINE GRID NRAD= 96,  NLEB=  302
                      TO THE COARSE GRID NRAD0= 24, NLEB0=  110

 ITER EX DEM     TOTAL ENERGY        E CHANGE  DENSITY CHANGE    DIIS ERROR
          * * *   INITIATING DIIS PROCEDURE   * * *
   1  0  0     -188.3364009746  -188.3364009746   0.091819191   0.092863141
   2  1  0     -188.3656223638    -0.0292213892   0.040333402   0.034009202
   3  2  0     -188.3625935898     0.0030287740   0.029863150   0.052068319
   4  3  0     -188.3672857023    -0.0046921125   0.008146931   0.009771564
   5  4  0     -188.3674983749    -0.0002126725   0.000470430   0.000696967
 DFT CODE IS SWITCHING BACK TO THE FINE GRID
          * * *   INITIATING DIIS PROCEDURE   * * *
   6  5  0     -188.3624798344     0.0050185405   0.003948627   0.004493398
   7  6  0     -188.3625007208    -0.0000208864   0.001669571   0.000916534
   8  7  0     -188.3624969296     0.0000037911   0.000971520   0.001463428
   9  8  0     -188.3625023664    -0.0000054368   0.000061179   0.000076592
  10  9  0     -188.3625023795    -0.0000000131   0.000017895   0.000023822
  11 10  0     -188.3625023812    -0.0000000016   0.000000847   0.000002705

          -----------------
          DENSITY CONVERGED
          -----------------
     TIME TO FORM FOCK OPERATORS=       2.7 SECONDS (       0.2 SEC/ITER)
     TIME TO SOLVE SCF EQUATIONS=       0.0 SECONDS (       0.0 SEC/ITER)

 FINAL R-PBE ENERGY IS     -188.3625023812 AFTER  11 ITERATIONS
 DFT EXCHANGE + CORRELATION ENERGY =       -22.2729744346
 TOTAL ELECTRON NUMBER             =        22.0000001447
 ...... END OF RHF CALCULATION ......
 STEP CPU TIME =     2.75 TOTAL CPU TIME =        6.8 (    0.1 MIN)
 TOTAL WALL CLOCK TIME=        6.8 SECONDS, CPU UTILIZATION IS  99.85%
 ..... END OF 1-ELECTRON GRADIENT ......
 STEP CPU TIME =     0.01 TOTAL CPU TIME =        6.8 (    0.1 MIN)
 TOTAL WALL CLOCK TIME=        6.8 SECONDS, CPU UTILIZATION IS  99.85%
 MEMORY FOR GRID POINT CONTRIBUTIONS TO THE DFT GRADIENT=    144181 WORDS.
 STEP CPU TIME =     0.57 TOTAL CPU TIME =        7.4 (    0.1 MIN)
 TOTAL WALL CLOCK TIME=        7.4 SECONDS, CPU UTILIZATION IS  99.87%
 ...... END OF 2-ELECTRON GRADIENT ......
 STEP CPU TIME =     0.15 TOTAL CPU TIME =        7.6 (    0.1 MIN)
 TOTAL WALL CLOCK TIME=        7.5 SECONDS, CPU UTILIZATION IS 100.00%

          NSERCH=  1     ENERGY=    -188.3625024

                                 -----------------------
                                 GRADIENT (HARTREE/BOHR)
                                 -----------------------
        ATOM     ZNUC       DE/DX         DE/DY         DE/DZ
 --------------------------------------------------------------
    1  C            6.0     0.0000000     0.0000000     0.0483862
    2  O            8.0    -0.0425235     0.0000000    -0.0241931
    3  O            8.0     0.0425235     0.0000000    -0.0241931

          MAXIMUM GRADIENT = 0.0483862    RMS GRADIENT = 0.0281432

 NSERCH:   1  E=     -188.3625023812  GRAD. MAX=  0.0483862  R.M.S.=  0.0281432

          HESSIAN UPDATED USING THE BFGS FORMULA
             ACTUAL ENERGY CHANGE WAS   0.0053582770
          PREDICTED ENERGY CHANGE WAS  -0.0062590578 RATIO= -0.856
          MIN SEARCH, CORRECT HESSIAN, TRYING PURE NR STEP
               NR STEP HAS LENGTH         =  82.535141
          TRIM/QA LAMBDA FOR NON-TS MODES =  -0.23379897
          TRIM/QA STEP HAS LENGTH         =   0.150000
          RADIUS OF STEP TAKEN=   0.15000  CURRENT TRUST RADIUS=   0.15000

 BEGINNING GEOMETRY SEARCH POINT NSERCH=   2 ...

 COORDINATES OF SYMMETRY UNIQUE ATOMS (ANGS)
   ATOM   CHARGE       X              Y              Z
 ------------------------------------------------------------
 C           6.0   0.0000000000   0.0000000000   0.0415100949
 O           8.0   1.1827951753   0.0000000000  -0.0225777172
 COORDINATES OF ALL ATOMS ARE (ANGS)
   ATOM   CHARGE       X              Y              Z
 ------------------------------------------------------------
 C           6.0   0.0000000000   0.0000000000   0.0415100949
 O           8.0  -1.1827951753   0.0000000000  -0.0225777172
 O           8.0   1.1827951753   0.0000000000  -0.0225777172

 THE CURRENT FULLY SUBSTITUTED Z-MATRIX IS
 C   
 O      1   1.1845301
 O      1   1.1845301  2   173.7971102

          INTERNUCLEAR DISTANCES (ANGS.)
          ------------------------------

                1 C          2 O          3 O     

   1 C       0.0000000    1.1845301 *  1.1845301 *
   2 O       1.1845301 *  0.0000000    2.3655904 *
   3 O       1.1845301 *  2.3655904 *  0.0000000  

  * ... LESS THAN  3.000

 ...... END OF ONE-ELECTRON INTEGRALS ......
 STEP CPU TIME =     0.00 TOTAL CPU TIME =        7.6 (    0.1 MIN)
 TOTAL WALL CLOCK TIME=        7.5 SECONDS, CPU UTILIZATION IS 100.00%
 TOTAL NUMBER OF NONZERO TWO-ELECTRON INTEGRALS =              124892
          9 INTEGRAL RECORDS WERE STORED ON DISK FILE  8.
  ...... END OF TWO-ELECTRON INTEGRALS .....
 STEP CPU TIME =     0.05 TOTAL CPU TIME =        7.6 (    0.1 MIN)
 TOTAL WALL CLOCK TIME=        7.6 SECONDS, CPU UTILIZATION IS 100.00%

          --------------------------
               R-PBE SCF CALCULATION
          --------------------------
         DENSITY MATRIX CONVERGENCE THRESHOLD=  2.00E-04
     COARSE -> FINE DFT GRID SWITCH THRESHOLD=  6.00E-03 (SWITCH IN $DFT)
                   HF -> DFT SWITCH THRESHOLD=  5.00E-03 (SWOFF IN $DFT)

 DFT CODE IS SWITCHING FROM THE FINE GRID NRAD= 96,  NLEB=  302
                      TO THE COARSE GRID NRAD0= 24, NLEB0=  110

 ITER EX DEM     TOTAL ENERGY        E CHANGE  DENSITY CHANGE    DIIS ERROR
          * * *   INITIATING DIIS PROCEDURE   * * *
   1  0  0     -188.3665475651  -188.3665475651   0.047563015   0.046564038
   2  1  0     -188.3742214640    -0.0076738989   0.008013693   0.007735160
   3  2  0     -188.3742101504     0.0000113136   0.005930402   0.009523035
 DFT CODE IS SWITCHING BACK TO THE FINE GRID
          * * *   INITIATING DIIS PROCEDURE   * * *
   4  3  0     -188.3693348816     0.0048752688   0.008977222   0.007028144
   5  4  0     -188.3691690589     0.0001658227   0.007531185   0.009223737
   6  5  0     -188.3693908794    -0.0002218205   0.000948102   0.001873187
   7  6  0     -188.3693979164    -0.0000070370   0.000234544   0.000312569
   8  7  0     -188.3693981155    -0.0000001991   0.000011590   0.000025961
   9  8  0     -188.3693981172    -0.0000000016   0.000001655   0.000004296

          -----------------
          DENSITY CONVERGED
          -----------------
     TIME TO FORM FOCK OPERATORS=       2.6 SECONDS (       0.3 SEC/ITER)
     TIME TO SOLVE SCF EQUATIONS=       0.0 SECONDS (       0.0 SEC/ITER)

 FINAL R-PBE ENERGY IS     -188.3693981172 AFTER   9 ITERATIONS
 DFT EXCHANGE + CORRELATION ENERGY =       -22.3068779865
 TOTAL ELECTRON NUMBER             =        22.0000000871
 ...... END OF RHF CALCULATION ......
 STEP CPU TIME =     2.65 TOTAL CPU TIME =       10.3 (    0.2 MIN)
 TOTAL WALL CLOCK TIME=       10.3 SECONDS, CPU UTILIZATION IS  99.90%
 ..... END OF 1-ELECTRON GRADIENT ......
 STEP CPU TIME =     0.01 TOTAL CPU TIME =       10.3 (    0.2 MIN)
 TOTAL WALL CLOCK TIME=       10.3 SECONDS, CPU UTILIZATION IS 100.00%
 MEMORY FOR GRID POINT CONTRIBUTIONS TO THE DFT GRADIENT=    144181 WORDS.
 STEP CPU TIME =     0.57 TOTAL CPU TIME =       10.8 (    0.2 MIN)
 TOTAL WALL CLOCK TIME=       10.8 SECONDS, CPU UTILIZATION IS  99.91%
 ...... END OF 2-ELECTRON GRADIENT ......
 STEP CPU TIME =     0.15 TOTAL CPU TIME =       11.0 (    0.2 MIN)
 TOTAL WALL CLOCK TIME=       11.0 SECONDS, CPU UTILIZATION IS 100.00%

          NSERCH=  2     ENERGY=    -188.3693981

                                 -----------------------
                                 GRADIENT (HARTREE/BOHR)
                                 -----------------------
        ATOM     ZNUC       DE/DX         DE/DY         DE/DZ
 --------------------------------------------------------------
    1  C            6.0     0.0000000     0.0000000     0.0173913
    2  O            8.0    -0.0159727     0.0000000    -0.0086956
    3  O            8.0     0.0159727     0.0000000    -0.0086956

          MAXIMUM GRADIENT = 0.0173913    RMS GRADIENT = 0.0103491

 NSERCH:   2  E=     -188.3693981172  GRAD. MAX=  0.0173913  R.M.S.=  0.0103491

          HESSIAN UPDATED USING THE BFGS FORMULA
             ACTUAL ENERGY CHANGE WAS  -0.0068957360
          PREDICTED ENERGY CHANGE WAS  -0.0077753876 RATIO=  0.887
          MIN SEARCH, CORRECT HESSIAN, TRYING PURE NR STEP
               NR STEP HAS LENGTH         =   1.400311
          TRIM/QA LAMBDA FOR NON-TS MODES =  -0.00447179
          TRIM/QA STEP HAS LENGTH         =   0.212132
          RADIUS OF STEP TAKEN=   0.21213  CURRENT TRUST RADIUS=   0.21213

 BEGINNING GEOMETRY SEARCH POINT NSERCH=   3 ...

 COORDINATES OF SYMMETRY UNIQUE ATOMS (ANGS)
   ATOM   CHARGE       X              Y              Z
 ------------------------------------------------------------
 C           6.0   0.0000000000   0.0000000000   0.0806674345
 O           8.0   1.1110270098   0.0000000000  -0.0421563869
 COORDINATES OF ALL ATOMS ARE (ANGS)
   ATOM   CHARGE       X              Y              Z
 ------------------------------------------------------------
 C           6.0   0.0000000000   0.0000000000   0.0806674345
 O           8.0  -1.1110270098   0.0000000000  -0.0421563869
 O           8.0   1.1110270098   0.0000000000  -0.0421563869

 THE CURRENT FULLY SUBSTITUTED Z-MATRIX IS
 C   
 O      1   1.1177955
 O      1   1.1177955  2   167.3831567

          INTERNUCLEAR DISTANCES (ANGS.)
          ------------------------------

                1 C          2 O          3 O     

   1 C       0.0000000    1.1177955 *  1.1177955 *
   2 O       1.1177955 *  0.0000000    2.2220540 *
   3 O       1.1177955 *  2.2220540 *  0.0000000  

  * ... LESS THAN  3.000

 ...... END OF ONE-ELECTRON INTEGRALS ......
 STEP CPU TIME =     0.00 TOTAL CPU TIME =       11.0 (    0.2 MIN)
 TOTAL WALL CLOCK TIME=       11.0 SECONDS, CPU UTILIZATION IS 100.00%
 TOTAL NUMBER OF NONZERO TWO-ELECTRON INTEGRALS =              126410
          9 INTEGRAL RECORDS WERE STORED ON DISK FILE  8.
  ...... END OF TWO-ELECTRON INTEGRALS .....
 STEP CPU TIME =     0.04 TOTAL CPU TIME =       11.0 (    0.2 MIN)
 TOTAL WALL CLOCK TIME=       11.0 SECONDS, CPU UTILIZATION IS  99.91%

          --------------------------
               R-PBE SCF CALCULATION
          --------------------------
         DENSITY MATRIX CONVERGENCE THRESHOLD=  5.00E-05
     COARSE -> FINE DFT GRID SWITCH THRESHOLD=  1.50E-03 (SWITCH IN $DFT)
                   HF -> DFT SWITCH THRESHOLD=  5.00E-03 (SWOFF IN $DFT)

 DFT CODE IS SWITCHING FROM THE FINE GRID NRAD= 96,  NLEB=  302
                      TO THE COARSE GRID NRAD0= 24, NLEB0=  110

 ITER EX DEM     TOTAL ENERGY        E CHANGE  DENSITY CHANGE    DIIS ERROR
          * * *   INITIATING DIIS PROCEDURE   * * *
   1  0  0     -188.3424517448  -188.3424517448   0.044541197   0.042904666
   2  1  0     -188.3511001816    -0.0086484368   0.018601144   0.027491346
   3  2  0     -188.3522089182    -0.0011087366   0.009550478   0.015611253
   4  3  0     -188.3524575182    -0.0002486000   0.004810678   0.005821379
   5  4  0     -188.3525483730    -0.0000908548   0.000291163   0.000366662
 DFT CODE IS SWITCHING BACK TO THE FINE GRID
          * * *   INITIATING DIIS PROCEDURE   * * *
   6  5  0     -188.3511813669     0.0013670061   0.002546706   0.003306637
   7  6  0     -188.3511889172    -0.0000075503   0.001437595   0.000936054
   8  7  0     -188.3511880344     0.0000008828   0.000668249   0.000912799
   9  8  0     -188.3511904621    -0.0000024277   0.000057915   0.000131834
  10  9  0     -188.3511904914    -0.0000000293   0.000003777   0.000015453
  11 10  0     -188.3511904918    -0.0000000003   0.000000617   0.000000978

          -----------------
          DENSITY CONVERGED
          -----------------
     TIME TO FORM FOCK OPERATORS=       2.8 SECONDS (       0.3 SEC/ITER)
     TIME TO SOLVE SCF EQUATIONS=       0.0 SECONDS (       0.0 SEC/ITER)

 FINAL R-PBE ENERGY IS     -188.3511904918 AFTER  11 ITERATIONS
 DFT EXCHANGE + CORRELATION ENERGY =       -22.4463162533
 TOTAL ELECTRON NUMBER             =        21.9999997613
 ...... END OF RHF CALCULATION ......
 STEP CPU TIME =     2.79 TOTAL CPU TIME =       13.8 (    0.2 MIN)
 TOTAL WALL CLOCK TIME=       13.8 SECONDS, CPU UTILIZATION IS 100.07%
 ..... END OF 1-ELECTRON GRADIENT ......
 STEP CPU TIME =     0.00 TOTAL CPU TIME =       13.8 (    0.2 MIN)
 TOTAL WALL CLOCK TIME=       13.8 SECONDS, CPU UTILIZATION IS 100.00%
 MEMORY FOR GRID POINT CONTRIBUTIONS TO THE DFT GRADIENT=    144181 WORDS.
 STEP CPU TIME =     0.58 TOTAL CPU TIME =       14.4 (    0.2 MIN)
 TOTAL WALL CLOCK TIME=       14.4 SECONDS, CPU UTILIZATION IS 100.07%
 ...... END OF 2-ELECTRON GRADIENT ......
 STEP CPU TIME =     0.15 TOTAL CPU TIME =       14.5 (    0.2 MIN)
 TOTAL WALL CLOCK TIME=       14.5 SECONDS, CPU UTILIZATION IS 100.07%

          NSERCH=  3     ENERGY=    -188.3511905

                                 -----------------------
                                 GRADIENT (HARTREE/BOHR)
                                 -----------------------
        ATOM     ZNUC       DE/DX         DE/DY         DE/DZ
 --------------------------------------------------------------
    1  C            6.0     0.0000000     0.0000000     0.0093854
    2  O            8.0     0.1482617     0.0000000    -0.0046927
    3  O            8.0    -0.1482617     0.0000000    -0.0046927

          MAXIMUM GRADIENT = 0.1482617    RMS GRADIENT = 0.0699962

 NSERCH:   3  E=     -188.3511904918  GRAD. MAX=  0.1482617  R.M.S.=  0.0699962

          HESSIAN UPDATED USING THE BFGS FORMULA
             ACTUAL ENERGY CHANGE WAS   0.0182076254
          PREDICTED ENERGY CHANGE WAS  -0.0013017025 RATIO=-13.988
          MIN SEARCH, CORRECT HESSIAN, TRYING PURE NR STEP
               NR STEP HAS LENGTH         =   4.009188
          TRIM/QA LAMBDA FOR NON-TS MODES =  -0.79303140
          TRIM/QA STEP HAS LENGTH         =   0.106066
          RADIUS OF STEP TAKEN=   0.10607  CURRENT TRUST RADIUS=   0.10607

 BEGINNING GEOMETRY SEARCH POINT NSERCH=   4 ...

 COORDINATES OF SYMMETRY UNIQUE ATOMS (ANGS)
   ATOM   CHARGE       X              Y              Z
 ------------------------------------------------------------
 C           6.0   0.0000000000   0.0000000000   0.0713968111
 O           8.0   1.1498947636   0.0000000000  -0.0375210753
 COORDINATES OF ALL ATOMS ARE (ANGS)
   ATOM   CHARGE       X              Y              Z
 ------------------------------------------------------------
 C           6.0   0.0000000000   0.0000000000   0.0713968111
 O           8.0  -1.1498947636   0.0000000000  -0.0375210753
 O           8.0   1.1498947636   0.0000000000  -0.0375210753

 THE CURRENT FULLY SUBSTITUTED Z-MATRIX IS
 C   
 O      1   1.1550416
 O      1   1.1550416  2   169.1781889

          INTERNUCLEAR DISTANCES (ANGS.)
          ------------------------------

                1 C          2 O          3 O     

   1 C       0.0000000    1.1550416 *  1.1550416 *
   2 O       1.1550416 *  0.0000000    2.2997895 *
   3 O       1.1550416 *  2.2997895 *  0.0000000  

  * ... LESS THAN  3.000

 ...... END OF ONE-ELECTRON INTEGRALS ......
 STEP CPU TIME =     0.00 TOTAL CPU TIME =       14.5 (    0.2 MIN)
 TOTAL WALL CLOCK TIME=       14.5 SECONDS, CPU UTILIZATION IS 100.00%
 TOTAL NUMBER OF NONZERO TWO-ELECTRON INTEGRALS =              125624
          9 INTEGRAL RECORDS WERE STORED ON DISK FILE  8.
  ...... END OF TWO-ELECTRON INTEGRALS .....
 STEP CPU TIME =     0.04 TOTAL CPU TIME =       14.6 (    0.2 MIN)
 TOTAL WALL CLOCK TIME=       14.6 SECONDS, CPU UTILIZATION IS 100.00%

          --------------------------
               R-PBE SCF CALCULATION
          --------------------------
         DENSITY MATRIX CONVERGENCE THRESHOLD=  2.00E-04
     COARSE -> FINE DFT GRID SWITCH THRESHOLD=  6.00E-03 (SWITCH IN $DFT)
                   HF -> DFT SWITCH THRESHOLD=  5.00E-03 (SWOFF IN $DFT)

 DFT CODE IS SWITCHING FROM THE FINE GRID NRAD= 96,  NLEB=  302
                      TO THE COARSE GRID NRAD0= 24, NLEB0=  110

 ITER EX DEM     TOTAL ENERGY        E CHANGE  DENSITY CHANGE    DIIS ERROR
          * * *   INITIATING DIIS PROCEDURE   * * *
   1  0  0     -188.3676654465  -188.3676654465   0.022289994   0.021172606
   2  1  0     -188.3694547536    -0.0017893071   0.011339101   0.016965988
   3  2  0     -188.3698314747    -0.0003767211   0.005641514   0.008639304
 DFT CODE IS SWITCHING BACK TO THE FINE GRID
          * * *   INITIATING DIIS PROCEDURE   * * *
   4  3  0     -188.3657158363     0.0041156384   0.009858080   0.004240753
   5  4  0     -188.3655916437     0.0001241926   0.005613549   0.007843354
   6  5  0     -188.3657688865    -0.0001772429   0.000273970   0.000406796
   7  6  0     -188.3657691485    -0.0000002619   0.000122613   0.000277217
   8  7  0     -188.3657692760    -0.0000001275   0.000027967   0.000037773
   9  8  0     -188.3657692782    -0.0000000022   0.000001144   0.000001494

          -----------------
          DENSITY CONVERGED
          -----------------
     TIME TO FORM FOCK OPERATORS=       2.6 SECONDS (       0.3 SEC/ITER)
     TIME TO SOLVE SCF EQUATIONS=       0.0 SECONDS (       0.0 SEC/ITER)

 FINAL R-PBE ENERGY IS     -188.3657692782 AFTER   9 ITERATIONS
 DFT EXCHANGE + CORRELATION ENERGY =       -22.3658844158
 TOTAL ELECTRON NUMBER             =        21.9999998706
 ...... END OF RHF CALCULATION ......
 STEP CPU TIME =     2.68 TOTAL CPU TIME =       17.3 (    0.3 MIN)
 TOTAL WALL CLOCK TIME=       17.3 SECONDS, CPU UTILIZATION IS 100.00%
 ..... END OF 1-ELECTRON GRADIENT ......
 STEP CPU TIME =     0.01 TOTAL CPU TIME =       17.3 (    0.3 MIN)
 TOTAL WALL CLOCK TIME=       17.3 SECONDS, CPU UTILIZATION IS 100.06%
 MEMORY FOR GRID POINT CONTRIBUTIONS TO THE DFT GRADIENT=    144181 WORDS.
 STEP CPU TIME =     0.57 TOTAL CPU TIME =       17.8 (    0.3 MIN)
 TOTAL WALL CLOCK TIME=       17.8 SECONDS, CPU UTILIZATION IS 100.00%
[...]
   38  O  3  Y    0.000000   0.000000   0.000000   0.000000   0.000000
   39  O  3  Z    0.000000   0.000000   0.000000   0.000000   0.000000
   40  O  3 XX   -0.000539  -0.000146   0.001560  -0.009335   0.011790
   41  O  3 YY    0.000270   0.000073  -0.000780   0.004667  -0.005895
   42  O  3 ZZ    0.000270   0.000073  -0.000780   0.004667  -0.005895
   43  O  3 XY    0.000000   0.000000   0.000000   0.000000   0.000000
   44  O  3 XZ    0.000000   0.000000   0.000000   0.000000   0.000000
   45  O  3 YZ    0.000000   0.000000   0.000000   0.000000   0.000000

                      6          7          8          9         10
                   -0.5080    -0.4641    -0.4636    -0.4636    -0.3315
                     A1         B1         A1         B2         B1  
    1  C  1  S   -0.125296   0.000000   0.000000   0.000000   0.000000
    2  C  1  S    0.310156   0.000000  -0.000001   0.000000   0.000000
    3  C  1  S    0.103476   0.000000  -0.000004   0.000000   0.000000
    4  C  1  X    0.000000  -0.354455   0.000000   0.000000  -0.000001
    5  C  1  Y    0.000000   0.000000   0.000000  -0.433782   0.000000
    6  C  1  Z   -0.000001   0.000000   0.433782   0.000000   0.000000
    7  C  1  X    0.000000   0.065721   0.000000   0.000000   0.000003
    8  C  1  Y    0.000000   0.000000   0.000000  -0.142672   0.000000
    9  C  1  Z   -0.000002   0.000000   0.142672   0.000000   0.000000
   10  C  1 XX   -0.003953   0.000000  -0.000001   0.000000   0.000000
   11  C  1 YY    0.001977   0.000000   0.000000   0.000000   0.000000
   12  C  1 ZZ    0.001977   0.000000   0.000001   0.000000   0.000000
   13  C  1 XY    0.000000   0.000000   0.000000   0.000000   0.000000
   14  C  1 XZ    0.000000   0.000000   0.000000   0.000000  -0.063927
   15  C  1 YZ    0.000000   0.000000   0.000000   0.000000   0.000000
   16  O  2  S    0.092315   0.068588   0.000000   0.000000   0.000000
   17  O  2  S   -0.194431  -0.145904  -0.000001   0.000000   0.000000
   18  O  2  S   -0.314655  -0.242089  -0.000001   0.000000   0.000001
   19  O  2  X    0.326690   0.397898   0.000006   0.000000   0.000008
   20  O  2  Y    0.000000   0.000000   0.000000  -0.352685   0.000000
   21  O  2  Z   -0.000004  -0.000006   0.352685   0.000000   0.483534
   22  O  2  X    0.184889   0.194851   0.000004   0.000000   0.000005
   23  O  2  Y    0.000000   0.000000   0.000000  -0.190087   0.000000
   24  O  2  Z   -0.000002  -0.000004   0.190087   0.000000   0.324895
   25  O  2 XX    0.018484   0.019028   0.000001   0.000000   0.000000
   26  O  2 YY   -0.009242  -0.009514   0.000000   0.000000   0.000000
   27  O  2 ZZ   -0.009242  -0.009514  -0.000001   0.000000   0.000000
   28  O  2 XY    0.000000   0.000000   0.000000  -0.027248   0.000000
   29  O  2 XZ    0.000000   0.000000   0.027248   0.000000   0.016967
   30  O  2 YZ    0.000000   0.000000   0.000000   0.000000   0.000000
   31  O  3  S    0.092315  -0.068588   0.000000   0.000000   0.000000
   32  O  3  S   -0.194431   0.145904  -0.000001   0.000000   0.000000
   33  O  3  S   -0.314655   0.242089  -0.000001   0.000000  -0.000001
   34  O  3  X   -0.326690   0.397898  -0.000006   0.000000   0.000008
   35  O  3  Y    0.000000   0.000000   0.000000  -0.352685   0.000000
   36  O  3  Z   -0.000004   0.000006   0.352685   0.000000  -0.483534
   37  O  3  X   -0.184889   0.194851  -0.000004   0.000000   0.000005
   38  O  3  Y    0.000000   0.000000   0.000000  -0.190087   0.000000
   39  O  3  Z   -0.000002   0.000004   0.190087   0.000000  -0.324895
   40  O  3 XX    0.018484  -0.019028   0.000001   0.000000   0.000000
   41  O  3 YY   -0.009242   0.009514   0.000000   0.000000   0.000000
   42  O  3 ZZ   -0.009242   0.009514  -0.000001   0.000000   0.000000
   43  O  3 XY    0.000000   0.000000   0.000000   0.027248   0.000000
   44  O  3 XZ    0.000000   0.000000  -0.027248   0.000000   0.016967
   45  O  3 YZ    0.000000   0.000000   0.000000   0.000000   0.000000

                     11         12         13         14         15
                   -0.3315    -0.0156    -0.0156     0.0322     0.2778
                     A2         A1         B2         A1         B1  
    1  C  1  S    0.000000   0.000011   0.000000   0.100810   0.000000
    2  C  1  S    0.000000  -0.000013   0.000000  -0.083565   0.000000
    3  C  1  S    0.000000  -0.000184   0.000000  -1.906226   0.000000
    4  C  1  X    0.000000   0.000000   0.000000   0.000000   0.063201
    5  C  1  Y    0.000000   0.000000  -0.636845   0.000000   0.000000
    6  C  1  Z    0.000000   0.636845   0.000000  -0.000069   0.000000
    7  C  1  X    0.000000   0.000000   0.000000   0.000000   2.331490
    8  C  1  Y    0.000000   0.000000  -0.609271   0.000000   0.000000
    9  C  1  Z    0.000000   0.609271   0.000000  -0.000078   0.000000
   10  C  1 XX    0.000000   0.000008   0.000000   0.075662   0.000000
   11  C  1 YY    0.000000  -0.000003   0.000000  -0.037831   0.000000
   12  C  1 ZZ    0.000000  -0.000005   0.000000  -0.037831   0.000000
   13  C  1 XY   -0.063927   0.000000   0.000000   0.000000   0.000000
   14  C  1 XZ    0.000000   0.000000   0.000000   0.000000   0.000000
   15  C  1 YZ    0.000000   0.000000   0.000001   0.000000   0.000000
   16  O  2  S    0.000000  -0.000007   0.000000  -0.074452  -0.081205
   17  O  2  S    0.000000   0.000014   0.000000   0.148971   0.082709
   18  O  2  S    0.000000   0.000066   0.000000   0.720462   1.441009
   19  O  2  X    0.000000   0.000030   0.000000   0.310013  -0.090509
   20  O  2  Y    0.483534   0.000000   0.396123   0.000000   0.000000
   21  O  2  Z    0.000000  -0.396123   0.000000   0.000038  -0.000003
   22  O  2  X    0.000000   0.000041   0.000000   0.459947   0.285852
   23  O  2  Y    0.324895   0.000000   0.397792   0.000000   0.000000
   24  O  2  Z    0.000000  -0.397792   0.000000   0.000039  -0.000008
   25  O  2 XX    0.000000   0.000001   0.000000   0.009676   0.020399
   26  O  2 YY    0.000000   0.000000   0.000000  -0.004838  -0.010200
   27  O  2 ZZ    0.000000  -0.000001   0.000000  -0.004838  -0.010200
   28  O  2 XY    0.016967   0.000000  -0.015805   0.000000   0.000000
   29  O  2 XZ    0.000000   0.015805   0.000000  -0.000002   0.000000
   30  O  2 YZ    0.000000   0.000000   0.000000   0.000000   0.000000
   31  O  3  S    0.000000  -0.000007   0.000000  -0.074452   0.081205
   32  O  3  S    0.000000   0.000014   0.000000   0.148971  -0.082709
   33  O  3  S    0.000000   0.000066   0.000000   0.720462  -1.441009
   34  O  3  X    0.000000  -0.000030   0.000000  -0.310013  -0.090509
   35  O  3  Y   -0.483534   0.000000   0.396123   0.000000   0.000000
   36  O  3  Z    0.000000  -0.396123   0.000000   0.000038   0.000003
   37  O  3  X    0.000000  -0.000041   0.000000  -0.459947   0.285852
   38  O  3  Y   -0.324895   0.000000   0.397792   0.000000   0.000000
   39  O  3  Z    0.000000  -0.397792   0.000000   0.000039   0.000008
   40  O  3 XX    0.000000   0.000001   0.000000   0.009676  -0.020399
   41  O  3 YY    0.000000   0.000000   0.000000  -0.004838   0.010200
   42  O  3 ZZ    0.000000  -0.000001   0.000000  -0.004838   0.010200
   43  O  3 XY    0.016967   0.000000   0.015805   0.000000   0.000000
   44  O  3 XZ    0.000000  -0.015805   0.000000   0.000002   0.000000
   45  O  3 YZ    0.000000   0.000000   0.000000   0.000000   0.000000

                     16         17         18         19         20
                    0.3310     0.3310     0.5105     0.6349     0.6865
                     A1         B2         A1         B1         A1  
    1  C  1  S    0.000000   0.000000   0.107870   0.000000   0.035237
    2  C  1  S   -0.000008   0.000000  -1.022821   0.000000   1.292237
    3  C  1  S    0.000007   0.000000   2.032269   0.000000   0.406239
    4  C  1  X    0.000000   0.000000   0.000000   1.065924   0.000000
    5  C  1  Y    0.000000   0.826065   0.000000   0.000000   0.000000
    6  C  1  Z    0.826066   0.000000  -0.000003   0.000000   0.000006
    7  C  1  X    0.000000   0.000000   0.000000  -0.290703   0.000000
    8  C  1  Y    0.000000  -1.261846   0.000000   0.000000   0.000000
    9  C  1  Z   -1.261846   0.000000   0.000007   0.000000   0.000004
   10  C  1 XX   -0.000002   0.000000   0.271979   0.000000   0.137868
   11  C  1 YY    0.000000   0.000000  -0.135990   0.000000  -0.068934
   12  C  1 ZZ    0.000001   0.000000  -0.135990   0.000000  -0.068934
   13  C  1 XY    0.000000   0.000000   0.000000   0.000000   0.000000
   14  C  1 XZ    0.000000   0.000000   0.000000  -0.000002   0.000000
   15  C  1 YZ    0.000000   0.000000   0.000000   0.000000   0.000000
   16  O  2  S    0.000000   0.000000   0.011743  -0.048859   0.050181
   17  O  2  S   -0.000001   0.000000   0.062401   0.125656  -0.112258
   18  O  2  S    0.000004   0.000000  -0.682021   0.301800  -0.430519
   19  O  2  X   -0.000001   0.000000   0.418215  -0.019676   0.307834
   20  O  2  Y    0.000000   0.081555   0.000000   0.000000   0.000000
   21  O  2  Z    0.081555   0.000000  -0.000003   0.000005   0.000001
   22  O  2  X    0.000000   0.000000  -0.515038   0.936604  -1.073924
   23  O  2  Y    0.000000   0.164758   0.000000   0.000000   0.000000
   24  O  2  Z    0.164758   0.000000   0.000006  -0.000016   0.000006
   25  O  2 XX    0.000001   0.000000  -0.115758  -0.089346   0.016697
   26  O  2 YY    0.000000   0.000000   0.057879   0.044673  -0.008348
   27  O  2 ZZ   -0.000001   0.000000   0.057879   0.044673  -0.008348
   28  O  2 XY    0.000000   0.036833   0.000000   0.000000   0.000000
   29  O  2 XZ    0.036833   0.000000   0.000002   0.000002   0.000000
   30  O  2 YZ    0.000000   0.000000   0.000000   0.000000   0.000000
   31  O  3  S    0.000000   0.000000   0.011743   0.048859   0.050181
   32  O  3  S   -0.000001   0.000000   0.062401  -0.125656  -0.112258
   33  O  3  S    0.000004   0.000000  -0.682021  -0.301800  -0.430519
   34  O  3  X    0.000001   0.000000  -0.418215  -0.019676  -0.307834
   35  O  3  Y    0.000000   0.081555   0.000000   0.000000   0.000000
   36  O  3  Z    0.081555   0.000000  -0.000003  -0.000005   0.000001
   37  O  3  X    0.000000   0.000000   0.515038   0.936604   1.073924
   38  O  3  Y    0.000000   0.164758   0.000000   0.000000   0.000000
   39  O  3  Z    0.164758   0.000000   0.000006   0.000016   0.000006
   40  O  3 XX    0.000001   0.000000  -0.115758   0.089346   0.016697
   41  O  3 YY    0.000000   0.000000   0.057879  -0.044673  -0.008348
   42  O  3 ZZ   -0.000001   0.000000   0.057879  -0.044673  -0.008348
   43  O  3 XY    0.000000  -0.036833   0.000000   0.000000   0.000000
   44  O  3 XZ   -0.036833   0.000000  -0.000002   0.000002   0.000000
   45  O  3 YZ    0.000000   0.000000   0.000000   0.000000   0.000000

                     21
                    0.7435
                     B1  
    1  C  1  S    0.000000
    2  C  1  S    0.000000
    3  C  1  S    0.000000
    4  C  1  X   -0.000016
    5  C  1  Y    0.000000
    6  C  1  Z    0.000000
    7  C  1  X    0.000018
    8  C  1  Y    0.000000
    9  C  1  Z    0.000000
   10  C  1 XX    0.000000
   11  C  1 YY    0.000000
   12  C  1 ZZ    0.000000
   13  C  1 XY    0.000000
   14  C  1 XZ   -0.119704
   15  C  1 YZ    0.000000
   16  O  2  S    0.000000
   17  O  2  S    0.000000
   18  O  2  S    0.000002
   19  O  2  X   -0.000002
   20  O  2  Y    0.000000
   21  O  2  Z    0.619107
   22  O  2  X   -0.000011
   23  O  2  Y    0.000000
   24  O  2  Z   -0.797862
   25  O  2 XX    0.000002
   26  O  2 YY   -0.000001
   27  O  2 ZZ   -0.000001
   28  O  2 XY    0.000000
   29  O  2 XZ    0.011214
   30  O  2 YZ    0.000000
   31  O  3  S    0.000000
   32  O  3  S    0.000000
   33  O  3  S   -0.000002
   34  O  3  X   -0.000002
   35  O  3  Y    0.000000
   36  O  3  Z   -0.619107
   37  O  3  X   -0.000011
   38  O  3  Y    0.000000
   39  O  3  Z    0.797862
   40  O  3 XX   -0.000002
   41  O  3 YY    0.000001
   42  O  3 ZZ    0.000001
   43  O  3 XY    0.000000
   44  O  3 XZ    0.011214
   45  O  3 YZ    0.000000

     ---------------------------------------------------------------------
     PROPERTIES FOR THE PBE      DFT FUNCTIONAL (RHF  TYPE) DENSITY MATRIX
     ---------------------------------------------------------------------

          -----------------
          ENERGY COMPONENTS
          -----------------

         WAVEFUNCTION NORMALIZATION =       1.0000000000

                ONE ELECTRON ENERGY =    -371.2089530447
                TWO ELECTRON ENERGY =     125.2261655709
           NUCLEAR REPULSION ENERGY =      57.6121542561
                                      ------------------
                       TOTAL ENERGY =    -188.3706332176

 ELECTRON-ELECTRON POTENTIAL ENERGY =     125.2261655709
  NUCLEUS-ELECTRON POTENTIAL ENERGY =    -558.9481544479
   NUCLEUS-NUCLEUS POTENTIAL ENERGY =      57.6121542561
                                      ------------------
             TOTAL POTENTIAL ENERGY =    -376.1098346209
               TOTAL KINETIC ENERGY =     187.7392014033
                 VIRIAL RATIO (V/T) =       2.0033633456

          ---------------------------------------
          MULLIKEN AND LOWDIN POPULATION ANALYSES
          ---------------------------------------

     ATOMIC MULLIKEN POPULATION IN EACH MOLECULAR ORBITAL

                      1          2          3          4          5

                  2.000000   2.000000   2.000000   2.000000   2.000000

    1             0.000723   0.002529   2.005684   0.562722   0.525511
    2             0.999638   0.998735  -0.002842   0.718639   0.737244
    3             0.999638   0.998735  -0.002842   0.718639   0.737244

                      6          7          8          9         10

                  2.000000   2.000000   2.000000   2.000000   2.000000

    1             0.311110   0.320378   0.812036   0.812036   0.054772
    2             0.844445   0.839811   0.593982   0.593982   0.972614
    3             0.844445   0.839811   0.593982   0.593982   0.972614

                     11

                  2.000000

    1             0.054772
    2             0.972614
    3             0.972614

               ----- POPULATIONS IN EACH AO -----
                             MULLIKEN      LOWDIN
              1  C  1  S      1.99646     1.97401
              2  C  1  S      0.70355     0.37083
              3  C  1  S      0.14739     0.22167
              4  C  1  X      0.80305     0.70180
              5  C  1  Y      0.61433     0.54144
              6  C  1  Z      0.61433     0.54144
              7  C  1  X      0.04537     0.25673
              8  C  1  Y      0.19770     0.27109
              9  C  1  Z      0.19770     0.27109
             10  C  1 XX      0.00821     0.29944
             11  C  1 YY      0.02462     0.08981
             12  C  1 ZZ      0.05477     0.08981
             13  C  1 XY      0.05477     0.11139
             14  C  1 XZ      0.00000     0.11139
             15  C  1 YZ      0.00000     0.00000
             16  O  2  S      1.99779     1.97962
             17  O  2  S      0.82726     0.61863
             18  O  2  S      0.97210     0.49806
             19  O  2  X      0.91608     0.84412
             20  O  2  Y      0.98524     0.93138
             21  O  2  Z      0.98524     0.93138
             22  O  2  X      0.41196     0.48151
             23  O  2  Y      0.57262     0.59505
             24  O  2  Z      0.57262     0.59505
             25  O  2 XX      0.00262     0.20671
             26  O  2 YY      0.00787     0.18465
             27  O  2 ZZ      0.00874     0.18465
             28  O  2 XY      0.00874     0.01161
             29  O  2 XZ      0.00000     0.01161
             30  O  2 YZ      0.00000     0.00000
             31  O  3  S      1.99779     1.97962
             32  O  3  S      0.82726     0.61863
             33  O  3  S      0.97210     0.49806
             34  O  3  X      0.91608     0.84412
             35  O  3  Y      0.98524     0.93138
             36  O  3  Z      0.98524     0.93138
             37  O  3  X      0.41196     0.48151
             38  O  3  Y      0.57262     0.59505
             39  O  3  Z      0.57262     0.59505
             40  O  3 XX      0.00262     0.20671
             41  O  3 YY      0.00787     0.18465
             42  O  3 ZZ      0.00874     0.18465
             43  O  3 XY      0.00874     0.01161
             44  O  3 XZ      0.00000     0.01161
             45  O  3 YZ      0.00000     0.00000

          ----- MULLIKEN ATOMIC OVERLAP POPULATIONS -----
          (OFF-DIAGONAL ELEMENTS NEED TO BE MULTIPLIED BY 2)

             1           2           3

    1    4.0946430
    2    0.6838156   7.6213444
    3    0.6838156  -0.0362972   7.6213444

          TOTAL MULLIKEN AND LOWDIN ATOMIC POPULATIONS
       ATOM         MULL.POP.    CHARGE          LOW.POP.     CHARGE
    1 C             5.462274    0.537726         5.851959    0.148041
    2 O             8.268863   -0.268863         8.074020   -0.074020
    3 O             8.268863   -0.268863         8.074020   -0.074020

          MULLIKEN SPHERICAL HARMONIC POPULATIONS
       ATOM           S       P       D      F      G      H      I    TOTAL
    1 C             2.85    2.47    0.14   0.00   0.00   0.00   0.00    5.46
    2 O             3.80    4.44    0.03   0.00   0.00   0.00   0.00    8.27
    3 O             3.80    4.44    0.03   0.00   0.00   0.00   0.00    8.27

          -------------------------------
          BOND ORDER AND VALENCE ANALYSIS     BOND ORDER THRESHOLD=0.050
          -------------------------------

                   BOND                       BOND                       BOND
  ATOM PAIR DIST  ORDER      ATOM PAIR DIST  ORDER      ATOM PAIR DIST  ORDER
    1   2  1.176  2.106        1   3  1.176  2.106        2   3  2.351  0.280

                       TOTAL       BONDED        FREE
      ATOM            VALENCE     VALENCE     VALENCE
    1 C                 4.212       4.212       0.000
    2 O                 2.386       2.386       0.000
    3 O                 2.386       2.386       0.000

          ---------------------
          ELECTROSTATIC MOMENTS
          ---------------------

 POINT   1           X           Y           Z (BOHR)    CHARGE
                 0.000000    0.000000   -0.002295        0.00 (A.U.)
         DX          DY          DZ         /D/  (DEBYE)
     0.000000    0.000000   -0.000025    0.000025
 ...... END OF PROPERTY EVALUATION ......
 STEP CPU TIME =     0.01 TOTAL CPU TIME =       40.5 (    0.7 MIN)
 TOTAL WALL CLOCK TIME=       40.5 SECONDS, CPU UTILIZATION IS 100.05%
  $VIB   
          IVIB=   0 IATOM=   0 ICOORD=   0 E=     -188.3706332176
  0.000000000E+00 0.000000000E+00-2.857133120E-06-2.375718203E-06 0.000000000E+00
  1.428566560E-06 2.375718203E-06 0.000000000E+00 1.428566560E-06
  0.000000000E+00-2.928709598E-16-2.527512426E-05
 ......END OF GEOMETRY SEARCH......
 STEP CPU TIME =     0.00 TOTAL CPU TIME =       40.5 (    0.7 MIN)
 TOTAL WALL CLOCK TIME=       40.5 SECONDS, CPU UTILIZATION IS 100.05%
               990102  WORDS OF DYNAMIC MEMORY USED
 EXECUTION OF GAMESS TERMINATED NORMALLY Thu Feb 26 01:16:41 2015
 DDI: 263624 bytes (0.3 MB / 0 MWords) used by master data server.

 ----------------------------------------
 CPU timing information for all processes
 ========================================
 0: 40.404 + 0.98 = 40.503
 ----------------------------------------
 ddikick.x: exited gracefully.
----- accounting info -----
Files used on the master node dftfe.crc.nd.edu were:
-rw-r--r-- 1 pmehta1 campus  154687 Feb 26 01:16 /tmp/CO2.dat
-rw-r--r-- 1 pmehta1 campus     236 Feb 26 01:16 /tmp/CO2.F05
-rw-r--r-- 1 pmehta1 campus 1440192 Feb 26 01:16 /tmp/CO2.F08
-rw-r--r-- 1 pmehta1 campus 1374488 Feb 26 01:16 /tmp/CO2.F10
-rw-r--r-- 1 pmehta1 campus 1069440 Feb 26 01:16 /tmp/CO2.F22
Thu Feb 26 01:16:44 EST 2015
0.261u 0.181s 0:43.98 1.0%	0+0k 0+320io 0pf+0w
