   4   4   0   0
  0.1820629E+02  0.4176000E-09  0.4176000E-09  0.4176000E-09  0.3500000E-15
   1.0000000000000000E-004
  CAR 
 Au, FCC                                 
     13.31328857     -5.07755995  301      4.82733933      1.00000000
     -5.078  0.0000E+00  0.0000E+00
     -5.016  0.0000E+00  0.0000E+00
     -4.955  0.0000E+00  0.0000E+00
     -4.894  0.0000E+00  0.0000E+00
     -4.832  0.0000E+00  0.0000E+00
     -4.771  0.0000E+00  0.0000E+00
     -4.710  0.0000E+00  0.0000E+00
     -4.648  0.3960E-15  0.2426E-16
     -4.587  0.3311E-12  0.2031E-13
     -4.526  0.1327E-09  0.8153E-11
     -4.465  0.2549E-07  0.1570E-08
     -4.403  0.2353E-05  0.1458E-06
     -4.342  0.1049E-03  0.6571E-05
     -4.281  0.2267E-02  0.1455E-03
     -4.219  0.2392E-01  0.1611E-02
     -4.158  0.1239E+00  0.9197E-02
     -4.097  0.3165E+00  0.2857E-01
     -4.035  0.4005E+00  0.5309E-01
     -3.974  0.2515E+00  0.6848E-01
     -3.913  0.7841E-01  0.7327E-01
     -3.852  0.1212E-01  0.7402E-01
     -3.790  0.1073E-02  0.7408E-01
     -3.729  0.3546E-02  0.7430E-01
     -3.668  0.4164E-01  0.7685E-01
     -3.606  0.2484E+00  0.9208E-01
     -3.545  0.7530E+00  0.1382E+00
     -3.484  0.1170E+01  0.2098E+00
     -3.422  0.9360E+00  0.2671E+00
     -3.361  0.3865E+00  0.2907E+00
     -3.300  0.8222E-01  0.2957E+00
     -3.238  0.1002E-01  0.2963E+00
     -3.177  0.1745E-01  0.2974E+00
     -3.116  0.1340E+00  0.3056E+00
     -3.055  0.5301E+00  0.3381E+00
     -2.993  0.1064E+01  0.4033E+00
     -2.932  0.1099E+01  0.4705E+00
     -2.871  0.5914E+00  0.5067E+00
     -2.809  0.1731E+00  0.5172E+00
     -2.748  0.8005E-01  0.5221E+00
     -2.687  0.2731E+00  0.5389E+00
     -2.625  0.6946E+00  0.5815E+00
     -2.564  0.9890E+00  0.6421E+00
     -2.503  0.9774E+00  0.7020E+00
     -2.442  0.8851E+00  0.7561E+00
     -2.380  0.6417E+00  0.7953E+00
     -2.319  0.3620E+00  0.8174E+00
     -2.258  0.4994E+00  0.8480E+00
     -2.196  0.1122E+01  0.9169E+00
     -2.135  0.1867E+01  0.1031E+01
     -2.074  0.2465E+01  0.1182E+01
     -2.012  0.2544E+01  0.1338E+01
     -1.951  0.2041E+01  0.1463E+01
     -1.890  0.1666E+01  0.1565E+01
     -1.829  0.1849E+01  0.1678E+01
     -1.767  0.2134E+01  0.1809E+01
     -1.706  0.1994E+01  0.1931E+01
     -1.645  0.1876E+01  0.2045E+01
     -1.583  0.2720E+01  0.2212E+01
     -1.522  0.4467E+01  0.2486E+01
     -1.461  0.6086E+01  0.2858E+01
     -1.399  0.6727E+01  0.3270E+01
     -1.338  0.6714E+01  0.3681E+01
     -1.277  0.7495E+01  0.4140E+01
     -1.215  0.8662E+01  0.4670E+01
     -1.154  0.8671E+01  0.5201E+01
     -1.093  0.8260E+01  0.5707E+01
     -1.032  0.8069E+01  0.6201E+01
     -0.970  0.7675E+01  0.6670E+01
     -0.909  0.8022E+01  0.7161E+01
     -0.848  0.9118E+01  0.7719E+01
     -0.786  0.9038E+01  0.8273E+01
     -0.725  0.7887E+01  0.8755E+01
     -0.664  0.7221E+01  0.9197E+01
     -0.602  0.6759E+01  0.9611E+01
     -0.541  0.6101E+01  0.9985E+01
     -0.480  0.5757E+01  0.1034E+02
     -0.419  0.5923E+01  0.1070E+02
     -0.357  0.6504E+01  0.1110E+02
     -0.296  0.6600E+01  0.1150E+02
     -0.235  0.6031E+01  0.1187E+02
     -0.173  0.5703E+01  0.1222E+02
     -0.112  0.6023E+01  0.1259E+02
     -0.051  0.6446E+01  0.1298E+02
      0.011  0.6553E+01  0.1339E+02
      0.072  0.7041E+01  0.1382E+02
      0.133  0.8333E+01  0.1433E+02
      0.194  0.9501E+01  0.1491E+02
      0.256  0.9509E+01  0.1549E+02
      0.317  0.8819E+01  0.1603E+02
      0.378  0.8665E+01  0.1656E+02
      0.440  0.9447E+01  0.1714E+02
      0.501  0.1082E+02  0.1780E+02
      0.562  0.1265E+02  0.1858E+02
      0.624  0.1367E+02  0.1941E+02
      0.685  0.1230E+02  0.2017E+02
      0.746  0.1040E+02  0.2080E+02
      0.808  0.9859E+01  0.2141E+02
      0.869  0.9660E+01  0.2200E+02
      0.930  0.8921E+01  0.2254E+02
      0.991  0.7764E+01  0.2302E+02
      1.053  0.7425E+01  0.2347E+02
      1.114  0.8154E+01  0.2397E+02
      1.175  0.8030E+01  0.2446E+02
      1.237  0.6951E+01  0.2489E+02
      1.298  0.7186E+01  0.2533E+02
      1.359  0.8730E+01  0.2586E+02
      1.421  0.9128E+01  0.2642E+02
      1.482  0.8167E+01  0.2692E+02
      1.543  0.7912E+01  0.2740E+02
      1.604  0.8694E+01  0.2794E+02
      1.666  0.9656E+01  0.2853E+02
      1.727  0.9677E+01  0.2912E+02
      1.788  0.8229E+01  0.2962E+02
      1.850  0.7307E+01  0.3007E+02
      1.911  0.7381E+01  0.3052E+02
      1.972  0.6944E+01  0.3095E+02
      2.034  0.6596E+01  0.3135E+02
      2.095  0.6785E+01  0.3177E+02
      2.156  0.6700E+01  0.3218E+02
      2.217  0.7073E+01  0.3261E+02
      2.279  0.8592E+01  0.3314E+02
      2.340  0.9447E+01  0.3372E+02
      2.401  0.8122E+01  0.3421E+02
      2.463  0.6374E+01  0.3460E+02
      2.524  0.6564E+01  0.3501E+02
      2.585  0.8489E+01  0.3553E+02
      2.647  0.1049E+02  0.3617E+02
      2.708  0.1172E+02  0.3689E+02
      2.769  0.1193E+02  0.3762E+02
      2.831  0.1177E+02  0.3834E+02
      2.892  0.1173E+02  0.3905E+02
      2.953  0.1132E+02  0.3975E+02
      3.014  0.1035E+02  0.4038E+02
      3.076  0.8646E+01  0.4091E+02
      3.137  0.6361E+01  0.4130E+02
      3.198  0.4373E+01  0.4157E+02
      3.260  0.3136E+01  0.4176E+02
      3.321  0.2287E+01  0.4190E+02
      3.382  0.1708E+01  0.4200E+02
      3.444  0.1977E+01  0.4212E+02
      3.505  0.2827E+01  0.4230E+02
      3.566  0.2949E+01  0.4248E+02
      3.627  0.2076E+01  0.4260E+02
      3.689  0.1200E+01  0.4268E+02
      3.750  0.9793E+00  0.4274E+02
      3.811  0.1055E+01  0.4280E+02
      3.873  0.1015E+01  0.4286E+02
      3.934  0.9923E+00  0.4292E+02
      3.995  0.1033E+01  0.4299E+02
      4.057  0.9870E+00  0.4305E+02
      4.118  0.6944E+00  0.4309E+02
      4.179  0.2894E+00  0.4311E+02
      4.240  0.6627E-01  0.4311E+02
      4.302  0.3767E-01  0.4311E+02
      4.363  0.1875E+00  0.4312E+02
      4.424  0.5780E+00  0.4316E+02
      4.486  0.9719E+00  0.4322E+02
      4.547  0.1201E+01  0.4329E+02
      4.608  0.1732E+01  0.4340E+02
      4.670  0.2612E+01  0.4356E+02
      4.731  0.3132E+01  0.4375E+02
      4.792  0.2715E+01  0.4392E+02
      4.853  0.1736E+01  0.4402E+02
      4.915  0.1109E+01  0.4409E+02
      4.976  0.1131E+01  0.4416E+02
      5.037  0.1621E+01  0.4426E+02
      5.099  0.2201E+01  0.4439E+02
      5.160  0.2136E+01  0.4453E+02
      5.221  0.1376E+01  0.4461E+02
      5.283  0.6427E+00  0.4465E+02
      5.344  0.2325E+00  0.4466E+02
      5.405  0.5782E-01  0.4467E+02
      5.467  0.1007E-01  0.4467E+02
      5.528  0.1841E-01  0.4467E+02
      5.589  0.8981E-01  0.4467E+02
      5.650  0.2318E+00  0.4469E+02
      5.712  0.3460E+00  0.4471E+02
      5.773  0.4554E+00  0.4474E+02
      5.834  0.7734E+00  0.4478E+02
      5.896  0.1352E+01  0.4487E+02
      5.957  0.1932E+01  0.4499E+02
      6.018  0.1971E+01  0.4511E+02
      6.080  0.1591E+01  0.4520E+02
      6.141  0.1506E+01  0.4530E+02
      6.202  0.1892E+01  0.4541E+02
      6.263  0.2475E+01  0.4556E+02
      6.325  0.2673E+01  0.4573E+02
      6.386  0.2041E+01  0.4585E+02
      6.447  0.1215E+01  0.4593E+02
      6.509  0.7303E+00  0.4597E+02
      6.570  0.3639E+00  0.4599E+02
      6.631  0.1162E+00  0.4600E+02
      6.693  0.8753E-01  0.4600E+02
      6.754  0.2824E+00  0.4602E+02
      6.815  0.6708E+00  0.4606E+02
      6.876  0.1137E+01  0.4613E+02
      6.938  0.1466E+01  0.4622E+02
      6.999  0.1363E+01  0.4631E+02
      7.060  0.9290E+00  0.4636E+02
      7.122  0.5627E+00  0.4640E+02
      7.183  0.4608E+00  0.4643E+02
      7.244  0.6529E+00  0.4647E+02
      7.306  0.1123E+01  0.4653E+02
      7.367  0.1619E+01  0.4663E+02
      7.428  0.1745E+01  0.4674E+02
      7.490  0.1696E+01  0.4684E+02
      7.551  0.1809E+01  0.4696E+02
      7.612  0.2029E+01  0.4708E+02
      7.673  0.2100E+01  0.4721E+02
      7.735  0.1593E+01  0.4731E+02
      7.796  0.8293E+00  0.4736E+02
      7.857  0.4156E+00  0.4738E+02
      7.919  0.3306E+00  0.4740E+02
      7.980  0.4015E+00  0.4743E+02
      8.041  0.6041E+00  0.4746E+02
      8.103  0.1110E+01  0.4753E+02
      8.164  0.1922E+01  0.4765E+02
      8.225  0.2378E+01  0.4779E+02
      8.286  0.2182E+01  0.4793E+02
      8.348  0.1999E+01  0.4805E+02
      8.409  0.2325E+01  0.4819E+02
      8.470  0.2882E+01  0.4837E+02
      8.532  0.2821E+01  0.4854E+02
      8.593  0.2012E+01  0.4867E+02
      8.654  0.1206E+01  0.4874E+02
      8.716  0.6953E+00  0.4878E+02
      8.777  0.3669E+00  0.4880E+02
      8.838  0.1460E+00  0.4881E+02
      8.899  0.3539E-01  0.4881E+02
      8.961  0.4600E-02  0.4881E+02
      9.022  0.4077E-03  0.4881E+02
      9.083  0.1918E-02  0.4881E+02
      9.145  0.1872E-01  0.4882E+02
      9.206  0.1056E+00  0.4882E+02
      9.267  0.3628E+00  0.4884E+02
      9.329  0.7589E+00  0.4889E+02
      9.390  0.9407E+00  0.4895E+02
      9.451  0.7299E+00  0.4899E+02
      9.513  0.4569E+00  0.4902E+02
      9.574  0.3636E+00  0.4904E+02
      9.635  0.5848E+00  0.4908E+02
      9.696  0.1214E+01  0.4915E+02
      9.758  0.2061E+01  0.4928E+02
      9.819  0.2618E+01  0.4944E+02
      9.880  0.2367E+01  0.4959E+02
      9.942  0.1569E+01  0.4968E+02
     10.003  0.1012E+01  0.4974E+02
     10.064  0.9494E+00  0.4980E+02
     10.126  0.1234E+01  0.4988E+02
     10.187  0.1637E+01  0.4998E+02
     10.248  0.1990E+01  0.5010E+02
     10.309  0.2217E+01  0.5024E+02
     10.371  0.2207E+01  0.5037E+02
     10.432  0.1990E+01  0.5049E+02
     10.493  0.1619E+01  0.5059E+02
     10.555  0.1127E+01  0.5066E+02
     10.616  0.7505E+00  0.5071E+02
     10.677  0.6960E+00  0.5075E+02
     10.739  0.9025E+00  0.5080E+02
     10.800  0.1344E+01  0.5089E+02
     10.861  0.1922E+01  0.5100E+02
     10.922  0.2488E+01  0.5116E+02
     10.984  0.2787E+01  0.5133E+02
     11.045  0.2235E+01  0.5146E+02
     11.106  0.1119E+01  0.5153E+02
     11.168  0.3332E+00  0.5155E+02
     11.229  0.5726E-01  0.5156E+02
     11.290  0.5460E-02  0.5156E+02
     11.352  0.2774E-03  0.5156E+02
     11.413  0.7284E-05  0.5156E+02
     11.474  0.9687E-07  0.5156E+02
     11.536  0.6446E-09  0.5156E+02
     11.597  0.2130E-11  0.5156E+02
     11.658  0.7392E-13  0.5156E+02
     11.719  0.3098E-10  0.5156E+02
     11.781  0.6736E-08  0.5156E+02
     11.842  0.7294E-06  0.5156E+02
     11.903  0.3969E-04  0.5156E+02
     11.965  0.1099E-02  0.5156E+02
     12.026  0.1575E-01  0.5156E+02
     12.087  0.1196E+00  0.5156E+02
     12.149  0.4998E+00  0.5159E+02
     12.210  0.1220E+01  0.5167E+02
     12.271  0.1875E+01  0.5178E+02
     12.332  0.1878E+01  0.5190E+02
     12.394  0.1163E+01  0.5197E+02
     12.455  0.4065E+00  0.5199E+02
     12.516  0.7465E-01  0.5200E+02
     12.578  0.6922E-02  0.5200E+02
     12.639  0.3170E-03  0.5200E+02
     12.700  0.7084E-05  0.5200E+02
     12.762  0.7659E-07  0.5200E+02
     12.823  0.3985E-09  0.5200E+02
     12.884  0.9935E-12  0.5200E+02
     12.945  0.1248E-14  0.5200E+02
     13.007  0.0000E+00  0.5200E+02
     13.068  0.0000E+00  0.5200E+02
     13.129  0.0000E+00  0.5200E+02
     13.191  0.0000E+00  0.5200E+02
     13.252  0.0000E+00  0.5200E+02
     13.313  0.0000E+00  0.5200E+02
     13.37454658     -5.08792975  301      4.82488660      1.00000000
     -5.088  0.0000E+00  0.0000E+00
     -5.026  0.0000E+00  0.0000E+00
     -4.965  0.0000E+00  0.0000E+00
     -4.903  0.0000E+00  0.0000E+00
     -4.842  0.0000E+00  0.0000E+00
     -4.780  0.0000E+00  0.0000E+00
     -4.719  0.0000E+00  0.0000E+00
     -4.657  0.4613E-15  0.2837E-16
     -4.596  0.3914E-12  0.2410E-13
     -4.534  0.1567E-09  0.9663E-11
     -4.473  0.2990E-07  0.1849E-08
     -4.411  0.2729E-05  0.1697E-06
     -4.349  0.1196E-03  0.7525E-05
     -4.288  0.2533E-02  0.1632E-03
     -4.226  0.2606E-01  0.1765E-02
     -4.165  0.1311E+00  0.9821E-02
     -4.103  0.3246E+00  0.2975E-01
     -4.042  0.3971E+00  0.5413E-01
     -3.980  0.2409E+00  0.6891E-01
     -3.919  0.7255E-01  0.7336E-01
     -3.857  0.1086E-01  0.7402E-01
     -3.796  0.9613E-03  0.7408E-01
     -3.734  0.3727E-02  0.7431E-01
     -3.672  0.4376E-01  0.7700E-01
     -3.611  0.2591E+00  0.9294E-01
     -3.549  0.7739E+00  0.1405E+00
     -3.488  0.1176E+01  0.2127E+00
     -3.426  0.9140E+00  0.2688E+00
     -3.365  0.3656E+00  0.2912E+00
     -3.303  0.7551E-01  0.2958E+00
     -3.242  0.9312E-02  0.2963E+00
     -3.180  0.2005E-01  0.2976E+00
     -3.119  0.1497E+00  0.3068E+00
     -3.057  0.5687E+00  0.3418E+00
     -2.996  0.1089E+01  0.4087E+00
     -2.934  0.1069E+01  0.4743E+00
     -2.872  0.5487E+00  0.5079E+00
     -2.811  0.1568E+00  0.5175E+00
     -2.749  0.8512E-01  0.5228E+00
     -2.688  0.2829E+00  0.5402E+00
     -2.626  0.6622E+00  0.5809E+00
     -2.565  0.9231E+00  0.6376E+00
     -2.503  0.9928E+00  0.6986E+00
     -2.442  0.9499E+00  0.7569E+00
     -2.380  0.6502E+00  0.7967E+00
     -2.319  0.3380E+00  0.8174E+00
     -2.257  0.4531E+00  0.8453E+00
     -2.195  0.1060E+01  0.9106E+00
     -2.134  0.1926E+01  0.1029E+01
     -2.072  0.2641E+01  0.1191E+01
     -2.011  0.2628E+01  0.1353E+01
     -1.949  0.2022E+01  0.1476E+01
     -1.888  0.1679E+01  0.1580E+01
     -1.826  0.1932E+01  0.1698E+01
     -1.765  0.2154E+01  0.1830E+01
     -1.703  0.1915E+01  0.1948E+01
     -1.642  0.1899E+01  0.2065E+01
     -1.580  0.3020E+01  0.2250E+01
     -1.519  0.4994E+01  0.2557E+01
     -1.457  0.6502E+01  0.2957E+01
     -1.395  0.6801E+01  0.3374E+01
     -1.334  0.6772E+01  0.3790E+01
     -1.272  0.7713E+01  0.4263E+01
     -1.211  0.8721E+01  0.4799E+01
     -1.149  0.8683E+01  0.5332E+01
     -1.088  0.8443E+01  0.5851E+01
     -1.026  0.8197E+01  0.6354E+01
     -0.965  0.7905E+01  0.6839E+01
     -0.903  0.8535E+01  0.7363E+01
     -0.842  0.9429E+01  0.7942E+01
     -0.780  0.8846E+01  0.8485E+01
     -0.718  0.7441E+01  0.8941E+01
     -0.657  0.6661E+01  0.9350E+01
     -0.595  0.6322E+01  0.9738E+01
     -0.534  0.5840E+01  0.1010E+02
     -0.472  0.5410E+01  0.1043E+02
     -0.411  0.5553E+01  0.1077E+02
     -0.349  0.6166E+01  0.1115E+02
     -0.288  0.6178E+01  0.1153E+02
     -0.226  0.5716E+01  0.1188E+02
     -0.165  0.5930E+01  0.1224E+02
     -0.103  0.6608E+01  0.1265E+02
     -0.042  0.6902E+01  0.1307E+02
      0.020  0.7112E+01  0.1351E+02
      0.082  0.7918E+01  0.1400E+02
      0.143  0.8956E+01  0.1455E+02
      0.205  0.9324E+01  0.1512E+02
      0.266  0.8947E+01  0.1567E+02
      0.328  0.8815E+01  0.1621E+02
      0.389  0.9304E+01  0.1678E+02
      0.451  0.9983E+01  0.1739E+02
      0.512  0.1097E+02  0.1807E+02
      0.574  0.1243E+02  0.1883E+02
      0.635  0.1288E+02  0.1962E+02
      0.697  0.1145E+02  0.2032E+02
      0.759  0.1018E+02  0.2095E+02
      0.820  0.9881E+01  0.2156E+02
      0.882  0.9411E+01  0.2213E+02
      0.943  0.8601E+01  0.2266E+02
      1.005  0.7992E+01  0.2315E+02
      1.066  0.8139E+01  0.2365E+02
      1.128  0.8510E+01  0.2417E+02
      1.189  0.8058E+01  0.2467E+02
      1.251  0.7588E+01  0.2513E+02
      1.312  0.8297E+01  0.2564E+02
      1.374  0.9035E+01  0.2620E+02
      1.435  0.8626E+01  0.2673E+02
      1.497  0.7936E+01  0.2721E+02
      1.559  0.7860E+01  0.2770E+02
      1.620  0.8199E+01  0.2820E+02
      1.682  0.8607E+01  0.2873E+02
      1.743  0.8226E+01  0.2923E+02
      1.805  0.7058E+01  0.2967E+02
      1.866  0.6653E+01  0.3007E+02
      1.928  0.6790E+01  0.3049E+02
      1.989  0.6677E+01  0.3090E+02
      2.051  0.6983E+01  0.3133E+02
      2.112  0.7146E+01  0.3177E+02
      2.174  0.6713E+01  0.3218E+02
      2.236  0.7466E+01  0.3264E+02
      2.297  0.8972E+01  0.3319E+02
      2.359  0.8818E+01  0.3373E+02
      2.420  0.7438E+01  0.3419E+02
      2.482  0.6799E+01  0.3461E+02
      2.543  0.7541E+01  0.3507E+02
      2.605  0.9297E+01  0.3564E+02
      2.666  0.1096E+02  0.3631E+02
      2.728  0.1146E+02  0.3702E+02
      2.789  0.1122E+02  0.3771E+02
      2.851  0.1151E+02  0.3841E+02
      2.912  0.1187E+02  0.3914E+02
      2.974  0.1135E+02  0.3984E+02
      3.036  0.1008E+02  0.4046E+02
      3.097  0.8201E+01  0.4096E+02
      3.159  0.6065E+01  0.4133E+02
      3.220  0.4387E+01  0.4160E+02
      3.282  0.3120E+01  0.4179E+02
      3.343  0.2195E+01  0.4192E+02
      3.405  0.1941E+01  0.4204E+02
      3.466  0.2422E+01  0.4219E+02
      3.528  0.2825E+01  0.4237E+02
      3.589  0.2441E+01  0.4252E+02
      3.651  0.1632E+01  0.4262E+02
      3.713  0.1105E+01  0.4268E+02
      3.774  0.1077E+01  0.4275E+02
      3.836  0.1114E+01  0.4282E+02
      3.897  0.1065E+01  0.4288E+02
      3.959  0.1088E+01  0.4295E+02
      4.020  0.1029E+01  0.4301E+02
      4.082  0.8341E+00  0.4306E+02
      4.143  0.5161E+00  0.4310E+02
      4.205  0.1989E+00  0.4311E+02
      4.266  0.4876E-01  0.4311E+02
      4.328  0.6855E-01  0.4312E+02
      4.389  0.3162E+00  0.4313E+02
      4.451  0.8304E+00  0.4319E+02
      4.513  0.1298E+01  0.4327E+02
      4.574  0.1588E+01  0.4336E+02
      4.636  0.2045E+01  0.4349E+02
      4.697  0.2637E+01  0.4365E+02
      4.759  0.2813E+01  0.4382E+02
      4.820  0.2215E+01  0.4396E+02
      4.882  0.1422E+01  0.4405E+02
      4.943  0.1183E+01  0.4412E+02
      5.005  0.1481E+01  0.4421E+02
      5.066  0.1931E+01  0.4433E+02
      5.128  0.2089E+01  0.4446E+02
      5.190  0.1644E+01  0.4456E+02
      5.251  0.9773E+00  0.4462E+02
      5.313  0.5096E+00  0.4465E+02
      5.374  0.2189E+00  0.4466E+02
      5.436  0.6188E-01  0.4467E+02
      5.497  0.1977E-01  0.4467E+02
      5.559  0.6289E-01  0.4467E+02
      5.620  0.1967E+00  0.4468E+02
      5.682  0.3539E+00  0.4471E+02
      5.743  0.4665E+00  0.4473E+02
      5.805  0.6596E+00  0.4477E+02
      5.866  0.1032E+01  0.4484E+02
      5.928  0.1558E+01  0.4493E+02
      5.990  0.1943E+01  0.4505E+02
      6.051  0.1819E+01  0.4516E+02
      6.113  0.1479E+01  0.4526E+02
      6.174  0.1513E+01  0.4535E+02
      6.236  0.2121E+01  0.4548E+02
      6.297  0.2759E+01  0.4565E+02
      6.359  0.2438E+01  0.4580E+02
      6.420  0.1399E+01  0.4588E+02
      6.482  0.7920E+00  0.4593E+02
      6.543  0.6171E+00  0.4597E+02
      6.605  0.3785E+00  0.4599E+02
      6.667  0.2133E+00  0.4601E+02
      6.728  0.3471E+00  0.4603E+02
      6.790  0.6402E+00  0.4607E+02
      6.851  0.8569E+00  0.4612E+02
      6.913  0.1034E+01  0.4618E+02
      6.974  0.1213E+01  0.4626E+02
      7.036  0.1156E+01  0.4633E+02
      7.097  0.7992E+00  0.4638E+02
      7.159  0.5352E+00  0.4641E+02
      7.220  0.6763E+00  0.4645E+02
      7.282  0.1018E+01  0.4651E+02
      7.343  0.1289E+01  0.4659E+02
      7.405  0.1543E+01  0.4669E+02
      7.467  0.1853E+01  0.4680E+02
      7.528  0.2005E+01  0.4693E+02
      7.590  0.1846E+01  0.4704E+02
      7.651  0.1741E+01  0.4715E+02
      7.713  0.1707E+01  0.4725E+02
      7.774  0.1331E+01  0.4733E+02
      7.836  0.7762E+00  0.4738E+02
      7.897  0.4337E+00  0.4741E+02
      7.959  0.3754E+00  0.4743E+02
      8.020  0.5698E+00  0.4746E+02
      8.082  0.1062E+01  0.4753E+02
      8.144  0.1768E+01  0.4764E+02
      8.205  0.2209E+01  0.4777E+02
      8.267  0.1994E+01  0.4790E+02
      8.328  0.1700E+01  0.4800E+02
      8.390  0.2087E+01  0.4813E+02
      8.451  0.2799E+01  0.4830E+02
      8.513  0.2910E+01  0.4848E+02
      8.574  0.2156E+01  0.4861E+02
      8.636  0.1291E+01  0.4869E+02
      8.697  0.8519E+00  0.4874E+02
      8.759  0.6099E+00  0.4878E+02
      8.820  0.3683E+00  0.4880E+02
      8.882  0.1574E+00  0.4881E+02
      8.944  0.4059E-01  0.4881E+02
      9.005  0.5786E-02  0.4881E+02
      9.067  0.2681E-02  0.4881E+02
      9.128  0.2220E-01  0.4882E+02
      9.190  0.1124E+00  0.4882E+02
      9.251  0.3277E+00  0.4884E+02
      9.313  0.6276E+00  0.4888E+02
      9.374  0.8190E+00  0.4893E+02
      9.436  0.7018E+00  0.4898E+02
      9.497  0.5266E+00  0.4901E+02
      9.559  0.6919E+00  0.4905E+02
      9.621  0.1141E+01  0.4912E+02
      9.682  0.1491E+01  0.4921E+02
      9.744  0.1614E+01  0.4931E+02
      9.805  0.1817E+01  0.4942E+02
      9.867  0.1937E+01  0.4954E+02
      9.928  0.1763E+01  0.4965E+02
      9.990  0.1475E+01  0.4974E+02
     10.051  0.1168E+01  0.4981E+02
     10.113  0.1043E+01  0.4988E+02
     10.174  0.1269E+01  0.4995E+02
     10.236  0.1750E+01  0.5006E+02
     10.297  0.2125E+01  0.5019E+02
     10.359  0.2093E+01  0.5032E+02
     10.421  0.1883E+01  0.5044E+02
     10.482  0.1700E+01  0.5054E+02
     10.544  0.1400E+01  0.5063E+02
     10.605  0.1070E+01  0.5069E+02
     10.667  0.1015E+01  0.5075E+02
     10.728  0.1264E+01  0.5083E+02
     10.790  0.1629E+01  0.5093E+02
     10.851  0.1827E+01  0.5104E+02
     10.913  0.1872E+01  0.5116E+02
     10.974  0.2054E+01  0.5129E+02
     11.036  0.1984E+01  0.5141E+02
     11.098  0.1394E+01  0.5149E+02
     11.159  0.7173E+00  0.5154E+02
     11.221  0.2560E+00  0.5155E+02
     11.282  0.5489E-01  0.5156E+02
     11.344  0.6377E-02  0.5156E+02
     11.405  0.3836E-03  0.5156E+02
     11.467  0.1173E-04  0.5156E+02
     11.528  0.1806E-06  0.5156E+02
     11.590  0.1394E-08  0.5156E+02
     11.651  0.5481E-11  0.5156E+02
     11.713  0.5175E-10  0.5156E+02
     11.774  0.1109E-07  0.5156E+02
     11.836  0.1140E-05  0.5156E+02
     11.898  0.5678E-04  0.5156E+02
     11.959  0.1398E-02  0.5156E+02
     12.021  0.1755E-01  0.5156E+02
     12.082  0.1169E+00  0.5156E+02
     12.144  0.4340E+00  0.5159E+02
     12.205  0.9410E+00  0.5165E+02
     12.267  0.1307E+01  0.5173E+02
     12.328  0.1452E+01  0.5182E+02
     12.390  0.1458E+01  0.5191E+02
     12.451  0.1026E+01  0.5197E+02
     12.513  0.3989E+00  0.5199E+02
     12.575  0.7848E-01  0.5200E+02
     12.636  0.7607E-02  0.5200E+02
     12.698  0.3590E-03  0.5200E+02
     12.759  0.8187E-05  0.5200E+02
     12.821  0.8971E-07  0.5200E+02
     12.882  0.4702E-09  0.5200E+02
     12.944  0.1174E-11  0.5200E+02
     13.005  0.1445E-14  0.5200E+02
     13.067  0.0000E+00  0.5200E+02
     13.128  0.0000E+00  0.5200E+02
     13.190  0.0000E+00  0.5200E+02
     13.251  0.0000E+00  0.5200E+02
     13.313  0.0000E+00  0.5200E+02
     13.375  0.0000E+00  0.5200E+02
