    4    4   10    1
  0.1820629E+02  0.4176000E-09  0.4176000E-09  0.4176000E-09  0.3500000E-15
   1.0000000000000000E-004
  CAR 
 Au, FCC                                 
   44   10   26

  0.8333333E-01  0.8333333E-01  0.8333333E-01  0.3703704E-01
   1       -4.0758
   2       -1.6131
   3       -1.5138
   4       -1.4907
   5       -1.3273
   6       -1.2495
   7       -1.2131
   8        0.3518
   9        0.4427
  10        0.7036
  11        1.6246
  12        1.8463
  13        2.2967
  14        2.6400
  15        2.6706
  16        2.7319
  17        2.8633
  18        2.9632
  19        3.0987
  20        3.1021
  21        3.1665
  22        5.9899
  23        6.1095
  24        6.3482
  25       10.6125
  26       10.8697

  0.2500000E+00  0.8333333E-01  0.8333333E-01  0.1111111E+00
   1       -3.4950
   2       -1.4196
   3       -1.3002
   4       -1.1815
   5       -1.1249
   6       -0.9686
   7       -0.8173
   8        0.1165
   9        0.6225
  10        0.8863
  11        1.1773
  12        1.5800
  13        1.6627
  14        1.9423
  15        2.0973
  16        2.3217
  17        2.5258
  18        2.6285
  19        2.9329
  20        3.0774
  21        3.1782
  22        3.9549
  23        7.2949
  24        7.5060
  25       10.2752
  26       10.5024

  0.4166667E+00  0.8333333E-01  0.8333333E-01  0.1111111E+00
   1       -2.4642
   2       -1.5137
   3       -0.8709
   4       -0.8179
   5       -0.6885
   6       -0.5455
   7       -0.3353
   8       -0.1137
   9        0.2067
  10        0.5620
  11        0.8342
  12        1.0303
  13        1.2979
  14        1.5240
  15        1.7451
  16        2.0459
  17        2.1218
  18        2.3595
  19        2.5317
  20        2.7019
  21        3.0751
  22        3.2213
  23        8.4732
  24        8.5705
  25       10.0057
  26       10.3738

  0.2500000E+00  0.2500000E+00  0.8333333E-01  0.1111111E+00
   1       -2.9777
   2       -1.2205
   3       -1.0813
   4       -1.0701
   5       -0.8402
   6       -0.7408
   7       -0.4549
   8        0.1338
   9        0.5758
  10        0.7056
  11        1.0234
  12        1.0913
  13        1.3299
  14        1.3361
  15        2.1021
  16        2.1474
  17        2.2817
  18        2.2973
  19        2.8313
  20        2.9125
  21        3.0584
  22        5.0607
  23        5.1301
  24        8.1564
  25        9.3246
  26       12.4518

  0.4166667E+00  0.2500000E+00  0.8333333E-01  0.2222222E+00
   1       -2.0798
   2       -1.2366
   3       -0.8925
   4       -0.6922
   5       -0.5564
   6       -0.2930
   7       -0.1440
   8       -0.0099
   9        0.1681
  10        0.4003
  11        0.6517
  12        0.8799
  13        1.0562
  14        1.2693
  15        1.6369
  16        1.8380
  17        2.1215
  18        2.4933
  19        2.6741
  20        2.7353
  21        2.9536
  22        3.5104
  23        6.3368
  24        7.5311
  25        9.7318
  26       10.8509

  0.4166667E+00  0.4166667E+00  0.8333333E-01  0.1111111E+00
   1       -1.4972
   2       -0.9889
   3       -0.9814
   4       -0.8931
   5       -0.0689
   6       -0.0671
   7        0.0824
   8        0.2440
   9        0.3686
  10        0.3874
  11        0.4868
  12        0.7715
  13        0.8080
  14        1.0774
  15        1.3361
  16        1.4067
  17        2.0061
  18        2.2772
  19        2.3361
  20        2.6825
  21        3.4606
  22        4.5447
  23        4.5978
  24        5.8458
  25       10.7426
  26       12.2246

  0.2500000E+00  0.2500000E+00  0.2500000E+00  0.3703704E-01
   1       -2.6166
   2       -1.1984
   3       -1.1468
   4       -1.0992
   5       -0.4534
   6       -0.3635
   7       -0.2403
   8        0.3759
   9        0.5264
  10        0.5700
  11        0.8108
  12        0.8933
  13        1.1468
  14        1.3767
  15        1.5737
  16        1.8398
  17        2.0589
  18        2.2976
  19        2.9544
  20        2.9823
  21        3.0948
  22        5.6852
  23        5.8914
  24        5.9396
  25       10.1981
  26       10.2772

  0.4166667E+00  0.2500000E+00  0.2500000E+00  0.1111111E+00
   1       -2.0050
   2       -1.4184
   3       -1.0882
   4       -1.0347
   5       -0.2753
   6       -0.0957
   7        0.0741
   8        0.3428
   9        0.4437
  10        0.5702
  11        0.7695
  12        0.8447
  13        1.0922
  14        1.1530
  15        1.3266
  16        1.5369
  17        2.4285
  18        2.5600
  19        2.8350
  20        2.8857
  21        2.9928
  22        3.8143
  23        6.8093
  24        7.0525
  25        8.2394
  26        8.4685

  0.4166667E+00  0.4166667E+00  0.2500000E+00  0.1111111E+00
   1       -1.8018
   2       -1.4638
   3       -1.4627
   4       -1.3461
   5        0.0960
   6        0.0993
   7        0.2724
   8        0.4753
   9        0.5871
  10        0.6969
  11        0.8291
  12        0.9366
  13        1.1579
  14        1.2823
  15        1.3421
  16        1.4997
  17        2.4494
  18        2.7403
  19        2.7479
  20        2.9537
  21        3.2534
  22        4.6424
  23        4.7168
  24        6.1013
  25        8.1503
  26        9.6810

  0.4166667E+00  0.4166667E+00  0.4166667E+00  0.3703704E-01
   1       -1.9230
   2       -1.7780
   3       -1.7464
   4       -1.7112
   5        0.1461
   6        0.1666
   7        0.3450
   8        0.4206
   9        0.5347
  10        0.5978
  11        0.6670
  12        0.8029
  13        1.8918
  14        2.2040
  15        2.2171
  16        2.6530
  17        2.8375
  18        2.8696
  19        2.9315
  20        3.0484
  21        3.0498
  22        4.8209
  23        4.9615
  24        5.0013
  25        7.8943
  26        7.9881
