       N       E                     dE             d eps       ncg     rms          rms(c)
DAV:   1     0.349862683136E+03    0.34986E+03   -0.17501E+04   520   0.123E+03

DAV:   2     0.360846551165E+01   -0.34625E+03   -0.33380E+03   534   0.420E+02

DAV:   3    -0.134086489741E+02   -0.17017E+02   -0.16378E+02   616   0.897E+01

DAV:   4    -0.137612652996E+02   -0.35262E+00   -0.35158E+00   556   0.127E+01

DAV:   5    -0.137673058110E+02   -0.60405E-02   -0.60397E-02   580   0.139E+00    0.576E+00
RMM:   6    -0.128261552899E+02    0.94115E+00   -0.26850E+00   520   0.145E+01    0.150E+00
RMM:   7    -0.127746001074E+02    0.51555E-01   -0.28856E-01   524   0.335E+00    0.581E-01
RMM:   8    -0.127626105225E+02    0.11990E-01   -0.12342E-02   524   0.112E+00    0.843E-02
RMM:   9    -0.127625146954E+02    0.95827E-04   -0.15148E-03   511   0.234E-01    0.281E-02
RMM:  10    -0.127625152277E+02   -0.53231E-06   -0.57698E-05   273   0.597E-02

   1 F= -.12762515E+02 E0= -.12759407E+02  d E =-.127625E+02
       N       E                     dE             d eps       ncg     rms          rms(c)
DAV:   1    -0.111786448009E+02   -0.11179E+02   -0.10434E+03   520   0.201E+02    0.268E+00
RMM:   2    -0.125914253350E+02   -0.14128E+01   -0.16055E+01   520   0.349E+01    0.171E+00
RMM:   3    -0.125205590892E+02    0.70866E-01   -0.56941E-01   529   0.446E+00    0.130E+00
RMM:   4    -0.124876027319E+02    0.32956E-01   -0.58168E-02   523   0.218E+00    0.869E-01
RMM:   5    -0.124653585483E+02    0.22244E-01   -0.13721E-01   520   0.210E+00    0.168E-01
RMM:   6    -0.124644346498E+02    0.92390E-03   -0.39341E-03   525   0.555E-01    0.971E-02
RMM:   7    -0.124641896387E+02    0.24501E-03   -0.17903E-03   516   0.216E-01    0.227E-02
RMM:   8    -0.124641859041E+02    0.37346E-05   -0.99554E-05   289   0.532E-02

   2 F= -.12464186E+02 E0= -.12460006E+02  d E =-.124642E+02
       N       E                     dE             d eps       ncg     rms          rms(c)
DAV:   1    -0.142526361545E+00   -0.14253E+00   -0.25058E+03   752   0.315E+02    0.587E+00
RMM:   2    -0.137928118755E+02   -0.13650E+02   -0.14017E+02   526   0.794E+01    0.336E+00
RMM:   3    -0.125590871440E+02    0.12337E+01   -0.51676E+00   542   0.147E+01    0.189E+00
RMM:   4    -0.124650086861E+02    0.94078E-01   -0.62567E-01   521   0.563E+00    0.636E-01
RMM:   5    -0.124643177334E+02    0.69095E-03   -0.49976E-02   538   0.102E+00    0.282E-01
RMM:   6    -0.124648855572E+02   -0.56782E-03   -0.63153E-03   525   0.539E-01    0.163E-01
RMM:   7    -0.124642094598E+02    0.67610E-03   -0.38762E-03   520   0.441E-01    0.320E-02
RMM:   8    -0.124641795108E+02    0.29949E-04   -0.10498E-04   298   0.555E-02

   3 F= -.12464180E+02 E0= -.12460002E+02  d E =-.124642E+02
       N       E                     dE             d eps       ncg     rms          rms(c)
DAV:   1    -0.869963177962E+01   -0.86996E+01   -0.19375E+03   600   0.276E+02    0.377E+00
RMM:   2    -0.126096013041E+02   -0.39100E+01   -0.43289E+01   520   0.542E+01    0.243E+00
RMM:   3    -0.124546174073E+02    0.15498E+00   -0.16474E+00   545   0.706E+00    0.160E+00
RMM:   4    -0.123913963912E+02    0.63221E-01   -0.26287E-01   520   0.433E+00    0.616E-01
RMM:   5    -0.123850118045E+02    0.63846E-02   -0.69439E-02   523   0.144E+00    0.154E-01
RMM:   6    -0.123849715567E+02    0.40248E-04   -0.43041E-03   545   0.355E-01    0.726E-02
RMM:   7    -0.123854237043E+02   -0.45215E-03   -0.14731E-03   516   0.209E-01    0.397E-02
RMM:   8    -0.123854339094E+02   -0.10205E-04   -0.17641E-04   297   0.789E-02

   4 F= -.12385434E+02 E0= -.12381475E+02  d E =-.123854E+02
       N       E                     dE             d eps       ncg     rms          rms(c)
DAV:   1    -0.415710314412E+01   -0.41571E+01   -0.25582E+03   760   0.314E+02    0.483E+00
RMM:   2    -0.127533165163E+02   -0.85962E+01   -0.92620E+01   521   0.725E+01    0.278E+00
RMM:   3    -0.124601058091E+02    0.29321E+00   -0.35316E+00   542   0.113E+01    0.172E+00
RMM:   4    -0.123875849804E+02    0.72521E-01   -0.58850E-01   520   0.579E+00    0.513E-01
RMM:   5    -0.123864619963E+02    0.11230E-02   -0.47272E-02   539   0.127E+00    0.282E-01
RMM:   6    -0.123859826643E+02    0.47933E-03   -0.43908E-03   546   0.315E-01    0.157E-01
RMM:   7    -0.123854087213E+02    0.57394E-03   -0.15433E-03   519   0.264E-01    0.514E-02
RMM:   8    -0.123853973369E+02    0.11384E-04   -0.50654E-04   394   0.160E-01

   5 F= -.12385397E+02 E0= -.12381439E+02  d E =-.123854E+02
       N       E                     dE             d eps       ncg     rms          rms(c)
DAV:   1    -0.854282791252E+01   -0.85428E+01   -0.19422E+03   600   0.277E+02    0.371E+00
RMM:   2    -0.126194846638E+02   -0.40767E+01   -0.45019E+01   520   0.545E+01    0.257E+00
RMM:   3    -0.124487894465E+02    0.17070E+00   -0.19157E+00   539   0.723E+00    0.164E+00
RMM:   4    -0.123951132565E+02    0.53676E-01   -0.19358E-01   520   0.362E+00    0.913E-01
RMM:   5    -0.123763315454E+02    0.18782E-01   -0.15767E-01   520   0.256E+00    0.253E-01
RMM:   6    -0.123741919978E+02    0.21395E-02   -0.80948E-03   535   0.457E-01    0.831E-02
RMM:   7    -0.123744029263E+02   -0.21093E-03   -0.11036E-03   523   0.177E-01    0.437E-02
RMM:   8    -0.123744213550E+02   -0.18429E-04   -0.28663E-04   321   0.113E-01

   6 F= -.12374421E+02 E0= -.12371454E+02  d E =-.123744E+02
       N       E                     dE             d eps       ncg     rms          rms(c)
DAV:   1    -0.323812744050E+01   -0.32381E+01   -0.25514E+03   760   0.313E+02    0.478E+00
RMM:   2    -0.128621088206E+02   -0.96240E+01   -0.10230E+02   521   0.744E+01    0.330E+00
RMM:   3    -0.124549443365E+02    0.40716E+00   -0.42514E+00   543   0.124E+01    0.173E+00
RMM:   4    -0.124044321247E+02    0.50512E-01   -0.29047E-01   530   0.361E+00    0.115E+00
RMM:   5    -0.123751537724E+02    0.29278E-01   -0.15657E-01   520   0.277E+00    0.340E-01
RMM:   6    -0.123747135591E+02    0.44021E-03   -0.12680E-02   532   0.699E-01    0.164E-01
RMM:   7    -0.123745126887E+02    0.20087E-03   -0.13694E-03   536   0.199E-01    0.679E-02
RMM:   8    -0.123744664104E+02    0.46278E-04   -0.79587E-04   472   0.206E-01

   7 F= -.12374466E+02 E0= -.12371494E+02  d E =-.123745E+02
       N       E                     dE             d eps       ncg     rms          rms(c)
DAV:   1    -0.959590435440E+01   -0.95959E+01   -0.20895E+03   520   0.303E+02    0.264E+00
RMM:   2    -0.124998642902E+02   -0.29040E+01   -0.30356E+01   520   0.484E+01    0.154E+00
RMM:   3    -0.125021951548E+02   -0.23309E-02   -0.96284E-01   530   0.557E+00    0.108E+00
RMM:   4    -0.124732081638E+02    0.28987E-01   -0.10387E-01   526   0.263E+00    0.569E-01
RMM:   5    -0.124653593160E+02    0.78488E-02   -0.64331E-02   524   0.142E+00    0.144E-01
RMM:   6    -0.124644426031E+02    0.91671E-03   -0.28217E-03   539   0.324E-01    0.830E-02
RMM:   7    -0.124641946266E+02    0.24798E-03   -0.13057E-03   521   0.200E-01    0.171E-02
RMM:   8    -0.124641814139E+02    0.13213E-04   -0.12811E-04   288   0.692E-02

   8 F= -.12464181E+02 E0= -.12460003E+02  d E =-.124642E+02
       N       E                     dE             d eps       ncg     rms          rms(c)
DAV:   1    -0.216557329200E-01   -0.21656E-01   -0.25043E+03   752   0.315E+02    0.583E+00
RMM:   2    -0.138115820072E+02   -0.13790E+02   -0.14115E+02   526   0.795E+01    0.331E+00
RMM:   3    -0.125523426930E+02    0.12592E+01   -0.50881E+00   540   0.148E+01    0.186E+00
RMM:   4    -0.124648809549E+02    0.87462E-01   -0.63059E-01   524   0.562E+00    0.629E-01
RMM:   5    -0.124643507693E+02    0.53019E-03   -0.47675E-02   540   0.978E-01    0.286E-01
RMM:   6    -0.124648910447E+02   -0.54028E-03   -0.60027E-03   526   0.556E-01    0.164E-01
RMM:   7    -0.124642375328E+02    0.65351E-03   -0.44464E-03   520   0.479E-01    0.389E-02
RMM:   8    -0.124641782512E+02    0.59282E-04   -0.13933E-04   304   0.732E-02

   9 F= -.12464178E+02 E0= -.12460001E+02  d E =-.124642E+02
       N       E                     dE             d eps       ncg     rms          rms(c)
DAV:   1    -0.871437301822E+01   -0.87144E+01   -0.19376E+03   600   0.276E+02    0.375E+00
RMM:   2    -0.126093317953E+02   -0.38950E+01   -0.43073E+01   520   0.541E+01    0.241E+00
RMM:   3    -0.124530568492E+02    0.15627E+00   -0.15897E+00   536   0.703E+00    0.159E+00
RMM:   4    -0.123914038330E+02    0.61653E-01   -0.26058E-01   520   0.432E+00    0.615E-01
RMM:   5    -0.123849821290E+02    0.64217E-02   -0.69502E-02   526   0.143E+00    0.149E-01
RMM:   6    -0.123849788677E+02    0.32613E-05   -0.40709E-03   543   0.358E-01    0.734E-02
RMM:   7    -0.123854229204E+02   -0.44405E-03   -0.15026E-03   518   0.208E-01    0.375E-02
RMM:   8    -0.123854334657E+02   -0.10545E-04   -0.15664E-04   293   0.750E-02

  10 F= -.12385433E+02 E0= -.12381475E+02  d E =-.123854E+02
       N       E                     dE             d eps       ncg     rms          rms(c)
DAV:   1    -0.423735135704E+01   -0.42374E+01   -0.25591E+03   768   0.314E+02    0.478E+00
RMM:   2    -0.127329327051E+02   -0.84956E+01   -0.91309E+01   520   0.722E+01    0.272E+00
RMM:   3    -0.124562998762E+02    0.27663E+00   -0.35477E+00   544   0.112E+01    0.170E+00
RMM:   4    -0.123882087862E+02    0.68091E-01   -0.58754E-01   521   0.576E+00    0.521E-01
RMM:   5    -0.123870148913E+02    0.11939E-02   -0.52505E-02   536   0.141E+00    0.313E-01
RMM:   6    -0.123859790223E+02    0.10359E-02   -0.53221E-03   541   0.335E-01    0.162E-01
RMM:   7    -0.123854065359E+02    0.57249E-03   -0.17194E-03   520   0.309E-01    0.530E-02
RMM:   8    -0.123853971217E+02    0.94142E-05   -0.55326E-04   405   0.157E-01

  11 F= -.12385397E+02 E0= -.12381439E+02  d E =-.123854E+02
       N       E                     dE             d eps       ncg     rms          rms(c)
DAV:   1    -0.854162696562E+01   -0.85416E+01   -0.19423E+03   600   0.277E+02    0.372E+00
RMM:   2    -0.126195804670E+02   -0.40780E+01   -0.45073E+01   520   0.545E+01    0.257E+00
RMM:   3    -0.124502891400E+02    0.16929E+00   -0.19581E+00   546   0.725E+00    0.165E+00
RMM:   4    -0.123957613445E+02    0.54528E-01   -0.19258E-01   523   0.361E+00    0.922E-01
RMM:   5    -0.123764660131E+02    0.19295E-01   -0.16039E-01   520   0.259E+00    0.260E-01
RMM:   6    -0.123741781200E+02    0.22879E-02   -0.82465E-03   530   0.477E-01    0.825E-02
RMM:   7    -0.123744098807E+02   -0.23176E-03   -0.11222E-03   527   0.175E-01    0.461E-02
RMM:   8    -0.123744220801E+02   -0.12199E-04   -0.31332E-04   327   0.119E-01

  12 F= -.12374422E+02 E0= -.12371455E+02  d E =-.123744E+02
       N       E                     dE             d eps       ncg     rms          rms(c)
DAV:   1    -0.327348126519E+01   -0.32735E+01   -0.25523E+03   752   0.313E+02    0.482E+00
RMM:   2    -0.128714016545E+02   -0.95979E+01   -0.10221E+02   522   0.744E+01    0.339E+00
RMM:   3    -0.124612623861E+02    0.41014E+00   -0.42870E+00   544   0.124E+01    0.176E+00
RMM:   4    -0.124072901511E+02    0.53972E-01   -0.28447E-01   530   0.359E+00    0.117E+00
RMM:   5    -0.123752214434E+02    0.32069E-01   -0.16243E-01   521   0.281E+00    0.351E-01
RMM:   6    -0.123746366755E+02    0.58477E-03   -0.12692E-02   530   0.698E-01    0.159E-01
RMM:   7    -0.123745059428E+02    0.13073E-03   -0.13102E-03   534   0.196E-01    0.650E-02
RMM:   8    -0.123744601075E+02    0.45835E-04   -0.63648E-04   439   0.179E-01

  13 F= -.12374460E+02 E0= -.12371487E+02  d E =-.123745E+02
       N       E                     dE             d eps       ncg     rms          rms(c)
DAV:   1    -0.946233621088E+01   -0.94623E+01   -0.20891E+03   520   0.304E+02    0.319E+00
RMM:   2    -0.125496811704E+02   -0.30873E+01   -0.33195E+01   520   0.510E+01    0.196E+00
RMM:   3    -0.125191797975E+02    0.30501E-01   -0.11012E+00   530   0.574E+00    0.138E+00
RMM:   4    -0.124754901540E+02    0.43690E-01   -0.14687E-01   521   0.320E+00    0.670E-01
RMM:   5    -0.124653346102E+02    0.10156E-01   -0.74700E-02   522   0.155E+00    0.146E-01
RMM:   6    -0.124645356797E+02    0.79893E-03   -0.30393E-03   540   0.317E-01    0.844E-02
RMM:   7    -0.124642200114E+02    0.31567E-03   -0.10809E-03   519   0.170E-01    0.172E-02
RMM:   8    -0.124641940959E+02    0.25916E-04   -0.10615E-04   288   0.681E-02

  14 F= -.12464194E+02 E0= -.12460014E+02  d E =-.124642E+02
       N       E                     dE             d eps       ncg     rms          rms(c)
DAV:   1    -0.107788967492E+00   -0.10779E+00   -0.25037E+03   752   0.315E+02    0.592E+00
RMM:   2    -0.138873870950E+02   -0.13780E+02   -0.14142E+02   526   0.797E+01    0.343E+00
RMM:   3    -0.125563795589E+02    0.13310E+01   -0.49037E+00   536   0.148E+01    0.190E+00
RMM:   4    -0.124653540139E+02    0.91026E-01   -0.62528E-01   521   0.558E+00    0.646E-01
RMM:   5    -0.124643567168E+02    0.99730E-03   -0.50555E-02   543   0.103E+00    0.279E-01
RMM:   6    -0.124647106932E+02   -0.35398E-03   -0.49678E-03   528   0.462E-01    0.147E-01
RMM:   7    -0.124641922352E+02    0.51846E-03   -0.29312E-03   520   0.379E-01    0.273E-02
RMM:   8    -0.124641780224E+02    0.14213E-04   -0.90688E-05   299   0.501E-02

  15 F= -.12464178E+02 E0= -.12460001E+02  d E =-.124642E+02
       N       E                     dE             d eps       ncg     rms          rms(c)
DAV:   1    -0.869855967647E+01   -0.86986E+01   -0.19381E+03   600   0.276E+02    0.377E+00
RMM:   2    -0.126076688841E+02   -0.39091E+01   -0.43283E+01   520   0.541E+01    0.243E+00
RMM:   3    -0.124540849935E+02    0.15358E+00   -0.16736E+00   541   0.708E+00    0.160E+00
RMM:   4    -0.123909020054E+02    0.63183E-01   -0.27125E-01   520   0.439E+00    0.601E-01
RMM:   5    -0.123848902417E+02    0.60118E-02   -0.66375E-02   522   0.138E+00    0.140E-01
RMM:   6    -0.123849873433E+02   -0.97102E-04   -0.39712E-03   545   0.361E-01    0.716E-02
RMM:   7    -0.123854238891E+02   -0.43655E-03   -0.14972E-03   516   0.204E-01    0.341E-02
RMM:   8    -0.123854329161E+02   -0.90269E-05   -0.13779E-04   291   0.703E-02

  16 F= -.12385433E+02 E0= -.12381475E+02  d E =-.123854E+02
       N       E                     dE             d eps       ncg     rms          rms(c)
DAV:   1    -0.416200949576E+01   -0.41620E+01   -0.25558E+03   768   0.314E+02    0.480E+00
RMM:   2    -0.127657619766E+02   -0.86038E+01   -0.92489E+01   520   0.725E+01    0.270E+00
RMM:   3    -0.124538399260E+02    0.31192E+00   -0.33503E+00   540   0.112E+01    0.170E+00
RMM:   4    -0.123892200059E+02    0.64620E-01   -0.60001E-01   520   0.580E+00    0.537E-01
RMM:   5    -0.123877218190E+02    0.14982E-02   -0.57362E-02   537   0.152E+00    0.358E-01
RMM:   6    -0.123861804180E+02    0.15414E-02   -0.61090E-03   536   0.373E-01    0.182E-01
RMM:   7    -0.123853897659E+02    0.79065E-03   -0.25928E-03   521   0.386E-01    0.480E-02
RMM:   8    -0.123853962929E+02   -0.65270E-05   -0.51546E-04   400   0.143E-01

  17 F= -.12385396E+02 E0= -.12381438E+02  d E =-.123854E+02
       N       E                     dE             d eps       ncg     rms          rms(c)
DAV:   1    -0.859351653625E+01   -0.85935E+01   -0.19398E+03   600   0.277E+02    0.369E+00
RMM:   2    -0.126150606262E+02   -0.40215E+01   -0.44353E+01   520   0.542E+01    0.255E+00
RMM:   3    -0.124465458869E+02    0.16851E+00   -0.18425E+00   535   0.717E+00    0.162E+00
RMM:   4    -0.123937020689E+02    0.52844E-01   -0.19079E-01   521   0.361E+00    0.888E-01
RMM:   5    -0.123760684666E+02    0.17634E-01   -0.14638E-01   520   0.243E+00    0.244E-01
RMM:   6    -0.123742285015E+02    0.18400E-02   -0.78080E-03   534   0.431E-01    0.825E-02
RMM:   7    -0.123743942247E+02   -0.16572E-03   -0.11062E-03   527   0.178E-01    0.414E-02
RMM:   8    -0.123744194952E+02   -0.25271E-04   -0.27492E-04   322   0.110E-01

  18 F= -.12374419E+02 E0= -.12371452E+02  d E =-.123744E+02
       N       E                     dE             d eps       ncg     rms          rms(c)
DAV:   1    -0.300505710704E+01   -0.30051E+01   -0.25399E+03   752   0.313E+02    0.473E+00
RMM:   2    -0.129376756621E+02   -0.99326E+01   -0.10504E+02   522   0.757E+01    0.344E+00
RMM:   3    -0.124444192445E+02    0.49326E+00   -0.40052E+00   533   0.126E+01    0.168E+00
RMM:   4    -0.124002815493E+02    0.44138E-01   -0.31218E-01   531   0.366E+00    0.109E+00
RMM:   5    -0.123749871455E+02    0.25294E-01   -0.13627E-01   520   0.255E+00    0.331E-01
RMM:   6    -0.123746291941E+02    0.35795E-03   -0.11869E-02   529   0.659E-01    0.146E-01
RMM:   7    -0.123744935842E+02    0.13561E-03   -0.11031E-03   507   0.179E-01    0.607E-02
RMM:   8    -0.123744582169E+02    0.35367E-04   -0.49743E-04   405   0.160E-01

  19 F= -.12374458E+02 E0= -.12371483E+02  d E =-.123745E+02
       N       E                     dE             d eps       ncg     rms          rms(c)
DAV:   1    -0.961721996023E+01   -0.96172E+01   -0.20881E+03   520   0.303E+02    0.263E+00
RMM:   2    -0.125049476138E+02   -0.28877E+01   -0.30182E+01   520   0.484E+01    0.155E+00
RMM:   3    -0.125032386299E+02    0.17090E-02   -0.91867E-01   529   0.555E+00    0.109E+00
RMM:   4    -0.124730928258E+02    0.30146E-01   -0.10202E-01   523   0.263E+00    0.563E-01
RMM:   5    -0.124653629750E+02    0.77299E-02   -0.62873E-02   524   0.140E+00    0.144E-01
RMM:   6    -0.124644385066E+02    0.92447E-03   -0.27819E-03   538   0.321E-01    0.823E-02
RMM:   7    -0.124641934637E+02    0.24504E-03   -0.12792E-03   524   0.196E-01    0.168E-02
RMM:   8    -0.124641811153E+02    0.12348E-04   -0.12398E-04   289   0.683E-02

  20 F= -.12464181E+02 E0= -.12460002E+02  d E =-.124642E+02
       N       E                     dE             d eps       ncg     rms          rms(c)
DAV:   1    -0.286064631129E+00   -0.28606E+00   -0.25053E+03   744   0.315E+02    0.602E+00
RMM:   2    -0.138726451308E+02   -0.13587E+02   -0.14007E+02   526   0.799E+01    0.355E+00
RMM:   3    -0.125745007138E+02    0.12981E+01   -0.51238E+00   536   0.149E+01    0.199E+00
RMM:   4    -0.124663073002E+02    0.10819E+00   -0.63339E-01   520   0.571E+00    0.678E-01
RMM:   5    -0.124644395287E+02    0.18678E-02   -0.56411E-02   538   0.115E+00    0.291E-01
RMM:   6    -0.124648634737E+02   -0.42395E-03   -0.67856E-03   525   0.504E-01    0.160E-01
RMM:   7    -0.124641721063E+02    0.69137E-03   -0.29231E-03   521   0.365E-01    0.254E-02
RMM:   8    -0.124641810520E+02   -0.89457E-05   -0.13065E-04   311   0.610E-02

  21 F= -.12464181E+02 E0= -.12460003E+02  d E =-.124642E+02
       N       E                     dE             d eps       ncg     rms          rms(c)
DAV:   1    -0.870414800813E+01   -0.87041E+01   -0.19376E+03   600   0.276E+02    0.377E+00
RMM:   2    -0.126096030516E+02   -0.39055E+01   -0.43265E+01   520   0.542E+01    0.243E+00
RMM:   3    -0.124553044490E+02    0.15430E+00   -0.16692E+00   542   0.708E+00    0.161E+00
RMM:   4    -0.123910343241E+02    0.64270E-01   -0.27011E-01   520   0.439E+00    0.603E-01
RMM:   5    -0.123849463248E+02    0.60880E-02   -0.67069E-02   523   0.139E+00    0.143E-01
RMM:   6    -0.123849864608E+02   -0.40136E-04   -0.40175E-03   546   0.355E-01    0.722E-02
RMM:   7    -0.123854239526E+02   -0.43749E-03   -0.14925E-03   517   0.204E-01    0.348E-02
RMM:   8    -0.123854331298E+02   -0.91772E-05   -0.14204E-04   292   0.715E-02

  22 F= -.12385433E+02 E0= -.12381475E+02  d E =-.123854E+02
       N       E                     dE             d eps       ncg     rms          rms(c)
DAV:   1    -0.429159961554E+01   -0.42916E+01   -0.25573E+03   768   0.314E+02    0.480E+00
RMM:   2    -0.127185811239E+02   -0.84270E+01   -0.90749E+01   520   0.723E+01    0.272E+00
RMM:   3    -0.124576641009E+02    0.26092E+00   -0.33860E+00   536   0.111E+01    0.171E+00
RMM:   4    -0.123892429179E+02    0.68421E-01   -0.60454E-01   520   0.586E+00    0.539E-01
RMM:   5    -0.123873970581E+02    0.18459E-02   -0.55156E-02   532   0.150E+00    0.339E-01
RMM:   6    -0.123861995771E+02    0.11975E-02   -0.57885E-03   538   0.352E-01    0.182E-01
RMM:   7    -0.123853982490E+02    0.80133E-03   -0.23884E-03   521   0.361E-01    0.522E-02
RMM:   8    -0.123853965647E+02    0.16842E-05   -0.56958E-04   415   0.155E-01

  23 F= -.12385397E+02 E0= -.12381438E+02  d E =-.123854E+02
       N       E                     dE             d eps       ncg     rms          rms(c)
DAV:   1    -0.859942923563E+01   -0.85994E+01   -0.19398E+03   600   0.277E+02    0.370E+00
RMM:   2    -0.126183084494E+02   -0.40189E+01   -0.44372E+01   520   0.543E+01    0.256E+00
RMM:   3    -0.124469932728E+02    0.17132E+00   -0.18296E+00   533   0.718E+00    0.163E+00
RMM:   4    -0.123940703683E+02    0.52923E-01   -0.19456E-01   521   0.364E+00    0.894E-01
RMM:   5    -0.123761781503E+02    0.17892E-01   -0.15060E-01   520   0.247E+00    0.247E-01
RMM:   6    -0.123742246064E+02    0.19535E-02   -0.78900E-03   533   0.436E-01    0.831E-02
RMM:   7    -0.123743936134E+02   -0.16901E-03   -0.11026E-03   526   0.179E-01    0.415E-02
RMM:   8    -0.123744198955E+02   -0.26282E-04   -0.28121E-04   321   0.111E-01

  24 F= -.12374420E+02 E0= -.12371452E+02  d E =-.123744E+02
       N       E                     dE             d eps       ncg     rms          rms(c)
DAV:   1    -0.326910867603E+01   -0.32691E+01   -0.25445E+03   760   0.313E+02    0.469E+00
RMM:   2    -0.128658196737E+02   -0.95967E+01   -0.10132E+02   521   0.747E+01    0.326E+00
RMM:   3    -0.124435118017E+02    0.42231E+00   -0.39760E+00   537   0.122E+01    0.167E+00
RMM:   4    -0.123997285145E+02    0.43783E-01   -0.29539E-01   531   0.358E+00    0.109E+00
RMM:   5    -0.123750071833E+02    0.24721E-01   -0.13447E-01   520   0.255E+00    0.333E-01
RMM:   6    -0.123746821997E+02    0.32498E-03   -0.11989E-02   532   0.666E-01    0.153E-01
RMM:   7    -0.123744985906E+02    0.18361E-03   -0.12113E-03   523   0.186E-01    0.632E-02
RMM:   8    -0.123744634702E+02    0.35120E-04   -0.65073E-04   447   0.185E-01

  25 F= -.12374463E+02 E0= -.12371490E+02  d E =-.123745E+02

