 vasp.4.6.26 15Dec04 complex 
 executed on             LinuxPgi date 2009.11.30  18:33:14
 serial version


--------------------------------------------------------------------------------------------------------


 INCAR:
 POTCAR:   PAW_GGA Au 18Jul2000                   
 POTCAR:   PAW_GGA Au 18Jul2000                   
  local pseudopotential read in
  partial core-charges read in
  atomic valenz-charges read in
  non local Contribution for L=                        2  read in
    real space projection operators read in
  non local Contribution for L=                        2  read in
    real space projection operators read in
  non local Contribution for L=                        0  read in
    real space projection operators read in
  non local Contribution for L=                        0  read in
    real space projection operators read in
  non local Contribution for L=                        1  read in
    real space projection operators read in
  non local Contribution for L=                        1  read in
    real space projection operators read in
    PAW grid and wavefunctions read in

   number of l-projection  operators is LMAX  =                        6
   number of lm-projection operators is LMMAX =                       18

 PAW_GGA Au 18Jul2000                   :
 energy of atom  1       EATOM= -927.0928
 kinetic energy error for atom=    0.0152 (will be added to EATOM!!)

 EXHCAR: internal setup
 exchange correlation table for  LEXCH =        7
   RHO(1)=    0.500       N(1)  =     2000
   RHO(2)=  100.500       N(2)  =     4000

 POSCAR: Pure FCC metal                          
  positions in direct lattice
  velocities in cartesian coordinates
  No initial velocities read in



--------------------------------------------------------------------------------------------------------


 ion  position               nearest neighbor table
   1  0.000  0.000  0.000-   2 2.95   3 2.95   4 2.95   3 2.95   4 2.95   2 2.95   4 2.95   4 2.95
                             2 2.95   3 2.95   3 2.95   2 2.95
   2  0.500  0.500  0.000-   1 2.95   3 2.95   4 2.95   3 2.95   4 2.95   1 2.95   3 2.95   3 2.95
                             1 2.95   4 2.95   4 2.95   1 2.95
   3  0.500  0.000  0.500-   1 2.95   2 2.95   4 2.95   1 2.95   2 2.95   2 2.95   4 2.95   2 2.95
                             1 2.95   4 2.95   1 2.95   4 2.95
   4  0.000  0.500  0.500-   1 2.95   2 2.95   3 2.95   1 2.95   2 2.95   1 2.95   3 2.95   1 2.95
                             2 2.95   3 2.95   2 2.95   3 2.95

  LATTYP: Found a simple cubic cell.
 ALAT       =     4.1760000000
  
  Lattice vectors:
  
 A1 = (   4.1760000000,   0.0000000000,   0.0000000000)
 A2 = (   0.0000000000,   4.1760000000,   0.0000000000)
 A3 = (   0.0000000000,   0.0000000000,   4.1760000000)
 Subroutine PRICEL returns following result:
 
  LATTYP: Found a face centered cubic cell.
 ALAT       =     4.1760000000
  
  Lattice vectors:
  
 A1 = (   2.0880000000,   2.0880000000,   0.0000000000)
 A2 = (   2.0880000000,   0.0000000000,  -2.0880000000)
 A3 = (   0.0000000000,   2.0880000000,  -2.0880000000)
 
   4 primitive cells build up your supercell.
 

Analysis of symmetry for initial positions (statically):

 Routine SETGRP: Setting up the symmetry group for a 
 simple cubic supercell.


 Subroutine GETGRP returns: Found 48 space group operations
 (whereof 48 operations were pure point group operations)
 out of a pool of 48 trial point group operations.


The static configuration has the point symmetry O_h .

Analysis of symmetry for dynamics (positions and initial velocities):

 Subroutine DYNSYM returns: Found 48 space group operations
 (whereof 48 operations were pure point group operations)
 out of a pool of 48 trial space group operations
 (whereof 48 operations were pure point group operations)
 and found also     4 'primitive' translations


The dynamic configuration has the point symmetry O_h .


 KPOINTS: 6x6x6 title card                        

Automatic generation of k-mesh.
 
 Subroutine IBZKPT returns following result:
 ===========================================
 
 Found     10 irreducible k-points:
 
 Following reciprocal coordinates:
            Coordinates               Weight
  0.083333  0.083333  0.083333      8.000000
  0.250000  0.083333  0.083333     24.000000
  0.416667  0.083333  0.083333     24.000000
  0.250000  0.250000  0.083333     24.000000
  0.416667  0.250000  0.083333     48.000000
  0.416667  0.416667  0.083333     24.000000
  0.250000  0.250000  0.250000      8.000000
  0.416667  0.250000  0.250000     24.000000
  0.416667  0.416667  0.250000     24.000000
  0.416667  0.416667  0.416667      8.000000
 
 Following cartesian coordinates:
            Coordinates               Weight
  0.083333  0.083333  0.083333      8.000000
  0.250000  0.083333  0.083333     24.000000
  0.416667  0.083333  0.083333     24.000000
  0.250000  0.250000  0.083333     24.000000
  0.416667  0.250000  0.083333     48.000000
  0.416667  0.416667  0.083333     24.000000
  0.250000  0.250000  0.250000      8.000000
  0.416667  0.250000  0.250000     24.000000
  0.416667  0.416667  0.250000     24.000000
  0.416667  0.416667  0.416667      8.000000
 


--------------------------------------------------------------------------------------------------------




 Dimension of arrays:
   k-Points           NKPTS =     10   number of bands    NBANDS=     26
   number of dos      NEDOS =    301   number of ions     NIONS =      4
   non local maximal  LDIM  =      6   non local SUM 2l+1 LMDIM =     18
   total plane-waves  NPLWV =   8000
   max r-space proj   IRMAX =      1   max aug-charges    IRDMAX=   6917
   dimension x,y,z NGX =    20 NGY =   20 NGZ =   20
   dimension x,y,z NGXF=    40 NGYF=   40 NGZF=   40
   support grid    NGXF=    40 NGYF=   40 NGZF=   40
   ions per type =               4
 NGX,Y,Z   is equivalent  to a cutoff of   7.96,  7.96,  7.96 a.u.
 NGXF,Y,Z  is equivalent  to a cutoff of  15.92, 15.92, 15.92 a.u.


 I would recommend the setting:
   dimension x,y,z NGX =    19 NGY =   19 NGZ =   19
 SYSTEM =  Au, FCC                                 
 POSCAR =  Pure FCC metal                          

 Startparameter for this run:
   NWRITE =      1    write-flag & timer
   PREC   = normal    medium, high low
   ISTART =      0    job   : 0-new  1-cont  2-samecut
   ICHARG =      2    charge: 1-file 2-atom 10-const
   ISPIN  =      1    spin polarized calculation?
   LNONCOLLINEAR =      F non collinear calculations
   LSORBIT =      F    spin-orbit coupling
   INIWAV =      1    electr: 0-lowe 1-rand  2-diag
   LASPH  =      F    aspherical Exc in radial PAW
   METAGGA=      F    non-selfconsistent MetaGGA calc.

 Electronic Relaxation 1
   ENCUT  =  350.0 eV  25.72 Ry    5.07 a.u.   6.37  6.37  6.37*2*pi/ulx,y,z
   ENINI  =  350.0     initial cutoff
   ENAUG  =  356.7 eV  augmentation charge cutoff
   NELM   =     60;   NELMIN=  2; NELMDL= -5     # of ELM steps 
   EDIFF  = 0.1E-03   stopping-criterion for ELM
   LREAL  =      F    real-space projection
   LCOMPAT=      F    compatible to vasp.4.4
   LREAL_COMPAT= F    compatible to vasp.4.5.1-3
   GGA_COMPAT  = T    GGA compatible to vasp.4.4-vasp.4.6
   LMAXPAW     = -100 max onsite density
   LMAXMIX     =    2 max onsite mixed and CHGCAR
   VOSKOWN=      0    Vosko Wilk Nusair interpolation
   ROPT   =    0.00000
 Ionic relaxation
   EDIFFG = -.5E-01   stopping-criterion for IOM
   NSW    =     40    number of steps for IOM
   NBLOCK =      1;   KBLOCK =     10    inner block; outer block 
   IBRION =      5    ionic relax: 0-MD 1-quasi-New 2-CG
   NFREE  =      2    steps in history (QN), initial steepest desc. (CG)
   ISIF   =      2    stress and relaxation
   IWAVPR =     11    prediction:  0-non 1-charg 2-wave 3-comb
   ISYM   =      2    0-nonsym 1-usesym 2-fastsym
   LCORR  =      T    Harris-Foulkes like correction to forces

   POTIM  =   0.35    time-step for ionic-motion
   TEIN   =    0.0    initial temperature
   TEBEG  =    0.0;   TEEND  =   0.0 temperature during run
   SMASS  =  -3.00    Nose mass-parameter (am)
   estimated Nose-frequenzy (Omega)   =  0.10E-29 period in steps =****** mass=  -0.399E-27a.u.
   NPACO  =    256;   APACO  = 16.0  distance and # of slots for P.C.
   PSTRESS=    0.0 pullay stress

  Mass of Ions in am
   POMASS = 196.97
  Ionic Valenz
   ZVAL   =  11.00
  Atomic Wigner-Seitz radii
   RWIGS  =  -1.00
   NELECT =      44.0000    total number of electrons
   NUPDOWN=      -1.0000    fix difference up-down

 DOS related values:
   EMIN   =  10.00;   EMAX   =-10.00  energy-range for DOS
   ISMEAR =     0;   SIGMA  =   0.10  broadening in eV -4-tet -1-fermi 0-gaus

 Electronic relaxation 2 (details)
   IALGO  =     68    algorithm
   LDIAG  =      T    sub-space diagonalisation
   IMIX   =      4    mixing-type and parameters
     AMIX     =   0.40;   BMIX     =  1.00
     AMIX_MAG =   1.60;   BMIX_MAG =  1.00
     AMIN     =   0.10
     WC   =   100.;   INIMIX=   1;  MIXPRE=   1

 Intra band minimization:
   WEIMIN = 0.0010     energy-eigenvalue tresh-hold
   EBREAK =  0.96E-06  absolut break condition
   DEPER  =   0.30     relativ break condition  

   TIME   =   0.10     timestep for ELM

  volume/ion in A,a.u.               =      18.21       122.86
  Fermi-wavevector in a.u.,eV,Ry     =   1.383987 26.060858  1.915419

 Second variation
   LSECVAR=     F    do a second variation

 Write flags
   LWAVE  =      F    write WAVECAR
   LCHARG =      T    write CHGCAR
   LVTOT  =      F    write LOCPOT, local potential
   LELF   =      F    write electronic localiz. function (ELF)
   LORBIT =      0    0 simple, 1 ext, 2 COOP (PROOUT)


 Dipole corrections
   IDIPOL =      0    1-x, 2-y, 3-z
   LDIPOL =      F    correct potential



--------------------------------------------------------------------------------------------------------


 finite differences
 charge density will be updated during run
 non-spin polarized calculation
 RMM-DIIS sequential band-by-band and
  variant of blocked Davidson during initial phase
 performe sub-space diagonalisation
    before iterative eigenvector-optimisation
 modified Broyden-mixing scheme, WC =      100.0
 initial mixing is a Kerker type mixing with AMIX =  0.4000 and BMIX =      1.0000
 Hartree-type preconditioning will be used
 using additional bands                         4
 reciprocal scheme for non local part
 use partial core corrections
 calculate Harris-corrections to forces 
   (improved forces if not selfconsistent)
 use gradient corrections 
 use of overlap-Matrix (Vanderbilt PP)
 Gauss-broadening in eV      SIGMA  =   0.10


--------------------------------------------------------------------------------------------------------


  energy-cutoff  :      350.00
  volume of cell :       72.83
      direct lattice vectors                 reciprocal lattice vectors
     4.176000000  0.000000000  0.000000000     0.239463602  0.000000000  0.000000000
     0.000000000  4.176000000  0.000000000     0.000000000  0.239463602  0.000000000
     0.000000000  0.000000000  4.176000000     0.000000000  0.000000000  0.239463602

  length of vectors
     4.176000000  4.176000000  4.176000000     0.239463602  0.239463602  0.239463602



 k-points in units of 2pi/SCALE and weight: 6x6x6 title card                        
   0.08333333  0.08333333  0.08333333       0.037
   0.25000000  0.08333333  0.08333333       0.111
   0.41666667  0.08333333  0.08333333       0.111
   0.25000000  0.25000000  0.08333333       0.111
   0.41666667  0.25000000  0.08333333       0.222
   0.41666667  0.41666667  0.08333333       0.111
   0.25000000  0.25000000  0.25000000       0.037
   0.41666667  0.25000000  0.25000000       0.111
   0.41666667  0.41666667  0.25000000       0.111
   0.41666667  0.41666667  0.41666667       0.037

 k-points in reciprocal lattice and weights: 6x6x6 title card                        
   0.08333333  0.08333333  0.08333333       0.037
   0.25000000  0.08333333  0.08333333       0.111
   0.41666667  0.08333333  0.08333333       0.111
   0.25000000  0.25000000  0.08333333       0.111
   0.41666667  0.25000000  0.08333333       0.222
   0.41666667  0.41666667  0.08333333       0.111
   0.25000000  0.25000000  0.25000000       0.037
   0.41666667  0.25000000  0.25000000       0.111
   0.41666667  0.41666667  0.25000000       0.111
   0.41666667  0.41666667  0.41666667       0.037

 position of ions in fractional coordinates (direct lattice) 
   0.00000000  0.00000000  0.00000000
   0.50000000  0.50000000  0.00000000
   0.50000000  0.00000000  0.50000000
   0.00000000  0.50000000  0.50000000

 position of ions in cartesian coordinates  (Angst):
   0.00000000  0.00000000  0.00000000
   2.08800000  2.08800000  0.00000000
   2.08800000  0.00000000  2.08800000
   0.00000000  2.08800000  2.08800000



--------------------------------------------------------------------------------------------------------


 k-point  1 :  0.08330.08330.0833  plane waves:   1081
 k-point  2 :  0.25000.08330.0833  plane waves:   1084
 k-point  3 :  0.41670.08330.0833  plane waves:   1086
 k-point  4 :  0.25000.25000.0833  plane waves:   1082
 k-point  5 :  0.41670.25000.0833  plane waves:   1097
 k-point  6 :  0.41670.41670.0833  plane waves:   1075
 k-point  7 :  0.25000.25000.2500  plane waves:   1069
 k-point  8 :  0.41670.25000.2500  plane waves:   1078
 k-point  9 :  0.41670.41670.2500  plane waves:   1074
 k-point 10 :  0.41670.41670.4167  plane waves:   1070

 maximum number of plane-waves:   1097
 maximal index in each direction: 
   IXMAX=  6   IYMAX=  6   IZMAX=  6
   IXMIN= -6   IYMIN= -6   IZMIN= -6

 WARNING: wrap around error must be expected set NGX to  26
 WARNING: wrap around error must be expected set NGY to  26
 WARNING: wrap around error must be expected set NGZ to  26
 For storing wavefunctions    4.49 MBYTES are necessary
 For predicting wavefunctions    1.59 MBYTES are necessary
Broyden mixing: mesh for mixing (old mesh)
   NGX = 13   NGY = 13   NGZ = 13
  (NGX  = 40   NGY  = 40   NGZ  = 40)
 gives a total of   2197 points
 initial charge density was supplied:
 charge density of overlapping atoms calculated
 number of electron   44.0000000 magnetization 
 keeping initial charge density in first step


--------------------------------------------------------------------------------------------------------


 Maximum index for augmentation-charges                      6619 (set IRDMAX)


--------------------------------------------------------------------------------------------------------


 First call to EWALD:  gamma=   0.424
 Maximum number of real-space cells 3x 3x 3
 Maximum number of reciprocal cells 3x 3x 3



----------------------------------------- Iteration    1(   1)  ---------------------------------------


      LOOP:  VPU time    3.06: CPU time    3.02

 eigenvalue-minimisations  :   520
 total energy-change (2. order) : 0.3498627E+03  (-0.1750072E+04)
 number of electron   44.0000000 magnetization 
 augmentation part    44.0000000 magnetization 

 Free energy of the ion-electron system (eV)
  ---------------------------------------------------
  alpha Z        PSCENC =       410.59993510
  Ewald energy   TEWEN  =     -3825.93184368
  -1/2 Hartree   DENC   =      -529.55712152
  -V(xc)+E(xc)   XCENC  =        59.97000211
  PAW double counting   =      2990.61254974    -2898.25794382
  entropy T*S    EENTRO =        -0.01803508
  eigenvalues    EBANDS =       434.13468254
  atomic energy  EATOM  =      3708.31045775
  ---------------------------------------------------
  free energy    TOTEN  =       349.86268314 eV

  energy without entropy =      349.88071822  energy(sigma->0) =      349.87170068


--------------------------------------------------------------------------------------------------------




----------------------------------------- Iteration    1(   2)  ---------------------------------------


      LOOP:  VPU time    2.94: CPU time    2.93

 eigenvalue-minimisations  :   534
 total energy-change (2. order) :-0.3462542E+03  (-0.3337978E+03)
 number of electron   44.0000000 magnetization 
 augmentation part    44.0000000 magnetization 

 Free energy of the ion-electron system (eV)
  ---------------------------------------------------
  alpha Z        PSCENC =       410.59993510
  Ewald energy   TEWEN  =     -3825.93184368
  -1/2 Hartree   DENC   =      -529.55712152
  -V(xc)+E(xc)   XCENC  =        59.97000211
  PAW double counting   =      2990.61254974    -2898.25794382
  entropy T*S    EENTRO =        -0.00805337
  eigenvalues    EBANDS =        87.87048320
  atomic energy  EATOM  =      3708.31045775
  ---------------------------------------------------
  free energy    TOTEN  =         3.60846551 eV

  energy without entropy =        3.61651888  energy(sigma->0) =        3.61249220


--------------------------------------------------------------------------------------------------------




----------------------------------------- Iteration    1(   3)  ---------------------------------------


      LOOP:  VPU time    3.23: CPU time    3.22

 eigenvalue-minimisations  :   616
 total energy-change (2. order) :-0.1701711E+02  (-0.1637828E+02)
 number of electron   44.0000000 magnetization 
 augmentation part    44.0000000 magnetization 

 Free energy of the ion-electron system (eV)
  ---------------------------------------------------
  alpha Z        PSCENC =       410.59993510
  Ewald energy   TEWEN  =     -3825.93184368
  -1/2 Hartree   DENC   =      -529.55712152
  -V(xc)+E(xc)   XCENC  =        59.97000211
  PAW double counting   =      2990.61254974    -2898.25794382
  entropy T*S    EENTRO =        -0.02123400
  eigenvalues    EBANDS =        70.86654935
  atomic energy  EATOM  =      3708.31045775
  ---------------------------------------------------
  free energy    TOTEN  =       -13.40864897 eV

  energy without entropy =      -13.38741497  energy(sigma->0) =      -13.39803197


--------------------------------------------------------------------------------------------------------




----------------------------------------- Iteration    1(   4)  ---------------------------------------


      LOOP:  VPU time    3.00: CPU time    2.87

 eigenvalue-minimisations  :   556
 total energy-change (2. order) :-0.3526163E+00  (-0.3515757E+00)
 number of electron   44.0000000 magnetization 
 augmentation part    44.0000000 magnetization 

 Free energy of the ion-electron system (eV)
  ---------------------------------------------------
  alpha Z        PSCENC =       410.59993510
  Ewald energy   TEWEN  =     -3825.93184368
  -1/2 Hartree   DENC   =      -529.55712152
  -V(xc)+E(xc)   XCENC  =        59.97000211
  PAW double counting   =      2990.61254974    -2898.25794382
  entropy T*S    EENTRO =        -0.02169988
  eigenvalues    EBANDS =        70.51439890
  atomic energy  EATOM  =      3708.31045775
  ---------------------------------------------------
  free energy    TOTEN  =       -13.76126530 eV

  energy without entropy =      -13.73956542  energy(sigma->0) =      -13.75041536


--------------------------------------------------------------------------------------------------------




----------------------------------------- Iteration    1(   5)  ---------------------------------------


      LOOP:  VPU time    3.29: CPU time    3.18

 eigenvalue-minimisations  :   580
 total energy-change (2. order) :-0.6040511E-02  (-0.6039735E-02)
 number of electron   43.9999947 magnetization 
 augmentation part    15.4986746 magnetization 

 Broyden mixing:
  rms(total) = 0.57562E+00    rms(broyden)= 0.57562E+00
  rms(prec ) = 0.14546E+01
  weight for this iteration     100.00

 Free energy of the ion-electron system (eV)
  ---------------------------------------------------
  alpha Z        PSCENC =       410.59993510
  Ewald energy   TEWEN  =     -3825.93184368
  -1/2 Hartree   DENC   =      -529.55712152
  -V(xc)+E(xc)   XCENC  =        59.97000211
  PAW double counting   =      2990.61254974    -2898.25794382
  entropy T*S    EENTRO =        -0.02170626
  eigenvalues    EBANDS =        70.50836477
  atomic energy  EATOM  =      3708.31045775
  ---------------------------------------------------
  free energy    TOTEN  =       -13.76730581 eV

  energy without entropy =      -13.74559955  energy(sigma->0) =      -13.75645268


--------------------------------------------------------------------------------------------------------




----------------------------------------- Iteration    1(   6)  ---------------------------------------


      LOOP:  VPU time    3.36: CPU time    3.36

 eigenvalue-minimisations  :   520
 total energy-change (2. order) : 0.9411505E+00  (-0.2684962E+00)
 number of electron   43.9999946 magnetization 
 augmentation part    16.0398739 magnetization 

 Broyden mixing:
  rms(total) = 0.15013E+00    rms(broyden)= 0.15010E+00
  rms(prec ) = 0.36084E+00
  weight for this iteration     100.00

 eigenvalues of (default mixing * dielectric matrix)
  average eigenvalue GAMMA=   1.2212
  1.2212

 Free energy of the ion-electron system (eV)
  ---------------------------------------------------
  alpha Z        PSCENC =       410.59993510
  Ewald energy   TEWEN  =     -3825.93184368
  -1/2 Hartree   DENC   =      -498.67483972
  -V(xc)+E(xc)   XCENC  =        58.55596050
  PAW double counting   =      2958.99287237    -2871.16804578
  entropy T*S    EENTRO =        -0.00985041
  eigenvalues    EBANDS =        46.49919858
  atomic energy  EATOM  =      3708.31045775
  ---------------------------------------------------
  free energy    TOTEN  =       -12.82615529 eV

  energy without entropy =      -12.81630488  energy(sigma->0) =      -12.82123008


--------------------------------------------------------------------------------------------------------




----------------------------------------- Iteration    1(   7)  ---------------------------------------


      LOOP:  VPU time    3.38: CPU time    3.43

 eigenvalue-minimisations  :   524
 total energy-change (2. order) : 0.5155518E-01  (-0.2885639E-01)
 number of electron   43.9999946 magnetization 
 augmentation part    16.1757605 magnetization 

 Broyden mixing:
  rms(total) = 0.58059E-01    rms(broyden)= 0.58046E-01
  rms(prec ) = 0.83496E-01
  weight for this iteration     100.00

 eigenvalues of (default mixing * dielectric matrix)
  average eigenvalue GAMMA=   1.7377
  1.2488  2.2266

 Free energy of the ion-electron system (eV)
  ---------------------------------------------------
  alpha Z        PSCENC =       410.59993510
  Ewald energy   TEWEN  =     -3825.93184368
  -1/2 Hartree   DENC   =      -489.39298267
  -V(xc)+E(xc)   XCENC  =        58.11579049
  PAW double counting   =      2965.95596677    -2880.92861916
  entropy T*S    EENTRO =        -0.00603860
  eigenvalues    EBANDS =        40.50273390
  atomic energy  EATOM  =      3708.31045775
  ---------------------------------------------------
  free energy    TOTEN  =       -12.77460011 eV

  energy without entropy =      -12.76856151  energy(sigma->0) =      -12.77158081


--------------------------------------------------------------------------------------------------------




----------------------------------------- Iteration    1(   8)  ---------------------------------------


      LOOP:  VPU time    3.39: CPU time    3.41

 eigenvalue-minimisations  :   524
 total energy-change (2. order) : 0.1198958E-01  (-0.1234223E-02)
 number of electron   43.9999946 magnetization 
 augmentation part    16.1579662 magnetization 

 Broyden mixing:
  rms(total) = 0.84251E-02    rms(broyden)= 0.84229E-02
  rms(prec ) = 0.21263E-01
  weight for this iteration     100.00

 eigenvalues of (default mixing * dielectric matrix)
  average eigenvalue GAMMA=   1.7207
  2.6408  1.2607  1.2607

 Free energy of the ion-electron system (eV)
  ---------------------------------------------------
  alpha Z        PSCENC =       410.59993510
  Ewald energy   TEWEN  =     -3825.93184368
  -1/2 Hartree   DENC   =      -487.94109579
  -V(xc)+E(xc)   XCENC  =        58.02768546
  PAW double counting   =      2989.56926785    -2906.56982620
  entropy T*S    EENTRO =        -0.00648348
  eigenvalues    EBANDS =        41.17929247
  atomic energy  EATOM  =      3708.31045775
  ---------------------------------------------------
  free energy    TOTEN  =       -12.76261052 eV

  energy without entropy =      -12.75612705  energy(sigma->0) =      -12.75936878


--------------------------------------------------------------------------------------------------------




----------------------------------------- Iteration    1(   9)  ---------------------------------------


      LOOP:  VPU time    3.34: CPU time    3.34

 eigenvalue-minimisations  :   511
 total energy-change (2. order) : 0.9582708E-04  (-0.1514769E-03)
 number of electron   43.9999946 magnetization 
 augmentation part    16.1680220 magnetization 

 Broyden mixing:
  rms(total) = 0.28108E-02    rms(broyden)= 0.28099E-02
  rms(prec ) = 0.53181E-02
  weight for this iteration     100.00

 eigenvalues of (default mixing * dielectric matrix)
  average eigenvalue GAMMA=   1.8637
  1.1544  1.0430  2.6847  2.5728

 Free energy of the ion-electron system (eV)
  ---------------------------------------------------
  alpha Z        PSCENC =       410.59993510
  Ewald energy   TEWEN  =     -3825.93184368
  -1/2 Hartree   DENC   =      -487.12360959
  -V(xc)+E(xc)   XCENC  =        57.98807850
  PAW double counting   =      2992.55568481    -2909.81720945
  entropy T*S    EENTRO =        -0.00620123
  eigenvalues    EBANDS =        40.66219310
  atomic energy  EATOM  =      3708.31045775
  ---------------------------------------------------
  free energy    TOTEN  =       -12.76251470 eV

  energy without entropy =      -12.75631347  energy(sigma->0) =      -12.75941408


--------------------------------------------------------------------------------------------------------




----------------------------------------- Iteration    1(  10)  ---------------------------------------


      LOOP:  VPU time    2.17: CPU time    2.18

 eigenvalue-minimisations  :   273
 total energy-change (2. order) :-0.5323122E-06  (-0.5769818E-05)
 number of electron   43.9999946 magnetization 
 augmentation part    16.1680220 magnetization 

 Free energy of the ion-electron system (eV)
  ---------------------------------------------------
  alpha Z        PSCENC =       410.59993510
  Ewald energy   TEWEN  =     -3825.93184368
  -1/2 Hartree   DENC   =      -487.25509184
  -V(xc)+E(xc)   XCENC  =        57.99383794
  PAW double counting   =      2993.68066477    -2910.82245160
  entropy T*S    EENTRO =        -0.00621728
  eigenvalues    EBANDS =        40.66819361
  atomic energy  EATOM  =      3708.31045775
  ---------------------------------------------------
  free energy    TOTEN  =       -12.76251523 eV

  energy without entropy =      -12.75629795  energy(sigma->0) =      -12.75940659


--------------------------------------------------------------------------------------------------------




 average (electrostatic) potential at core
  the test charge radii are     1.2098
  (the norm of the test charge is              1.0000)
       1 -46.1476       2 -46.1476       3 -46.1476       4 -46.1476



 E-fermi :   4.7986     XC(G=0): -12.3428     alpha+bet : -9.5478
   add alpha+bet to get absolut eigen values

 k-point   1 :       0.0833    0.0833    0.0833
  band No.  band energies     occupation 
      1      -4.0482      2.00000
      2      -1.4927      2.00000
      3      -1.4927      2.00000
      4      -1.4927      2.00000
      5      -1.2254      2.00000
      6      -1.2254      2.00000
      7      -1.2254      2.00000
      8       0.4378      2.00000
      9       0.5763      2.00000
     10       0.5763      2.00000
     11       1.8261      2.00000
     12       1.8261      2.00000
     13       2.7137      2.00000
     14       2.7137      2.00000
     15       2.7137      2.00000
     16       2.7300      2.00000
     17       2.7300      2.00000
     18       2.7300      2.00000
     19       3.1348      2.00000
     20       3.1348      2.00000
     21       3.1348      2.00000
     22       6.0724      0.00000
     23       6.0724      0.00000
     24       6.0724      0.00000
     25      10.7670      0.00000
     26      10.7670      0.00000

 k-point   2 :       0.2500    0.0833    0.0833
  band No.  band energies     occupation 
      1      -3.4659      2.00000
      2      -1.3432      2.00000
      3      -1.1703      2.00000
      4      -1.1703      2.00000
      5      -1.0218      2.00000
      6      -0.8737      2.00000
      7      -0.8737      2.00000
      8       0.2052      2.00000
      9       0.7909      2.00000
     10       0.7977      2.00000
     11       1.5809      2.00000
     12       1.6373      2.00000
     13       1.6373      2.00000
     14       1.9841      2.00000
     15       2.0079      2.00000
     16       2.3667      2.00000
     17       2.3882      2.00000
     18       2.3882      2.00000
     19       2.9168      2.00000
     20       3.0954      2.00000
     21       3.0954      2.00000
     22       3.8918      2.00000
     23       7.3829      0.00000
     24       7.3829      0.00000
     25      10.3367      0.00000
     26      10.3367      0.00000

 k-point   3 :       0.4167    0.0833    0.0833
  band No.  band energies     occupation 
      1      -2.4283      2.00000
      2      -1.4701      2.00000
      3      -0.6597      2.00000
      4      -0.6597      2.00000
      5      -0.6573      2.00000
      6      -0.2973      2.00000
      7      -0.2973      2.00000
      8      -0.2106      2.00000
      9       0.5471      2.00000
     10       0.5471      2.00000
     11       0.9370      2.00000
     12       1.0664      2.00000
     13       1.2216      2.00000
     14       1.6011      2.00000
     15       1.7900      2.00000
     16       1.8728      2.00000
     17       1.8728      2.00000
     18       2.2639      2.00000
     19       2.4127      2.00000
     20       2.6004      2.00000
     21       3.0802      2.00000
     22       3.0802      2.00000
     23       8.4980      0.00000
     24       8.4980      0.00000
     25      10.1945      0.00000
     26      10.1945      0.00000

 k-point   4 :       0.2500    0.2500    0.0833
  band No.  band energies     occupation 
      1      -2.9463      2.00000
      2      -1.0573      2.00000
      3      -1.0289      2.00000
      4      -1.0289      2.00000
      5      -0.6712      2.00000
      6      -0.6712      2.00000
      7      -0.4640      2.00000
      8       0.1815      2.00000
      9       0.8099      2.00000
     10       0.8601      2.00000
     11       0.9945      2.00000
     12       0.9945      2.00000
     13       1.2490      2.00000
     14       1.5866      2.00000
     15       2.0325      2.00000
     16       2.1341      2.00000
     17       2.1553      2.00000
     18       2.1553      2.00000
     19       2.8396      2.00000
     20       2.8396      2.00000
     21       2.8730      2.00000
     22       5.0930      0.00003
     23       5.0930      0.00003
     24       8.1754      0.00000
     25       9.2705      0.00000
     26      12.3097      0.00000

 k-point   5 :       0.4167    0.2500    0.0833
  band No.  band energies     occupation 
      1      -2.0345      2.00000
      2      -1.1654      2.00000
      3      -0.6855      2.00000
      4      -0.5135      2.00000
      5      -0.3518      2.00000
      6      -0.2166      2.00000
      7      -0.1183      2.00000
      8      -0.0458      2.00000
      9       0.2423      2.00000
     10       0.4932      2.00000
     11       0.5922      2.00000
     12       0.6982      2.00000
     13       1.1423      2.00000
     14       1.6137      2.00000
     15       1.6971      2.00000
     16       1.7241      2.00000
     17       1.8138      2.00000
     18       2.3565      2.00000
     19       2.6506      2.00000
     20       2.7091      2.00000
     21       2.7153      2.00000
     22       3.4901      2.00000
     23       6.3319      0.00000
     24       7.4864      0.00000
     25       9.8346      0.00000
     26      10.9396      0.00000

 k-point   6 :       0.4167    0.4167    0.0833
  band No.  band energies     occupation 
      1      -1.4148      2.00000
      2      -0.8251      2.00000
      3      -0.8251      2.00000
      4      -0.7213      2.00000
      5       0.0897      2.00000
      6       0.1165      2.00000
      7       0.1165      2.00000
      8       0.1268      2.00000
      9       0.2408      2.00000
     10       0.2408      2.00000
     11       0.5890      2.00000
     12       0.5969      2.00000
     13       1.1076      2.00000
     14       1.3854      2.00000
     15       1.4182      2.00000
     16       1.4182      2.00000
     17       1.7213      2.00000
     18       2.1855      2.00000
     19       2.1855      2.00000
     20       2.3229      2.00000
     21       3.4671      2.00000
     22       4.5935      1.99627
     23       4.5935      1.99627
     24       5.8496      0.00000
     25      10.8539      0.00000
     26      12.2516      0.00000

 k-point   7 :       0.2500    0.2500    0.2500
  band No.  band energies     occupation 
      1      -2.5719      2.00000
      2      -1.0659      2.00000
      3      -1.0659      2.00000
      4      -1.0659      2.00000
      5      -0.2270      2.00000
      6      -0.2270      2.00000
      7      -0.2270      2.00000
      8       0.4195      2.00000
      9       0.7573      2.00000
     10       0.7573      2.00000
     11       0.8570      2.00000
     12       0.8570      2.00000
     13       0.8570      2.00000
     14       1.5717      2.00000
     15       1.5717      2.00000
     16       1.5717      2.00000
     17       2.0123      2.00000
     18       2.0123      2.00000
     19       3.0067      2.00000
     20       3.0067      2.00000
     21       3.0067      2.00000
     22       5.8372      0.00000
     23       5.8372      0.00000
     24       5.8372      0.00000
     25      10.1329      0.00000
     26      10.1329      0.00000

 k-point   8 :       0.4167    0.2500    0.2500
  band No.  band energies     occupation 
      1      -1.9543      2.00000
      2      -1.3518      2.00000
      3      -0.9569      2.00000
      4      -0.9569      2.00000
      5      -0.0459      2.00000
      6      -0.0459      2.00000
      7       0.2236      2.00000
      8       0.5082      2.00000
      9       0.5428      2.00000
     10       0.6561      2.00000
     11       0.8277      2.00000
     12       0.8657      2.00000
     13       0.8657      2.00000
     14       1.1162      2.00000
     15       1.3206      2.00000
     16       1.3206      2.00000
     17       2.3527      2.00000
     18       2.5092      2.00000
     19       2.8520      2.00000
     20       2.8520      2.00000
     21       2.8857      2.00000
     22       3.7257      2.00000
     23       6.9495      0.00000
     24       6.9495      0.00000
     25       8.3319      0.00000
     26       8.3319      0.00000

 k-point   9 :       0.4167    0.4167    0.2500
  band No.  band energies     occupation 
      1      -1.7455      2.00000
      2      -1.3920      2.00000
      3      -1.3920      2.00000
      4      -1.2618      2.00000
      5       0.1633      2.00000
      6       0.2657      2.00000
      7       0.2657      2.00000
      8       0.5281      2.00000
      9       0.7008      2.00000
     10       0.8739      2.00000
     11       0.8739      2.00000
     12       0.9372      2.00000
     13       1.2443      2.00000
     14       1.2443      2.00000
     15       1.2943      2.00000
     16       1.3952      2.00000
     17       2.3166      2.00000
     18       2.7304      2.00000
     19       2.7304      2.00000
     20       2.7369      2.00000
     21       3.2561      2.00000
     22       4.6819      1.90098
     23       4.6819      1.90098
     24       6.1174      0.00000
     25       8.1796      0.00000
     26       9.7028      0.00000

 k-point  10 :       0.4167    0.4167    0.4167
  band No.  band energies     occupation 
      1      -1.8705      2.00000
      2      -1.7003      2.00000
      3      -1.7003      2.00000
      4      -1.7003      2.00000
      5       0.3789      2.00000
      6       0.3789      2.00000
      7       0.3789      2.00000
      8       0.5223      2.00000
      9       0.5223      2.00000
     10       0.6088      2.00000
     11       0.6088      2.00000
     12       0.6088      2.00000
     13       2.1735      2.00000
     14       2.1735      2.00000
     15       2.1735      2.00000
     16       2.7792      2.00000
     17       2.7792      2.00000
     18       2.9314      2.00000
     19       2.9376      2.00000
     20       2.9376      2.00000
     21       2.9376      2.00000
     22       4.8881      0.20544
     23       4.8881      0.20544
     24       4.8881      0.20544
     25       7.9074      0.00000
     26       7.9074      0.00000


--------------------------------------------------------------------------------------------------------


 soft charge-density along one line, spin component                        1
         0         1         2         3         4         5         6         7         8         9
x    27.8320    0.0000    2.3108    0.0000   -0.9499    0.0000    0.1386    0.0000    0.0172    0.0000
x     0.0000
y    27.8320    0.0000    0.0000    0.0000    0.0000    0.0000    0.0000    0.0000    0.0056    0.0872
y    -1.2284
z    27.8320    0.0000    0.0000   -0.0003   -0.0005    0.0000    0.0000    0.0000    0.0000    0.0000
z     0.0000
 total charge-density along one line
x    44.0000    0.0000   11.6433    0.0000    0.3168    0.0000    0.0891    0.0000    0.0292    0.0000
x    -0.0023    0.0000    0.0002    0.0000    0.0002    0.0000   -0.0003    0.0000    0.0002    0.0000
x    -0.0002
y    44.0000    0.0000   11.6433    0.0000    0.3168    0.0000    0.0891    0.0000    0.0292    0.0000
y    -0.0023    0.0000    0.0002    0.0000    0.0002    0.0000   -0.0003    0.0000    0.0002    0.0000
y    -0.0002
z    44.0000    0.0000   11.6433    0.0000    0.3168    0.0000    0.0891    0.0000    0.0292    0.0000
z    -0.0023    0.0000    0.0002    0.0000    0.0002    0.0000   -0.0003    0.0000    0.0002    0.0000
z    -0.0002

 pseudopotential strength for first ion, spin component: 
                        1
-10.058   0.000   0.000   0.000   0.000  -0.066   0.000   0.000
  0.000 -10.058   0.000   0.000   0.000   0.000  -0.066   0.000
  0.000   0.000 -10.044   0.000   0.000   0.000   0.000  -0.068
  0.000   0.000   0.000 -10.058   0.000   0.000   0.000   0.000
  0.000   0.000   0.000   0.000 -10.044   0.000   0.000   0.000
 -0.066   0.000   0.000   0.000   0.000   0.280   0.000   0.000
  0.000  -0.066   0.000   0.000   0.000   0.000   0.280   0.000
  0.000   0.000  -0.068   0.000   0.000   0.000   0.000   0.280
  0.000   0.000   0.000  -0.066   0.000   0.000   0.000   0.000
  0.000   0.000   0.000   0.000  -0.068   0.000   0.000   0.000
  0.000   0.000   0.000   0.000   0.000   0.000   0.000   0.000
  0.000   0.000   0.000   0.000   0.000   0.000   0.000   0.000
  0.000   0.000   0.000   0.000   0.000   0.000   0.000   0.000
  0.000   0.000   0.000   0.000   0.000   0.000   0.000   0.000
  0.000   0.000   0.000   0.000   0.000   0.000   0.000   0.000
  0.000   0.000   0.000   0.000   0.000   0.000   0.000   0.000
  0.000   0.000   0.000   0.000   0.000   0.000   0.000   0.000
  0.000   0.000   0.000   0.000   0.000   0.000   0.000   0.000
 total augmentation occupancy for first ion, spin component: 
                        1
  1.855  -0.018  -0.001  -0.008  -0.012  -0.033   0.017  -0.030   0.008   0.012   0.015  -0.024   0.000   0.000   0.000   0.000
 -0.018   1.955   0.000  -0.020  -0.002   0.017  -0.094   0.007   0.022  -0.015   0.072   0.007   0.000   0.000   0.000   0.000
 -0.001   0.000   1.924   0.007  -0.019  -0.030   0.007  -0.067  -0.001   0.020  -0.077  -0.068   0.000   0.000   0.000   0.000
 -0.008  -0.020   0.007   1.918  -0.003   0.008   0.022  -0.001  -0.034   0.019   0.041  -0.003   0.000   0.000   0.000   0.000
 -0.012  -0.002  -0.019  -0.003   1.985   0.012  -0.015   0.020   0.019  -0.119   0.089   0.040   0.000   0.000   0.000   0.000
 -0.033   0.017  -0.030   0.008   0.012   0.216  -0.010   0.056  -0.005  -0.009   0.045   0.050   0.000   0.000   0.000   0.000
  0.017  -0.094   0.007   0.022  -0.015  -0.010   0.193  -0.012  -0.015   0.029  -0.024   0.024   0.000   0.000   0.000   0.000
 -0.030   0.007  -0.067  -0.001   0.020   0.056  -0.012   0.168  -0.005   0.004   0.126   0.006   0.000   0.000   0.000   0.000
  0.008   0.022  -0.001  -0.034   0.019  -0.005  -0.015  -0.005   0.137  -0.031   0.000   0.026   0.000   0.000   0.000   0.000
  0.012  -0.015   0.020   0.019  -0.119  -0.009   0.029   0.004  -0.031   0.119  -0.080   0.018   0.000   0.000   0.000   0.000
  0.015   0.072  -0.077   0.041   0.089   0.045  -0.024   0.126   0.000  -0.080   1.054  -0.347   0.000   0.000   0.000   0.000
 -0.024   0.007  -0.068  -0.003   0.040   0.050   0.024   0.006   0.026   0.018  -0.347   0.220   0.000   0.000   0.000   0.000
  0.000   0.000   0.000   0.000   0.000   0.000   0.000   0.000   0.000   0.000   0.000   0.000   0.132   0.014  -0.009  -0.010
  0.000   0.000   0.000   0.000   0.000   0.000   0.000   0.000   0.000   0.000   0.000   0.000   0.014   0.107   0.004  -0.001
  0.000   0.000   0.000   0.000   0.000   0.000   0.000   0.000   0.000   0.000   0.000   0.000  -0.009   0.004   0.179  -0.001
  0.000   0.000   0.000   0.000   0.000   0.000   0.000   0.000   0.000   0.000   0.000   0.000  -0.010  -0.001  -0.001   0.001
  0.000   0.000   0.000   0.000   0.000   0.000   0.000   0.000   0.000   0.000   0.000   0.000  -0.001  -0.008  -0.001   0.000
  0.000   0.000   0.000   0.000   0.000   0.000   0.000   0.000   0.000   0.000   0.000   0.000  -0.001  -0.001  -0.013   0.000


------------------------ aborting loop because EDIFF is reached ----------------------------------------




--------------------------------------------------------------------------------------------------------




--------------------------------------------------------------------------------------------------------



  FREE ENERGIE OF THE ION-ELECTRON SYSTEM (eV)
  ---------------------------------------------------
  free  energy   TOTEN  =       -12.762515 eV

  energy  without entropy=      -12.756298  energy(sigma->0) =      -12.759407


  FORCE on cell =-STRESS in cart. coord.  units (eV/reduce length):
  Direction    X        Y        Z        XY       YZ       ZX
  --------------------------------------------------------------------------------------
  Alpha Z    410.60    410.60    410.60
  Ewald    -1275.31  -1275.31  -1275.31      0.00      0.00      0.00
  Hartree    162.49    162.49    162.49      0.00      0.00      0.00
  E(xc)     -198.64   -198.64   -198.64      0.00      0.00      0.00
  Local      318.94    318.94    318.94      0.00      0.00      0.00
  n-local   -189.50   -204.34   -210.22      0.70      5.59      3.20
  augment    171.13    171.13    171.13      0.00      0.00      0.00
  Kinetic    615.76    613.14    607.64     -5.81     -2.39     -3.19
  -------------------------------------------------------------------------------------
  Total        0.03      0.03      0.03      0.00      0.00      0.00
  in kB        0.61      0.61      0.61      0.00      0.00      0.00
  external pressure =        0.61 kB  Pullay stress =        0.00 kB


 VOLUME and BASIS-vectors are now :
 -----------------------------------------------------------------------------
  energy-cutoff  :      350.00
  volume of cell :       72.83
      direct lattice vectors                 reciprocal lattice vectors
     4.176000000  0.000000000  0.000000000     0.239463602  0.000000000  0.000000000
     0.000000000  4.176000000  0.000000000     0.000000000  0.239463602  0.000000000
     0.000000000  0.000000000  4.176000000     0.000000000  0.000000000  0.239463602

  length of vectors
     4.176000000  4.176000000  4.176000000     0.239463602  0.239463602  0.239463602


 FORCES acting on ions
    electron-ion (+dipol)            ewald-force                    non-local-force                 convergence-correction
 -----------------------------------------------------------------------------------------------
   -.205E-13 0.300E-13 0.240E-13   0.241E-14 -.134E-13 -.793E-14   -.212E-21 0.159E-21 0.265E-21   -.914E-14 -.276E-13 -.360E-13
   -.852E-13 -.380E-13 0.237E-13   0.459E-14 -.134E-13 -.790E-14   0.000E+00 -.106E-21 -.265E-21   0.760E-14 -.193E-13 -.305E-13
   -.886E-13 0.318E-13 -.509E-13   0.297E-14 0.118E-13 0.899E-14   0.132E-21 0.159E-21 -.238E-21   0.574E-14 -.267E-13 0.393E-13
   -.209E-13 -.345E-13 -.507E-13   -.117E-13 0.118E-13 0.902E-14   0.265E-22 0.106E-21 0.106E-21   -.141E-13 -.723E-14 0.360E-13
 -----------------------------------------------------------------------------------------------
   -.215E-12 -.107E-13 -.539E-13   -.175E-14 -.331E-14 0.217E-14   -.529E-22 0.318E-21 -.132E-21   -.988E-14 -.809E-13 0.879E-14


 POSITION                                       TOTAL-FORCE (eV/Angst)
 -----------------------------------------------------------------------------------
      0.00000      0.00000      0.00000         0.000000      0.000000      0.000000
      2.08800      2.08800      0.00000         0.000000      0.000000      0.000000
      2.08800      0.00000      2.08800         0.000000      0.000000      0.000000
      0.00000      2.08800      2.08800         0.000000      0.000000      0.000000
 -----------------------------------------------------------------------------------
    total drift:                                0.000000      0.000000      0.000000


--------------------------------------------------------------------------------------------------------


 Finite differences:
   Step               POTIM =    0.3500000000000000     
   Degrees of freedom DOF   =                        12
  LATTYP: Found a simple cubic cell.
 ALAT       =     4.1760000000
  
  Lattice vectors:
  
 A1 = (   4.1760000000,   0.0000000000,   0.0000000000)
 A2 = (   0.0000000000,   4.1760000000,   0.0000000000)
 A3 = (   0.0000000000,   0.0000000000,   4.1760000000)
 Subroutine PRICEL returns:
 Original cell was already a primitive cell.
 

Analysis of symmetry for initial positions (statically):

 Routine SETGRP: Setting up the symmetry group for a 
 simple cubic supercell.


 Subroutine GETGRP returns: Found  8 space group operations
 (whereof  8 operations were pure point group operations)
 out of a pool of 48 trial point group operations.


The static configuration has the point symmetry C_4v.

Analysis of symmetry for dynamics (positions and initial velocities):

 Subroutine DYNSYM returns: Found  8 space group operations
 (whereof  8 operations were pure point group operations)
 out of a pool of  8 trial space group operations
 (whereof  8 operations were pure point group operations)
 and found also     1 'primitive' translations


The dynamic configuration has the point symmetry C_4v.
     LOOP+:  VPU time   34.38: CPU time   34.02


----------------------------------------- Iteration    2(   1)  ---------------------------------------


      LOOP:  VPU time    3.37: CPU time    3.03

 eigenvalue-minimisations  :   520
 total energy-change (2. order) :-0.1117864E+02  (-0.1043386E+03)
 number of electron   43.9999946 magnetization 
 augmentation part    16.0989844 magnetization 

  free energy =  -0.111786448009E+02  energy without entropy=  -0.111690524203E+02


--------------------------------------------------------------------------------------------------------




----------------------------------------- Iteration    2(   2)  ---------------------------------------


      LOOP:  VPU time    3.46: CPU time    3.29

 eigenvalue-minimisations  :   520
 total energy-change (2. order) :-0.1412781E+01  (-0.1605462E+01)
 number of electron   43.9999946 magnetization 
 augmentation part    16.1689212 magnetization 

 eigenvalues of (default mixing * dielectric matrix)
  average eigenvalue GAMMA=   0.6410
  0.6410

  free energy =  -0.125914253350E+02  energy without entropy=  -0.125813756933E+02


--------------------------------------------------------------------------------------------------------




----------------------------------------- Iteration    2(   3)  ---------------------------------------


      LOOP:  VPU time    3.49: CPU time    3.32

 eigenvalue-minimisations  :   529
 total energy-change (2. order) : 0.7086625E-01  (-0.5694145E-01)
 number of electron   43.9999946 magnetization 
 augmentation part    16.1735389 magnetization 

 eigenvalues of (default mixing * dielectric matrix)
  average eigenvalue GAMMA=   0.7348
  0.7348  0.7348

  free energy =  -0.125205590892E+02  energy without entropy=  -0.125124969926E+02


--------------------------------------------------------------------------------------------------------




----------------------------------------- Iteration    2(   4)  ---------------------------------------


      LOOP:  VPU time    3.41: CPU time    3.39

 eigenvalue-minimisations  :   523
 total energy-change (2. order) : 0.3295636E-01  (-0.5816845E-02)
 number of electron   43.9999946 magnetization 
 augmentation part    16.1528724 magnetization 

 eigenvalues of (default mixing * dielectric matrix)
  average eigenvalue GAMMA=   1.2311
  1.7411  0.9761  0.9761

  free energy =  -0.124876027319E+02  energy without entropy=  -0.124795246358E+02


--------------------------------------------------------------------------------------------------------




----------------------------------------- Iteration    2(   5)  ---------------------------------------


      LOOP:  VPU time    3.29: CPU time    3.28

 eigenvalue-minimisations  :   520
 total energy-change (2. order) : 0.2224418E-01  (-0.1372089E-01)
 number of electron   43.9999947 magnetization 
 augmentation part    16.1473810 magnetization 

 eigenvalues of (default mixing * dielectric matrix)
  average eigenvalue GAMMA=   1.1837
  2.0388  0.8789  0.8789  0.9382

  free energy =  -0.124653585483E+02  energy without entropy=  -0.124570616012E+02


--------------------------------------------------------------------------------------------------------




----------------------------------------- Iteration    2(   6)  ---------------------------------------


      LOOP:  VPU time    3.41: CPU time    3.38

 eigenvalue-minimisations  :   525
 total energy-change (2. order) : 0.9238985E-03  (-0.3934068E-03)
 number of electron   43.9999947 magnetization 
 augmentation part    16.1420187 magnetization 

 eigenvalues of (default mixing * dielectric matrix)
  average eigenvalue GAMMA=   1.3523
  2.3064  1.3151  1.3151  0.9123  0.9123

  free energy =  -0.124644346498E+02  energy without entropy=  -0.124560958828E+02


--------------------------------------------------------------------------------------------------------




----------------------------------------- Iteration    2(   7)  ---------------------------------------


      LOOP:  VPU time    3.28: CPU time    3.26

 eigenvalue-minimisations  :   516
 total energy-change (2. order) : 0.2450111E-03  (-0.1790329E-03)
 number of electron   43.9999947 magnetization 
 augmentation part    16.1407130 magnetization 

 eigenvalues of (default mixing * dielectric matrix)
  average eigenvalue GAMMA=   1.3218
  2.4707  1.3310  1.3310  0.8752  0.8752  1.0479

  free energy =  -0.124641896387E+02  energy without entropy=  -0.124558159428E+02


--------------------------------------------------------------------------------------------------------




----------------------------------------- Iteration    2(   8)  ---------------------------------------


      LOOP:  VPU time    2.17: CPU time    2.17

 eigenvalue-minimisations  :   289
 total energy-change (2. order) : 0.3734564E-05  (-0.9955361E-05)
 number of electron   43.9999947 magnetization 
 augmentation part    16.1407130 magnetization 

  free energy =  -0.124641859041E+02  energy without entropy=  -0.124558266322E+02


--------------------------------------------------------------------------------------------------------




 average (electrostatic) potential at core
  the test charge radii are     1.2098
  (the norm of the test charge is              1.0000)
       1 -46.2328       2 -46.1756       3 -46.1756       4 -46.1209



 E-fermi :   4.8249     XC(G=0): -12.3223     alpha+bet : -9.5478
   add alpha+bet to get absolut eigen values

 k-point   1 :       0.0833    0.0833    0.0833
  band No.  band energies     occupation 
      1      -4.0880      2.00000
      2      -1.6456      2.00000
      3      -1.5444      2.00000
      4      -1.4882      2.00000
      5      -1.3922      2.00000
      6      -1.2541      2.00000
      7      -1.2233      2.00000
      8       0.3509      2.00000
      9       0.4444      2.00000
     10       0.6289      2.00000
     11       1.5157      2.00000
     12       1.9023      2.00000
     13       2.3166      2.00000
     14       2.6164      2.00000
     15       2.6275      2.00000
     16       2.6726      2.00000
     17       2.8166      2.00000
     18       2.9701      2.00000
     19       3.0727      2.00000
     20       3.0954      2.00000
     21       3.1352      2.00000
     22       5.9746      0.00000
     23       6.0820      0.00000
     24       6.3714      0.00000
     25      10.6551      0.00000
     26      10.8584      0.00000

 k-point   2 :       0.2500    0.0833    0.0833
  band No.  band energies     occupation 
      1      -3.5320      2.00000
      2      -1.4378      2.00000
      3      -1.2662      2.00000
      4      -1.2397      2.00000
      5      -1.1921      2.00000
      6      -0.9427      2.00000
      7      -0.9369      2.00000
      8       0.2684      2.00000
      9       0.6153      2.00000
     10       0.6361      2.00000
     11       1.4761      2.00000
     12       1.5533      2.00000
     13       1.7313      2.00000
     14       1.8686      2.00000
     15       1.9402      2.00000
     16       2.3120      2.00000
     17       2.5225      2.00000
     18       2.5764      2.00000
     19       2.9143      2.00000
     20       2.9434      2.00000
     21       3.0340      2.00000
     22       4.0509      2.00000
     23       7.3687      0.00000
     24       7.3758      0.00000
     25      10.3734      0.00000
     26      10.4532      0.00000

 k-point   3 :       0.4167    0.0833    0.0833
  band No.  band energies     occupation 
      1      -2.5982      2.00000
      2      -1.4736      2.00000
      3      -0.9410      2.00000
      4      -0.8588      2.00000
      5      -0.7843      2.00000
      6      -0.5122      2.00000
      7      -0.4893      2.00000
      8      -0.0440      2.00000
      9       0.5744      2.00000
     10       0.5951      2.00000
     11       0.7578      2.00000
     12       1.0934      2.00000
     13       1.3181      2.00000
     14       1.5477      2.00000
     15       1.5859      2.00000
     16       1.8963      2.00000
     17       2.1118      2.00000
     18       2.3229      2.00000
     19       2.5664      2.00000
     20       2.6863      2.00000
     21       2.9806      2.00000
     22       3.0098      2.00000
     23       8.5097      0.00000
     24       8.5115      0.00000
     25      10.1481      0.00000
     26      10.2797      0.00000

 k-point   4 :       0.2500    0.2500    0.0833
  band No.  band energies     occupation 
      1      -3.0116      2.00000
      2      -1.2475      2.00000
      3      -1.1315      2.00000
      4      -1.0615      2.00000
      5      -0.8796      2.00000
      6      -0.7429      2.00000
      7      -0.5336      2.00000
      8       0.1745      2.00000
      9       0.5517      2.00000
     10       0.7026      2.00000
     11       0.9017      2.00000
     12       1.0009      2.00000
     13       1.3104      2.00000
     14       1.6607      2.00000
     15       1.8966      2.00000
     16       2.0728      2.00000
     17       2.2689      2.00000
     18       2.4393      2.00000
     19       2.6962      2.00000
     20       2.8402      2.00000
     21       2.9889      2.00000
     22       5.0926      0.00015
     23       5.1281      0.00002
     24       8.2041      0.00000
     25       9.3632      0.00000
     26      12.3336      0.00000

 k-point   5 :       0.4167    0.2500    0.0833
  band No.  band energies     occupation 
      1      -2.1969      2.00000
      2      -1.2633      2.00000
      3      -0.8342      2.00000
      4      -0.6614      2.00000
      5      -0.6208      2.00000
      6      -0.4337      2.00000
      7      -0.3673      2.00000
      8       0.0702      2.00000
      9       0.3030      2.00000
     10       0.4247      2.00000
     11       0.6216      2.00000
     12       0.7897      2.00000
     13       1.1067      2.00000
     14       1.4374      2.00000
     15       1.6789      2.00000
     16       1.8541      2.00000
     17       2.0381      2.00000
     18       2.3433      2.00000
     19       2.5894      2.00000
     20       2.7080      2.00000
     21       2.8487      2.00000
     22       3.5131      2.00000
     23       6.3099      0.00000
     24       7.6651      0.00000
     25       9.7982      0.00000
     26      10.9848      0.00000

 k-point   6 :       0.4167    0.4167    0.0833
  band No.  band energies     occupation 
      1      -1.5784      2.00000
      2      -1.0753      2.00000
      3      -0.8741      2.00000
      4      -0.7681      2.00000
      5      -0.3484      2.00000
      6      -0.2429      2.00000
      7      -0.0393      2.00000
      8       0.1508      2.00000
      9       0.2201      2.00000
     10       0.3464      2.00000
     11       0.4849      2.00000
     12       0.6315      2.00000
     13       1.1393      2.00000
     14       1.3534      2.00000
     15       1.3994      2.00000
     16       1.7045      2.00000
     17       1.7504      2.00000
     18       2.0684      2.00000
     19       2.2700      2.00000
     20       2.6548      2.00000
     21       3.4711      2.00000
     22       4.4702      2.00000
     23       4.7218      1.85542
     24       5.9693      0.00000
     25      10.8361      0.00000
     26      12.2385      0.00000

 k-point   7 :       0.2500    0.2500    0.2500
  band No.  band energies     occupation 
      1      -2.6350      2.00000
      2      -1.2463      2.00000
      3      -1.1661      2.00000
      4      -1.1152      2.00000
      5      -0.4928      2.00000
      6      -0.4127      2.00000
      7      -0.2388      2.00000
      8       0.3572      2.00000
      9       0.5106      2.00000
     10       0.5446      2.00000
     11       0.7824      2.00000
     12       0.8991      2.00000
     13       1.1345      2.00000
     14       1.3160      2.00000
     15       1.5763      2.00000
     16       1.8414      2.00000
     17       2.0818      2.00000
     18       2.2282      2.00000
     19       2.9349      2.00000
     20       2.9609      2.00000
     21       3.0553      2.00000
     22       5.6786      0.00000
     23       5.8517      0.00000
     24       5.9470      0.00000
     25      10.1449      0.00000
     26      10.2721      0.00000

 k-point   8 :       0.4167    0.2500    0.2500
  band No.  band energies     occupation 
      1      -2.0792      2.00000
      2      -1.4790      2.00000
      3      -1.0527      2.00000
      4      -1.0232      2.00000
      5      -0.3573      2.00000
      6      -0.2819      2.00000
      7       0.0989      2.00000
      8       0.3023      2.00000
      9       0.4853      2.00000
     10       0.6080      2.00000
     11       0.7808      2.00000
     12       0.8302      2.00000
     13       1.0480      2.00000
     14       1.1440      2.00000
     15       1.3830      2.00000
     16       1.6663      2.00000
     17       2.2790      2.00000
     18       2.5661      2.00000
     19       2.7969      2.00000
     20       2.8162      2.00000
     21       2.9180      2.00000
     22       3.7680      2.00000
     23       6.8904      0.00000
     24       6.9606      0.00000
     25       8.3962      0.00000
     26       8.4679      0.00000

 k-point   9 :       0.4167    0.4167    0.2500
  band No.  band energies     occupation 
      1      -1.8478      2.00000
      2      -1.5591      2.00000
      3      -1.4088      2.00000
      4      -1.3329      2.00000
      5      -0.1540      2.00000
      6      -0.0109      2.00000
      7       0.2362      2.00000
      8       0.3840      2.00000
      9       0.6019      2.00000
     10       0.7514      2.00000
     11       0.9021      2.00000
     12       0.9368      2.00000
     13       1.0500      2.00000
     14       1.3618      2.00000
     15       1.4925      2.00000
     16       1.6681      2.00000
     17       2.2598      2.00000
     18       2.6074      2.00000
     19       2.7369      2.00000
     20       2.8620      2.00000
     21       3.2753      2.00000
     22       4.6331      1.99334
     23       4.7503      1.70882
     24       6.1992      0.00000
     25       8.1495      0.00000
     26       9.6336      0.00000

 k-point  10 :       0.4167    0.4167    0.4167
  band No.  band energies     occupation 
      1      -1.9500      2.00000
      2      -1.8049      2.00000
      3      -1.7757      2.00000
      4      -1.7332      2.00000
      5       0.0687      2.00000
      6       0.1250      2.00000
      7       0.2916      2.00000
      8       0.4291      2.00000
      9       0.4986      2.00000
     10       0.6180      2.00000
     11       0.6778      2.00000
     12       0.8123      2.00000
     13       1.8645      2.00000
     14       2.1932      2.00000
     15       2.2036      2.00000
     16       2.6564      2.00000
     17       2.7841      2.00000
     18       2.8559      2.00000
     19       2.9152      2.00000
     20       2.9950      2.00000
     21       3.0258      2.00000
     22       4.8019      1.25522
     23       4.9687      0.04202
     24       4.9788      0.02954
     25       7.7371      0.00000
     26       8.0337      0.00000


--------------------------------------------------------------------------------------------------------


 soft charge-density along one line, spin component                        1
         0         1         2         3         4         5         6         7         8         9
x    27.8593   -0.5493    1.7196    0.3937   -0.5841    0.0390    0.0767   -0.0385    0.0118   -0.0003
x     0.0000
y    27.8593   -0.0002   -0.0155   -0.0303   -0.0082    0.0000    0.0000    0.0000    0.0027    0.0448
y    -1.1250
z    27.8593   -0.0337    0.0000   -0.0002   -0.0003    0.0000    0.0000    0.0000    0.0000   -0.0010
z    -0.0098
 total charge-density along one line
x    44.0000   -1.0256    9.9146   -0.7173    0.2553   -0.0281    0.0652   -0.0480    0.0197    0.0009
x    -0.0020   -0.0001    0.0002    0.0000    0.0002   -0.0001   -0.0002    0.0001    0.0001    0.0000
x    -0.0001
y    44.0000   -0.0052   11.7609   -0.0102    0.2801   -0.0028    0.0676   -0.0004    0.0281    0.0000
y    -0.0023    0.0000    0.0002    0.0000    0.0002    0.0000   -0.0003    0.0000    0.0002    0.0000
y    -0.0002
z    44.0000   -0.0052   11.7609   -0.0102    0.2801   -0.0028    0.0676   -0.0004    0.0281    0.0000
z    -0.0023    0.0000    0.0002    0.0000    0.0002    0.0000   -0.0003    0.0000    0.0002    0.0000
z    -0.0002

 pseudopotential strength for first ion, spin component: 
                        1
-10.089   0.000   0.000   0.000   0.000  -0.061   0.000   0.000
  0.000 -10.094   0.000   0.000   0.000   0.000  -0.060   0.000
  0.000   0.000 -10.092   0.000  -0.027   0.000   0.000  -0.061
  0.000   0.000   0.000 -10.089   0.000   0.000   0.000   0.000
  0.000   0.000  -0.027   0.000 -10.061   0.000   0.000   0.004
 -0.061   0.000   0.000   0.000   0.000   0.279   0.000   0.000
  0.000  -0.060   0.000   0.000   0.000   0.000   0.279   0.000
  0.000   0.000  -0.061   0.000   0.004   0.000   0.000   0.279
  0.000   0.000   0.000  -0.061   0.000   0.000   0.000   0.000
  0.000   0.000   0.004   0.000  -0.065   0.000   0.000   0.000
  0.000   0.000   0.006   0.000  -0.011   0.000   0.000   0.000
  0.000   0.000   0.000   0.000   0.000   0.000   0.000   0.000
  0.002   0.000   0.000   0.000   0.000   0.001   0.000   0.000
  0.000   0.000   0.000   0.002   0.000   0.000   0.000   0.000
  0.000   0.000   0.000   0.000   0.000   0.000   0.000  -0.001
  0.001   0.000   0.000   0.000   0.000  -0.001   0.000   0.000
  0.000   0.000   0.000   0.001   0.000   0.000   0.000   0.000
  0.000   0.000  -0.001   0.000   0.002   0.000   0.000   0.000
 total augmentation occupancy for first ion, spin component: 
                        1
  1.849  -0.016  -0.004  -0.004  -0.011  -0.004   0.016  -0.025   0.004   0.010   0.016  -0.021   0.007   0.015  -0.006   0.000
 -0.016   1.965  -0.001  -0.018  -0.002   0.015  -0.093   0.005   0.020  -0.012   0.063   0.006   0.004   0.003  -0.006   0.000
 -0.004  -0.001   1.919   0.007  -0.027  -0.025   0.005  -0.049  -0.002   0.038  -0.064  -0.047   0.001  -0.007   0.000   0.000
 -0.004  -0.018   0.007   1.917  -0.003   0.004   0.020  -0.002  -0.018   0.017   0.037  -0.002   0.012   0.011  -0.005   0.000
 -0.011  -0.002  -0.027  -0.003   1.988   0.010  -0.012   0.037   0.017  -0.120   0.077   0.007   0.010   0.002  -0.003   0.000
 -0.004   0.015  -0.025   0.004   0.010   0.230  -0.009   0.051  -0.002  -0.006   0.040   0.044   0.071  -0.014   0.001  -0.005
  0.016  -0.093   0.005   0.020  -0.012  -0.009   0.208  -0.009  -0.014   0.023  -0.019   0.022  -0.003  -0.003   0.003   0.000
 -0.025   0.005  -0.049  -0.002   0.037   0.051  -0.009   0.198  -0.005   0.005   0.128   0.004   0.001   0.006  -0.020   0.000
  0.004   0.020  -0.002  -0.018   0.017  -0.002  -0.014  -0.005   0.171  -0.028   0.000   0.022  -0.011   0.061   0.002   0.001
  0.010  -0.012   0.038   0.017  -0.120  -0.006   0.023   0.005  -0.028   0.150  -0.091   0.023  -0.008  -0.002   0.029   0.001
  0.016   0.063  -0.064   0.037   0.077   0.040  -0.019   0.128   0.000  -0.091   1.094  -0.374   0.005   0.003   0.074   0.000
 -0.021   0.006  -0.047  -0.002   0.007   0.044   0.022   0.004   0.022   0.023  -0.374   0.237   0.004   0.002  -0.047   0.000
  0.007   0.004   0.001   0.012   0.010   0.071  -0.003   0.001  -0.011  -0.008   0.005   0.004   0.150   0.011  -0.010  -0.011
  0.015   0.003  -0.007   0.011   0.002  -0.014  -0.003   0.006   0.061  -0.002   0.003   0.002   0.011   0.121   0.002  -0.001
 -0.006  -0.006   0.000  -0.005  -0.003   0.001   0.003  -0.020   0.002   0.029   0.074  -0.047  -0.010   0.002   0.188  -0.001
  0.000   0.000   0.000   0.000   0.000  -0.005   0.000   0.000   0.001   0.001   0.000   0.000  -0.011  -0.001  -0.001   0.001
  0.000   0.000   0.000   0.000   0.000   0.001   0.000   0.000  -0.005   0.000   0.000   0.000  -0.001  -0.009  -0.001   0.000
  0.000   0.000  -0.001   0.000   0.002   0.000  -0.001   0.002   0.000  -0.003  -0.007   0.005  -0.001  -0.001  -0.014   0.000


------------------------ aborting loop because EDIFF is reached ----------------------------------------




--------------------------------------------------------------------------------------------------------


 d Force =-0.2942649E+00[-0.589E+00,-0.863E-32]  d Energy =-0.2983293E+00 0.406E-02
 d Force =-0.1796582E+02[-0.359E+02, 0.845E-15]  d Ewald  =-0.1819239E+02 0.227E+00


--------------------------------------------------------------------------------------------------------



  FREE ENERGIE OF THE ION-ELECTRON SYSTEM (eV)
  ---------------------------------------------------
  free  energy   TOTEN  =       -12.464186 eV

  energy  without entropy=      -12.455827  energy(sigma->0) =      -12.460006


  FORCE on cell =-STRESS in cart. coord.  units (eV/reduce length):
  Direction    X        Y        Z        XY       YZ       ZX
  --------------------------------------------------------------------------------------
  Alpha Z    410.60    410.60    410.60
  Ewald    -1308.02  -1249.86  -1249.86      0.00      0.00      0.00
  Hartree    147.75    177.59    177.59      0.00      0.00      0.00
  E(xc)     -199.12   -198.75   -198.75      0.00      0.00      0.00
  Local      357.22    282.39    282.39      0.00      0.00      0.00
  n-local   -188.95   -201.63   -207.30      0.91      4.83      3.01
  augment    171.35    170.65    170.65      0.00      0.00      0.00
  Kinetic    617.07    612.74    607.64     -4.95     -2.08     -2.83
  -------------------------------------------------------------------------------------
  Total        7.90     -1.64     -1.64      0.00      0.00      0.00
  in kB      173.77    -36.13    -36.13      0.00      0.00      0.00
  external pressure =       33.84 kB  Pullay stress =        0.00 kB


 VOLUME and BASIS-vectors are now :
 -----------------------------------------------------------------------------
  energy-cutoff  :      350.00
  volume of cell :       72.83
      direct lattice vectors                 reciprocal lattice vectors
     4.176000000  0.000000000  0.000000000     0.239463602  0.000000000  0.000000000
     0.000000000  4.176000000  0.000000000     0.000000000  0.239463602  0.000000000
     0.000000000  0.000000000  4.176000000     0.000000000  0.000000000  0.239463602

  length of vectors
     4.176000000  4.176000000  4.176000000     0.239463602  0.239463602  0.239463602


 FORCES acting on ions
    electron-ion (+dipol)            ewald-force                    non-local-force                 convergence-correction
 -----------------------------------------------------------------------------------------------
   0.101E+03 0.383E-13 -.517E-14   -.103E+03 -.170E-13 0.496E-14   -.250E-02 0.000E+00 0.000E+00   -.115E+00 -.270E-13 -.218E-13
   -.679E+02 -.221E-13 0.366E-13   0.691E+02 -.575E-14 -.780E-14   -.513E-01 0.000E+00 0.000E+00   -.333E-02 0.468E-14 -.438E-13
   -.679E+02 0.128E-13 0.130E-12   0.691E+02 0.120E-13 0.517E-15   -.513E-01 -.325E-18 -.139E-16   -.333E-02 -.163E-13 0.380E-13
   0.348E+02 -.421E-13 0.492E-13   -.356E+02 0.742E-14 0.449E-14   0.571E-01 0.347E-17 -.347E-17   -.795E-02 -.427E-14 0.200E-13
 -----------------------------------------------------------------------------------------------
   0.181E+00 -.130E-13 0.211E-12   0.000E+00 -.331E-14 0.217E-14   -.480E-01 0.314E-17 -.173E-16   -.130E+00 -.429E-13 -.762E-14


 POSITION                                       TOTAL-FORCE (eV/Angst)
 -----------------------------------------------------------------------------------
      0.35000      0.00000      0.00000        -1.681514      0.000000      0.000000
      2.08800      2.08800      0.00000         1.240497      0.000000      0.000000
      2.08800      0.00000      2.08800         1.240497      0.000000      0.000000
      0.00000      2.08800      2.08800        -0.799480      0.000000      0.000000
 -----------------------------------------------------------------------------------
    total drift:                                0.003363      0.000000      0.000000


--------------------------------------------------------------------------------------------------------


 Finite differences progress:
  Degree of freedom:   1/ 12
  Displacement:        1/  2
  Total:               1/ 24
  LATTYP: Found a simple cubic cell.
 ALAT       =     4.1760000000
  
  Lattice vectors:
  
 A1 = (   4.1760000000,   0.0000000000,   0.0000000000)
 A2 = (   0.0000000000,   4.1760000000,   0.0000000000)
 A3 = (   0.0000000000,   0.0000000000,   4.1760000000)
 Subroutine PRICEL returns:
 Original cell was already a primitive cell.
 

Analysis of symmetry for initial positions (statically):

 Routine SETGRP: Setting up the symmetry group for a 
 simple cubic supercell.


 Subroutine GETGRP returns: Found  8 space group operations
 (whereof  8 operations were pure point group operations)
 out of a pool of 48 trial point group operations.


The static configuration has the point symmetry C_4v.

Analysis of symmetry for dynamics (positions and initial velocities):

 Subroutine DYNSYM returns: Found  8 space group operations
 (whereof  8 operations were pure point group operations)
 out of a pool of  8 trial space group operations
 (whereof  8 operations were pure point group operations)
 and found also     1 'primitive' translations


The dynamic configuration has the point symmetry C_4v.
     LOOP+:  VPU time   29.07: CPU time   28.14


----------------------------------------- Iteration    3(   1)  ---------------------------------------


      LOOP:  VPU time    4.37: CPU time    4.05

 eigenvalue-minimisations  :   752
 total energy-change (2. order) :-0.1425264E+00  (-0.2505838E+03)
 number of electron   43.9999947 magnetization 
 augmentation part    16.1059995 magnetization 

  free energy =  -0.142526361545E+00  energy without entropy=  -0.123985499661E+00


--------------------------------------------------------------------------------------------------------




----------------------------------------- Iteration    3(   2)  ---------------------------------------


      LOOP:  VPU time    3.49: CPU time    3.31

 eigenvalue-minimisations  :   526
 total energy-change (2. order) :-0.1365029E+02  (-0.1401741E+02)
 number of electron   43.9999946 magnetization 
 augmentation part    16.1793976 magnetization 

 eigenvalues of (default mixing * dielectric matrix)
  average eigenvalue GAMMA=   0.6576
  0.6576

  free energy =  -0.137928118755E+02  energy without entropy=  -0.137782337656E+02


--------------------------------------------------------------------------------------------------------




----------------------------------------- Iteration    3(   3)  ---------------------------------------


      LOOP:  VPU time    3.50: CPU time    3.47

 eigenvalue-minimisations  :   542
 total energy-change (2. order) : 0.1233725E+01  (-0.5167567E+00)
 number of electron   43.9999946 magnetization 
 augmentation part    16.1681982 magnetization 

 eigenvalues of (default mixing * dielectric matrix)
  average eigenvalue GAMMA=   0.8616
  0.8616  0.8616

  free energy =  -0.125590871440E+02  energy without entropy=  -0.125487210139E+02


--------------------------------------------------------------------------------------------------------




----------------------------------------- Iteration    3(   4)  ---------------------------------------


      LOOP:  VPU time    3.38: CPU time    3.38

 eigenvalue-minimisations  :   521
 total energy-change (2. order) : 0.9407846E-01  (-0.6256729E-01)
 number of electron   43.9999947 magnetization 
 augmentation part    16.1464659 magnetization 

 eigenvalues of (default mixing * dielectric matrix)
  average eigenvalue GAMMA=   1.1527
  1.4558  1.0012  1.0012

  free energy =  -0.124650086861E+02  energy without entropy=  -0.124568493037E+02


--------------------------------------------------------------------------------------------------------




----------------------------------------- Iteration    3(   5)  ---------------------------------------


      LOOP:  VPU time    3.38: CPU time    3.34

 eigenvalue-minimisations  :   538
 total energy-change (2. order) : 0.6909527E-03  (-0.4997575E-02)
 number of electron   43.9999947 magnetization 
 augmentation part    16.1433198 magnetization 

 eigenvalues of (default mixing * dielectric matrix)
  average eigenvalue GAMMA=   1.2452
  2.0702  1.0453  0.9326  0.9326

  free energy =  -0.124643177334E+02  energy without entropy=  -0.124560467653E+02


--------------------------------------------------------------------------------------------------------




----------------------------------------- Iteration    3(   6)  ---------------------------------------


      LOOP:  VPU time    3.42: CPU time    3.40

 eigenvalue-minimisations  :   525
 total energy-change (2. order) :-0.5678238E-03  (-0.6315251E-03)
 number of electron   43.9999947 magnetization 
 augmentation part    16.1434431 magnetization 

 eigenvalues of (default mixing * dielectric matrix)
  average eigenvalue GAMMA=   1.3211
  2.3247  0.9532  0.9532  0.8881  1.4866

  free energy =  -0.124648855572E+02  energy without entropy=  -0.124565321252E+02


--------------------------------------------------------------------------------------------------------




----------------------------------------- Iteration    3(   7)  ---------------------------------------


      LOOP:  VPU time    3.40: CPU time    3.37

 eigenvalue-minimisations  :   520
 total energy-change (2. order) : 0.6760974E-03  (-0.3876169E-03)
 number of electron   43.9999947 magnetization 
 augmentation part    16.1418957 magnetization 

 eigenvalues of (default mixing * dielectric matrix)
  average eigenvalue GAMMA=   1.3652
  2.4412  2.0281  0.9320  0.9320  0.8938  0.9642

  free energy =  -0.124642094598E+02  energy without entropy=  -0.124558521389E+02


--------------------------------------------------------------------------------------------------------




----------------------------------------- Iteration    3(   8)  ---------------------------------------


      LOOP:  VPU time    2.29: CPU time    2.30

 eigenvalue-minimisations  :   298
 total energy-change (2. order) : 0.2994899E-04  (-0.1049833E-04)
 number of electron   43.9999947 magnetization 
 augmentation part    16.1418957 magnetization 

  free energy =  -0.124641795108E+02  energy without entropy=  -0.124558246314E+02


--------------------------------------------------------------------------------------------------------




 average (electrostatic) potential at core
  the test charge radii are     1.2098
  (the norm of the test charge is              1.0000)
       1 -46.2326       2 -46.1762       3 -46.1762       4 -46.1219



 E-fermi :   4.8249     XC(G=0): -12.3224     alpha+bet : -9.5478
   add alpha+bet to get absolut eigen values

 k-point   1 :       0.0833    0.0833    0.0833
  band No.  band energies     occupation 
      1      -4.0879      2.00000
      2      -1.6453      2.00000
      3      -1.5445      2.00000
      4      -1.4887      2.00000
      5      -1.3923      2.00000
      6      -1.2543      2.00000
      7      -1.2235      2.00000
      8       0.3506      2.00000
      9       0.4441      2.00000
     10       0.6288      2.00000
     11       1.5157      2.00000
     12       1.9019      2.00000
     13       2.3161      2.00000
     14       2.6160      2.00000
     15       2.6273      2.00000
     16       2.6723      2.00000
     17       2.8162      2.00000
     18       2.9697      2.00000
     19       3.0725      2.00000
     20       3.0950      2.00000
     21       3.1347      2.00000
     22       5.9747      0.00000
     23       6.0819      0.00000
     24       6.3711      0.00000
     25      10.6497      0.00000
     26      10.8561      0.00000

 k-point   2 :       0.2500    0.0833    0.0833
  band No.  band energies     occupation 
      1      -3.5319      2.00000
      2      -1.4375      2.00000
      3      -1.2666      2.00000
      4      -1.2397      2.00000
      5      -1.1922      2.00000
      6      -0.9428      2.00000
      7      -0.9370      2.00000
      8       0.2682      2.00000
      9       0.6150      2.00000
     10       0.6359      2.00000
     11       1.4760      2.00000
     12       1.5530      2.00000
     13       1.7309      2.00000
     14       1.8682      2.00000
     15       1.9396      2.00000
     16       2.3117      2.00000
[...]
 -1.682364   0.000000   0.000000
  1.240947   0.000000   0.000000
    3    2  0.0000  0.3500  0.0000
  0.000000   0.219212   0.000000
  0.000000   1.010000   0.000000
  0.000000  -2.239213   0.000000
  0.000000   1.010000   0.000000
    3    3  0.0000  0.0000  0.3500
  0.000000   0.000000   1.458690
  0.000000   0.000000   1.458690
  0.000000   0.000000  -2.404624
  0.000000   0.000000  -0.512756
    4    1  0.3500  0.0000  0.0000
 -0.798720   0.000000   0.000000
  1.240391   0.000000   0.000000
  1.240391   0.000000   0.000000
 -1.682063   0.000000   0.000000
    4    2  0.0000  0.3500  0.0000
  0.000000   1.010067   0.000000
  0.000000   0.219196   0.000000
  0.000000   1.010067   0.000000
  0.000000  -2.239330   0.000000
    4    3  0.0000  0.0000  0.3500
  0.000000   0.000000   1.458649
  0.000000   0.000000   1.458649
  0.000000   0.000000  -0.512480
  0.000000   0.000000  -2.404818
  

 SECOND DERIVATIVES (NOT SYMMETRIZED)
 ------------------------------------
               1X          1Y          1Z          2X          2Y          2Z          3X          3Y          3Z          4X          4Y          4Z 
  1X    -4.802980    0.000000    0.000000    3.544214    0.000000    0.000000    3.544214    0.000000    0.000000   -2.285449    0.000000    0.000000
  1Y     0.000000   -6.399256    0.000000    0.000000    2.886198    0.000000    0.000000    0.626861    0.000000    0.000000    2.886198    0.000000
  1Z     0.000000    0.000000   -6.871209    0.000000    0.000000   -1.463304    0.000000    0.000000    4.167256    0.000000    0.000000    4.167256
  2X     3.543161    0.000000    0.000000   -4.800374    0.000000    0.000000   -2.285948    0.000000    0.000000    3.543161    0.000000    0.000000
  2Y     0.000000    2.886132    0.000000    0.000000   -6.398477    0.000000    0.000000    2.886132    0.000000    0.000000    0.626214    0.000000
  2Z     0.000000    0.000000   -1.463866    0.000000    0.000000   -6.870320    0.000000    0.000000    4.167093    0.000000    0.000000    4.167093
  3X     3.545562    0.000000    0.000000   -2.284369    0.000000    0.000000   -4.806755    0.000000    0.000000    3.545562    0.000000    0.000000
  3Y     0.000000    0.626321    0.000000    0.000000    2.885715    0.000000    0.000000   -6.397752    0.000000    0.000000    2.885715    0.000000
  3Z     0.000000    0.000000    4.167685    0.000000    0.000000    4.167685    0.000000    0.000000   -6.870354    0.000000    0.000000   -1.465016
  4X    -2.282057    0.000000    0.000000    3.543975    0.000000    0.000000    3.543975    0.000000    0.000000   -4.805893    0.000000    0.000000
  4Y     0.000000    2.885906    0.000000    0.000000    0.626274    0.000000    0.000000    2.885906    0.000000    0.000000   -6.398086    0.000000
  4Z     0.000000    0.000000    4.167569    0.000000    0.000000    4.167569    0.000000    0.000000   -1.464229    0.000000    0.000000   -6.870908


 SECOND DERIVATIVES (SYMMETRYZED)
 --------------------------------
               1X          1Y          1Z          2X          2Y          2Z          3X          3Y          3Z          4X          4Y          4Z 
  1X    -4.802980    0.000000    0.000000    3.543688    0.000000    0.000000    3.544888    0.000000    0.000000   -2.283753    0.000000    0.000000
  1Y     0.000000   -6.399256    0.000000    0.000000    2.886165    0.000000    0.000000    0.626591    0.000000    0.000000    2.886052    0.000000
  1Z     0.000000    0.000000   -6.871209    0.000000    0.000000   -1.463585    0.000000    0.000000    4.167471    0.000000    0.000000    4.167412
  2X     3.543688    0.000000    0.000000   -4.800374    0.000000    0.000000   -2.285159    0.000000    0.000000    3.543568    0.000000    0.000000
  2Y     0.000000    2.886165    0.000000    0.000000   -6.398477    0.000000    0.000000    2.885924    0.000000    0.000000    0.626244    0.000000
  2Z     0.000000    0.000000   -1.463585    0.000000    0.000000   -6.870320    0.000000    0.000000    4.167389    0.000000    0.000000    4.167331
  3X     3.544888    0.000000    0.000000   -2.285159    0.000000    0.000000   -4.806755    0.000000    0.000000    3.544768    0.000000    0.000000
  3Y     0.000000    0.626591    0.000000    0.000000    2.885924    0.000000    0.000000   -6.397752    0.000000    0.000000    2.885811    0.000000
  3Z     0.000000    0.000000    4.167471    0.000000    0.000000    4.167389    0.000000    0.000000   -6.870354    0.000000    0.000000   -1.464623
  4X    -2.283753    0.000000    0.000000    3.543568    0.000000    0.000000    3.544768    0.000000    0.000000   -4.805893    0.000000    0.000000
  4Y     0.000000    2.886052    0.000000    0.000000    0.626244    0.000000    0.000000    2.885811    0.000000    0.000000   -6.398086    0.000000
  4Z     0.000000    0.000000    4.167412    0.000000    0.000000    4.167331    0.000000    0.000000   -1.464623    0.000000    0.000000   -6.870908


 MASS-WEIGHTED SECOND DERIVATIVES
 --------------------------------
               1X          1Y          1Z          2X          2Y          2Z          3X          3Y          3Z          4X          4Y          4Z 
  1X    -0.024385    0.000000    0.000000    0.017991    0.000000    0.000000    0.017997    0.000000    0.000000   -0.011595    0.000000    0.000000
  1Y     0.000000   -0.032489    0.000000    0.000000    0.014653    0.000000    0.000000    0.003181    0.000000    0.000000    0.014653    0.000000
  1Z     0.000000    0.000000   -0.034885    0.000000    0.000000   -0.007431    0.000000    0.000000    0.021158    0.000000    0.000000    0.021158
  2X     0.017991    0.000000    0.000000   -0.024372    0.000000    0.000000   -0.011602    0.000000    0.000000    0.017991    0.000000    0.000000
  2Y     0.000000    0.014653    0.000000    0.000000   -0.032485    0.000000    0.000000    0.014652    0.000000    0.000000    0.003179    0.000000
  2Z     0.000000    0.000000   -0.007431    0.000000    0.000000   -0.034881    0.000000    0.000000    0.021158    0.000000    0.000000    0.021158
  3X     0.017997    0.000000    0.000000   -0.011602    0.000000    0.000000   -0.024404    0.000000    0.000000    0.017997    0.000000    0.000000
  3Y     0.000000    0.003181    0.000000    0.000000    0.014652    0.000000    0.000000   -0.032482    0.000000    0.000000    0.014651    0.000000
  3Z     0.000000    0.000000    0.021158    0.000000    0.000000    0.021158    0.000000    0.000000   -0.034881    0.000000    0.000000   -0.007436
  4X    -0.011595    0.000000    0.000000    0.017991    0.000000    0.000000    0.017997    0.000000    0.000000   -0.024400    0.000000    0.000000
  4Y     0.000000    0.014653    0.000000    0.000000    0.003179    0.000000    0.000000    0.014651    0.000000    0.000000   -0.032483    0.000000
  4Z     0.000000    0.000000    0.021158    0.000000    0.000000    0.021158    0.000000    0.000000   -0.007436    0.000000    0.000000   -0.034884


 Eigenvectors and eigenvalues of the dynamical matrix
 ----------------------------------------------------


   1 f  =    4.547971 THz    28.575746 2PiTHz  151.703989 cm-1    18.808904 meV
             X         Y         Z           dx          dy          dz
      0.000000  0.000000  0.000000     0.000000    0.000000    0.500010  
      2.088000  2.088000  0.000000     0.000000    0.000000    0.499963  
      2.088000  0.000000  2.088000     0.000000    0.000000   -0.500004  
      0.000000  2.088000  2.088000     0.000000    0.000000   -0.500023  

   2 f  =    4.194169 THz    26.352741 2PiTHz  139.902413 cm-1    17.345695 meV
             X         Y         Z           dx          dy          dz
      0.000000  0.000000  0.000000     0.499933    0.000000    0.000000  
      2.088000  2.088000  0.000000    -0.499821    0.000000    0.000000  
      2.088000  0.000000  2.088000    -0.500198    0.000000    0.000000  
      0.000000  2.088000  2.088000     0.500048    0.000000    0.000000  

   3 f  =    3.784708 THz    23.780019 2PiTHz  126.244251 cm-1    15.652298 meV
             X         Y         Z           dx          dy          dz
      0.000000  0.000000  0.000000     0.000000   -0.500107    0.000000  
      2.088000  2.088000  0.000000     0.000000    0.500037    0.000000  
      2.088000  0.000000  2.088000     0.000000   -0.499887    0.000000  
      0.000000  2.088000  2.088000     0.000000    0.499969    0.000000  

   4 f  =    2.952441 THz    18.550732 2PiTHz   98.482817 cm-1    12.210318 meV
             X         Y         Z           dx          dy          dz
      0.000000  0.000000  0.000000     0.000000   -0.707055    0.000000  
      2.088000  2.088000  0.000000     0.000000   -0.000149    0.000000  
      2.088000  0.000000  2.088000     0.000000    0.707159    0.000000  
      0.000000  2.088000  2.088000     0.000000   -0.000058    0.000000  

   5 f  =    2.952321 THz    18.549980 2PiTHz   98.478827 cm-1    12.209823 meV
             X         Y         Z           dx          dy          dz
      0.000000  0.000000  0.000000     0.000000   -0.000018    0.000000  
      2.088000  2.088000  0.000000     0.000000    0.707087    0.000000  
      2.088000  0.000000  2.088000     0.000000    0.000074    0.000000  
      0.000000  2.088000  2.088000     0.000000   -0.707127    0.000000  

   6 f  =    2.590243 THz    16.274975 2PiTHz   86.401194 cm-1    10.712387 meV
             X         Y         Z           dx          dy          dz
      0.000000  0.000000  0.000000     0.000000    0.000000   -0.707114  
      2.088000  2.088000  0.000000     0.000000    0.000000    0.707100  
      2.088000  0.000000  2.088000     0.000000    0.000000   -0.000030  
      0.000000  2.088000  2.088000     0.000000    0.000000   -0.000050  

   7 f  =    2.589962 THz    16.273214 2PiTHz   86.391843 cm-1    10.711227 meV
             X         Y         Z           dx          dy          dz
      0.000000  0.000000  0.000000     0.000000    0.000000   -0.000019  
      2.088000  2.088000  0.000000     0.000000    0.000000   -0.000039  
      2.088000  0.000000  2.088000     0.000000    0.000000    0.707092  
      0.000000  2.088000  2.088000     0.000000    0.000000   -0.707122  

   8 f  =    1.768538 THz    11.112050 2PiTHz   58.992064 cm-1     7.314086 meV
             X         Y         Z           dx          dy          dz
      0.000000  0.000000  0.000000     0.706926    0.000000    0.000000  
      2.088000  2.088000  0.000000     0.000009    0.000000    0.000000  
      2.088000  0.000000  2.088000    -0.000533    0.000000    0.000000  
      0.000000  2.088000  2.088000    -0.707287    0.000000    0.000000  

   9 f  =    1.767738 THz    11.107026 2PiTHz   58.965392 cm-1     7.310780 meV
             X         Y         Z           dx          dy          dz
      0.000000  0.000000  0.000000     0.000684    0.000000    0.000000  
      2.088000  2.088000  0.000000    -0.706961    0.000000    0.000000  
      2.088000  0.000000  2.088000     0.707253    0.000000    0.000000  
      0.000000  2.088000  2.088000     0.000141    0.000000    0.000000  

  10 f/i=    0.000155 THz     0.000976 2PiTHz    0.005179 cm-1     0.000642 meV
             X         Y         Z           dx          dy          dz
      0.000000  0.000000  0.000000     0.000000   -0.499966    0.000000  
      2.088000  2.088000  0.000000     0.000000   -0.499991    0.000000  
      2.088000  0.000000  2.088000     0.000000   -0.500039    0.000000  
      0.000000  2.088000  2.088000     0.000000   -0.500003    0.000000  

  11 f/i=    0.000208 THz     0.001307 2PiTHz    0.006936 cm-1     0.000860 meV
             X         Y         Z           dx          dy          dz
      0.000000  0.000000  0.000000     0.000000    0.000000   -0.499980  
      2.088000  2.088000  0.000000     0.000000    0.000000   -0.500047  
      2.088000  0.000000  2.088000     0.000000    0.000000   -0.500017  
      0.000000  2.088000  2.088000     0.000000    0.000000   -0.499955  

  12 f/i=    0.001262 THz     0.007931 2PiTHz    0.042105 cm-1     0.005220 meV
             X         Y         Z           dx          dy          dz
      0.000000  0.000000  0.000000    -0.500322    0.000000    0.000000  
      2.088000  2.088000  0.000000    -0.500386    0.000000    0.000000  
      2.088000  0.000000  2.088000    -0.499595    0.000000    0.000000  
      0.000000  2.088000  2.088000    -0.499697    0.000000    0.000000  

 Eigenvectors after division by SQRT(mass)

 Eigenvectors and eigenvalues of the dynamical matrix
 ----------------------------------------------------


   1 f  =    4.547971 THz    28.575746 2PiTHz  151.703989 cm-1    18.808904 meV
             X         Y         Z           dx          dy          dz
      0.000000  0.000000  0.000000     0.000000    0.000000    0.035627  
      2.088000  2.088000  0.000000     0.000000    0.000000    0.035624  
      2.088000  0.000000  2.088000     0.000000    0.000000   -0.035627  
      0.000000  2.088000  2.088000     0.000000    0.000000   -0.035628  

   2 f  =    4.194169 THz    26.352741 2PiTHz  139.902413 cm-1    17.345695 meV
             X         Y         Z           dx          dy          dz
      0.000000  0.000000  0.000000     0.035622    0.000000    0.000000  
      2.088000  2.088000  0.000000    -0.035614    0.000000    0.000000  
      2.088000  0.000000  2.088000    -0.035641    0.000000    0.000000  
      0.000000  2.088000  2.088000     0.035630    0.000000    0.000000  

   3 f  =    3.784708 THz    23.780019 2PiTHz  126.244251 cm-1    15.652298 meV
             X         Y         Z           dx          dy          dz
      0.000000  0.000000  0.000000     0.000000   -0.035634    0.000000  
      2.088000  2.088000  0.000000     0.000000    0.035629    0.000000  
      2.088000  0.000000  2.088000     0.000000   -0.035619    0.000000  
      0.000000  2.088000  2.088000     0.000000    0.035624    0.000000  

   4 f  =    2.952441 THz    18.550732 2PiTHz   98.482817 cm-1    12.210318 meV
             X         Y         Z           dx          dy          dz
      0.000000  0.000000  0.000000     0.000000   -0.050380    0.000000  
      2.088000  2.088000  0.000000     0.000000   -0.000011    0.000000  
      2.088000  0.000000  2.088000     0.000000    0.050387    0.000000  
      0.000000  2.088000  2.088000     0.000000   -0.000004    0.000000  

   5 f  =    2.952321 THz    18.549980 2PiTHz   98.478827 cm-1    12.209823 meV
             X         Y         Z           dx          dy          dz
      0.000000  0.000000  0.000000     0.000000   -0.000001    0.000000  
      2.088000  2.088000  0.000000     0.000000    0.050382    0.000000  
      2.088000  0.000000  2.088000     0.000000    0.000005    0.000000  
      0.000000  2.088000  2.088000     0.000000   -0.050385    0.000000  

   6 f  =    2.590243 THz    16.274975 2PiTHz   86.401194 cm-1    10.712387 meV
             X         Y         Z           dx          dy          dz
      0.000000  0.000000  0.000000     0.000000    0.000000   -0.050384  
      2.088000  2.088000  0.000000     0.000000    0.000000    0.050383  
      2.088000  0.000000  2.088000     0.000000    0.000000   -0.000002  
      0.000000  2.088000  2.088000     0.000000    0.000000   -0.000004  

   7 f  =    2.589962 THz    16.273214 2PiTHz   86.391843 cm-1    10.711227 meV
             X         Y         Z           dx          dy          dz
      0.000000  0.000000  0.000000     0.000000    0.000000   -0.000001  
      2.088000  2.088000  0.000000     0.000000    0.000000   -0.000003  
      2.088000  0.000000  2.088000     0.000000    0.000000    0.050383  
      0.000000  2.088000  2.088000     0.000000    0.000000   -0.050385  

   8 f  =    1.768538 THz    11.112050 2PiTHz   58.992064 cm-1     7.314086 meV
             X         Y         Z           dx          dy          dz
      0.000000  0.000000  0.000000     0.050371    0.000000    0.000000  
      2.088000  2.088000  0.000000     0.000001    0.000000    0.000000  
      2.088000  0.000000  2.088000    -0.000038    0.000000    0.000000  
      0.000000  2.088000  2.088000    -0.050396    0.000000    0.000000  

   9 f  =    1.767738 THz    11.107026 2PiTHz   58.965392 cm-1     7.310780 meV
             X         Y         Z           dx          dy          dz
      0.000000  0.000000  0.000000     0.000049    0.000000    0.000000  
      2.088000  2.088000  0.000000    -0.050373    0.000000    0.000000  
      2.088000  0.000000  2.088000     0.050394    0.000000    0.000000  
      0.000000  2.088000  2.088000     0.000010    0.000000    0.000000  

  10 f/i=    0.000155 THz     0.000976 2PiTHz    0.005179 cm-1     0.000642 meV
             X         Y         Z           dx          dy          dz
      0.000000  0.000000  0.000000     0.000000   -0.035624    0.000000  
      2.088000  2.088000  0.000000     0.000000   -0.035626    0.000000  
      2.088000  0.000000  2.088000     0.000000   -0.035629    0.000000  
      0.000000  2.088000  2.088000     0.000000   -0.035627    0.000000  

  11 f/i=    0.000208 THz     0.001307 2PiTHz    0.006936 cm-1     0.000860 meV
             X         Y         Z           dx          dy          dz
      0.000000  0.000000  0.000000     0.000000    0.000000   -0.035625  
      2.088000  2.088000  0.000000     0.000000    0.000000   -0.035630  
      2.088000  0.000000  2.088000     0.000000    0.000000   -0.035628  
      0.000000  2.088000  2.088000     0.000000    0.000000   -0.035623  

  12 f/i=    0.001262 THz     0.007931 2PiTHz    0.042105 cm-1     0.005220 meV
             X         Y         Z           dx          dy          dz
      0.000000  0.000000  0.000000    -0.035650    0.000000    0.000000  
      2.088000  2.088000  0.000000    -0.035654    0.000000    0.000000  
      2.088000  0.000000  2.088000    -0.035598    0.000000    0.000000  
      0.000000  2.088000  2.088000    -0.035605    0.000000    0.000000  

 Finite differences POTIM=   0.3500000000000000     
  LATTYP: Found a simple cubic cell.
 ALAT       =     4.1760000000
  
  Lattice vectors:
  
 A1 = (   4.1760000000,   0.0000000000,   0.0000000000)
 A2 = (   0.0000000000,   4.1760000000,   0.0000000000)
 A3 = (   0.0000000000,   0.0000000000,   4.1760000000)
 Subroutine PRICEL returns:
 Original cell was already a primitive cell.
 

Analysis of symmetry for initial positions (statically):

 Routine SETGRP: Setting up the symmetry group for a 
 simple cubic supercell.


 Subroutine GETGRP returns: Found  8 space group operations
 (whereof  4 operations were pure point group operations)
 out of a pool of 48 trial point group operations.


The static configuration has the point symmetry C_2v.
 The point group associated with its full space group is C_4v.

Analysis of symmetry for dynamics (positions and initial velocities):

 Subroutine DYNSYM returns: Found  8 space group operations
 (whereof  4 operations were pure point group operations)
 out of a pool of  8 trial space group operations
 (whereof  4 operations were pure point group operations)
 and found also     1 'primitive' translations


The dynamic configuration has the point symmetry C_2v.
 The point group associated with its full space group is C_4v.
     LOOP+:  VPU time   29.40: CPU time   27.76
  
  
 General timing and accounting informations for this job:
 ========================================================
  
                  Total CPU time used (sec):      733.713
                            User time (sec):      676.060
                          System time (sec):       57.653
                         Elapsed time (sec):      702.889
  
                   Maximum memory used (kb):           0.
                   Average memory used (kb):           0.
  
                          Minor page faults:      4242232
                          Major page faults:            3
                 Voluntary context switches:      6770735
