   1   1   1   0
  0.1510406E+02  0.2774616E-09  0.2774616E-09  0.2774616E-09  0.5000000E-15
  1.000000000000000E-004
  CAR 
 Au, FCC                                 
     30.15777794     -5.40116119  301      7.46997344      1.00000000
     -5.401  0.0000E+00  0.0000E+00
     -5.283  0.0000E+00  0.0000E+00
     -5.164  0.0000E+00  0.0000E+00
     -5.046  0.0000E+00  0.0000E+00
     -4.927  0.0000E+00  0.0000E+00
     -4.809  0.0000E+00  0.0000E+00
     -4.690  0.0000E+00  0.0000E+00
     -4.571  0.0000E+00  0.0000E+00
     -4.453  0.0000E+00  0.0000E+00
     -4.334  0.3035E-15  0.3598E-16
     -4.216  0.4261E-10  0.5051E-11
     -4.097  0.3868E-06  0.4586E-07
     -3.979  0.2374E-03  0.2819E-04
     -3.860  0.1094E-01  0.1325E-02
     -3.742  0.4577E-01  0.6749E-02
     -3.623  0.2031E-01  0.9156E-02
     -3.505  0.8667E-03  0.9259E-02
     -3.386  0.2901E-05  0.9259E-02
     -3.268  0.6710E-09  0.9259E-02
     -3.149  0.1994E-07  0.9259E-02
     -3.031  0.5945E-04  0.9266E-02
     -2.912  0.1239E-01  0.1074E-01
     -2.794  0.2077E+00  0.3536E-01
     -2.675  0.3440E+00  0.7613E-01
     -2.556  0.6976E-01  0.8440E-01
     -2.438  0.1606E+00  0.1034E+00
     -2.319  0.2555E+00  0.1337E+00
     -2.201  0.4291E-01  0.1388E+00
     -2.082  0.6334E-03  0.1389E+00
     -1.964  0.6868E-06  0.1389E+00
     -1.845  0.4987E-10  0.1389E+00
     -1.727  0.1737E-08  0.1389E+00
     -1.608  0.1144E-04  0.1389E+00
     -1.490  0.5191E-02  0.1395E+00
     -1.371  0.1894E+00  0.1620E+00
     -1.253  0.7889E+00  0.2555E+00
     -1.134  0.6593E+00  0.3336E+00
     -1.016  0.2344E+00  0.3614E+00
     -0.897  0.2913E+00  0.3959E+00
     -0.778  0.1073E+01  0.5231E+00
     -0.660  0.7859E+00  0.6163E+00
     -0.541  0.5841E+00  0.6855E+00
     -0.423  0.1876E+01  0.9079E+00
     -0.304  0.2580E+01  0.1214E+01
     -0.186  0.1154E+01  0.1350E+01
     -0.067  0.5547E+00  0.1416E+01
      0.051  0.1253E+01  0.1565E+01
      0.170  0.1702E+01  0.1766E+01
      0.288  0.1093E+01  0.1896E+01
      0.407  0.1341E+01  0.2055E+01
      0.525  0.1124E+01  0.2188E+01
      0.644  0.1509E+01  0.2367E+01
      0.762  0.3086E+01  0.2733E+01
      0.881  0.1138E+01  0.2868E+01
      0.999  0.9771E+00  0.2983E+01
      1.118  0.1224E+01  0.3129E+01
      1.237  0.1095E+01  0.3258E+01
      1.355  0.9556E+00  0.3372E+01
      1.474  0.1298E+01  0.3525E+01
      1.592  0.2275E+01  0.3795E+01
      1.711  0.2172E+01  0.4053E+01
      1.829  0.1154E+01  0.4189E+01
      1.948  0.1509E+01  0.4368E+01
      2.066  0.1176E+01  0.4507E+01
      2.185  0.2521E+01  0.4806E+01
      2.303  0.2329E+01  0.5082E+01
      2.422  0.1564E+01  0.5268E+01
      2.540  0.1709E+01  0.5470E+01
      2.659  0.3162E+01  0.5845E+01
      2.777  0.2993E+01  0.6200E+01
      2.896  0.2118E+01  0.6451E+01
      3.014  0.1719E+01  0.6655E+01
      3.133  0.1063E+01  0.6781E+01
      3.252  0.5578E+00  0.6847E+01
      3.370  0.3410E+00  0.6887E+01
      3.489  0.1828E+01  0.7104E+01
      3.607  0.1626E+01  0.7297E+01
      3.726  0.1008E+01  0.7416E+01
      3.844  0.1144E+01  0.7552E+01
      3.963  0.1084E+01  0.7680E+01
      4.081  0.1375E+01  0.7843E+01
      4.200  0.1141E+01  0.7979E+01
      4.318  0.1669E+01  0.8176E+01
      4.437  0.3312E+01  0.8569E+01
      4.555  0.3339E+01  0.8965E+01
      4.674  0.1603E+01  0.9155E+01
      4.792  0.1144E+01  0.9290E+01
      4.911  0.1910E+01  0.9517E+01
      5.029  0.1092E+01  0.9646E+01
      5.148  0.5126E+00  0.9707E+01
      5.267  0.1398E+01  0.9872E+01
      5.385  0.1797E+01  0.1009E+02
      5.504  0.1772E+01  0.1030E+02
      5.622  0.1121E+01  0.1043E+02
      5.741  0.7902E+00  0.1052E+02
      5.859  0.7058E+00  0.1061E+02
      5.978  0.2395E+00  0.1063E+02
      6.096  0.3972E-01  0.1064E+02
      6.215  0.7686E-03  0.1064E+02
      6.333  0.1122E-05  0.1064E+02
      6.452  0.1105E-09  0.1064E+02
      6.570  0.6938E-15  0.1064E+02
      6.689  0.2571E-11  0.1064E+02
      6.807  0.1005E-06  0.1064E+02
      6.926  0.2577E-03  0.1064E+02
      7.044  0.4644E-01  0.1064E+02
      7.163  0.6803E+00  0.1073E+02
      7.282  0.1012E+01  0.1084E+02
      7.400  0.6055E+00  0.1092E+02
      7.519  0.1111E+01  0.1105E+02
      7.637  0.2878E+00  0.1108E+02
      7.756  0.6839E-02  0.1108E+02
      7.874  0.1844E-03  0.1108E+02
      7.993  0.3801E-01  0.1109E+02
      8.111  0.6737E+00  0.1117E+02
      8.230  0.1177E+01  0.1131E+02
      8.348  0.2169E+00  0.1133E+02
      8.467  0.4029E-02  0.1133E+02
      8.585  0.6717E-01  0.1134E+02
      8.704  0.7789E+00  0.1143E+02
      8.822  0.9157E+00  0.1154E+02
      8.941  0.1114E+00  0.1156E+02
      9.059  0.1157E-02  0.1156E+02
      9.178  0.8669E-06  0.1156E+02
      9.297  0.4315E-10  0.1156E+02
      9.415  0.0000E+00  0.1156E+02
      9.534  0.0000E+00  0.1156E+02
      9.652  0.4423E-14  0.1156E+02
      9.771  0.5962E-09  0.1156E+02
      9.889  0.5200E-05  0.1156E+02
     10.008  0.3070E-02  0.1156E+02
     10.126  0.1363E+00  0.1157E+02
     10.245  0.5515E+00  0.1164E+02
     10.363  0.2367E+00  0.1167E+02
     10.482  0.9748E-02  0.1167E+02
     10.600  0.3140E-04  0.1167E+02
     10.719  0.6974E-08  0.1167E+02
     10.837  0.1644E-07  0.1167E+02
     10.956  0.4244E-04  0.1167E+02
     11.074  0.7849E-02  0.1167E+02
     11.193  0.1491E+00  0.1169E+02
     11.312  0.7818E+00  0.1178E+02
     11.430  0.1062E+01  0.1190E+02
     11.549  0.1838E+00  0.1193E+02
     11.667  0.8374E-02  0.1193E+02
     11.786  0.2944E+00  0.1196E+02
     11.904  0.1526E+01  0.1214E+02
     12.023  0.9988E+00  0.1226E+02
     12.141  0.8729E+00  0.1236E+02
     12.260  0.8886E+00  0.1247E+02
     12.378  0.1004E+00  0.1248E+02
     12.497  0.9630E-03  0.1248E+02
     12.615  0.6641E-06  0.1248E+02
     12.734  0.4045E-10  0.1248E+02
     12.852  0.2434E-06  0.1248E+02
     12.971  0.3886E-03  0.1248E+02
     13.089  0.4443E-01  0.1249E+02
     13.208  0.4276E+00  0.1254E+02
     13.327  0.4220E+00  0.1259E+02
     13.445  0.4266E-01  0.1259E+02
     13.564  0.3620E-03  0.1259E+02
     13.682  0.2198E-06  0.1259E+02
     13.801  0.9938E-11  0.1259E+02
     13.919  0.3263E-07  0.1259E+02
     14.038  0.6298E-04  0.1259E+02
     14.156  0.8668E-02  0.1259E+02
     14.275  0.1110E+00  0.1261E+02
     14.393  0.5677E+00  0.1267E+02
     14.512  0.1730E+01  0.1288E+02
     14.630  0.1537E+01  0.1306E+02
     14.749  0.8799E+00  0.1317E+02
     14.867  0.8685E-01  0.1318E+02
     14.986  0.7449E-03  0.1318E+02
     15.104  0.7823E-05  0.1318E+02
     15.223  0.3854E-02  0.1318E+02
     15.342  0.1527E+00  0.1319E+02
     15.460  0.5570E+00  0.1326E+02
     15.579  0.2158E+00  0.1329E+02
     15.697  0.7947E-02  0.1329E+02
     15.816  0.2325E-04  0.1329E+02
     15.934  0.6020E-03  0.1329E+02
     16.053  0.5276E-01  0.1329E+02
     16.171  0.5113E+00  0.1335E+02
     16.290  0.7956E+00  0.1345E+02
     16.408  0.1967E+00  0.1347E+02
     16.527  0.5512E-02  0.1347E+02
     16.645  0.1317E-01  0.1347E+02
     16.764  0.3954E+00  0.1352E+02
     16.882  0.1120E+01  0.1365E+02
     17.001  0.3371E+00  0.1369E+02
     17.120  0.9422E-02  0.1369E+02
     17.238  0.2007E-04  0.1369E+02
     17.357  0.3505E-08  0.1369E+02
     17.475  0.5179E-05  0.1369E+02
     17.594  0.3062E-02  0.1369E+02
     17.712  0.1361E+00  0.1371E+02
     17.831  0.5518E+00  0.1378E+02
     17.949  0.2787E+00  0.1381E+02
     18.068  0.6701E+00  0.1389E+02
     18.186  0.1951E+01  0.1412E+02
     18.305  0.1381E+01  0.1428E+02
     18.423  0.1825E+00  0.1431E+02
     18.542  0.1106E+00  0.1432E+02
     18.660  0.9080E+00  0.1443E+02
     18.779  0.8580E+00  0.1453E+02
     18.897  0.8588E+00  0.1463E+02
     19.016  0.9070E+00  0.1474E+02
     19.135  0.1076E+00  0.1475E+02
     19.253  0.1087E-02  0.1475E+02
     19.372  0.7924E-06  0.1475E+02
     19.490  0.3832E-10  0.1475E+02
     19.609  0.1589E-10  0.1475E+02
     19.727  0.4679E-06  0.1475E+02
     19.846  0.9188E-03  0.1475E+02
     19.964  0.1297E+00  0.1477E+02
     20.083  0.1532E+01  0.1495E+02
     20.201  0.1850E+01  0.1517E+02
     20.320  0.2355E+00  0.1519E+02
     20.438  0.1014E+00  0.1521E+02
     20.557  0.5258E+00  0.1527E+02
     20.675  0.3017E+00  0.1530E+02
     20.794  0.2191E+00  0.1533E+02
     20.912  0.6427E+00  0.1541E+02
     21.031  0.5120E+00  0.1547E+02
     21.150  0.8808E+00  0.1557E+02
     21.268  0.9219E+00  0.1568E+02
     21.387  0.1126E+00  0.1569E+02
     21.505  0.1179E-02  0.1569E+02
     21.624  0.9080E-06  0.1569E+02
     21.742  0.8138E-04  0.1569E+02
     21.861  0.2837E-01  0.1570E+02
     21.979  0.8205E+00  0.1580E+02
     22.098  0.2395E+01  0.1608E+02
     22.216  0.7918E+00  0.1617E+02
     22.335  0.2621E-01  0.1618E+02
     22.453  0.4700E-02  0.1618E+02
     22.572  0.1768E+00  0.1620E+02
     22.690  0.7646E+00  0.1629E+02
     22.809  0.6042E+00  0.1636E+02
     22.927  0.2468E+00  0.1639E+02
     23.046  0.6875E+00  0.1647E+02
     23.165  0.5921E+00  0.1654E+02
     23.283  0.1228E+00  0.1656E+02
     23.402  0.3295E-02  0.1656E+02
     23.520  0.7131E-05  0.1656E+02
     23.639  0.2188E-06  0.1656E+02
     23.757  0.3580E-03  0.1656E+02
     23.876  0.4981E-01  0.1656E+02
     23.994  0.7440E+00  0.1665E+02
     24.113  0.1588E+01  0.1684E+02
     24.231  0.1987E+01  0.1707E+02
     24.350  0.2632E+01  0.1739E+02
     24.468  0.1267E+01  0.1754E+02
     24.587  0.2987E+00  0.1757E+02
     24.705  0.2594E-01  0.1757E+02
     24.824  0.5388E-02  0.1757E+02
     24.942  0.1212E+00  0.1759E+02
     25.061  0.2748E+00  0.1762E+02
     25.180  0.6606E-01  0.1763E+02
     25.298  0.1443E-02  0.1763E+02
     25.417  0.2367E-05  0.1763E+02
     25.535  0.6537E-08  0.1763E+02
     25.654  0.2397E-04  0.1763E+02
     25.772  0.6348E-02  0.1763E+02
     25.891  0.1330E+00  0.1765E+02
     26.009  0.2799E+00  0.1768E+02
     26.128  0.1817E+00  0.1770E+02
     26.246  0.1590E+00  0.1772E+02
     26.365  0.2096E-01  0.1772E+02
     26.483  0.2392E-03  0.1772E+02
     26.602  0.1981E-06  0.1772E+02
     26.720  0.2788E-09  0.1772E+02
     26.839  0.2873E-05  0.1772E+02
     26.957  0.2075E-02  0.1772E+02
     27.076  0.1115E+00  0.1774E+02
     27.195  0.5387E+00  0.1780E+02
     27.313  0.3142E+00  0.1784E+02
     27.432  0.1050E+00  0.1785E+02
     27.550  0.2175E-01  0.1785E+02
     27.669  0.4673E-03  0.1785E+02
     27.787  0.2428E-04  0.1785E+02
     27.906  0.6993E-02  0.1785E+02
     28.024  0.1631E+00  0.1787E+02
     28.143  0.3659E+00  0.1792E+02
     28.261  0.8708E-01  0.1793E+02
     28.380  0.8815E-02  0.1793E+02
     28.498  0.1625E+00  0.1795E+02
     28.617  0.3661E+00  0.1799E+02
     28.735  0.8750E-01  0.1800E+02
     28.854  0.1899E-02  0.1800E+02
     28.972  0.3095E-05  0.1800E+02
     29.091  0.3409E-09  0.1800E+02
     29.210  0.2428E-14  0.1800E+02
     29.328  0.0000E+00  0.1800E+02
     29.447  0.0000E+00  0.1800E+02
     29.565  0.0000E+00  0.1800E+02
     29.684  0.0000E+00  0.1800E+02
     29.802  0.0000E+00  0.1800E+02
     29.921  0.0000E+00  0.1800E+02
     30.039  0.0000E+00  0.1800E+02
     30.158  0.0000E+00  0.1800E+02
     30.15777794     -5.40116119  301      7.46997344      1.00000000
     -5.401  0.0000E+00  0.0000E+00  0.0000E+00  0.0000E+00  0.0000E+00  0.0000E+00  0.0000E+00  0.0000E+00  0.0000E+00
     -5.283  0.0000E+00  0.0000E+00  0.0000E+00  0.0000E+00  0.0000E+00  0.0000E+00  0.0000E+00  0.0000E+00  0.0000E+00
     -5.164  0.0000E+00  0.0000E+00  0.0000E+00  0.0000E+00  0.0000E+00  0.0000E+00  0.0000E+00  0.0000E+00  0.0000E+00
     -5.046  0.0000E+00  0.0000E+00  0.0000E+00  0.0000E+00  0.0000E+00  0.0000E+00  0.0000E+00  0.0000E+00  0.0000E+00
     -4.927  0.0000E+00  0.0000E+00  0.0000E+00  0.0000E+00  0.0000E+00  0.0000E+00  0.0000E+00  0.0000E+00  0.0000E+00
     -4.809  0.0000E+00  0.0000E+00  0.0000E+00  0.0000E+00  0.0000E+00  0.0000E+00  0.0000E+00  0.0000E+00  0.0000E+00
     -4.690  0.0000E+00  0.0000E+00  0.0000E+00  0.0000E+00  0.0000E+00  0.0000E+00  0.0000E+00  0.0000E+00  0.0000E+00
     -4.571  0.0000E+00  0.0000E+00  0.0000E+00  0.0000E+00  0.0000E+00  0.0000E+00  0.0000E+00  0.0000E+00  0.0000E+00
     -4.453  0.0000E+00  0.0000E+00  0.0000E+00  0.0000E+00  0.0000E+00  0.0000E+00  0.0000E+00  0.0000E+00  0.0000E+00
     -4.334  0.2090E-15  0.1739E-32  0.4181E-32  0.5510E-32  0.1086E-29  0.9294E-30  0.3450E-31  0.6831E-30  0.2130E-31
     -4.216  0.2934E-10  0.2442E-27  0.5869E-27  0.7734E-27  0.1524E-24  0.1305E-24  0.4842E-26  0.9589E-25  0.2990E-26
     -4.097  0.2663E-06  0.2217E-23  0.5328E-23  0.7021E-23  0.1384E-20  0.1184E-20  0.4396E-22  0.8705E-21  0.2714E-22
     -3.979  0.1635E-03  0.1361E-20  0.3270E-20  0.4310E-20  0.8492E-18  0.7270E-18  0.2698E-19  0.5343E-18  0.1666E-19
     -3.860  0.7530E-02  0.6267E-19  0.1507E-18  0.1985E-18  0.3912E-16  0.3349E-16  0.1243E-17  0.2461E-16  0.7675E-18
     -3.742  0.3151E-01  0.2623E-18  0.6304E-18  0.8307E-18  0.1637E-15  0.1401E-15  0.5201E-17  0.1030E-15  0.3212E-17
     -3.623  0.1398E-01  0.1164E-18  0.2797E-18  0.3686E-18  0.7263E-16  0.6218E-16  0.2308E-17  0.4570E-16  0.1425E-17
     -3.505  0.5967E-03  0.4967E-20  0.1194E-19  0.1573E-19  0.3100E-17  0.2654E-17  0.9850E-19  0.1951E-17  0.6082E-19
     -3.386  0.1998E-05  0.1663E-22  0.3997E-22  0.5266E-22  0.1038E-19  0.8884E-20  0.3297E-21  0.6530E-20  0.2036E-21
     -3.268  0.4620E-09  0.6455E-14  0.6455E-14  0.6455E-14  0.2761E-14  0.2761E-14  0.7683E-25  0.2761E-14  0.4807E-25
     -3.149  0.1255E-07  0.2942E-09  0.2942E-09  0.2942E-09  0.1258E-09  0.1258E-09  0.2838E-22  0.1258E-09  0.4600E-22
     -3.031  0.3741E-04  0.8772E-06  0.8772E-06  0.8772E-06  0.3752E-06  0.3752E-06  0.8461E-19  0.3752E-06  0.1372E-18
     -2.912  0.7798E-02  0.1829E-03  0.1829E-03  0.1829E-03  0.7821E-04  0.7821E-04  0.7097E-14  0.7821E-04  0.2859E-16
     -2.794  0.1307E+00  0.3065E-02  0.3065E-02  0.3065E-02  0.1311E-02  0.1311E-02  0.3093E-09  0.1311E-02  0.4792E-15
     -2.675  0.2164E+00  0.5075E-02  0.5078E-02  0.5075E-02  0.2170E-02  0.2170E-02  0.8847E-06  0.2170E-02  0.7935E-15
     -2.556  0.4368E-01  0.8832E-03  0.1513E-02  0.8832E-03  0.3778E-03  0.3778E-03  0.1772E-03  0.3778E-03  0.1383E-15
     -2.438  0.9771E-01  0.1356E-04  0.1019E-01  0.1356E-04  0.5798E-05  0.5798E-05  0.2862E-02  0.5798E-05  0.4982E-17
     -2.319  0.1554E+00  0.1532E-07  0.1628E-01  0.1532E-07  0.6550E-08  0.6550E-08  0.4578E-02  0.6550E-08  0.4581E-17
     -2.201  0.2610E-01  0.1159E-11  0.2734E-02  0.1159E-11  0.4965E-12  0.4960E-12  0.7688E-03  0.4970E-12  0.7690E-18
     -2.082  0.3852E-03  0.6284E-17  0.4035E-04  0.6440E-17  0.1278E-16  0.4699E-17  0.1135E-04  0.1979E-16  0.1135E-19
     -1.964  0.4177E-06  0.1541E-21  0.4376E-07  0.3233E-21  0.1101E-19  0.2247E-20  0.1231E-07  0.1861E-19  0.1231E-22
     -1.845  0.3033E-10  0.8408E-15  0.3176E-11  0.8408E-15  0.1406E-14  0.1635E-24  0.8933E-12  0.1352E-23  0.1135E-25
     -1.727  0.9031E-09  0.8553E-10  0.6778E-14  0.8553E-10  0.1431E-09  0.8315E-13  0.1093E-10  0.8315E-13  0.1064E-20
     -1.608  0.5946E-05  0.5627E-06  0.2860E-09  0.5627E-06  0.9442E-06  0.3516E-08  0.7188E-07  0.3516E-08  0.6999E-17
     -1.490  0.2687E-02  0.2530E-03  0.7920E-06  0.2530E-03  0.4316E-03  0.9745E-05  0.3224E-04  0.9745E-05  0.3142E-14
     -1.371  0.9603E-01  0.8798E-02  0.1537E-03  0.8798E-02  0.1636E-01  0.1907E-02  0.1105E-02  0.1907E-02  0.1084E-12
     -1.253  0.3684E+00  0.3002E-01  0.2412E-02  0.3002E-01  0.7823E-01  0.3206E-01  0.3529E-02  0.3206E-01  0.3575E-12
     -1.134  0.2423E+00  0.1313E-01  0.3757E-02  0.1313E-01  0.8942E-01  0.7374E-01  0.1395E-02  0.7374E-01  0.1503E-12
     -1.016  0.5574E-01  0.9207E-03  0.7712E-03  0.9207E-03  0.4020E-01  0.3965E-01  0.1474E-01  0.3965E-01  0.2297E-13
     -0.897  0.7057E-01  0.6456E-03  0.1214E-01  0.6456E-03  0.1488E-01  0.1076E-01  0.1072E+00  0.1076E-01  0.4198E-14
     -0.778  0.3937E+00  0.4256E-02  0.8124E-01  0.4256E-02  0.7323E-01  0.4560E-01  0.1547E+00  0.4560E-01  0.1490E-13
     -0.660  0.2865E+00  0.2977E-02  0.6074E-01  0.2977E-02  0.6194E-01  0.3196E-01  0.1091E+00  0.3196E-01  0.1059E-13
     -0.541  0.9110E-01  0.3903E-03  0.2095E-01  0.3903E-03  0.1459E+00  0.1486E-01  0.1871E+00  0.1486E-01  0.5155E-13
     -0.423  0.2180E+00  0.3107E-02  0.3281E-01  0.3107E-02  0.5892E+00  0.1314E+00  0.4693E+00  0.1314E+00  0.1165E-08
     -0.304  0.3560E+00  0.1730E-01  0.3372E-01  0.1730E-01  0.7470E+00  0.2357E+00  0.5184E+00  0.2357E+00  0.2996E-05
     -0.186  0.2122E+00  0.1914E-01  0.9313E-02  0.1842E-01  0.3161E+00  0.1486E+00  0.8460E-01  0.1486E+00  0.5417E-03
     -0.067  0.3295E-01  0.1315E-01  0.8090E-03  0.2515E-02  0.1172E+00  0.1684E-01  0.2570E+00  0.1684E-01  0.7958E-02
      0.051  0.1850E-01  0.2320E-01  0.5220E-03  0.7615E-02  0.5394E+00  0.1080E-02  0.4725E+00  0.1080E-02  0.1166E-01
      0.170  0.3044E-01  0.2207E-01  0.1327E-02  0.2022E-01  0.9898E+00  0.2320E-02  0.4095E+00  0.2298E-02  0.1790E-02
      0.288  0.3552E-01  0.7807E-02  0.3828E-02  0.1649E-01  0.6547E+00  0.4054E-02  0.2281E+00  0.6193E-03  0.4405E-03
      0.407  0.1188E+00  0.2540E-01  0.4347E-01  0.2073E-01  0.4842E+00  0.4300E-01  0.3750E+00  0.3171E-04  0.5211E-02
      0.525  0.1486E+00  0.3186E-01  0.5582E-01  0.6559E-02  0.1328E+00  0.6564E-01  0.4525E+00  0.3511E-02  0.7494E-02
      0.644  0.6101E-01  0.1012E-01  0.2516E-01  0.4155E-01  0.7075E+00  0.2143E+00  0.1504E+00  0.6044E-01  0.3940E-01
      0.762  0.7281E-01  0.3748E-01  0.3149E-01  0.7050E-01  0.1218E+01  0.3874E+00  0.5609E+00  0.1026E+00  0.2008E+00
      0.881  0.1645E-01  0.2632E-01  0.7314E-02  0.1440E-01  0.3099E+00  0.9061E-01  0.3708E+00  0.1977E-01  0.1247E+00
      0.999  0.2819E-01  0.1782E-01  0.1252E-01  0.1642E-01  0.6667E+00  0.1517E-01  0.7688E-01  0.1276E-01  0.8022E-02
      1.118  0.2816E-01  0.3468E-01  0.1170E-01  0.3467E-01  0.6938E+00  0.2108E-01  0.2117E+00  0.2107E-01  0.4236E-04
      1.237  0.6495E-02  0.2811E-01  0.1031E-01  0.2811E-01  0.3607E+00  0.1494E+00  0.2240E+00  0.1494E+00  0.1037E-06
      1.355  0.7727E-03  0.5668E-02  0.1390E-01  0.5665E-02  0.2140E+00  0.2352E+00  0.1506E+00  0.2347E+00  0.1156E-03
      1.474  0.8227E-02  0.1290E-01  0.7120E-02  0.1259E-01  0.6146E-01  0.1816E+00  0.7331E+00  0.1265E+00  0.1098E-01
      1.592  0.6148E-01  0.1212E-01  0.3932E-01  0.9660E-02  0.1905E+00  0.5756E+00  0.9228E+00  0.1287E+00  0.8909E-01
      1.711  0.5334E-01  0.8321E-02  0.3926E-01  0.7241E-02  0.3398E+00  0.5790E+00  0.6604E+00  0.1895E+00  0.7561E-01
      1.829  0.5851E-02  0.1439E-01  0.3341E-01  0.3040E-01  0.3410E+00  0.3522E+00  0.1249E+00  0.9094E-01  0.3285E-01
      1.948  0.5541E-03  0.1992E-01  0.4623E-01  0.4601E-01  0.4486E+00  0.4503E+00  0.1420E+00  0.8045E-01  0.1095E+00
      2.066  0.9927E-02  0.4049E-02  0.1703E-01  0.8466E-02  0.1818E+00  0.2362E+00  0.3571E+00  0.1736E+00  0.8869E-01
      2.185  0.2278E-01  0.2706E-02  0.5775E-01  0.2772E-02  0.2753E+00  0.4870E+00  0.8041E+00  0.4861E+00  0.1740E+00
      2.303  0.1176E-01  0.1068E-01  0.5304E-01  0.1068E-01  0.5236E+00  0.4743E+00  0.4754E+00  0.4743E+00  0.1061E+00
      2.422  0.4510E-01  0.5173E-01  0.4986E-01  0.5173E-01  0.2936E+00  0.2584E+00  0.3200E+00  0.2584E+00  0.3076E-01
      2.540  0.4963E-01  0.5700E-01  0.5192E-01  0.5700E-01  0.5798E-01  0.2867E+00  0.1948E+00  0.2867E+00  0.4430E+00
      2.659  0.2152E-01  0.3291E-01  0.3501E-01  0.3291E-01  0.1789E+00  0.6149E+00  0.4800E-01  0.6027E+00  0.1340E+01
      2.777  0.7221E-01  0.7240E-01  0.1262E+00  0.7240E-01  0.5241E+00  0.7293E+00  0.7531E-01  0.5050E+00  0.4665E+00
      2.896  0.4878E-01  0.3782E-01  0.1038E+00  0.3782E-01  0.1858E+00  0.8545E+00  0.2393E-01  0.4491E+00  0.1457E+00
      3.014  0.5030E-02  0.8742E-02  0.1471E-01  0.8742E-02  0.8133E-02  0.5910E+00  0.5838E-01  0.5137E+00  0.4026E+00
      3.133  0.3409E-02  0.2301E-02  0.1489E-02  0.2301E-02  0.4361E-04  0.1145E+00  0.2515E+00  0.1132E+00  0.5124E+00
      3.252  0.1784E-02  0.5080E-03  0.1186E-02  0.5113E-03  0.6442E-04  0.4363E-02  0.1163E+00  0.4401E-02  0.3956E+00
      3.370  0.1187E-01  0.1199E-03  0.3092E-01  0.6138E-03  0.3329E-02  0.7745E-01  0.2284E-01  0.8362E-01  0.7384E-01
      3.489  0.5739E-01  0.3648E-03  0.1459E+00  0.6636E-02  0.1583E-01  0.3563E+00  0.1758E+00  0.4345E+00  0.4481E+00
      3.607  0.3185E-01  0.1114E-02  0.7590E-01  0.9137E-02  0.8616E-02  0.1741E+00  0.2081E+00  0.2742E+00  0.7046E+00
      3.726  0.2513E-02  0.3776E-02  0.4756E-02  0.4843E-02  0.7346E-02  0.1515E-01  0.1613E+00  0.2846E-01  0.7232E+00
      3.844  0.1844E-01  0.1858E-02  0.1785E-01  0.1703E-02  0.1724E-01  0.1736E-01  0.3931E+00  0.1742E-01  0.5970E+00
      3.963  0.7105E-01  0.3704E-02  0.8019E-01  0.1004E-03  0.4600E-02  0.6528E-02  0.2771E+00  0.4600E-02  0.5299E+00
      4.081  0.3955E-01  0.8507E-02  0.6419E-01  0.6145E-05  0.1127E-03  0.4234E-02  0.1701E+00  0.2322E-03  0.9802E+00
      4.200  0.1566E-01  0.6579E-02  0.9867E-02  0.5551E-03  0.4008E-04  0.1556E-01  0.4296E-01  0.1517E-01  0.9738E+00
      4.318  0.5579E-02  0.7456E-02  0.3174E-03  0.6401E-02  0.5346E-02  0.2196E+00  0.7490E-02  0.2836E+00  0.1060E+01
      4.437  0.1271E-01  0.1119E-01  0.8342E-02  0.2091E-01  0.6627E-01  0.6968E+00  0.5047E-01  0.1399E+01  0.9013E+00
      4.555  0.6768E-01  0.1679E-01  0.4543E-01  0.2772E-01  0.1540E+00  0.7269E+00  0.3362E+00  0.1510E+01  0.2750E+00
      4.674  0.3863E-01  0.7634E-02  0.2637E-01  0.8892E-02  0.1409E+00  0.3479E+00  0.3182E+00  0.4380E+00  0.1917E+00
      4.792  0.2406E-02  0.1067E-02  0.1579E-02  0.1079E-02  0.2862E-01  0.3427E+00  0.4976E-01  0.3436E+00  0.3386E+00
      4.911  0.6613E-02  0.3471E-02  0.9087E-05  0.3471E-02  0.8168E-01  0.3496E+00  0.1127E+00  0.3496E+00  0.9514E+00
      5.029  0.1739E-01  0.6030E-02  0.6859E-05  0.6037E-02  0.2136E+00  0.6382E-01  0.2941E+00  0.6992E-01  0.3865E+00
      5.148  0.7215E-02  0.1588E-02  0.2554E-03  0.1843E-02  0.7899E-01  0.2120E-01  0.8955E-01  0.2487E+00  0.4784E-01
      5.267  0.8342E-02  0.4069E-04  0.8805E-03  0.9213E-03  0.8793E-01  0.1115E+00  0.4738E-01  0.8958E+00  0.2110E+00
      5.385  0.3012E-02  0.7507E-05  0.3227E-03  0.3302E-03  0.9702E-01  0.3697E+00  0.8234E-01  0.6571E+00  0.5534E+00
      5.504  0.1043E-03  0.8706E-04  0.1118E-04  0.9824E-04  0.2802E-01  0.5504E+00  0.2766E-01  0.5608E+00  0.5770E+00
      5.622  0.2794E-06  0.1147E-03  0.3093E-05  0.1148E-03  0.9614E-03  0.3785E+00  0.9658E-03  0.4250E+00  0.2989E+00
      5.741  0.5132E-10  0.8364E-03  0.8214E-03  0.8364E-03  0.2619E-05  0.1553E+00  0.2635E-05  0.5854E+00  0.3566E-01
      5.859  0.1207E-13  0.1740E-01  0.1740E-01  0.1740E-01  0.4905E-09  0.1005E+00  0.4935E-09  0.5097E+00  0.4094E-03
      5.978  0.1066E-14  0.3576E-01  0.3576E-01  0.3576E-01  0.6043E-14  0.9274E-02  0.6995E-14  0.4906E-01  0.3437E-06
      6.096  0.8276E-17  0.7776E-02  0.7776E-02  0.7776E-02  0.7500E-18  0.7171E-04  0.8468E-17  0.3954E-03  0.1922E-10
      6.215  0.4772E-20  0.1522E-03  0.1522E-03  0.1522E-03  0.1532E-20  0.3951E-07  0.1189E-19  0.2276E-06  0.5772E-16
      6.333  0.4609E-24  0.2224E-06  0.2224E-06  0.2224E-06  0.1675E-23  0.1437E-11  0.1071E-22  0.8653E-11  0.8642E-23
      6.452  0.2896E-28  0.2190E-10  0.2190E-10  0.2190E-10  0.1635E-27  0.3549E-27  0.1037E-26  0.1111E-26  0.1011E-27
      6.570  0.1819E-33  0.1375E-15  0.1375E-15  0.1375E-15  0.1026E-32  0.2228E-32  0.6513E-32  0.6977E-32  0.6350E-33
      6.689  0.3705E-12  0.1305E-12  0.3936E-13  0.1305E-12  0.1047E-11  0.2790E-15  0.5808E-12  0.2790E-15  0.5661E-27
      6.807  0.1448E-07  0.5102E-08  0.1539E-08  0.5102E-08  0.4091E-07  0.1091E-10  0.2270E-07  0.1091E-10  0.2213E-22
      6.926  0.3713E-04  0.1308E-04  0.3945E-05  0.1308E-04  0.1049E-03  0.2796E-07  0.5821E-04  0.2796E-07  0.1199E-13
      7.044  0.6692E-02  0.2357E-02  0.7110E-03  0.2357E-02  0.1891E-01  0.5044E-05  0.1049E-01  0.5039E-05  0.8809E-09
      7.163  0.9802E-01  0.3453E-01  0.1042E-01  0.3453E-01  0.2769E+00  0.9638E-04  0.1537E+00  0.7380E-04  0.4203E-05
      7.282  0.1463E+00  0.5082E-01  0.1696E-01  0.5045E-01  0.4046E+00  0.7524E-02  0.2263E+00  0.1078E-03  0.1381E-02
      7.400  0.1014E+00  0.1723E-01  0.4708E-01  0.7711E-02  0.6184E-01  0.1899E+00  0.8056E-01  0.1648E-04  0.3534E-01
      7.519  0.1947E+00  0.2337E-01  0.1094E+00  0.1027E-03  0.8235E-03  0.4641E+00  0.1135E+00  0.2195E-06  0.8639E-01
      7.637  0.5046E-01  0.6039E-02  0.2840E-01  0.9992E-07  0.8013E-06  0.1205E+00  0.2934E-01  0.2137E-09  0.2242E-01
      7.756  0.1199E-02  0.1435E-03  0.6748E-03  0.3007E-08  0.1181E-08  0.2862E-02  0.6973E-03  0.5635E-08  0.5328E-03
      7.874  0.1556E-04  0.9976E-05  0.4042E-04  0.9719E-05  0.3658E-05  0.2338E-04  0.2440E-04  0.1825E-04  0.9553E-06
      7.993  0.3028E-02  0.2194E-02  0.8297E-02  0.2194E-02  0.8258E-03  0.4121E-02  0.5226E-02  0.4121E-02  0.1161E-09
      8.111  0.5465E-01  0.3961E-01  0.1417E+00  0.3961E-01  0.1491E-01  0.7438E-01  0.9433E-01  0.7438E-01  0.3294E-12
      8.230  0.9689E-01  0.7022E-01  0.2398E+00  0.7022E-01  0.2642E-01  0.1319E+00  0.1672E+00  0.1319E+00  0.5822E-12
      8.348  0.1810E-01  0.1312E-01  0.4284E-01  0.1312E-01  0.4937E-02  0.2463E-01  0.3124E-01  0.2463E-01  0.1087E-12
      8.467  0.3726E-03  0.2211E-03  0.8072E-03  0.2211E-03  0.8215E-04  0.4825E-03  0.5588E-03  0.4825E-03  0.1804E-14
      8.585  0.1013E-01  0.5048E-03  0.1784E-01  0.5048E-03  0.4096E-04  0.1036E-01  0.5702E-02  0.1036E-01  0.2786E-15
      8.704  0.1175E+00  0.5851E-02  0.2069E+00  0.5851E-02  0.4739E-03  0.1201E+00  0.6612E-01  0.1201E+00  0.3205E-14
      8.822  0.1382E+00  0.6879E-02  0.2432E+00  0.6879E-02  0.5571E-03  0.1412E+00  0.7773E-01  0.1412E+00  0.3768E-14
      8.941  0.1681E-01  0.8368E-03  0.2959E-01  0.8369E-03  0.6777E-04  0.1718E-01  0.9456E-02  0.1718E-01  0.4584E-15
      9.059  0.1745E-03  0.8688E-05  0.3072E-03  0.8689E-05  0.7037E-06  0.1784E-03  0.9818E-04  0.1784E-03  0.4759E-17
      9.178  0.1308E-06  0.6512E-08  0.2303E-06  0.6512E-08  0.5274E-09  0.1337E-06  0.7359E-07  0.1337E-06  0.3567E-20
      9.297  0.6509E-11  0.3241E-12  0.1146E-10  0.3241E-12  0.2625E-13  0.6654E-11  0.3662E-11  0.6654E-11  0.1775E-24
      9.415  0.0000E+00  0.0000E+00  0.0000E+00  0.0000E+00  0.0000E+00  0.0000E+00  0.0000E+00  0.0000E+00  0.0000E+00
      9.534  0.0000E+00  0.0000E+00  0.0000E+00  0.0000E+00  0.0000E+00  0.0000E+00  0.0000E+00  0.0000E+00  0.0000E+00
      9.652  0.1826E-14  0.3046E-15  0.1028E-26  0.3046E-15  0.9262E-15  0.2344E-28  0.1025E-15  0.1714E-28  0.1144E-28
      9.771  0.2461E-09  0.4105E-10  0.1386E-21  0.4105E-10  0.1248E-09  0.3160E-23  0.1381E-10  0.2310E-23  0.1542E-23
      9.889  0.2147E-05  0.3581E-06  0.1209E-17  0.3581E-06  0.1089E-05  0.2756E-19  0.1205E-06  0.2015E-19  0.1345E-19
     10.008  0.1267E-02  0.2114E-03  0.7136E-15  0.2114E-03  0.6428E-03  0.1627E-16  0.7113E-04  0.1190E-16  0.7939E-17
     10.126  0.5626E-01  0.9385E-02  0.3169E-13  0.9385E-02  0.2854E-01  0.7224E-15  0.3158E-02  0.5282E-15  0.3525E-15
     10.245  0.2276E+00  0.3797E-01  0.1282E-12  0.3797E-01  0.1155E+00  0.2923E-14  0.1278E-01  0.2137E-14  0.1426E-14
     10.363  0.9772E-01  0.1630E-01  0.5504E-13  0.1630E-01  0.4958E-01  0.1255E-14  0.5485E-02  0.9174E-15  0.6122E-15
     10.482  0.4023E-02  0.6712E-03  0.2266E-14  0.6712E-03  0.2041E-02  0.5166E-16  0.2259E-03  0.3777E-16  0.2521E-16
     10.600  0.1296E-04  0.2162E-05  0.7299E-17  0.2162E-05  0.6574E-05  0.1664E-18  0.7275E-06  0.1217E-18  0.8119E-19
     10.719  0.2879E-08  0.4802E-09  0.1621E-20  0.4802E-09  0.1460E-08  0.5745E-13  0.1616E-09  0.5745E-13  0.1804E-22
     10.837  0.8169E-08  0.6937E-14  0.3497E-13  0.4191E-13  0.2258E-08  0.2258E-08  0.1009E-13  0.2258E-08  0.2327E-13
     10.956  0.2109E-04  0.2936E-19  0.1626E-08  0.1626E-08  0.5826E-05  0.5826E-05  0.3606E-09  0.5825E-05  0.1082E-08
     11.074  0.3904E-02  0.8924E-16  0.4944E-05  0.4944E-05  0.1069E-02  0.1069E-02  0.1096E-05  0.1064E-02  0.3289E-05
     11.193  0.7510E-01  0.1896E-13  0.1050E-02  0.1050E-02  0.1847E-01  0.1847E-01  0.2329E-03  0.1758E-01  0.6988E-03
     11.312  0.4056E+00  0.3239E-12  0.1792E-01  0.1792E-01  0.7304E-01  0.7304E-01  0.3973E-02  0.5786E-01  0.1192E-01
     11.430  0.5565E+00  0.7388E-10  0.3015E-01  0.3015E-01  0.8806E-01  0.8806E-01  0.6686E-02  0.6252E-01  0.2006E-01
     11.549  0.9644E-01  0.7075E-06  0.5338E-02  0.5338E-02  0.1502E-01  0.1502E-01  0.1184E-02  0.1049E-01  0.3550E-02
     11.667  0.1505E-02  0.4608E-03  0.1215E-02  0.9986E-03  0.6708E-03  0.7764E-03  0.5043E-03  0.1634E-03  0.2174E-03
     11.786  0.1857E-05  0.2245E-01  0.6839E-01  0.4459E-01  0.2128E-01  0.3291E-01  0.2367E-01  0.2092E-06  0.7889E-02
     11.904  0.2245E-03  0.9891E-01  0.4175E+00  0.1964E+00  0.9379E-01  0.2018E+00  0.1042E+00  0.3823E-04  0.3475E-01
     12.023  0.2901E-01  0.5099E-01  0.3045E+00  0.9647E-01  0.5369E-01  0.1518E+00  0.4913E-01  0.4940E-02  0.1621E-01
     12.141  0.3125E+00  0.5440E-01  0.4397E-01  0.5645E-01  0.1094E+00  0.6524E-01  0.7577E-02  0.5320E-01  0.7307E-03
     12.260  0.3428E+00  0.5741E-01  0.2129E-01  0.5741E-01  0.1178E+00  0.5846E-01  0.5915E-02  0.5837E-01  0.2594E-05
     12.378  0.3876E-01  0.6491E-02  0.2387E-02  0.6491E-02  0.1332E-01  0.6601E-02  0.6680E-03  0.6601E-02  0.6376E-09
     12.497  0.3717E-03  0.6223E-04  0.2289E-04  0.6223E-04  0.1277E-03  0.6329E-04  0.6405E-05  0.6329E-04  0.1723E-13
     12.615  0.2563E-06  0.4292E-07  0.1578E-07  0.4292E-07  0.8809E-07  0.4365E-07  0.4417E-08  0.4365E-07  0.6991E-17
     12.734  0.1856E-10  0.2053E-11  0.7216E-12  0.1962E-11  0.4027E-11  0.1995E-11  0.1060E-11  0.1995E-11  0.4131E-12
     12.852  0.1651E-06  0.2202E-08  0.1998E-18  0.2872E-19  0.9099E-20  0.8554E-19  0.2071E-07  0.1262E-19  0.9966E-08
     12.971  0.2635E-03  0.3514E-05  0.3190E-15  0.4583E-16  0.1452E-16  0.1365E-15  0.3305E-04  0.2015E-16  0.1591E-04
     13.089  0.3012E-01  0.4018E-03  0.3647E-13  0.5241E-14  0.1661E-14  0.1561E-13  0.3779E-02  0.2304E-14  0.1819E-02