    1    1    1    1
  0.1510406E+02  0.2774616E-09  0.2774616E-09  0.2774616E-09  0.5000000E-15
  1.000000000000000E-004
  CAR 
 Au, FCC                                 
   11   16    9
 
  0.3742002E-15  0.3742002E-15  0.3742002E-15  0.4629630E-02
   1       -3.784846
   2        1.967193
   3        1.967193
   4        1.967193
   5        3.846581
   6        3.846581
   7       22.753138
   8       27.355793
   9       27.355794
 
  0.1666667E+00  0.3885781E-15  0.3885781E-15  0.3703704E-01
   1       -2.766707
   2        1.689609
   3        2.265345
   4        2.265347
   5        3.774455
   6        3.774456
   7       22.723183
   8       23.990207
   9       28.541463
 
  0.3333333E+00  0.3885781E-15  0.3885781E-15  0.3703704E-01
   1       -1.229064
   2        2.146721
   3        2.146724
   4        2.777616
   5        4.592891
   6        4.592893
   7       16.153963
   8       23.102088
   9       28.067114
 
  0.5000000E+00  0.3053113E-15  0.3053113E-15  0.1851852E-01
   1       -1.126115
   2        1.912556
   3        1.912559
   4        5.332761
   5        5.332761
   6        5.897397
   7       11.213421
   8       22.049639
   9       26.140781
 
  0.1666667E+00  0.1666667E+00  0.3742002E-15  0.2777778E-01
   1       -2.412941
   2        1.235530
   3        2.662414
   4        2.662414
   5        3.091960
   6        4.181178
   7       24.473673
   8       24.985871
   9       25.928361
 
  0.3333333E+00  0.1666667E+00  0.3885781E-15  0.1111111E+00
   1       -0.797527
   2        0.993408
   3        2.109284
   4        2.950109
   5        4.525544
   6        4.844241
   7       18.904816
   8       24.204589
   9       24.269008
 
  0.5000000E+00  0.1666667E+00  0.3608225E-15  0.1111111E+00
   1       -0.423555
   2        1.445697
   3        2.615683
   4        2.714236
   5        5.386886
   6        8.141657
   7       12.146182
   8       22.049955
   9       24.042405
 
 -0.3333333E+00  0.1666667E+00  0.3053113E-15  0.1111111E+00
   1       -0.295423
   2        1.611448
   3        2.428447
   4        2.587707
   5        4.391729
   6        7.183167
   7       14.451951
   8       21.158507
   9       24.343115
 
 -0.1666667E+00  0.1666667E+00  0.3608225E-15  0.5555556E-01
   1       -1.309765
   2        1.257290
   3        2.280366
   4        2.878528
   5        3.131180
   6        4.962034
   7       20.526145
   8       22.635960
   9       27.158685
 
  0.3333333E+00  0.3333333E+00  0.3742002E-15  0.2777778E-01
   1       -0.592246
   2       -0.003655
   3        3.911812
   4        4.454728
   5        4.454729
   6        4.898304
   7       20.848216
   8       20.848216
   9       20.976847
 
  0.5000000E+00  0.3333333E+00  0.3885781E-15  0.1111111E+00
   1       -0.410202
   2        0.100550
   3        3.450287
   4        4.315062
   5        5.517236
   6        8.712497
   7       14.630235
   8       18.123639
   9       20.097972
 
 -0.3333333E+00  0.3333333E+00  0.3330669E-15  0.5555556E-01
   1        0.176024
   2        1.129214
   3        2.182625
   4        3.679231
   5        4.772625
   6       10.199929
   7       14.488043
   8       15.409852
   9       22.996511
 
  0.5000000E+00  0.5000000E+00  0.3742002E-15  0.1388889E-01
   1       -0.917935
   2       -0.544049
   3        5.284991
   4        5.735668
   5        5.735669
   6        8.134752
   7       14.282470
   8       18.057908
   9       18.057908
 
  0.5000000E+00  0.3333333E+00  0.1666667E+00  0.1111111E+00
   1        0.419138
   2        0.670910
   3        1.582836
   4        4.001447
   5        4.442616
   6        7.447438
   7       16.819008
   8       18.652885
   9       22.023065
 
 -0.3333333E+00  0.3333333E+00  0.1666667E+00  0.1111111E+00
   1        0.673082
   2        0.740165
   3        1.854534
   4        3.501682
   5        5.213364
   6       11.339197
   7       11.863733
   8       18.211234
   9       20.087685
 
 -0.3333333E+00  0.5000000E+00  0.1666667E+00  0.5555556E-01
   1       -0.047003
   2        0.322685
   3        2.808862
   4        4.155717
   5        5.738000
   6       11.901730
   7       13.207324
   8       16.229629
   9       17.785900
