Au, FCC                                 
   3.92390000000000     
     0.000000    0.500000    0.500000
     0.500000    0.000000    0.500000
     0.500000    0.500000    0.000000
   Au
     1
Direct
  0.000000  0.000000  0.000000
 
   28   28   28
 -.63242455273E+02 -.62672729422E+02 -.60948707060E+02 -.58097400396E+02 -.54280213424E+02
 -.49611656725E+02 -.44088788448E+02 -.38071245106E+02 -.31566258021E+02 -.24913105841E+02
 -.18266134993E+02 -.12286318834E+02 -.83217737779E+01 -.63860283216E+01 -.58981670279E+01
 -.63860283216E+01 -.83217737779E+01 -.12286318834E+02 -.18266134993E+02 -.24913105841E+02
 -.31566258021E+02 -.38071245106E+02 -.44088788448E+02 -.49611656725E+02 -.54280213424E+02
 -.58097400396E+02 -.60948707060E+02 -.62672729422E+02 -.62672729422E+02 -.61502270097E+02
 -.59222215302E+02 -.55899295350E+02 -.51669436932E+02 -.46510527476E+02 -.40831439547E+02
 -.34499977136E+02 -.28008186539E+02 -.21282195273E+02 -.14969681424E+02 -.97350469689E+01
 -.71555287162E+01 -.53898298525E+01 -.53986524228E+01 -.71411419868E+01 -.97206779999E+01
 -.14976872129E+02 -.21243163772E+02 -.28014996725E+02 -.34505647661E+02 -.40820036572E+02
 -.46558592292E+02 -.51646889412E+02 -.55883763250E+02 -.59250402394E+02 -.61494188907E+02
 -.62663909327E+02 -.60948707060E+02 -.59222215302E+02 -.56471709387E+02 -.52676899980E+02
 -.48062349808E+02 -.42666656612E+02 -.36722503033E+02 -.30320603133E+02 -.23820190171E+02
 -.17271431709E+02 -.11539738188E+02 -.78208910704E+01 -.59407234694E+01 -.54493119803E+01
 -.58728414480E+01 -.78498523348E+01 -.11544865428E+02 -.17248475972E+02 -.23816706833E+02
 -.30313767470E+02 -.36726582164E+02 -.42679894917E+02 -.48059217366E+02 -.52689087635E+02
 -.56454295238E+02 -.59218759351E+02 -.60941298614E+02 -.61494188907E+02 -.58097400396E+02
 -.55899295350E+02 -.52676899980E+02 -.48579282090E+02 -.43595695769E+02 -.38056144124E+02
 -.31975289097E+02 -.25659909241E+02 -.19202172889E+02 -.13212060055E+02 -.86816923376E+01
 -.62546017219E+01 -.51333874916E+01 -.51598927680E+01 -.63079658034E+01 -.86592564715E+01
 -.13176150959E+02 -.19176084564E+02 -.25640349632E+02 -.31956562477E+02 -.38064004815E+02
 -.43612487958E+02 -.48570569693E+02 -.52662202712E+02 -.55909330935E+02 -.58109778045E+02
 -.59218759351E+02 -.59250402394E+02 -.54280213424E+02 -.51669436932E+02 -.48062349808E+02
 -.43595695769E+02 -.38513753731E+02 -.32835676199E+02 -.26734414388E+02 -.20528248839E+02
 -.14426593266E+02 -.95001482982E+01 -.65594996027E+01 -.48777383775E+01 -.44834561638E+01
 -.48864746667E+01 -.64842594992E+01 -.95947706935E+01 -.14404036153E+02 -.20558929899E+02
 -.26737483383E+02 -.32833046867E+02 -.38487543140E+02 -.43648693727E+02 -.48037406335E+02
 -.51656468048E+02 -.54284742050E+02 -.55909330935E+02 -.56454295238E+02 -.55883763250E+02
 -.49611656725E+02 -.46510527476E+02 -.42666656612E+02 -.38056144124E+02 -.32835676199E+02
 -.27078553297E+02 -.21265994022E+02 -.15236184430E+02 -.10215820004E+02 -.69258656839E+01
 -.49109088045E+01 -.40624959772E+01 -.39390169018E+01 -.49933910938E+01 -.68672075123E+01
 -.10234320574E+02 -.15247728762E+02 -.21227125503E+02 -.27126316685E+02 -.32802615350E+02
 -.38055221380E+02 -.42666990222E+02 -.46575092449E+02 -.49558548607E+02 -.51656468048E+02
 -.52662202712E+02 -.52689087635E+02 -.51646889412E+02 -.44088788448E+02 -.40831439547E+02
 -.36722503033E+02 -.31975289097E+02 -.26734414388E+02 -.21265994022E+02 -.15486949882E+02
 -.10531309745E+02 -.71053306972E+01 -.48024234395E+01 -.36931943637E+01 -.34134549910E+01
 -.37711699790E+01 -.47872032509E+01 -.71360780455E+01 -.10556291650E+02 -.15545189842E+02
 -.21223362424E+02 -.26748606111E+02 -.32000317025E+02 -.36705073813E+02 -.40819267824E+02
 -.44097230592E+02 -.46575092449E+02 -.48037406335E+02 -.48570569693E+02 -.48059217366E+02
 -.46558592292E+02 -.38071245106E+02 -.34499977136E+02 -.30320603133E+02 -.25659909241E+02
 -.20528248839E+02 -.15236184430E+02 -.10531309745E+02 -.72843120277E+01 -.48005059674E+01
 -.37534133353E+01 -.29368239164E+01 -.29128337126E+01 -.36525169650E+01 -.48321030362E+01
 -.72539953434E+01 -.10558199583E+02 -.15277410775E+02 -.20526352145E+02 -.25635133328E+02
 -.30305618339E+02 -.34549200527E+02 -.38035845416E+02 -.40819267824E+02 -.42666990222E+02
 -.43648693727E+02 -.43612487958E+02 -.42679894917E+02 -.40820036572E+02 -.31566258021E+02
 -.28008186539E+02 -.23820190171E+02 -.19202172889E+02 -.14426593266E+02 -.10215820004E+02
 -.71053306972E+01 -.48005059674E+01 -.35010338129E+01 -.26864350993E+01 -.21719048209E+01
 -.27644735136E+01 -.35733763511E+01 -.48031662822E+01 -.71509703659E+01 -.10182882468E+02
 -.14428989256E+02 -.19207492081E+02 -.23802546696E+02 -.27986094950E+02 -.31588962956E+02
 -.34549200527E+02 -.36705073813E+02 -.38055221380E+02 -.38487543140E+02 -.38064004815E+02
 -.36726582164E+02 -.34505647661E+02 -.24913105841E+02 -.21282195273E+02 -.17271431709E+02
 -.13212060055E+02 -.95001482982E+01 -.69258656839E+01 -.48024234395E+01 -.37534133353E+01
 -.26864350993E+01 -.25703315581E+01 -.23342889585E+01 -.25953678878E+01 -.37206403204E+01
 -.47570639116E+01 -.69515763865E+01 -.95552543904E+01 -.13156104632E+02 -.17243908513E+02
 -.21351889562E+02 -.24847519267E+02 -.27986094950E+02 -.30305618339E+02 -.32000317025E+02
 -.32802615350E+02 -.32833046867E+02 -.31956562477E+02 -.30313767470E+02 -.28014996725E+02
 -.18266134993E+02 -.14969681424E+02 -.11539738188E+02 -.86816923376E+01 -.65594996027E+01
 -.49109088045E+01 -.36931943637E+01 -.29368239164E+01 -.21719048209E+01 -.23342889585E+01
 -.23711944624E+01 -.28911454560E+01 -.38610283341E+01 -.48059699130E+01 -.65723025172E+01
 -.86737020150E+01 -.11561596322E+02 -.14837471888E+02 -.18343944169E+02 -.21351889562E+02
 -.23802546696E+02 -.25635133328E+02 -.26748606111E+02 -.27126316685E+02 -.26737483383E+02
 -.25640349632E+02 -.23816706833E+02 -.21243163772E+02 -.12286318834E+02 -.97350469689E+01
 -.78208910704E+01 -.62546017219E+01 -.48777383775E+01 -.40624959772E+01 -.34134549910E+01
 -.29128337126E+01 -.27644735136E+01 -.25953678878E+01 -.28911454560E+01 -.32961925772E+01
 -.40525277340E+01 -.49891893593E+01 -.61189894681E+01 -.78923537100E+01 -.98650722885E+01
 -.12273558815E+02 -.14837471888E+02 -.17243908513E+02 -.19207492081E+02 -.20526352145E+02
 -.21223362424E+02 -.21227125503E+02 -.20558929899E+02 -.19176084564E+02 -.17248475972E+02
 -.14976872129E+02 -.83217737779E+01 -.71555287162E+01 -.59407234694E+01 -.51333874916E+01
 -.44834561638E+01 -.39390169018E+01 -.37711699790E+01 -.36525169650E+01 -.35733763511E+01
 -.37206403204E+01 -.38610283341E+01 -.40525277340E+01 -.43144388390E+01 -.52391656037E+01
 -.60618240304E+01 -.68222604313E+01 -.83501025892E+01 -.98650722885E+01 -.11561596322E+02
 -.13156104632E+02 -.14428989256E+02 -.15277410775E+02 -.15545189842E+02 -.15247728762E+02
 -.14404036153E+02 -.13176150959E+02 -.11544865428E+02 -.97206779999E+01 -.63860283216E+01
 -.53898298525E+01 -.54493119803E+01 -.51598927680E+01 -.48864746667E+01 -.49933910938E+01
 -.47872032509E+01 -.48321030361E+01 -.48031662822E+01 -.47570639116E+01 -.48059699130E+01
 -.49891893593E+01 -.52391656037E+01 -.50298451170E+01 -.57780948492E+01 -.66204534775E+01
 -.68222604313E+01 -.78923537100E+01 -.86737020150E+01 -.95552543904E+01 -.10182882468E+02
 -.10558199583E+02 -.10556291650E+02 -.10234320574E+02 -.95947706935E+01 -.86592564715E+01
 -.78498523348E+01 -.71411419868E+01 -.58981670279E+01 -.53986524228E+01 -.58728414480E+01
 -.63079658034E+01 -.64842594992E+01 -.68672075123E+01 -.71360780455E+01 -.72539953434E+01
 -.71509703659E+01 -.69515763865E+01 -.65723025172E+01 -.61189894681E+01 -.60618240304E+01
 -.57780948492E+01 -.49545445971E+01 -.57780948492E+01 -.60618240304E+01 -.61189894681E+01
 -.65723025172E+01 -.69515763865E+01 -.71509703659E+01 -.72539953434E+01 -.71360780455E+01
 -.68672075123E+01 -.64842594992E+01 -.63079658034E+01 -.58728414480E+01 -.53986524228E+01
 -.63860283216E+01 -.71411419868E+01 -.78498523348E+01 -.86592564715E+01 -.95947706935E+01
 -.10234320574E+02 -.10556291650E+02 -.10558199583E+02 -.10182882468E+02 -.95552543904E+01
 -.86737020150E+01 -.78923537100E+01 -.68222604313E+01 -.66204534775E+01 -.57780948492E+01
 -.50298451170E+01 -.52391656037E+01 -.49891893593E+01 -.48059699130E+01 -.47570639116E+01
 -.48031662822E+01 -.48321030362E+01 -.47872032509E+01 -.49933910938E+01 -.48864746667E+01
 -.51598927680E+01 -.54493119803E+01 -.53898298525E+01 -.83217737779E+01 -.97206779999E+01
 -.11544865428E+02 -.13176150959E+02 -.14404036153E+02 -.15247728762E+02 -.15545189842E+02
 -.15277410775E+02 -.14428989256E+02 -.13156104632E+02 -.11561596322E+02 -.98650722885E+01
 -.83501025892E+01 -.68222604313E+01 -.60618240304E+01 -.52391656037E+01 -.43144388390E+01
 -.40525277340E+01 -.38610283341E+01 -.37206403204E+01 -.35733763511E+01 -.36525169650E+01
 -.37711699790E+01 -.39390169018E+01 -.44834561638E+01 -.51333874916E+01 -.59407234694E+01
 -.71555287162E+01 -.12286318834E+02 -.14976872129E+02 -.17248475972E+02 -.19176084564E+02
 -.20558929899E+02 -.21227125503E+02 -.21223362424E+02 -.20526352145E+02 -.19207492081E+02
 -.17243908513E+02 -.14837471888E+02 -.12273558815E+02 -.98650722885E+01 -.78923537100E+01
 -.61189894681E+01 -.49891893593E+01 -.40525277340E+01 -.32961925772E+01 -.28911454560E+01
 -.25953678878E+01 -.27644735136E+01 -.29128337126E+01 -.34134549910E+01 -.40624959772E+01
 -.48777383775E+01 -.62546017219E+01 -.78208910704E+01 -.97350469689E+01 -.18266134993E+02
 -.21243163772E+02 -.23816706833E+02 -.25640349632E+02 -.26737483383E+02 -.27126316685E+02
 -.26748606111E+02 -.25635133328E+02 -.23802546696E+02 -.21351889562E+02 -.18343944169E+02
 -.14837471888E+02 -.11561596322E+02 -.86737020150E+01 -.65723025172E+01 -.48059699130E+01
 -.38610283341E+01 -.28911454560E+01 -.23711944624E+01 -.23342889585E+01 -.21719048209E+01
 -.29368239164E+01 -.36931943637E+01 -.49109088045E+01 -.65594996027E+01 -.86816923376E+01
 -.11539738188E+02 -.14969681424E+02 -.24913105841E+02 -.28014996725E+02 -.30313767470E+02
 -.31956562477E+02 -.32833046867E+02 -.32802615350E+02 -.32000317025E+02 -.30305618339E+02
 -.27986094950E+02 -.24847519267E+02 -.21351889562E+02 -.17243908513E+02 -.13156104632E+02
 -.95552543904E+01 -.69515763865E+01 -.47570639116E+01 -.37206403204E+01 -.25953678878E+01
 -.23342889585E+01 -.25703315581E+01 -.26864350993E+01 -.37534133353E+01 -.48024234395E+01
 -.69258656839E+01 -.95001482982E+01 -.13212060055E+02 -.17271431709E+02 -.21282195273E+02
 -.31566258021E+02 -.34505647661E+02 -.36726582164E+02 -.38064004815E+02 -.38487543140E+02
 -.38055221380E+02 -.36705073813E+02 -.34549200527E+02 -.31588962956E+02 -.27986094950E+02
 -.23802546696E+02 -.19207492081E+02 -.14428989256E+02 -.10182882468E+02 -.71509703659E+01
 -.48031662822E+01 -.35733763511E+01 -.27644735136E+01 -.21719048209E+01 -.26864350993E+01
 -.35010338129E+01 -.48005059674E+01 -.71053306972E+01 -.10215820004E+02 -.14426593266E+02
 -.19202172889E+02 -.23820190171E+02 -.28008186539E+02 -.38071245106E+02 -.40820036572E+02
 -.42679894917E+02 -.43612487958E+02 -.43648693727E+02 -.42666990222E+02 -.40819267824E+02
 -.38035845416E+02 -.34549200527E+02 -.30305618339E+02 -.25635133328E+02 -.20526352145E+02
 -.15277410775E+02 -.10558199583E+02 -.72539953434E+01 -.48321030362E+01 -.36525169650E+01
 -.29128337126E+01 -.29368239164E+01 -.37534133353E+01 -.48005059674E+01 -.72843120277E+01
 -.10531309745E+02 -.15236184430E+02 -.20528248839E+02 -.25659909241E+02 -.30320603133E+02
 -.34499977136E+02 -.44088788448E+02 -.46558592292E+02 -.48059217366E+02 -.48570569693E+02
 -.48037406335E+02 -.46575092449E+02 -.44097230592E+02 -.40819267824E+02 -.36705073813E+02
 -.32000317025E+02 -.26748606111E+02 -.21223362424E+02 -.15545189842E+02 -.10556291650E+02
 -.71360780455E+01 -.47872032509E+01 -.37711699790E+01 -.34134549910E+01 -.36931943637E+01
 -.48024234395E+01 -.71053306972E+01 -.10531309745E+02 -.15486949882E+02 -.21265994022E+02
 -.26734414388E+02 -.31975289097E+02 -.36722503033E+02 -.40831439547E+02 -.49611656725E+02
 -.51646889412E+02 -.52689087635E+02 -.52662202712E+02 -.51656468048E+02 -.49558548607E+02
 -.46575092449E+02 -.42666990222E+02 -.38055221380E+02 -.32802615350E+02 -.27126316685E+02
 -.21227125503E+02 -.15247728762E+02 -.10234320574E+02 -.68672075123E+01 -.49933910938E+01
 -.39390169018E+01 -.40624959772E+01 -.49109088045E+01 -.69258656839E+01 -.10215820004E+02
 -.15236184430E+02 -.21265994022E+02 -.27078553297E+02 -.32835676199E+02 -.38056144124E+02
 -.42666656612E+02 -.46510527476E+02 -.54280213424E+02 -.55883763250E+02 -.56454295238E+02
 -.55909330935E+02 -.54284742050E+02 -.51656468048E+02 -.48037406335E+02 -.43648693727E+02
 -.38487543140E+02 -.32833046867E+02 -.26737483383E+02 -.20558929899E+02 -.14404036153E+02
 -.95947706935E+01 -.64842594992E+01 -.48864746667E+01 -.44834561638E+01 -.48777383775E+01
 -.65594996027E+01 -.95001482982E+01 -.14426593266E+02 -.20528248839E+02 -.26734414388E+02
 -.32835676199E+02 -.38513753731E+02 -.43595695769E+02 -.48062349808E+02 -.51669436932E+02
 -.58097400396E+02 -.59250402394E+02 -.59218759351E+02 -.58109778045E+02 -.55909330935E+02
 -.52662202712E+02 -.48570569693E+02 -.43612487958E+02 -.38064004815E+02 -.31956562477E+02
 -.25640349632E+02 -.19176084564E+02 -.13176150959E+02 -.86592564715E+01 -.63079658034E+01
 -.51598927680E+01 -.51333874916E+01 -.62546017219E+01 -.86816923376E+01 -.13212060055E+02
 -.19202172889E+02 -.25659909241E+02 -.31975289097E+02 -.38056144124E+02 -.43595695769E+02
 -.48579282090E+02 -.52676899980E+02 -.55899295350E+02 -.60948707060E+02 -.61494188907E+02
 -.60941298614E+02 -.59218759351E+02 -.56454295238E+02 -.52689087635E+02 -.48059217366E+02
 -.42679894917E+02 -.36726582164E+02 -.30313767470E+02 -.23816706833E+02 -.17248475972E+02
 -.11544865428E+02 -.78498523348E+01 -.58728414480E+01 -.54493119803E+01 -.59407234694E+01
 -.78208910704E+01 -.11539738188E+02 -.17271431709E+02 -.23820190171E+02 -.30320603133E+02
 -.36722503033E+02 -.42666656612E+02 -.48062349808E+02 -.52676899980E+02 -.56471709387E+02
 -.59222215302E+02 -.62672729422E+02 -.62663909327E+02 -.61494188907E+02 -.59250402394E+02
 -.55883763250E+02 -.51646889412E+02 -.46558592292E+02 -.40820036572E+02 -.34505647661E+02
 -.28014996725E+02 -.21243163772E+02 -.14976872129E+02 -.97206779999E+01 -.71411419868E+01
 -.53986524228E+01 -.53898298525E+01 -.71555287162E+01 -.97350469689E+01 -.14969681424E+02
 -.21282195273E+02 -.28008186539E+02 -.34499977136E+02 -.40831439547E+02 -.46510527476E+02
 -.51669436932E+02 -.55899295350E+02 -.59222215302E+02 -.61502270097E+02 -.62672699429E+02
 -.61502278245E+02 -.59222108385E+02 -.55899178270E+02 -.51669383912E+02 -.46510587459E+02
 -.40831576351E+02 -.34500143411E+02 -.28008192337E+02 -.21282090575E+02 -.14969647866E+02
 -.97351963922E+01 -.71555555317E+01 -.53897008734E+01 -.53986560034E+01 -.71412553533E+01
 -.97207231929E+01 -.14976778393E+02 -.21243176479E+02 -.28015101552E+02 -.34505738450E+02
 -.40819994811E+02 -.46558478927E+02 -.51646762005E+02 -.55883691012E+02 -.59250442592E+02
 -.61494265291E+02 -.62663866939E+02 -.61502278245E+02 -.59786695470E+02 -.57018623209E+02
 -.53213018783E+02 -.48533105699E+02 -.43172317082E+02 -.37192924752E+02 -.30738914394E+02
 -.24189475801E+02 -.17586317413E+02 -.11805745532E+02 -.79741344716E+01 -.61027518347E+01
 -.56150883746E+01 -.61200155235E+01 -.80298993577E+01 -.11776243069E+02 -.17598087814E+02
 -.24210614072E+02 -.30736918850E+02 -.37155859958E+02 -.43163155886E+02 -.48540389055E+02
 -.53205588903E+02 -.57015957340E+02 -.59775755174E+02 -.61519844590E+02 -.62094331832E+02
 -.59222108385E+02 -.57018623209E+02 -.53727231246E+02 -.49575417447E+02 -.44614272898E+02
 -.38978173535E+02 -.32781316348E+02 -.26416875625E+02 -.19857948247E+02 -.13695184398E+02
 -.90295399666E+01 -.65328884933E+01 -.53346149612E+01 -.53152852360E+01 -.65085086101E+01
 -.90184276094E+01 -.13753692376E+02 -.19873947527E+02 -.26405905170E+02 -.32815833788E+02
 -.38979212870E+02 -.44579434168E+02 -.49591270058E+02 -.53750749292E+02 -.56999389187E+02
 -.59237747714E+02 -.60357403753E+02 -.60352784449E+02 -.55899178270E+02 -.53213018783E+02
 -.49575417447E+02 -.45094850952E+02 -.39866685449E+02 -.34101217272E+02 -.27927120268E+02
 -.21606792696E+02 -.15313576450E+02 -.10165575672E+02 -.69933175912E+01 -.52012088168E+01
 -.47751300487E+01 -.52398065630E+01 -.69478175383E+01 -.10211420745E+02 -.15315433546E+02
 -.21627504889E+02 -.27923818152E+02 -.34097956189E+02 -.39852754416E+02 -.45103723679E+02
 -.49560488263E+02 -.53228566002E+02 -.55903337951E+02 -.57542325192E+02 -.58108128328E+02
 -.57550566109E+02 -.51669383912E+02 -.48533105699E+02 -.44614272898E+02 -.39866685449E+02
 -.34562372160E+02 -.28642887236E+02 -.22679225856E+02 -.16483389961E+02 -.11154246764E+02
 -.74267447962E+01 -.53248613826E+01 -.44088818842E+01 -.42765552838E+01 -.54245287811E+01
 -.74036662872E+01 -.11132395804E+02 -.16505740911E+02 -.22666799044E+02 -.28689841531E+02
 -.34531967798E+02 -.39882843220E+02 -.44596999387E+02 -.48576533003E+02 -.51635273785E+02
 -.53744254622E+02 -.54819291330E+02 -.54822608806E+02 -.53737013967E+02 -.46510587459E+02
 -.43172317082E+02 -.38978173535E+02 -.34101217272E+02 -.28642887236E+02 -.23065108446E+02
 -.17123156453E+02 -.11768235983E+02 -.78573031474E+01 -.53938277944E+01 -.40499744635E+01
 -.37495359869E+01 -.41325133553E+01 -.52759957332E+01 -.79004250591E+01 -.11710154412E+02
 -.17150165347E+02 -.22998691910E+02 -.28708414925E+02 -.34074108775E+02 -.38942683187E+02
 -.43156505368E+02 -.46545551988E+02 -.49061306752E+02 -.50593733272E+02 -.51118302204E+02
 -.50610172944E+02 -.49074278674E+02 -.40831576351E+02 -.37192924752E+02 -.32781316348E+02
 -.27927120268E+02 -.22679225856E+02 -.17123156453E+02 -.11916676772E+02 -.81582677913E+01
 -.53958429753E+01 -.39897070908E+01 -.32977851451E+01 -.31882349459E+01 -.40325162623E+01
 -.54396172091E+01 -.80851280073E+01 -.11922795125E+02 -.17144224479E+02 -.22653057032E+02
 -.27927357639E+02 -.32838072447E+02 -.37176416576E+02 -.40803919504E+02 -.43643869852E+02
 -.45573285914E+02 -.46549820459E+02 -.46572913689E+02 -.45538648249E+02 -.43618078809E+02
 -.34500143411E+02 -.30738914394E+02 -.26416875625E+02 -.21606792696E+02 -.16483389961E+02
 -.11768235983E+02 -.81582677913E+01 -.54331176833E+01 -.39015867404E+01 -.30209821439E+01
 -.26475885863E+01 -.30543544002E+01 -.38516778185E+01 -.54338272176E+01 -.80841841884E+01
 -.11725750069E+02 -.16524042700E+02 -.21614779244E+02 -.26372353041E+02 -.30749103726E+02
 -.34509948793E+02 -.37613501267E+02 -.39858587690E+02 -.41259476593E+02 -.41718737600E+02
 -.41249928952E+02 -.39884228872E+02 -.37630052957E+02 -.28008192337E+02 -.24189475801E+02
 -.19857948247E+02 -.15313576450E+02 -.11154246764E+02 -.78573031474E+01 -.53958429753E+01
 -.39015867404E+01 -.29959972447E+01 -.23163702758E+01 -.23901124595E+01 -.29520852712E+01
 -.38697640051E+01 -.54761701132E+01 -.78589479365E+01 -.11106674889E+02 -.15325426316E+02
 -.19926654036E+02 -.24166557651E+02 -.27982455664E+02 -.31183821618E+02 -.33674571817E+02
 -.35398770216E+02 -.36264393286E+02 -.36271665377E+02 -.35410403366E+02 -.33645446928E+02
 -.31151385398E+02 -.21282090575E+02 -.17586317413E+02 -.13695184398E+02 -.10165575672E+02
 -.74267447962E+01 -.53938277944E+01 -.39897070908E+01 -.30209821439E+01 -.23163702758E+01
 -.20634521543E+01 -.24158022045E+01 -.30723775787E+01 -.39338660202E+01 -.53135452167E+01
 -.74574054363E+01 -.10208948962E+02 -.13672869124E+02 -.17631052037E+02 -.21303419244E+02
 -.24523271715E+02 -.27147883451E+02 -.29124299741E+02 -.30318766263E+02 -.30723877023E+02
 -.30309163395E+02 -.29098145278E+02 -.27219588235E+02 -.24560070198E+02 -.14969647866E+02
 -.11805745532E+02 -.90295399666E+01 -.69933175912E+01 -.53248613826E+01 -.40499744635E+01
 -.32977851451E+01 -.26475885863E+01 -.23901124595E+01 -.24158022045E+01 -.25642094122E+01
 -.32923227486E+01 -.41654183562E+01 -.53163811087E+01 -.69599527460E+01 -.91042372752E+01
 -.11770751277E+02 -.14859588623E+02 -.17993239651E+02 -.20622902429E+02 -.22715287552E+02
 -.24104523370E+02 -.24851001462E+02 -.24838608313E+02 -.24135934569E+02 -.22722782800E+02
 -.20554698122E+02 -.17952053420E+02 -.97351963922E+01 -.79741344716E+01 -.65328884933E+01
 -.52012088168E+01 -.44088818842E+01 -.37495359869E+01 -.31882349459E+01 -.30543544002E+01
 -.29520852712E+01 -.30723775787E+01 -.32923227486E+01 -.36068150752E+01 -.44221874937E+01
 -.52503977047E+01 -.63845432996E+01 -.80065904833E+01 -.98893386813E+01 -.12007888641E+02
 -.14217066648E+02 -.16273483640E+02 -.17809062076E+02 -.18809982448E+02 -.19119029646E+02
 -.18806399450E+02 -.17805626718E+02 -.16255726667E+02 -.14341772816E+02 -.12036584254E+02
 -.71555555317E+01 -.61027518347E+01 -.53346149612E+01 -.47751300487E+01 -.42765552838E+01
 -.41325133553E+01 -.40325162623E+01 -.38516778185E+01 -.38697640051E+01 -.39338660202E+01
 -.41654183562E+01 -.44221874937E+01 -.45371402947E+01 -.55801244547E+01 -.62102033101E+01
 -.68686022200E+01 -.81583266012E+01 -.94686331372E+01 -.10875376061E+02 -.12045867784E+02
 -.13022256517E+02 -.13462845232E+02 -.13496081906E+02 -.12967414851E+02 -.12093475244E+02
 -.10833774854E+02 -.93605733306E+01 -.81405818728E+01 -.53897008734E+01 -.56150883746E+01
 -.53152852360E+01 -.52398065630E+01 -.54245287811E+01 -.52759957332E+01 -.54396172091E+01
 -.54338272176E+01 -.54761701132E+01 -.53135452167E+01 -.53163811087E+01 -.52503977047E+01
 -.55801244547E+01 -.49792051856E+01 -.57491976215E+01 -.63991623744E+01 -.65654140721E+01
 -.74038386882E+01 -.79631885521E+01 -.86622140608E+01 -.89616642668E+01 -.92065877039E+01
 -.90000030569E+01 -.86781511609E+01 -.79798864496E+01 -.73719970831E+01 -.68049085842E+01
 -.61947762371E+01 -.53986560034E+01 -.61200155235E+01 -.65085086101E+01 -.69478175383E+01
 -.74036662872E+01 -.79004250591E+01 -.80851280073E+01 -.80841841884E+01 -.78589479365E+01
 -.74574054363E+01 -.69599527460E+01 -.63845432996E+01 -.62102033101E+01 -.57491976215E+01
 -.52870951250E+01 -.56272751445E+01 -.56281511751E+01 -.56474545907E+01 -.59365090742E+01
 -.60654839047E+01 -.62615238005E+01 -.61508324192E+01 -.61008625623E+01 -.57775811125E+01
 -.58243721644E+01 -.54180030330E+01 -.55922433425E+01 -.57218342969E+01 -.71412553533E+01
 -.80298993577E+01 -.90184276094E+01 -.10211420745E+02 -.11132395804E+02 -.11710154412E+02
 -.11922795125E+02 -.11725750069E+02 -.11106674889E+02 -.10208948962E+02 -.91042372752E+01
 -.80065904833E+01 -.68686022200E+01 -.63991623744E+01 -.56272751445E+01 -.47956603467E+01
 -.47710359202E+01 -.44434336894E+01 -.42519399306E+01 -.41751511146E+01 -.41687263931E+01
 -.42151521424E+01 -.43660603328E+01 -.44689795659E+01 -.46467589934E+01 -.50413763396E+01
 -.54800334584E+01 -.61948633384E+01 -.97207231929E+01 -.11776243069E+02 -.13753692376E+02
 -.15315433546E+02 -.16505740911E+02 -.17150165347E+02 -.17144224479E+02 -.16524042700E+02
 -.15325426316E+02 -.13672869124E+02 -.11770751277E+02 -.98893386813E+01 -.81583266012E+01
 -.65654140721E+01 -.56281511751E+01 -.47710359202E+01 -.38683177524E+01 -.36169745401E+01
 -.33985939646E+01 -.32170093611E+01 -.32074327734E+01 -.32978620114E+01 -.34790324292E+01
 -.40183222708E+01 -.46930858015E+01 -.55025730849E+01 -.68051282838E+01 -.81405929857E+01
 -.14976778393E+02 -.17598087814E+02 -.19873947527E+02 -.21627504889E+02 -.22666799044E+02
 -.22998691910E+02 -.22653057032E+02 -.21614779244E+02 -.19926654036E+02 -.17631052037E+02
 -.14859588623E+02 -.12007888641E+02 -.94686331372E+01 -.74038386882E+01 -.56474545907E+01
 -.44434336894E+01 -.36169745401E+01 -.28424037056E+01 -.24938087164E+01 -.24969231428E+01
 -.25745082355E+01 -.29836076884E+01 -.35922200426E+01 -.43984616597E+01 -.57297706860E+01
 -.73734119040E+01 -.93710451772E+01 -.12036500698E+02 -.21243176479E+02 -.24210614072E+02
 -.26405905170E+02 -.27923818152E+02 -.28689841531E+02 -.28708414925E+02 -.27927357639E+02
 -.26372353041E+02 -.24166557651E+02 -.21303419244E+02 -.17993239651E+02 -.14217066648E+02
 -.10875376061E+02 -.79631885521E+01 -.59365090742E+01 -.42519399306E+01 -.33985939646E+01
 -.24938087164E+01 -.22391505664E+01 -.21621478945E+01 -.23683009771E+01 -.33767728117E+01
 -.42446291478E+01 -.59592659368E+01 -.79606836025E+01 -.10855880308E+02 -.14301918322E+02
 -.17952078662E+02 -.28015101552E+02 -.30736918850E+02 -.32815833788E+02 -.34097956189E+02
 -.34531967798E+02 -.34074108775E+02 -.32838072447E+02 -.30749103726E+02 -.27982455664E+02
 -.24523271715E+02 -.20622902429E+02 -.16273483640E+02 -.12045867784E+02 -.86622140608E+01
 -.60654839047E+01 -.41751511146E+01 -.32170093611E+01 -.24969231428E+01 -.21621478945E+01
 -.26460836879E+01 -.31810620337E+01 -.42612762907E+01 -.60496674505E+01 -.86020844307E+01
 -.12089659090E+02 -.16268930892E+02 -.20529678957E+02 -.24560131119E+02 -.34505738450E+02
 -.37155859958E+02 -.38979212870E+02 -.39852754416E+02 -.39882843220E+02 -.38942683187E+02
 -.37176416576E+02 -.34509948793E+02 -.31183821618E+02 -.27147883451E+02 -.22715287552E+02
 -.17809062076E+02 -.13022256517E+02 -.89616642668E+01 -.62615238005E+01 -.41687263931E+01
 -.32074327734E+01 -.25745082355E+01 -.23683009771E+01 -.31810620337E+01 -.41215159896E+01
 -.62208626630E+01 -.90061998028E+01 -.13055269944E+02 -.17792722253E+02 -.22686815698E+02
 -.27193794921E+02 -.31151380800E+02 -.40819994811E+02 -.43163155886E+02 -.44579434168E+02
 -.45103723679E+02 -.44596999387E+02 -.43156505368E+02 -.40803919504E+02 -.37613501267E+02
 -.33674571817E+02 -.29124299741E+02 -.24104523370E+02 -.18809982448E+02 -.13462845232E+02
 -.92065877039E+01 -.61508324192E+01 -.42151521424E+01 -.32978620114E+01 -.29836076884E+01
 -.33767728117E+01 -.42612762907E+01 -.62208626630E+01 -.91842359313E+01 -.13500399905E+02
 -.18794498773E+02 -.24133154359E+02 -.29116056729E+02 -.33647307242E+02 -.37629992438E+02
 -.46558478927E+02 -.48540389055E+02 -.49591270058E+02 -.49560488263E+02 -.48576533003E+02
 -.46545551988E+02 -.43643869852E+02 -.39858587690E+02 -.35398770216E+02 -.30318766263E+02
 -.24851001462E+02 -.19119029646E+02 -.13496081906E+02 -.90000030569E+01 -.61008625623E+01
 -.43660603328E+01 -.34790324292E+01 -.35922200426E+01 -.42446291478E+01 -.60496674505E+01
 -.90061998028E+01 -.13500399905E+02 -.19153922637E+02 -.24850388701E+02 -.30313801228E+02
 -.35389702073E+02 -.39895562618E+02 -.43617979388E+02 -.51646762005E+02 -.53205588903E+02
 -.53750749292E+02 -.53228566002E+02 -.51635273785E+02 -.49061306752E+02 -.45573285914E+02
 -.41259476593E+02 -.36264393286E+02 -.30723877023E+02 -.24838608313E+02 -.18806399450E+02
 -.12967414851E+02 -.86781511609E+01 -.57775811125E+01 -.44689795659E+01 -.40183222708E+01
 -.43984616597E+01 -.59592659368E+01 -.86020844307E+01 -.13055269944E+02 -.18794498773E+02
 -.24850388701E+02 -.30703992654E+02 -.36290577035E+02 -.41232835236E+02 -.45581700216E+02
 -.49074214202E+02 -.55883691012E+02 -.57015957340E+02 -.56999389187E+02 -.55903337951E+02
 -.53744254622E+02 -.50593733272E+02 -.46549820459E+02 -.41718737600E+02 -.36271665377E+02
 -.30309163395E+02 -.24135934569E+02 -.17805626718E+02 -.12093475244E+02 -.79798864496E+01
 -.58243721644E+01 -.46467589934E+01 -.46930858015E+01 -.57297706860E+01 -.79606836025E+01
 -.12089659090E+02 -.17792722253E+02 -.24133154359E+02 -.30313801228E+02 -.36290577035E+02
 -.41687385399E+02 -.46593056530E+02 -.50597568477E+02 -.53737010609E+02 -.59250442592E+02
 -.59775755174E+02 -.59237747714E+02 -.57542325192E+02 -.54819291330E+02 -.51118302204E+02
 -.46572913689E+02 -.41249928952E+02 -.35410403366E+02 -.29098145278E+02 -.22722782800E+02
 -.16255726667E+02 -.10833774854E+02 -.73719970831E+01 -.54180030330E+01 -.50413763396E+01
 -.55025730849E+01 -.73734119040E+01 -.10855880308E+02 -.16268930892E+02 -.22686815698E+02
 -.29116056729E+02 -.35389702073E+02 -.41232835236E+02 -.46593056530E+02 -.51098657791E+02
 -.54816193221E+02 -.57550623392E+02 -.61494265291E+02 -.61519844590E+02 -.60357403753E+02
 -.58108128328E+02 -.54822608806E+02 -.50610172944E+02 -.45538648249E+02 -.39884228872E+02
 -.33645446928E+02 -.27219588235E+02 -.20554698122E+02 -.14341772816E+02 -.93605733306E+01
 -.68049085842E+01 -.55922433425E+01 -.54800334584E+01 -.68051282838E+01 -.93710451772E+01
 -.14301918322E+02 -.20529678957E+02 -.27193794921E+02 -.33647307242E+02 -.39895562618E+02
 -.45581700216E+02 -.50597568477E+02 -.54816193221E+02 -.58107219964E+02 -.60352876181E+02
 -.62663866939E+02 -.62094331832E+02 -.60352784449E+02 -.57550566109E+02 -.53737013967E+02
 -.49074278674E+02 -.43618078809E+02 -.37630052957E+02 -.31151385398E+02 -.24560070198E+02
 -.17952053420E+02 -.12036584254E+02 -.81405818728E+01 -.61947762371E+01 -.57218342969E+01
 -.61948633384E+01 -.81405929857E+01 -.12036500698E+02 -.17952078662E+02 -.24560131119E+02
 -.31151380800E+02 -.37629992438E+02 -.43617979388E+02 -.49074214202E+02 -.53737010609E+02
 -.57550623392E+02 -.60352876181E+02 -.62094416208E+02 -.60948778709E+02 -.59222201990E+02
 -.56471643587E+02 -.52676790946E+02 -.48062271809E+02 -.42666649752E+02 -.36722605137E+02
 -.30320742908E+02 -.23820261737E+02 -.17271402618E+02 -.11539743132E+02 -.78209835272E+01
 -.59407994975E+01 -.54492883023E+01 -.58728321638E+01 -.78499744257E+01 -.11544912023E+02
 -.17248455598E+02 -.23816715386E+02 -.30313834473E+02 -.36726636858E+02 -.42679893751E+02
 -.48059154788E+02 -.52689001644E+02 -.56454224535E+02 -.59218735592E+02 -.60941372058E+02
 -.61494304132E+02 -.59222201990E+02 -.57018672562E+02 -.53727162960E+02 -.49575277762E+02
 -.44614129190E+02 -.38978117501E+02 -.32781418006E+02 -.26417074101E+02 -.19858100979E+02
 -.13695097691E+02 -.90294805994E+01 -.65330714598E+01 -.53347500749E+01 -.53152295917E+01
 -.65084805491E+01 -.90185599918E+01 -.13753782338E+02 -.19873905995E+02 -.26405888521E+02
 -.32815899639E+02 -.38979310087E+02 -.44579484535E+02 -.49591243429E+02 -.53750660248E+02
 -.56999273047E+02 -.59237721095E+02 -.60357482795E+02 -.60352887018E+02 -.56471643587E+02
 -.53727162960E+02 -.50098031486E+02 -.45604645167E+02 -.40316098445E+02 -.34484368643E+02