       N       E                     dE             d eps       ncg     rms          rms(c)
DAV:   1     0.502623392609E+02    0.50262E+02   -0.46023E+03   320   0.830E+02
DAV:   2    -0.244115076248E+01   -0.52703E+02   -0.50021E+02   293   0.230E+02
DAV:   3    -0.300260917879E+01   -0.56146E+00   -0.56126E+00   327   0.283E+01
DAV:   4    -0.300442124498E+01   -0.18121E-02   -0.18120E-02   340   0.155E+00
DAV:   5    -0.300443216707E+01   -0.10922E-04   -0.10922E-04   340   0.106E-01    0.287E+00
RMM:   6    -0.279907544924E+01    0.20536E+00   -0.29621E-01   293   0.761E+00    0.918E-01
RMM:   7    -0.276975347998E+01    0.29322E-01   -0.38931E-02   298   0.236E+00    0.247E-01
RMM:   8    -0.276505908676E+01    0.46944E-02   -0.13648E-03   297   0.659E-01    0.104E-02
RMM:   9    -0.276506888559E+01   -0.97988E-05   -0.18426E-05   164   0.649E-02
   1 F= -.27650689E+01 E0= -.27620889E+01  d E =-.596003E-02
