PROCAR lm decomposed
# of k-points:   16         # of bands:   9         # of ions:   1

 k-point    1 :    0.00000000 0.00000000 0.00000000     weight = 0.00462963

band   1 # energy   -3.78484577 # occ.  2.00000000
 
ion      s     py     pz     px    dxy    dyz    dz2    dxz    dx2    tot
  1  0.688  0.000  0.000  0.000  0.000  0.000  0.000  0.000  0.000  0.688
 
band   2 # energy    1.96719270 # occ.  2.00000000
 
ion      s     py     pz     px    dxy    dyz    dz2    dxz    dx2    tot
  1  0.000  0.000  0.000  0.000  0.636  0.154  0.000  0.155  0.000  0.945
 
band   3 # energy    1.96719271 # occ.  2.00000000
 
ion      s     py     pz     px    dxy    dyz    dz2    dxz    dx2    tot
  1  0.000  0.000  0.000  0.000  0.000  0.473  0.000  0.472  0.000  0.945
 
band   4 # energy    1.96719339 # occ.  2.00000000
 
ion      s     py     pz     px    dxy    dyz    dz2    dxz    dx2    tot
  1  0.000  0.000  0.000  0.000  0.309  0.318  0.000  0.318  0.000  0.945
 
band   5 # energy    3.84658122 # occ.  2.00000000
 
ion      s     py     pz     px    dxy    dyz    dz2    dxz    dx2    tot
  1  0.000  0.000  0.000  0.000  0.000  0.000  0.000  0.000  0.972  0.972
 
band   6 # energy    3.84658123 # occ.  2.00000000
 
ion      s     py     pz     px    dxy    dyz    dz2    dxz    dx2    tot
  1  0.000  0.000  0.000  0.000  0.000  0.000  0.972  0.000  0.000  0.972
 
band   7 # energy   22.75313778 # occ.  0.00000000
 
ion      s     py     pz     px    dxy    dyz    dz2    dxz    dx2    tot
  1  0.000  0.000  0.000  0.000  0.000  0.000  0.000  0.000  0.000  0.000
 
band   8 # energy   27.35579350 # occ.  0.00000000
 
ion      s     py     pz     px    dxy    dyz    dz2    dxz    dx2    tot
  1  0.000  0.001  0.098  0.072  0.000  0.000  0.000  0.000  0.000  0.171
 
band   9 # energy   27.35579418 # occ.  0.00000000
 
ion      s     py     pz     px    dxy    dyz    dz2    dxz    dx2    tot
  1  0.000  0.014  0.064  0.093  0.000  0.000  0.000  0.000  0.000  0.171
 

 k-point    2 :    0.16666667 0.00000000 0.00000000     weight = 0.03703704

band   1 # energy   -2.76670740 # occ.  2.00000000
 
ion      s     py     pz     px    dxy    dyz    dz2    dxz    dx2    tot
  1  0.629  0.015  0.015  0.015  0.006  0.006  0.000  0.006  0.000  0.692
 
band   2 # energy    1.68960899 # occ.  2.00000000
 
ion      s     py     pz     px    dxy    dyz    dz2    dxz    dx2    tot
  1  0.007  0.007  0.007  0.007  0.297  0.297  0.000  0.297  0.000  0.918
 
band   3 # energy    2.26534524 # occ.  2.00000000
 
ion      s     py     pz     px    dxy    dyz    dz2    dxz    dx2    tot
  1  0.000  0.001  0.001  0.000  0.439  0.000  0.052  0.435  0.017  0.945
 
band   4 # energy    2.26534748 # occ.  2.00000000
 
ion      s     py     pz     px    dxy    dyz    dz2    dxz    dx2    tot
  1  0.000  0.000  0.000  0.001  0.144  0.583  0.017  0.148  0.052  0.945
 
band   5 # energy    3.77445528 # occ.  2.00000000
 
ion      s     py     pz     px    dxy    dyz    dz2    dxz    dx2    tot
  1  0.000  0.000  0.000  0.000  0.011  0.047  0.218  0.012  0.674  0.962
 
band   6 # energy    3.77445649 # occ.  2.00000000
 
ion      s     py     pz     px    dxy    dyz    dz2    dxz    dx2    tot
  1  0.000  0.000  0.000  0.000  0.035  0.000  0.674  0.035  0.218  0.962
 
band   7 # energy   22.72318251 # occ.  0.00000000
 
ion      s     py     pz     px    dxy    dyz    dz2    dxz    dx2    tot
  1  0.059  0.065  0.065  0.065  0.059  0.059  0.000  0.059  0.000  0.431
 
band   8 # energy   23.99020750 # occ.  0.00000000
 
ion      s     py     pz     px    dxy    dyz    dz2    dxz    dx2    tot
  1  0.007  0.002  0.002  0.002  0.016  0.016  0.000  0.016  0.000  0.059
 
band   9 # energy   28.54146252 # occ.  0.00000000
 
ion      s     py     pz     px    dxy    dyz    dz2    dxz    dx2    tot
  1  0.000  0.084  0.130  0.005  0.044  0.002  0.051  0.029  0.006  0.352
 

 k-point    3 :    0.33333333 0.00000000 0.00000000     weight = 0.03703704

band   1 # energy   -1.22906371 # occ.  2.00000000
 
ion      s     py     pz     px    dxy    dyz    dz2    dxz    dx2    tot
  1  0.344  0.011  0.011  0.011  0.137  0.137  0.000  0.137  0.000  0.787
 
band   2 # energy    2.14672137 # occ.  2.00000000
 
ion      s     py     pz     px    dxy    dyz    dz2    dxz    dx2    tot
  1  0.000  0.000  0.000  0.000  0.238  0.000  0.345  0.238  0.115  0.938
 
band   3 # energy    2.14672442 # occ.  2.00000000
 
ion      s     py     pz     px    dxy    dyz    dz2    dxz    dx2    tot
  1  0.000  0.000  0.000  0.001  0.080  0.318  0.115  0.079  0.345  0.938
 
band   4 # energy    2.77761647 # occ.  2.00000000
 
ion      s     py     pz     px    dxy    dyz    dz2    dxz    dx2    tot
  1  0.136  0.075  0.075  0.075  0.137  0.137  0.000  0.137  0.000  0.771
 
band   5 # energy    4.59289130 # occ.  2.00000000
 
ion      s     py     pz     px    dxy    dyz    dz2    dxz    dx2    tot
  1  0.000  0.000  0.001  0.002  0.095  0.316  0.146  0.065  0.342  0.967
 
band   6 # energy    4.59289255 # occ.  2.00000000
 
ion      s     py     pz     px    dxy    dyz    dz2    dxz    dx2    tot
  1  0.000  0.001  0.001  0.000  0.222  0.001  0.342  0.253  0.146  0.967
 
band   7 # energy   16.15396342 # occ.  0.00000000
 
ion      s     py     pz     px    dxy    dyz    dz2    dxz    dx2    tot
  1  0.224  0.086  0.086  0.086  0.085  0.085  0.000  0.085  0.000  0.735
 
band   8 # energy   23.10208810 # occ.  0.00000000
 
ion      s     py     pz     px    dxy    dyz    dz2    dxz    dx2    tot
  1  0.000  0.010  0.010  0.010  0.018  0.018  0.000  0.018  0.000  0.085
 
band   9 # energy   28.06711393 # occ.  0.00000000
 
ion      s     py     pz     px    dxy    dyz    dz2    dxz    dx2    tot
  1  0.000  0.037  0.284  0.141  0.086  0.043  0.000  0.011  0.000  0.602
 

 k-point    4 :    0.50000000 0.00000000 0.00000000     weight = 0.01851852

band   1 # energy   -1.12611501 # occ.  2.00000000
 
ion      s     py     pz     px    dxy    dyz    dz2    dxz    dx2    tot
  1  0.208  0.000  0.000  0.000  0.211  0.211  0.000  0.211  0.000  0.840
 
band   2 # energy    1.91255637 # occ.  2.00000000
 
ion      s     py     pz     px    dxy    dyz    dz2    dxz    dx2    tot
  1  0.000  0.000  0.000  0.000  0.190  0.000  0.414  0.190  0.139  0.933
 
band   3 # energy    1.91255927 # occ.  2.00000000
 
ion      s     py     pz     px    dxy    dyz    dz2    dxz    dx2    tot
  1  0.000  0.000  0.000  0.000  0.064  0.253  0.139  0.063  0.414  0.933
 
band   4 # energy    5.33276062 # occ.  2.00000000
 
ion      s     py     pz     px    dxy    dyz    dz2    dxz    dx2    tot
  1  0.000  0.000  0.000  0.000  0.099  0.392  0.100  0.097  0.294  0.982
 
band   5 # energy    5.33276120 # occ.  2.00000000
 
ion      s     py     pz     px    dxy    dyz    dz2    dxz    dx2    tot
  1  0.000  0.000  0.000  0.000  0.293  0.000  0.294  0.295  0.100  0.982
 
band   6 # energy    5.89739667 # occ.  2.00000000
 
ion      s     py     pz     px    dxy    dyz    dz2    dxz    dx2    tot
  1  0.000  0.198  0.198  0.198  0.000  0.000  0.000  0.000  0.000  0.594
 
band   7 # energy   11.21342068 # occ.  0.00000000
 
ion      s     py     pz     px    dxy    dyz    dz2    dxz    dx2    tot
  1  0.497  0.000  0.000  0.000  0.137  0.137  0.000  0.137  0.000  0.909
 
band   8 # energy   22.04963888 # occ.  0.00000000
 
ion      s     py     pz     px    dxy    dyz    dz2    dxz    dx2    tot
  1  0.000  0.008  0.008  0.008  0.000  0.000  0.000  0.000  0.000  0.024
 
band   9 # energy   26.14078142 # occ.  0.00000000
 
ion      s     py     pz     px    dxy    dyz    dz2    dxz    dx2    tot
  1  0.000  0.227  0.226  0.009  0.000  0.000  0.000  0.000  0.000  0.462
 

 k-point    5 :    0.16666667 0.16666667 0.00000000     weight = 0.02777778

band   1 # energy   -2.41294143 # occ.  2.00000000
 
ion      s     py     pz     px    dxy    dyz    dz2    dxz    dx2    tot
  1  0.608  0.000  0.064  0.000  0.000  0.000  0.018  0.000  0.000  0.690
 
band   2 # energy    1.23553039 # occ.  2.00000000
 
ion      s     py     pz     px    dxy    dyz    dz2    dxz    dx2    tot
  1  0.000  0.000  0.000  0.000  0.922  0.000  0.000  0.000  0.000  0.922
 
band   3 # energy    2.66241389 # occ.  2.00000000
 
ion      s     py     pz     px    dxy    dyz    dz2    dxz    dx2    tot
  1  0.000  0.008  0.000  0.003  0.000  0.682  0.000  0.252  0.000  0.944
 
band   4 # energy    2.66241432 # occ.  2.00000000
 
ion      s     py     pz     px    dxy    dyz    dz2    dxz    dx2    tot
  1  0.000  0.003  0.000  0.008  0.000  0.252  0.000  0.682  0.000  0.944
 
band   5 # energy    3.09195973 # occ.  2.00000000
 
ion      s     py     pz     px    dxy    dyz    dz2    dxz    dx2    tot
  1  0.012  0.000  0.005  0.000  0.000  0.000  0.921  0.000  0.000  0.938
 
band   6 # energy    4.18117780 # occ.  2.00000000
 
ion      s     py     pz     px    dxy    dyz    dz2    dxz    dx2    tot
  1  0.000  0.000  0.000  0.000  0.000  0.000  0.000  0.000  0.973  0.973
 
band   7 # energy   24.47367277 # occ.  0.00000000
 
ion      s     py     pz     px    dxy    dyz    dz2    dxz    dx2    tot
  1  0.000  0.000  0.000  0.000  0.188  0.000  0.000  0.000  0.000  0.188
 
band   8 # energy   24.98587062 # occ.  0.00000000
 
ion      s     py     pz     px    dxy    dyz    dz2    dxz    dx2    tot
  1  0.051  0.000  0.041  0.000  0.000  0.000  0.126  0.000  0.000  0.218
 
band   9 # energy   25.92836137 # occ.  0.00000000
 
ion      s     py     pz     px    dxy    dyz    dz2    dxz    dx2    tot
  1  0.000  0.344  0.000  0.000  0.000  0.187  0.000  0.000  0.000  0.531
 

 k-point    6 :    0.33333333 0.16666667 0.00000000     weight = 0.11111111

band   1 # energy   -0.79752706 # occ.  2.00000000
 
ion      s     py     pz     px    dxy    dyz    dz2    dxz    dx2    tot
  1  0.393  0.004  0.082  0.004  0.074  0.046  0.092  0.046  0.000  0.742
 
band   2 # energy    0.99340752 # occ.  2.00000000
 
ion      s     py     pz     px    dxy    dyz    dz2    dxz    dx2    tot
  1  0.031  0.016  0.014  0.016  0.730  0.014  0.043  0.014  0.000  0.877
 
band   3 # energy    2.10928396 # occ.  2.00000000
 
ion      s     py     pz     px    dxy    dyz    dz2    dxz    dx2    tot
  1  0.020  0.001  0.008  0.001  0.063  0.139  0.542  0.139  0.000  0.914
 
band   4 # energy    2.95010907 # occ.  2.00000000
 
ion      s     py     pz     px    dxy    dyz    dz2    dxz    dx2    tot
  1  0.000  0.005  0.000  0.005  0.000  0.305  0.000  0.305  0.321  0.943
 
band   5 # energy    4.52554407 # occ.  2.00000000
 
ion      s     py     pz     px    dxy    dyz    dz2    dxz    dx2    tot
  1  0.065  0.011  0.043  0.011  0.032  0.259  0.238  0.259  0.000  0.916
 
band   6 # energy    4.84424143 # occ.  2.00000000
 
ion      s     py     pz     px    dxy    dyz    dz2    dxz    dx2    tot
  1  0.000  0.001  0.000  0.001  0.000  0.164  0.000  0.164  0.645  0.976
 
band   7 # energy   18.90481577 # occ.  0.00000000
 
ion      s     py     pz     px    dxy    dyz    dz2    dxz    dx2    tot
  1  0.151  0.124  0.071  0.124  0.057  0.067  0.012  0.067  0.000  0.672
 
band   8 # energy   24.20458911 # occ.  0.00000000
 
ion      s     py     pz     px    dxy    dyz    dz2    dxz    dx2    tot
  1  0.003  0.006  0.046  0.006  0.072  0.001  0.169  0.001  0.000  0.303
 
band   9 # energy   24.26900763 # occ.  0.00000000
 
ion      s     py     pz     px    dxy    dyz    dz2    dxz    dx2    tot
  1  0.000  0.227  0.000  0.226  0.000  0.087  0.000  0.087  0.022  0.649
 

 k-point    7 :    0.50000000 0.16666667 0.00000000     weight = 0.11111111

band   1 # energy   -0.42355547 # occ.  2.00000000
 
ion      s     py     pz     px    dxy    dyz    dz2    dxz    dx2    tot
  1  0.159  0.001  0.024  0.001  0.350  0.140  0.029  0.140  0.000  0.845
 
band   2 # energy    1.44569694 # occ.  2.00000000
 
ion      s     py     pz     px    dxy    dyz    dz2    dxz    dx2    tot
  1  0.001  0.012  0.000  0.012  0.030  0.085  0.663  0.085  0.000  0.887
 
band   3 # energy    2.61568261 # occ.  2.00000000
 
ion      s     py     pz     px    dxy    dyz    dz2    dxz    dx2    tot
  1  0.000  0.003  0.000  0.003  0.000  0.181  0.000  0.181  0.567  0.935
 
band   4 # energy    2.71423566 # occ.  2.00000000
 
ion      s     py     pz     px    dxy    dyz    dz2    dxz    dx2    tot
  1  0.030  0.042  0.064  0.042  0.433  0.085  0.067  0.085  0.000  0.847
 
band   5 # energy    5.38688578 # occ.  2.00000000
 
ion      s     py     pz     px    dxy    dyz    dz2    dxz    dx2    tot
  1  0.000  0.000  0.000  0.000  0.000  0.302  0.000  0.302  0.379  0.983
 
band   6 # energy    8.14165723 # occ.  0.00000000
 
ion      s     py     pz     px    dxy    dyz    dz2    dxz    dx2    tot
  1  0.092  0.067  0.150  0.067  0.025  0.126  0.159  0.126  0.000  0.811
 
band   7 # energy   12.14618207 # occ.  0.00000000
 
ion      s     py     pz     px    dxy    dyz    dz2    dxz    dx2    tot
  1  0.386  0.065  0.024  0.065  0.133  0.066  0.007  0.066  0.000  0.810
 
band   8 # energy   22.04995511 # occ.  0.00000000
 
ion      s     py     pz     px    dxy    dyz    dz2    dxz    dx2    tot
  1  0.026  0.012  0.179  0.012  0.002  0.025  0.172  0.025  0.000  0.455
 
band   9 # energy   24.04240463 # occ.  0.00000000
 
ion      s     py     pz     px    dxy    dyz    dz2    dxz    dx2    tot
  1  0.000  0.228  0.001  0.250  0.002  0.016  0.000  0.018  0.082  0.597
 

 k-point    8 :   -0.33333333 0.16666667 0.00000000     weight = 0.11111111

band   1 # energy   -0.29542289 # occ.  2.00000000
 
ion      s     py     pz     px    dxy    dyz    dz2    dxz    dx2    tot
  1  0.207  0.020  0.007  0.020  0.277  0.148  0.000  0.148  0.000  0.827
 
band   2 # energy    1.61144811 # occ.  2.00000000
 
ion      s     py     pz     px    dxy    dyz    dz2    dxz    dx2    tot
  1  0.000  0.003  0.007  0.003  0.228  0.088  0.490  0.088  0.000  0.907
 
band   3 # energy    2.42844691 # occ.  2.00000000
 
ion      s     py     pz     px    dxy    dyz    dz2    dxz    dx2    tot
  1  0.054  0.060  0.057  0.060  0.042  0.167  0.205  0.167  0.000  0.811
 
band   4 # energy    2.58770676 # occ.  2.00000000
 
ion      s     py     pz     px    dxy    dyz    dz2    dxz    dx2    tot
  1  0.000  0.002  0.000  0.002  0.000  0.142  0.000  0.142  0.646  0.934
 
band   5 # energy    4.39172927 # occ.  2.00000000
 
ion      s     py     pz     px    dxy    dyz    dz2    dxz    dx2    tot
  1  0.000  0.001  0.000  0.001  0.000  0.337  0.000  0.337  0.285  0.961
 
band   6 # energy    7.18316729 # occ.  1.99995009
 
ion      s     py     pz     px    dxy    dyz    dz2    dxz    dx2    tot
  1  0.144  0.051  0.015  0.051  0.407  0.000  0.226  0.000  0.000  0.894
 
band   7 # energy   14.45195053 # occ.  0.00000000
 
ion      s     py     pz     px    dxy    dyz    dz2    dxz    dx2    tot
  1  0.270  0.071  0.110  0.071  0.039  0.084  0.041  0.084  0.000  0.769
 
band   8 # energy   21.15850679 # occ.  0.00000000
 
ion      s     py     pz     px    dxy    dyz    dz2    dxz    dx2    tot
  1  0.032  0.032  0.278  0.032  0.008  0.097  0.067  0.097  0.000  0.645
 
band   9 # energy   24.34311483 # occ.  0.00000000
 
ion      s     py     pz     px    dxy    dyz    dz2    dxz    dx2    tot
  1  0.020  0.054  0.034  0.054  0.024  0.001  0.024  0.001  0.000  0.211
 

 k-point    9 :   -0.16666667 0.16666667 0.00000000     weight = 0.05555556

band   1 # energy   -1.30976465 # occ.  2.00000000
 
ion      s     py     pz     px    dxy    dyz    dz2    dxz    dx2    tot
  1  0.520  0.049  0.000  0.049  0.082  0.000  0.006  0.000  0.000  0.707
 
band   2 # energy    1.25729015 # occ.  2.00000000
 
ion      s     py     pz     px    dxy    dyz    dz2    dxz    dx2    tot
  1  0.000  0.000  0.028  0.000  0.000  0.439  0.000  0.439  0.000  0.905
 
band   3 # energy    2.28036634 # occ.  2.00000000
 
ion      s     py     pz     px    dxy    dyz    dz2    dxz    dx2    tot
  1  0.005  0.011  0.000  0.011  0.471  0.000  0.421  0.000  0.000  0.919
 
band   4 # energy    2.87852816 # occ.  2.00000000
 
ion      s     py     pz     px    dxy    dyz    dz2    dxz    dx2    tot
  1  0.000  0.000  0.000  0.000  0.000  0.474  0.000  0.474  0.000  0.948
 
band   5 # energy    3.13118009 # occ.  2.00000000
 
ion      s     py     pz     px    dxy    dyz    dz2    dxz    dx2    tot
  1  0.000  0.001  0.000  0.001  0.000  0.000  0.000  0.000  0.940  0.942
 
band   6 # energy    4.96203358 # occ.  2.00000000
 
ion      s     py     pz     px    dxy    dyz    dz2    dxz    dx2    tot
  1  0.031  0.010  0.000  0.010  0.382  0.000  0.527  0.000  0.000  0.960
 
band   7 # energy   20.52614546 # occ.  0.00000000
 
ion      s     py     pz     px    dxy    dyz    dz2    dxz    dx2    tot
  1  0.147  0.118  0.000  0.118  0.103  0.000  0.043  0.000  0.000  0.529
 
band   8 # energy   22.63596007 # occ.  0.00000000
 
ion      s     py     pz     px    dxy    dyz    dz2    dxz    dx2    tot
  1  0.000  0.000  0.302  0.000  0.000  0.201  0.000  0.201  0.000  0.704
 
band   9 # energy   27.15868463 # occ.  0.00000000
 
ion      s     py     pz     px    dxy    dyz    dz2    dxz    dx2    tot
  1  0.021  0.067  0.035  0.067  0.012  0.000  0.030  0.000  0.000  0.233
 

 k-point   10 :    0.33333333 0.33333333 0.00000000     weight = 0.02777778

band   1 # energy   -0.59224647 # occ.  2.00000000
 
ion      s     py     pz     px    dxy    dyz    dz2    dxz    dx2    tot
  1  0.194  0.000  0.051  0.000  0.000  0.000  0.536  0.000  0.000  0.782
 
band   2 # energy   -0.00365462 # occ.  2.00000000
 
ion      s     py     pz     px    dxy    dyz    dz2    dxz    dx2    tot
  1  0.000  0.000  0.000  0.000  0.897  0.000  0.000  0.000  0.000  0.897
 
band   3 # energy    3.91181159 # occ.  2.00000000
 
ion      s     py     pz     px    dxy    dyz    dz2    dxz    dx2    tot
  1  0.235  0.000  0.217  0.000  0.000  0.000  0.335  0.000  0.000  0.786
 
band   4 # energy    4.45472810 # occ.  2.00000000
 
ion      s     py     pz     px    dxy    dyz    dz2    dxz    dx2    tot
  1  0.000  0.009  0.000  0.009  0.000  0.470  0.000  0.470  0.000  0.957
 
band   5 # energy    4.45472857 # occ.  2.00000000
 
ion      s     py     pz     px    dxy    dyz    dz2    dxz    dx2    tot
  1  0.000  0.009  0.000  0.009  0.000  0.470  0.000  0.470  0.000  0.957
 
band   6 # energy    4.89830404 # occ.  2.00000000
 
ion      s     py     pz     px    dxy    dyz    dz2    dxz    dx2    tot
  1  0.000  0.000  0.000  0.000  0.000  0.000  0.000  0.000  0.979  0.979
 
band   7 # energy   20.84821609 # occ.  0.00000000
 
ion      s     py     pz     px    dxy    dyz    dz2    dxz    dx2    tot
  1  0.000  0.392  0.000  0.100  0.000  0.096  0.000  0.024  0.000  0.613
 
band   8 # energy   20.84821613 # occ.  0.00000000
 
ion      s     py     pz     px    dxy    dyz    dz2    dxz    dx2    tot
  1  0.000  0.100  0.000  0.392  0.000  0.024  0.000  0.096  0.000  0.613
 
band   9 # energy   20.97684665 # occ.  0.00000000
 
ion      s     py     pz     px    dxy    dyz    dz2    dxz    dx2    tot
  1  0.232  0.000  0.302  0.000  0.000  0.000  0.238  0.000  0.000  0.772
 

 k-point   11 :    0.50000000 0.33333333 0.00000000     weight = 0.11111111

band   1 # energy   -0.41020204 # occ.  2.00000000
 
ion      s     py     pz     px    dxy    dyz    dz2    dxz    dx2    tot
  1  0.064  0.001  0.008  0.001  0.241  0.002  0.520  0.002  0.000  0.840
 
band   2 # energy    0.10054966 # occ.  2.00000000
 
ion      s     py     pz     px    dxy    dyz    dz2    dxz    dx2    tot
  1  0.006  0.017  0.001  0.017  0.615  0.002  0.208  0.002  0.000  0.868
 
band   3 # energy    3.45028690 # occ.  2.00000000
 
ion      s     py     pz     px    dxy    dyz    dz2    dxz    dx2    tot
  1  0.048  0.000  0.129  0.000  0.014  0.328  0.025  0.328  0.000  0.874
 
band   4 # energy    4.31506198 # occ.  2.00000000
 
ion      s     py     pz     px    dxy    dyz    dz2    dxz    dx2    tot
  1  0.000  0.006  0.000  0.006  0.000  0.131  0.000  0.131  0.683  0.956
 
band   5 # energy    5.51723586 # occ.  2.00000000
 
ion      s     py     pz     px    dxy    dyz    dz2    dxz    dx2    tot
  1  0.000  0.000  0.000  0.000  0.000  0.355  0.000  0.355  0.276  0.986
 
band   6 # energy    8.71249742 # occ.  0.00000000
 
ion      s     py     pz     px    dxy    dyz    dz2    dxz    dx2    tot
  1  0.151  0.008  0.266  0.008  0.001  0.154  0.085  0.154  0.000  0.825
 
band   7 # energy   14.63023491 # occ.  0.00000000
 
ion      s     py     pz     px    dxy    dyz    dz2    dxz    dx2    tot
  1  0.352  0.098  0.099  0.098  0.043  0.003  0.007  0.003  0.000  0.703
 
band   8 # energy   18.12363859 # occ.  0.00000000
 
ion      s     py     pz     px    dxy    dyz    dz2    dxz    dx2    tot
  1  0.085  0.106  0.114  0.106  0.024  0.022  0.272  0.022  0.000  0.751
 
band   9 # energy   20.09797172 # occ.  0.00000000
 
ion      s     py     pz     px    dxy    dyz    dz2    dxz    dx2    tot
  1  0.000  0.259  0.000  0.259  0.000  0.014  0.000  0.014  0.053  0.598
 

 k-point   12 :   -0.33333333 0.33333333 0.00000000     weight = 0.05555556

band   1 # energy    0.17602359 # occ.  2.00000000
 
ion      s     py     pz     px    dxy    dyz    dz2    dxz    dx2    tot
  1  0.054  0.001  0.000  0.001  0.513  0.000  0.304  0.000  0.000  0.874
 
band   2 # energy    1.12921367 # occ.  2.00000000
 
ion      s     py     pz     px    dxy    dyz    dz2    dxz    dx2    tot
  1  0.009  0.058  0.000  0.058  0.235  0.000  0.468  0.000  0.000  0.828
 
band   3 # energy    2.18262515 # occ.  2.00000000
 
ion      s     py     pz     px    dxy    dyz    dz2    dxz    dx2    tot
  1  0.000  0.000  0.111  0.000  0.000  0.384  0.000  0.384  0.000  0.879
 
band   4 # energy    3.67923109 # occ.  2.00000000
 
ion      s     py     pz     px    dxy    dyz    dz2    dxz    dx2    tot
  1  0.000  0.007  0.000  0.007  0.000  0.000  0.000  0.000  0.926  0.940
 
band   5 # energy    4.77262538 # occ.  2.00000000
 
ion      s     py     pz     px    dxy    dyz    dz2    dxz    dx2    tot
  1  0.000  0.000  0.000  0.000  0.000  0.484  0.000  0.484  0.000  0.969
 
band   6 # energy   10.19992948 # occ.  0.00000000
 
ion      s     py     pz     px    dxy    dyz    dz2    dxz    dx2    tot
  1  0.413  0.069  0.000  0.069  0.209  0.000  0.023  0.000  0.000  0.783
 
band   7 # energy   14.48804325 # occ.  0.00000000
 
ion      s     py     pz     px    dxy    dyz    dz2    dxz    dx2    tot
  1  0.000  0.000  0.479  0.000  0.000  0.158  0.000  0.158  0.000  0.795
 
band   8 # energy   15.40985186 # occ.  0.00000000
 
ion      s     py     pz     px    dxy    dyz    dz2    dxz    dx2    tot
  1  0.238  0.121  0.000  0.121  0.006  0.000  0.280  0.000  0.000  0.766
 
band   9 # energy   22.99651075 # occ.  0.00000000
 
ion      s     py     pz     px    dxy    dyz    dz2    dxz    dx2    tot
  1  0.000  0.245  0.000  0.245  0.000  0.000  0.000  0.000  0.181  0.671
 

 k-point   13 :    0.50000000 0.50000000 0.00000000     weight = 0.01388889

band   1 # energy   -0.91793513 # occ.  2.00000000
 
ion      s     py     pz     px    dxy    dyz    dz2    dxz    dx2    tot
  1  0.069  0.000  0.000  0.000  0.000  0.000  0.751  0.000  0.000  0.819
 
band   2 # energy   -0.54404884 # occ.  2.00000000
 
ion      s     py     pz     px    dxy    dyz    dz2    dxz    dx2    tot
  1  0.000  0.000  0.000  0.000  0.891  0.000  0.000  0.000  0.000  0.891
 
band   3 # energy    5.28499069 # occ.  2.00000000
 
ion      s     py     pz     px    dxy    dyz    dz2    dxz    dx2    tot
  1  0.000  0.000  0.000  0.000  0.000  0.000  0.000  0.000  0.985  0.985
 
band   4 # energy    5.73566811 # occ.  2.00000000
 
ion      s     py     pz     px    dxy    dyz    dz2    dxz    dx2    tot
  1  0.000  0.000  0.000  0.000  0.000  0.494  0.000  0.494  0.000  0.988
 
band   5 # energy    5.73566864 # occ.  2.00000000
 
ion      s     py     pz     px    dxy    dyz    dz2    dxz    dx2    tot
  1  0.000  0.000  0.000  0.000  0.000  0.494  0.000  0.494  0.000  0.988
 
band   6 # energy    8.13475174 # occ.  0.00000000
 
ion      s     py     pz     px    dxy    dyz    dz2    dxz    dx2    tot
  1  0.000  0.000  0.652  0.000  0.000  0.000  0.000  0.000  0.000  0.652
 
band   7 # energy   14.28247015 # occ.  0.00000000
 
ion      s     py     pz     px    dxy    dyz    dz2    dxz    dx2    tot
  1  0.626  0.000  0.000  0.000  0.000  0.000  0.269  0.000  0.000  0.895
 
band   8 # energy   18.05790798 # occ.  0.00000000
 
ion      s     py     pz     px    dxy    dyz    dz2    dxz    dx2    tot
  1  0.000  0.164  0.000  0.383  0.000  0.000  0.000  0.000  0.000  0.547
 
band   9 # energy   18.05790804 # occ.  0.00000000
 
ion      s     py     pz     px    dxy    dyz    dz2    dxz    dx2    tot
  1  0.000  0.383  0.000  0.164  0.000  0.000  0.000  0.000  0.000  0.547
 

 k-point   14 :    0.50000000 0.33333333 0.16666667     weight = 0.11111111

band   1 # energy    0.41913837 # occ.  2.00000000
 
ion      s     py     pz     px    dxy    dyz    dz2    dxz    dx2    tot
  1  0.155  0.034  0.058  0.000  0.000  0.057  0.478  0.000  0.007  0.790
 
band   2 # energy    0.67091029 # occ.  2.00000000
 
ion      s     py     pz     px    dxy    dyz    dz2    dxz    dx2    tot
  1  0.000  0.000  0.000  0.038  0.803  0.000  0.000  0.050  0.000  0.890
 
band   3 # energy    1.58283556 # occ.  2.00000000
 
ion      s     py     pz     px    dxy    dyz    dz2    dxz    dx2    tot
  1  0.066  0.003  0.037  0.000  0.000  0.485  0.195  0.000  0.097  0.882
 
band   4 # energy    4.00144746 # occ.  2.00000000
 
ion      s     py     pz     px    dxy    dyz    dz2    dxz    dx2    tot
  1  0.011  0.007  0.038  0.000  0.000  0.004  0.115  0.000  0.756  0.930
 
band   5 # energy    4.44261641 # occ.  2.00000000
 
ion      s     py     pz     px    dxy    dyz    dz2    dxz    dx2    tot
  1  0.000  0.000  0.000  0.012  0.071  0.000  0.000  0.875  0.000  0.959
 
band   6 # energy    7.44743758 # occ.  1.25004991
 
ion      s     py     pz     px    dxy    dyz    dz2    dxz    dx2    tot
  1  0.175  0.021  0.099  0.000  0.000  0.419  0.102  0.000  0.078  0.893
 
band   7 # energy   16.81900762 # occ.  0.00000000
 
ion      s     py     pz     px    dxy    dyz    dz2    dxz    dx2    tot
  1  0.286  0.174  0.124  0.000  0.000  0.021  0.009  0.000  0.063  0.677
 
band   8 # energy   18.65288548 # occ.  0.00000000
 
ion      s     py     pz     px    dxy    dyz    dz2    dxz    dx2    tot
  1  0.000  0.000  0.000  0.472  0.163  0.000  0.000  0.120  0.000  0.755
 
band   9 # energy   22.02306501 # occ.  0.00000000
 
ion      s     py     pz     px    dxy    dyz    dz2    dxz    dx2    tot
  1  0.036  0.049  0.178  0.000  0.000  0.048  0.293  0.000  0.005  0.609
 

 k-point   15 :   -0.33333333 0.33333333 0.16666667     weight = 0.11111111

band   1 # energy    0.67308237 # occ.  2.00000000
 
ion      s     py     pz     px    dxy    dyz    dz2    dxz    dx2    tot
  1  0.069  0.000  0.030  0.030  0.334  0.334  0.005  0.049  0.015  0.866
 
band   2 # energy    0.74016501 # occ.  2.00000000
 
ion      s     py     pz     px    dxy    dyz    dz2    dxz    dx2    tot
  1  0.000  0.037  0.000  0.000  0.039  0.039  0.551  0.000  0.184  0.850
 
band   3 # energy    1.85453448 # occ.  2.00000000
 
ion      s     py     pz     px    dxy    dyz    dz2    dxz    dx2    tot
  1  0.000  0.019  0.045  0.045  0.361  0.361  0.030  0.000  0.010  0.870
 
band   4 # energy    3.50168183 # occ.  2.00000000
 
ion      s     py     pz     px    dxy    dyz    dz2    dxz    dx2    tot
  1  0.007  0.000  0.008  0.008  0.001  0.001  0.200  0.107  0.600  0.933
 
band   5 # energy    5.21336394 # occ.  2.00000000
 
ion      s     py     pz     px    dxy    dyz    dz2    dxz    dx2    tot
  1  0.007  0.000  0.001  0.001  0.059  0.059  0.022  0.760  0.065  0.974
 
band   6 # energy   11.33919741 # occ.  0.00000000
 
ion      s     py     pz     px    dxy    dyz    dz2    dxz    dx2    tot
  1  0.525  0.000  0.029  0.029  0.082  0.082  0.006  0.057  0.019  0.829
 
band   7 # energy   11.86373340 # occ.  0.00000000
 
ion      s     py     pz     px    dxy    dyz    dz2    dxz    dx2    tot
  1  0.000  0.091  0.180  0.180  0.086  0.086  0.096  0.000  0.032  0.750
 
band   8 # energy   18.21123369 # occ.  0.00000000
 
ion      s     py     pz     px    dxy    dyz    dz2    dxz    dx2    tot
  1  0.127  0.000  0.213  0.213  0.045  0.045  0.018  0.038  0.055  0.755
 
band   9 # energy   20.08768451 # occ.  0.00000000
 
ion      s     py     pz     px    dxy    dyz    dz2    dxz    dx2    tot
  1  0.000  0.170  0.065  0.065  0.031  0.031  0.217  0.000  0.072  0.654
 

 k-point   16 :   -0.33333333 0.50000000 0.16666667     weight = 0.05555556

band   1 # energy   -0.04700344 # occ.  2.00000000
 
ion      s     py     pz     px    dxy    dyz    dz2    dxz    dx2    tot
  1  0.028  0.031  0.000  0.000  0.000  0.000  0.745  0.000  0.023  0.827
 
band   2 # energy    0.32268486 # occ.  2.00000000
 
ion      s     py     pz     px    dxy    dyz    dz2    dxz    dx2    tot
  1  0.000  0.000  0.000  0.038  0.848  0.000  0.000  0.000  0.000  0.886
 
band   3 # energy    2.80886176 # occ.  2.00000000
 
ion      s     py     pz     px    dxy    dyz    dz2    dxz    dx2    tot
  1  0.000  0.000  0.116  0.000  0.000  0.769  0.000  0.000  0.000  0.884
 
band   4 # energy    4.15571692 # occ.  2.00000000
 
ion      s     py     pz     px    dxy    dyz    dz2    dxz    dx2    tot
  1  0.022  0.008  0.000  0.000  0.000  0.000  0.026  0.000  0.885  0.941
 
band   5 # energy    5.73799988 # occ.  2.00000000
 
ion      s     py     pz     px    dxy    dyz    dz2    dxz    dx2    tot
  1  0.000  0.000  0.000  0.000  0.000  0.000  0.000  0.988  0.000  0.988
 
band   6 # energy   11.90173043 # occ.  0.00000000
 
ion      s     py     pz     px    dxy    dyz    dz2    dxz    dx2    tot
  1  0.000  0.000  0.509  0.000  0.000  0.249  0.000  0.000  0.000  0.757
 