<?xml version="1.0" encoding="ISO-8859-1"?>
<modeling>
 <generator>
  <i name="program" type="string">vasp </i>
  <i name="version" type="string">5.2.12  </i>
  <i name="subversion" type="string">11Nov11 complex                                                      parallel </i>
  <i name="platform" type="string">LinuxIFC </i>
  <i name="date" type="string">2012 04 18 </i>
  <i name="time" type="string">08:53:27 </i>
 </generator>
 <incar>
  <i type="string" name="SYSTEM"> Au, FCC</i>
  <i type="int" name="ISTART">     0</i>
  <i type="string" name="PREC">normal ! set fft mesh, cutoffs</i>
  <i type="string" name="ALGO"> Fast   ! use fast algorithm for electro</i>
  <i type="int" name="ISPIN">     1</i>
  <i name="EDIFF">      0.00010000</i>
  <i type="int" name="NSW">     0</i>
  <i name="ENCUT">    350.00000000</i>
  <i type="int" name="ISMEAR">     0</i>
  <i name="SIGMA">      0.10000000</i>
  <i type="int" name="NWRITE">     1</i>
  <i type="logical" name="LWAVE"> T  </i>
  <i type="logical" name="LCHARG"> T  </i>
  <i type="logical" name="LVTOT"> T  </i>
  <i type="logical" name="LORBIT"> F  </i>
 </incar>
 <kpoints>
  <generation param="Gamma">
   <v type="int" name="divisions">       6        6        6 </v>
   <v name="usershift">      0.00000000       0.00000000       0.00000000 </v>
   <v name="genvec1">      0.16666667       0.00000000       0.00000000 </v>
   <v name="genvec2">      0.00000000       0.16666667       0.00000000 </v>
   <v name="genvec3">      0.00000000       0.00000000       0.16666667 </v>
   <v name="shift">      0.00000000       0.00000000       0.00000000 </v>
  </generation>
  <varray name="kpointlist" >
   <v>       0.00000000       0.00000000       0.00000000 </v>
   <v>       0.16666667       0.00000000       0.00000000 </v>
   <v>       0.33333333       0.00000000       0.00000000 </v>
   <v>       0.50000000       0.00000000       0.00000000 </v>
   <v>       0.16666667       0.16666667       0.00000000 </v>
   <v>       0.33333333       0.16666667       0.00000000 </v>
   <v>       0.50000000       0.16666667       0.00000000 </v>
   <v>      -0.33333333       0.16666667       0.00000000 </v>
   <v>      -0.16666667       0.16666667       0.00000000 </v>
   <v>       0.33333333       0.33333333       0.00000000 </v>
   <v>       0.50000000       0.33333333       0.00000000 </v>
   <v>      -0.33333333       0.33333333       0.00000000 </v>
   <v>       0.50000000       0.50000000       0.00000000 </v>
   <v>       0.50000000       0.33333333       0.16666667 </v>
   <v>      -0.33333333       0.33333333       0.16666667 </v>
   <v>      -0.33333333       0.50000000       0.16666667 </v>
  </varray>
  <varray name="weights" >
   <v>       0.00462963 </v>
   <v>       0.03703704 </v>
   <v>       0.03703704 </v>
   <v>       0.01851852 </v>
   <v>       0.02777778 </v>
   <v>       0.11111111 </v>
   <v>       0.11111111 </v>
   <v>       0.11111111 </v>
   <v>       0.05555556 </v>
   <v>       0.02777778 </v>
   <v>       0.11111111 </v>
   <v>       0.05555556 </v>
   <v>       0.01388889 </v>
   <v>       0.11111111 </v>
   <v>       0.11111111 </v>
   <v>       0.05555556 </v>
  </varray>
 </kpoints>
 <parameters>
  <separator name="general" >
   <i type="string" name="SYSTEM">Au, FCC</i>
   <i type="logical" name="LCOMPAT"> F  </i>
  </separator>
  <separator name="electronic" >
   <i type="string" name="PREC">normal</i>
   <i name="ENMAX">    350.00000000</i>
   <i name="ENAUG">    356.67000000</i>
   <i name="EDIFF">      0.00010000</i>
   <i type="int" name="IALGO">    68</i>
   <i type="int" name="IWAVPR">    10</i>
   <i type="int" name="NBANDS">     9</i>
   <i name="NELECT">     11.00000000</i>
   <i type="int" name="TURBO">     0</i>
   <i type="int" name="IRESTART">     0</i>
   <i type="int" name="NREBOOT">     0</i>
   <i type="int" name="NMIN">     0</i>
   <i name="EREF">      0.00000000</i>
   <separator name="electronic smearing" >
    <i type="int" name="ISMEAR">     0</i>
    <i name="SIGMA">      0.10000000</i>
    <i name="KSPACING">      0.50000000</i>
    <i type="logical" name="KGAMMA"> T  </i>
   </separator>
   <separator name="electronic projectors" >
    <i type="logical" name="LREAL"> F  </i>
    <v name="ROPT">      0.00000000</v>
    <i type="int" name="LMAXPAW">  -100</i>
    <i type="int" name="LMAXMIX">     2</i>
    <i type="logical" name="NLSPLINE"> F  </i>
   </separator>
   <separator name="electronic startup" >
    <i type="int" name="ISTART">     0</i>
    <i type="int" name="ICHARG">     2</i>
    <i type="int" name="INIWAV">     1</i>
   </separator>
   <separator name="electronic spin" >
    <i type="int" name="ISPIN">     1</i>
    <i type="logical" name="LNONCOLLINEAR"> F  </i>
    <v name="MAGMOM">      1.00000000</v>
    <i name="NUPDOWN">     -1.00000000</i>
    <i type="logical" name="LSORBIT"> F  </i>
    <v name="SAXIS">      0.00000000      0.00000000      1.00000000</v>
    <i type="logical" name="LSPIRAL"> F  </i>
    <v name="QSPIRAL">      0.00000000      0.00000000      0.00000000</v>
    <i type="logical" name="LZEROZ"> F  </i>
   </separator>
   <separator name="electronic exchange-correlation" >
    <i type="logical" name="LASPH"> F  </i>
    <i type="logical" name="LMETAGGA"> F  </i>
   </separator>
   <separator name="electronic convergence" >
    <i type="int" name="NELM">    60</i>
    <i type="int" name="NELMDL">    -5</i>
    <i type="int" name="NELMIN">     2</i>
    <i name="ENINI">    350.00000000</i>
    <separator name="electronic convergence detail" >
     <i type="logical" name="LDIAG"> T  </i>
     <i type="logical" name="LSUBROT"> T  </i>
     <i name="WEIMIN">      0.00000000</i>
     <i name="EBREAK">      0.00000278</i>
     <i name="DEPER">      0.30000000</i>
     <i type="int" name="NRMM">     4</i>
     <i name="TIME">      0.40000000</i>
    </separator>
   </separator>
   <separator name="electronic mixer" >
    <i name="AMIX">      0.40000000</i>
    <i name="BMIX">      1.00000000</i>
    <i name="AMIN">      0.10000000</i>
    <i name="AMIX_MAG">      1.60000000</i>
    <i name="BMIX_MAG">      1.00000000</i>
    <separator name="electronic mixer details" >
     <i type="int" name="IMIX">     4</i>
     <i type="int" name="MAXMIX">   -45</i>
     <i name="WC">    100.00000000</i>
     <i type="int" name="INIMIX">     1</i>
     <i type="int" name="MIXPRE">     1</i>
     <i type="int" name="MREMOVE">     5</i>
    </separator>
   </separator>
   <separator name="electronic dipolcorrection" >
    <i type="logical" name="LDIPOL"> F  </i>
    <i type="logical" name="LMONO"> F  </i>
    <i type="int" name="IDIPOL">     0</i>
    <i name="EPSILON">      1.00000000</i>
    <v name="DIPOL">   -100.00000000   -100.00000000   -100.00000000</v>
    <i name="EFIELD">      0.00000000</i>
   </separator>
  </separator>
  <separator name="grids" >
   <i type="int" name="NGX">    14</i>
   <i type="int" name="NGY">    14</i>
   <i type="int" name="NGZ">    14</i>
   <i type="int" name="NGXF">    28</i>
   <i type="int" name="NGYF">    28</i>
   <i type="int" name="NGZF">    28</i>
   <i type="logical" name="ADDGRID"> F  </i>
  </separator>
  <separator name="ionic" >
   <i type="int" name="NSW">     0</i>
   <i type="int" name="IBRION">    -1</i>
   <i type="int" name="ISIF">     2</i>
   <i name="PSTRESS">      0.00000000</i>
   <i name="EDIFFG">      0.00100000</i>
   <i type="int" name="NFREE">     0</i>
   <i name="POTIM">      0.50000000</i>
   <i name="SMASS">     -3.00000000</i>
   <i name="SCALEE">      1.00000000</i>
  </separator>
  <separator name="ionic md" >
   <i name="TEBEG">      0.00010000</i>
   <i name="TEEND">      0.00010000</i>
   <i type="int" name="NBLOCK">     1</i>
   <i type="int" name="KBLOCK">     1</i>
   <i type="int" name="NPACO">   256</i>
   <i name="APACO">     16.00000000</i>
  </separator>
  <separator name="symmetry" >
   <i type="int" name="ISYM">     2</i>
   <i name="SYMPREC">      0.00001000</i>
  </separator>
  <separator name="dos" >
   <i type="logical" name="LORBIT"> F  </i>
   <v name="RWIGS">     -1.00000000</v>
   <i type="int" name="NEDOS">   301</i>
   <i name="EMIN">     10.00000000</i>
   <i name="EMAX">    -10.00000000</i>
   <i name="EFERMI">      0.00000000</i>
  </separator>
  <separator name="writing" >
   <i type="int" name="NWRITE">     1</i>
   <i type="logical" name="LWAVE"> T  </i>
   <i type="logical" name="LCHARG"> T  </i>
   <i type="logical" name="LPARD"> F  </i>
   <i type="logical" name="LVTOT"> T  </i>
   <i type="logical" name="LVHAR"> F  </i>
   <i type="logical" name="LELF"> F  </i>
   <i type="logical" name="LOPTICS"> F  </i>
   <v name="STM">      0.00000000      0.00000000      0.00000000      0.00000000      0.00000000      0.00000000      0.00000000</v>
  </separator>
  <separator name="performance" >
   <i type="int" name="NPAR">     1</i>
   <i type="int" name="NSIM">     4</i>
   <i type="int" name="NBLK">    -1</i>
   <i type="logical" name="LPLANE"> T  </i>
   <i type="logical" name="LSCALAPACK"> F  </i>
   <i type="logical" name="LSCAAWARE"> F  </i>
   <i type="logical" name="LSCALU"> F  </i>
   <i type="logical" name="LASYNC"> F  </i>
   <i type="logical" name="LORBITALREAL"> F  </i>
  </separator>
  <separator name="miscellaneous" >
   <i type="int" name="IDIOT">     3</i>
   <i type="logical" name="LMUSIC"> F  </i>
   <v name="POMASS">    196.96600000</v>
   <v name="DARWINR">      0.00000000</v>
   <v name="DARWINV">      1.00000000</v>
   <i type="logical" name="LCORR"> T  </i>
  </separator>
  <i type="logical" name="GGA_COMPAT"> T  </i>
  <i type="logical" name="LBERRY"> F  </i>
  <i type="int" name="ICORELEVEL">     0</i>
  <i type="logical" name="LDAU"> F  </i>
  <i type="int" name="I_CONSTRAINED_M">     0</i>
  <separator name="electronic exchange-correlation" >
   <i type="string" name="GGA">--</i>
   <i type="int" name="VOSKOWN">     0</i>
   <i type="logical" name="LHFCALC"> F  </i>
   <i type="string" name="PRECFOCK"></i>
   <i type="logical" name="LHFONE"> F  </i>
   <i type="logical" name="LRHFCALC"> F  </i>
   <i type="logical" name="LTHOMAS"> F  </i>
   <i type="logical" name="LMODELHF"> F  </i>
   <i name="ENCUT4O">     -1.00000000</i>
   <i type="int" name="EXXOEP">     0</i>
   <i type="int" name="FOURORBIT">     0</i>
   <i name="AEXX">      0.00000000</i>
   <i name="HFALPHA">      0.00000000</i>
   <i name="ALDAX">      1.00000000</i>
   <i name="AGGAX">      1.00000000</i>
   <i name="ALDAC">      1.00000000</i>
   <i name="AGGAC">      1.00000000</i>
   <i type="int" name="NKREDX">     1</i>
   <i type="int" name="NKREDY">     1</i>
   <i type="int" name="NKREDZ">     1</i>
   <i type="logical" name="SHIFTRED"> F  </i>
   <i type="logical" name="ODDONLY"> F  </i>
   <i type="logical" name="EVENONLY"> F  </i>
   <i type="int" name="LMAXFOCK">     0</i>
   <i type="int" name="NMAXFOCKAE">     0</i>
   <i type="logical" name="LFOCKAEDFT"> F  </i>
   <i name="HFSCREEN">      0.00000000</i>
   <i name="HFSCREENC">      0.00000000</i>
  </separator>
  <separator name="vdW DFT" >
   <i type="logical" name="LUSE_VDW"> F  </i>
   <i name="Zab_VDW">     -0.84910000</i>
   <i name="PARAM1">      0.12340000</i>
   <i name="PARAM2">      1.00000000</i>
   <i name="PARAM3">      0.00000000</i>
  </separator>
  <separator name="model GW" >
   <i type="int" name="MODEL_GW">     0</i>
   <i name="MODEL_EPS0">      9.06243807</i>
   <i name="MODEL_ALPHA">      1.00000000</i>
  </separator>
  <separator name="linear response parameters" >
   <i type="logical" name="LEPSILON"> F  </i>
   <i type="logical" name="LRPA"> F  </i>
   <i type="logical" name="LNABLA"> F  </i>
   <i type="logical" name="LVEL"> F  </i>
   <i type="int" name="KINTER">     0</i>
   <i name="CSHIFT">      0.10000000</i>
   <i name="OMEGAMAX">     -1.00000000</i>
  </separator>
  <separator name="orbital magnetization" >
   <i type="logical" name="NUCIND"> F  </i>
   <v name="MAGPOS">      0.00000000      0.00000000      0.00000000</v>
   <i type="logical" name="LNICSALL"> T  </i>
   <i type="logical" name="ORBITALMAG"> F  </i>
   <i type="logical" name="LMAGBLOCH"> F  </i>
   <i type="logical" name="LCHIMAG"> F  </i>
   <i type="logical" name="LGAUGE"> T  </i>
   <i type="int" name="MAGATOM">     0</i>
   <v name="MAGDIPOL">      0.00000000      0.00000000      0.00000000</v>
   <v name="AVECCONST">      0.00000000      0.00000000      0.00000000</v>
  </separator>
  <separator name="response functions" >
   <i type="logical" name="LADDER"> F  </i>
   <i type="logical" name="LHARTREE"> T  </i>
   <i type="int" name="IBSE">     0</i>
   <i type="logical" name="LTCTE"> F  </i>
   <i type="logical" name="LTETE"> F  </i>
   <i type="logical" name="LFXCEPS"> F  </i>
   <i type="logical" name="L2ORDER"> F  </i>
   <i type="logical" name="LUSEW"> F  </i>
   <i name="ENCUTGW">     -2.00000000</i>
   <i name="ENCUTGWSOFT">     -2.00000000</i>
   <i name="ENCUTLF">     -1.00000000</i>
   <i type="int" name="LMAXMP2">    -1</i>
   <i name="SCISSOR">      0.00000000</i>
   <i type="int" name="NOMEGA">     0</i>
   <i type="int" name="NOMEGAR">     0</i>
   <i type="int" name="NBANDSGW">    -1</i>
   <i type="int" name="NBANDSO">    -1</i>
   <i type="int" name="NBANDSV">    -1</i>
   <i name="OPTEMAX">      0.00000000</i>
   <i type="int" name="NELM">     1</i>
   <i type="int" name="DIM">     3</i>
   <i type="int" name="ANTIRES">     0</i>
   <i name="OMEGAMAX">    -30.00000000</i>
   <i name="OMEGATL">   -200.00000000</i>
   <i type="int" name="OMEGAGRID">     0</i>
   <i name="CSHIFT">     -0.10000000</i>
   <i type="logical" name="SELFENERGY"> F  </i>
   <i type="logical" name="LSPECTRAL"> F  </i>
   <i type="logical" name="ODDONLYGW"> F  </i>
   <i type="logical" name="EVENONLYGW"> F  </i>
   <i type="int" name="NKREDLFX">     1</i>
   <i type="int" name="NKREDLFY">     1</i>
   <i type="int" name="NKREDLFZ">     1</i>
   <i type="int" name="MAXMEM">  1800</i>
   <i type="int" name="TELESCOPE">     0</i>
  </separator>
 </parameters>
 <atominfo>
  <atoms>       1 </atoms>
  <types>       1 </types>
  <array name="atoms" >
   <dimension dim="1">ion</dimension>
   <field type="string">element</field>
   <field type="int">atomtype</field>
   <set>
    <rc><c>Au</c><c>   1</c></rc>
   </set>
  </array>
  <array name="atomtypes" >
   <dimension dim="1">type</dimension>
   <field type="int">atomspertype</field>
   <field type="string">element</field>
   <field>mass</field>
   <field>valence</field>
   <field type="string">pseudopotential</field>
   <set>
    <rc><c>   1</c><c>Au</c><c>    196.96600000</c><c>     11.00000000</c><c> PAW_GGA Au 18Jul2000                   </c></rc>
   </set>
  </array>
 </atominfo>
 <structure name="initialpos" >
  <crystal>
   <varray name="basis" >
    <v>       0.00000000       1.96195000       1.96195000 </v>
    <v>       1.96195000       0.00000000       1.96195000 </v>
    <v>       1.96195000       1.96195000       0.00000000 </v>
   </varray>
   <i name="volume">     15.10406345 </i>
   <varray name="rec_basis" >
    <v>      -0.25484849       0.25484849       0.25484849 </v>
    <v>       0.25484849      -0.25484849       0.25484849 </v>
    <v>       0.25484849       0.25484849      -0.25484849 </v>
   </varray>
  </crystal>
  <varray name="positions" >
   <v>       0.00000000       0.00000000       0.00000000 </v>
  </varray>
 </structure>
 <calculation>
  <scstep>
   <time name="dav">    0.09    0.11</time>
   <time name="total">    0.11    0.16</time>
   <energy>
    <i name="alphaZ">    123.73329044 </i>
    <i name="ewald">  -1017.93440247 </i>
    <i name="hartreedc">   -108.64682985 </i>
    <i name="XCdc">     15.65807697 </i>
    <i name="pawpsdc">    747.65313744 </i>
    <i name="pawaedc">   -724.56448596 </i>
    <i name="eentropy">     -0.00539393 </i>
    <i name="bandstr">     87.29133218 </i>
    <i name="atom">    927.07761444 </i>
    <i name="e_fr_energy">     50.26233926 </i>
    <i name="e_wo_entrp">     50.26773319 </i>
    <i name="e_0_energy">     50.26503623 </i>
   </energy>
  </scstep>
  <scstep>
   <time name="dav">    0.08    0.08</time>
   <time name="total">    0.08    0.08</time>
   <energy>
    <i name="e_fr_energy">     -2.44115076 </i>
    <i name="e_wo_entrp">     -2.43467905 </i>
    <i name="e_0_energy">     -2.43791491 </i>
   </energy>
  </scstep>
  <scstep>
   <time name="dav">    0.09    0.09</time>
   <time name="total">    0.09    0.09</time>
   <energy>
    <i name="e_fr_energy">     -3.00260918 </i>
    <i name="e_wo_entrp">     -2.99630903 </i>
    <i name="e_0_energy">     -2.99945911 </i>
   </energy>
  </scstep>
  <scstep>
   <time name="dav">    0.09    0.09</time>
   <time name="total">    0.09    0.09</time>
   <energy>
    <i name="e_fr_energy">     -3.00442124 </i>
    <i name="e_wo_entrp">     -2.99811988 </i>
    <i name="e_0_energy">     -3.00127056 </i>
   </energy>
  </scstep>
  <scstep>
   <time name="dav">    0.09    0.09</time>
   <time name="total">    0.10    0.10</time>
   <energy>
    <i name="e_fr_energy">     -3.00443217 </i>
    <i name="e_wo_entrp">     -2.99813081 </i>
    <i name="e_0_energy">     -3.00128149 </i>
   </energy>
  </scstep>
  <scstep>
   <time name="diag">    0.02    0.02</time>
   <time name="diis">    0.07    0.07</time>
   <time name="orth">    0.00    0.00</time>
   <time name="total">    0.13    0.13</time>
   <energy>
    <i name="e_fr_energy">     -2.79907545 </i>
    <i name="e_wo_entrp">     -2.79311477 </i>
    <i name="e_0_energy">     -2.79609511 </i>
   </energy>
  </scstep>
  <scstep>
   <time name="diag">    0.02    0.02</time>
   <time name="diis">    0.07    0.07</time>
   <time name="orth">    0.00    0.00</time>
   <time name="total">    0.13    0.13</time>
   <energy>
    <i name="e_fr_energy">     -2.76975348 </i>
    <i name="e_wo_entrp">     -2.76379337 </i>
    <i name="e_0_energy">     -2.76677342 </i>
   </energy>
  </scstep>
  <scstep>
   <time name="diag">    0.02    0.02</time>
   <time name="diis">    0.07    0.07</time>
   <time name="orth">    0.00    0.00</time>
   <time name="total">    0.13    0.13</time>
   <energy>
    <i name="e_fr_energy">     -2.76505909 </i>
    <i name="e_wo_entrp">     -2.75909905 </i>
    <i name="e_0_energy">     -2.76207907 </i>
   </energy>
  </scstep>
  <scstep>
   <time name="diag">    0.02    0.02</time>
   <time name="diis">    0.04    0.04</time>
   <time name="orth">    0.00    0.00</time>
   <time name="total">    0.09    0.09</time>
   <energy>
    <i name="alphaZ">    123.73329044 </i>
    <i name="ewald">  -1017.93440247 </i>
    <i name="hartreedc">    -98.25661069 </i>
    <i name="XCdc">     15.18295879 </i>
    <i name="pawpsdc">    780.03550427 </i>
    <i name="pawaedc">   -760.46433633 </i>
    <i name="eentropy">     -0.00596003 </i>
    <i name="bandstr">     27.86687269 </i>
    <i name="atom">    927.07761444 </i>
    <i name="e_fr_energy">     -2.76506889 </i>
    <i name="e_wo_entrp">     -2.75910885 </i>
    <i name="e_0_energy">     -2.76208887 </i>
   </energy>
  </scstep>
  <parameters_embedded>
   <separator name="dft+d2" >
    <i type="logical" name="LVDW"> F  </i>
   </separator>
  </parameters_embedded>
  <structure>
   <crystal>
    <varray name="basis" >
     <v>       0.00000000       1.96195000       1.96195000 </v>
     <v>       1.96195000       0.00000000       1.96195000 </v>
     <v>       1.96195000       1.96195000       0.00000000 </v>
    </varray>
    <i name="volume">     15.10406345 </i>
    <varray name="rec_basis" >
     <v>      -0.25484849       0.25484849       0.25484849 </v>
     <v>       0.25484849      -0.25484849       0.25484849 </v>
     <v>       0.25484849       0.25484849      -0.25484849 </v>
    </varray>
   </crystal>
   <varray name="positions" >
    <v>       0.00000000       0.00000000       0.00000000 </v>
   </varray>
  </structure>
  <varray name="forces" >
   <v>       0.00000000       0.00000000       0.00000000 </v>
  </varray>
  <varray name="stress" >
   <v>     452.02383720       0.00000000       0.00000000 </v>
   <v>       0.00000000     452.02383720       0.00000000 </v>
   <v>       0.00000000       0.00000000     452.02383720 </v>
  </varray>
  <energy>
   <i name="e_fr_energy">     -2.76506889 </i>
   <i name="e_wo_entrp">     -2.76208887 </i>
   <i name="e_0_energy">     -0.00596003 </i>
  </energy>
  <time name="totalsc">    1.16    1.26</time>
  <eigenvalues>
   <array>
    <dimension dim="1">band</dimension>
    <dimension dim="2">kpoint</dimension>
    <dimension dim="3">spin</dimension>
    <field>eigene</field>
    <field>occ</field>
    <set>
     <set comment="spin 1">
      <set comment="kpoint 1">
       <r>   -3.7848    1.0000 </r>
       <r>    1.9672    1.0000 </r>
       <r>    1.9672    1.0000 </r>
       <r>    1.9672    1.0000 </r>
       <r>    3.8466    1.0000 </r>
       <r>    3.8466    1.0000 </r>
       <r>   22.7531    0.0000 </r>
       <r>   27.3558    0.0000 </r>
       <r>   27.3558    0.0000 </r>
      </set>
      <set comment="kpoint 2">
       <r>   -2.7667    1.0000 </r>
       <r>    1.6896    1.0000 </r>
       <r>    2.2653    1.0000 </r>
       <r>    2.2653    1.0000 </r>
       <r>    3.7745    1.0000 </r>
       <r>    3.7745    1.0000 </r>
       <r>   22.7232    0.0000 </r>
       <r>   23.9902    0.0000 </r>
       <r>   28.5415    0.0000 </r>
      </set>
      <set comment="kpoint 3">
       <r>   -1.2291    1.0000 </r>
       <r>    2.1467    1.0000 </r>
       <r>    2.1467    1.0000 </r>
       <r>    2.7776    1.0000 </r>
       <r>    4.5929    1.0000 </r>
       <r>    4.5929    1.0000 </r>
       <r>   16.1540    0.0000 </r>
       <r>   23.1021    0.0000 </r>
       <r>   28.0671    0.0000 </r>
      </set>
      <set comment="kpoint 4">
       <r>   -1.1261    1.0000 </r>
       <r>    1.9126    1.0000 </r>
       <r>    1.9126    1.0000 </r>
       <r>    5.3328    1.0000 </r>
       <r>    5.3328    1.0000 </r>
       <r>    5.8974    1.0000 </r>
       <r>   11.2134    0.0000 </r>
       <r>   22.0496    0.0000 </r>
       <r>   26.1408    0.0000 </r>
      </set>
      <set comment="kpoint 5">
       <r>   -2.4129    1.0000 </r>
       <r>    1.2355    1.0000 </r>
       <r>    2.6624    1.0000 </r>
       <r>    2.6624    1.0000 </r>
       <r>    3.0920    1.0000 </r>
       <r>    4.1812    1.0000 </r>
       <r>   24.4737    0.0000 </r>
       <r>   24.9859    0.0000 </r>
       <r>   25.9284    0.0000 </r>
      </set>
      <set comment="kpoint 6">
       <r>   -0.7975    1.0000 </r>
       <r>    0.9934    1.0000 </r>
       <r>    2.1093    1.0000 </r>
       <r>    2.9501    1.0000 </r>
       <r>    4.5255    1.0000 </r>
       <r>    4.8442    1.0000 </r>
       <r>   18.9048    0.0000 </r>
       <r>   24.2046    0.0000 </r>
       <r>   24.2690    0.0000 </r>
      </set>
      <set comment="kpoint 7">
       <r>   -0.4236    1.0000 </r>
       <r>    1.4457    1.0000 </r>
       <r>    2.6157    1.0000 </r>
       <r>    2.7142    1.0000 </r>
       <r>    5.3869    1.0000 </r>
       <r>    8.1417    0.0000 </r>
       <r>   12.1462    0.0000 </r>
       <r>   22.0500    0.0000 </r>
       <r>   24.0424    0.0000 </r>
      </set>
      <set comment="kpoint 8">
       <r>   -0.2954    1.0000 </r>
       <r>    1.6114    1.0000 </r>
       <r>    2.4284    1.0000 </r>
       <r>    2.5877    1.0000 </r>
       <r>    4.3917    1.0000 </r>
       <r>    7.1832    1.0000 </r>
       <r>   14.4520    0.0000 </r>
       <r>   21.1585    0.0000 </r>
       <r>   24.3431    0.0000 </r>
      </set>
      <set comment="kpoint 9">
       <r>   -1.3098    1.0000 </r>
       <r>    1.2573    1.0000 </r>
       <r>    2.2804    1.0000 </r>
       <r>    2.8785    1.0000 </r>
       <r>    3.1312    1.0000 </r>
       <r>    4.9620    1.0000 </r>
       <r>   20.5261    0.0000 </r>
       <r>   22.6360    0.0000 </r>
       <r>   27.1587    0.0000 </r>
      </set>
      <set comment="kpoint 10">
       <r>   -0.5922    1.0000 </r>
       <r>   -0.0037    1.0000 </r>
       <r>    3.9118    1.0000 </r>
       <r>    4.4547    1.0000 </r>
       <r>    4.4547    1.0000 </r>
       <r>    4.8983    1.0000 </r>
       <r>   20.8482    0.0000 </r>
       <r>   20.8482    0.0000 </r>
       <r>   20.9768    0.0000 </r>
      </set>
      <set comment="kpoint 11">
       <r>   -0.4102    1.0000 </r>
       <r>    0.1005    1.0000 </r>
       <r>    3.4503    1.0000 </r>
       <r>    4.3151    1.0000 </r>
       <r>    5.5172    1.0000 </r>
       <r>    8.7125    0.0000 </r>
       <r>   14.6302    0.0000 </r>
       <r>   18.1236    0.0000 </r>
       <r>   20.0980    0.0000 </r>
      </set>
      <set comment="kpoint 12">
       <r>    0.1760    1.0000 </r>
       <r>    1.1292    1.0000 </r>
       <r>    2.1826    1.0000 </r>
       <r>    3.6792    1.0000 </r>
       <r>    4.7726    1.0000 </r>
       <r>   10.1999    0.0000 </r>
       <r>   14.4880    0.0000 </r>
       <r>   15.4099    0.0000 </r>
       <r>   22.9965    0.0000 </r>
      </set>
      <set comment="kpoint 13">
       <r>   -0.9179    1.0000 </r>
       <r>   -0.5440    1.0000 </r>
       <r>    5.2850    1.0000 </r>
       <r>    5.7357    1.0000 </r>
       <r>    5.7357    1.0000 </r>
       <r>    8.1348    0.0000 </r>
       <r>   14.2825    0.0000 </r>
       <r>   18.0579    0.0000 </r>
       <r>   18.0579    0.0000 </r>
      </set>
      <set comment="kpoint 14">
       <r>    0.4191    1.0000 </r>
       <r>    0.6709    1.0000 </r>
       <r>    1.5828    1.0000 </r>
       <r>    4.0014    1.0000 </r>
       <r>    4.4426    1.0000 </r>
       <r>    7.4474    0.6250 </r>
       <r>   16.8190    0.0000 </r>
       <r>   18.6529    0.0000 </r>
       <r>   22.0231    0.0000 </r>
      </set>
      <set comment="kpoint 15">
       <r>    0.6731    1.0000 </r>
       <r>    0.7402    1.0000 </r>
       <r>    1.8545    1.0000 </r>
       <r>    3.5017    1.0000 </r>
       <r>    5.2134    1.0000 </r>
       <r>   11.3392    0.0000 </r>
       <r>   11.8637    0.0000 </r>
       <r>   18.2112    0.0000 </r>
       <r>   20.0877    0.0000 </r>
      </set>
      <set comment="kpoint 16">
       <r>   -0.0470    1.0000 </r>
       <r>    0.3227    1.0000 </r>
       <r>    2.8089    1.0000 </r>
       <r>    4.1557    1.0000 </r>
       <r>    5.7380    1.0000 </r>
       <r>   11.9017    0.0000 </r>
       <r>   13.2073    0.0000 </r>
       <r>   16.2296    0.0000 </r>
       <r>   17.7859    0.0000 </r>
      </set>
     </set>
    </set>
   </array>
  </eigenvalues>
  <separator name="orbital magnetization" >
   <v name="MAGDIPOLOUT">      0.00000000      0.00000000      0.00000000</v>
  </separator>
  <dos>
   <i name="efermi">      7.46997344 </i>
   <total>
    <array>
     <dimension dim="1">gridpoints</dimension>
     <dimension dim="2">spin</dimension>
     <field>energy</field>
     <field>total</field>
     <field>integrated</field>
     <set>
      <set comment="spin 1">
       <r>    -5.4012     0.0000     0.0000 </r>
       <r>    -5.2826     0.0000     0.0000 </r>
       <r>    -5.1641     0.0000     0.0000 </r>
       <r>    -5.0456     0.0000     0.0000 </r>
       <r>    -4.9270     0.0000     0.0000 </r>
       <r>    -4.8085     0.0000     0.0000 </r>
       <r>    -4.6900     0.0000     0.0000 </r>
       <r>    -4.5715     0.0000     0.0000 </r>
       <r>    -4.4529     0.0000     0.0000 </r>
       <r>    -4.3344     0.0000     0.0000 </r>
       <r>    -4.2159     0.0000     0.0000 </r>
       <r>    -4.0973     0.0000     0.0000 </r>
       <r>    -3.9788     0.0002     0.0000 </r>
       <r>    -3.8603     0.0109     0.0013 </r>
       <r>    -3.7417     0.0458     0.0067 </r>
       <r>    -3.6232     0.0203     0.0092 </r>
       <r>    -3.5047     0.0009     0.0093 </r>
       <r>    -3.3862     0.0000     0.0093 </r>
       <r>    -3.2676     0.0000     0.0093 </r>
       <r>    -3.1491     0.0000     0.0093 </r>
       <r>    -3.0306     0.0001     0.0093 </r>
       <r>    -2.9120     0.0124     0.0107 </r>
       <r>    -2.7935     0.2077     0.0354 </r>
       <r>    -2.6750     0.3440     0.0761 </r>
       <r>    -2.5564     0.0698     0.0844 </r>
       <r>    -2.4379     0.1606     0.1034 </r>
       <r>    -2.3194     0.2555     0.1337 </r>
       <r>    -2.2009     0.0429     0.1388 </r>
       <r>    -2.0823     0.0006     0.1389 </r>
       <r>    -1.9638     0.0000     0.1389 </r>
       <r>    -1.8453     0.0000     0.1389 </r>
       <r>    -1.7267     0.0000     0.1389 </r>
       <r>    -1.6082     0.0000     0.1389 </r>
       <r>    -1.4897     0.0052     0.1395 </r>
       <r>    -1.3711     0.1894     0.1620 </r>
       <r>    -1.2526     0.7889     0.2555 </r>
       <r>    -1.1341     0.6593     0.3336 </r>
       <r>    -1.0156     0.2344     0.3614 </r>
       <r>    -0.8970     0.2913     0.3959 </r>
       <r>    -0.7785     1.0734     0.5231 </r>
       <r>    -0.6600     0.7859     0.6163 </r>
       <r>    -0.5414     0.5841     0.6855 </r>
       <r>    -0.4229     1.8761     0.9079 </r>
       <r>    -0.3044     2.5795     1.2136 </r>
       <r>    -0.1859     1.1539     1.3504 </r>
       <r>    -0.0673     0.5547     1.4162 </r>
       <r>     0.0512     1.2531     1.5647 </r>
       <r>     0.1697     1.7019     1.7664 </r>
       <r>     0.2883     1.0925     1.8959 </r>
       <r>     0.4068     1.3413     2.0549 </r>
       <r>     0.5253     1.1241     2.1881 </r>
       <r>     0.6439     1.5091     2.3670 </r>
       <r>     0.7624     3.0862     2.7328 </r>
       <r>     0.8809     1.1377     2.8677 </r>
       <r>     0.9994     0.9771     2.9835 </r>
       <r>     1.1180     1.2241     3.1286 </r>
       <r>     1.2365     1.0947     3.2583 </r>
       <r>     1.3550     0.9556     3.3716 </r>
       <r>     1.4736     1.2983     3.5255 </r>
       <r>     1.5921     2.2750     3.7951 </r>
       <r>     1.7106     2.1716     4.0525 </r>
       <r>     1.8292     1.1535     4.1893 </r>
       <r>     1.9477     1.5087     4.3681 </r>
       <r>     2.0662     1.1758     4.5075 </r>
       <r>     2.1847     2.5213     4.8063 </r>
       <r>     2.3033     2.3290     5.0824 </r>
       <r>     2.4218     1.5637     5.2677 </r>
       <r>     2.5403     1.7086     5.4702 </r>
       <r>     2.6589     3.1625     5.8451 </r>
       <r>     2.7774     2.9928     6.1998 </r>
       <r>     2.8959     2.1181     6.4509 </r>
       <r>     3.0145     1.7194     6.6547 </r>
       <r>     3.1330     1.0634     6.7807 </r>
       <r>     3.2515     0.5578     6.8468 </r>
       <r>     3.3700     0.3410     6.8873 </r>
       <r>     3.4886     1.8275     7.1039 </r>
       <r>     3.6071     1.6264     7.2967 </r>
       <r>     3.7256     1.0080     7.4161 </r>
       <r>     3.8442     1.1442     7.5518 </r>
       <r>     3.9627     1.0842     7.6803 </r>
       <r>     4.0812     1.3753     7.8433 </r>
       <r>     4.1998     1.1412     7.9786 </r>
       <r>     4.3183     1.6686     8.1763 </r>
       <r>     4.4368     3.3119     8.5689 </r>
       <r>     4.5553     3.3387     8.9646 </r>
       <r>     4.6739     1.6029     9.1546 </r>
       <r>     4.7924     1.1441     9.2902 </r>
       <r>     4.9109     1.9100     9.5166 </r>
       <r>     5.0295     1.0919     9.6460 </r>
       <r>     5.1480     0.5126     9.7068 </r>
       <r>     5.2665     1.3980     9.8725 </r>
       <r>     5.3851     1.7971    10.0855 </r>
       <r>     5.5036     1.7720    10.2955 </r>
       <r>     5.6221     1.1208    10.4284 </r>
       <r>     5.7406     0.7902    10.5220 </r>
       <r>     5.8592     0.7058    10.6057 </r>
       <r>     5.9777     0.2395    10.6341 </r>
       <r>     6.0962     0.0397    10.6388 </r>
       <r>     6.2148     0.0008    10.6389 </r>
       <r>     6.3333     0.0000    10.6389 </r>
       <r>     6.4518     0.0000    10.6389 </r>
       <r>     6.5703     0.0000    10.6389 </r>
       <r>     6.6889     0.0000    10.6389 </r>
       <r>     6.8074     0.0000    10.6389 </r>
       <r>     6.9259     0.0003    10.6389 </r>
       <r>     7.0445     0.0464    10.6444 </r>
       <r>     7.1630     0.6803    10.7251 </r>
       <r>     7.2815     1.0117    10.8450 </r>
       <r>     7.4001     0.6055    10.9167 </r>
       <r>     7.5186     1.1109    11.0484 </r>
       <r>     7.6371     0.2878    11.0825 </r>
       <r>     7.7556     0.0068    11.0833 </r>
       <r>     7.8742     0.0002    11.0834 </r>
       <r>     7.9927     0.0380    11.0879 </r>
       <r>     8.1112     0.6737    11.1677 </r>
       <r>     8.2298     1.1768    11.3072 </r>
       <r>     8.3483     0.2169    11.3329 </r>
       <r>     8.4668     0.0040    11.3334 </r>
       <r>     8.5854     0.0672    11.3414 </r>
       <r>     8.7039     0.7789    11.4337 </r>
       <r>     8.8224     0.9157    11.5422 </r>
       <r>     8.9409     0.1114    11.5554 </r>
       <r>     9.0595     0.0012    11.5556 </r>
       <r>     9.1780     0.0000    11.5556 </r>
       <r>     9.2965     0.0000    11.5556 </r>
       <r>     9.4151     0.0000    11.5556 </r>
       <r>     9.5336     0.0000    11.5556 </r>
       <r>     9.6521     0.0000    11.5556 </r>
       <r>     9.7707     0.0000    11.5556 </r>
       <r>     9.8892     0.0000    11.5556 </r>
       <r>    10.0077     0.0031    11.5559 </r>
       <r>    10.1262     0.1363    11.5721 </r>
       <r>    10.2448     0.5515    11.6374 </r>
       <r>    10.3633     0.2367    11.6655 </r>
       <r>    10.4818     0.0097    11.6667 </r>
       <r>    10.6004     0.0000    11.6667 </r>
       <r>    10.7189     0.0000    11.6667 </r>
       <r>    10.8374     0.0000    11.6667 </r>
       <r>    10.9560     0.0000    11.6667 </r>
       <r>    11.0745     0.0078    11.6676 </r>
       <r>    11.1930     0.1491    11.6853 </r>
       <r>    11.3115     0.7818    11.7779 </r>
       <r>    11.4301     1.0618    11.9038 </r>
       <r>    11.5486     0.1838    11.9256 </r>
       <r>    11.6671     0.0084    11.9266 </r>
       <r>    11.7857     0.2944    11.9615 </r>
       <r>    11.9042     1.5255    12.1423 </r>
       <r>    12.0227     0.9988    12.2607 </r>
       <r>    12.1412     0.8729    12.3641 </r>
       <r>    12.2598     0.8886    12.4695 </r>
       <r>    12.3783     0.1004    12.4814 </r>
       <r>    12.4968     0.0010    12.4815 </r>
       <r>    12.6154     0.0000    12.4815 </r>
       <r>    12.7339     0.0000    12.4815 </r>
       <r>    12.8524     0.0000    12.4815 </r>
       <r>    12.9710     0.0004    12.4815 </r>
       <r>    13.0895     0.0444    12.4868 </r>
       <r>    13.2080     0.4276    12.5375 </r>
       <r>    13.3265     0.4220    12.5875 </r>
       <r>    13.4451     0.0427    12.5925 </r>
       <r>    13.5636     0.0004    12.5926 </r>
       <r>    13.6821     0.0000    12.5926 </r>
       <r>    13.8007     0.0000    12.5926 </r>
       <r>    13.9192     0.0000    12.5926 </r>
       <r>    14.0377     0.0001    12.5926 </r>
       <r>    14.1563     0.0087    12.5936 </r>
       <r>    14.2748     0.1110    12.6068 </r>
       <r>    14.3933     0.5677    12.6741 </r>
       <r>    14.5118     1.7299    12.8791 </r>
       <r>    14.6304     1.5366    13.0612 </r>
       <r>    14.7489     0.8799    13.1655 </r>
       <r>    14.8674     0.0868    13.1758 </r>
       <r>    14.9860     0.0007    13.1759 </r>
       <r>    15.1045     0.0000    13.1759 </r>
       <r>    15.2230     0.0039    13.1764 </r>
       <r>    15.3416     0.1527    13.1945 </r>
       <r>    15.4601     0.5570    13.2605 </r>
       <r>    15.5786     0.2158    13.2861 </r>
       <r>    15.6971     0.0079    13.2870 </r>
       <r>    15.8157     0.0000    13.2870 </r>
       <r>    15.9342     0.0006    13.2871 </r>
       <r>    16.0527     0.0528    13.2934 </r>
       <r>    16.1713     0.5113    13.3540 </r>
       <r>    16.2898     0.7956    13.4483 </r>
       <r>    16.4083     0.1967    13.4716 </r>
       <r>    16.5269     0.0055    13.4722 </r>
       <r>    16.6454     0.0132    13.4738 </r>
       <r>    16.7639     0.3954    13.5207 </r>
       <r>    16.8824     1.1197    13.6534 </r>
       <r>    17.0010     0.3371    13.6933 </r>
       <r>    17.1195     0.0094    13.6944 </r>
       <r>    17.2380     0.0000    13.6944 </r>
       <r>    17.3566     0.0000    13.6944 </r>
       <r>    17.4751     0.0000    13.6944 </r>
       <r>    17.5936     0.0031    13.6948 </r>
       <r>    17.7121     0.1361    13.7109 </r>
       <r>    17.8307     0.5518    13.7763 </r>
       <r>    17.9492     0.2787    13.8094 </r>
       <r>    18.0677     0.6701    13.8888 </r>
       <r>    18.1863     1.9514    14.1201 </r>
       <r>    18.3048     1.3806    14.2837 </r>
       <r>    18.4233     0.1825    14.3054 </r>
       <r>    18.5419     0.1106    14.3185 </r>
       <r>    18.6604     0.9080    14.4261 </r>
       <r>    18.7789     0.8580    14.5278 </r>
       <r>    18.8974     0.8588    14.6296 </r>
       <r>    19.0160     0.9070    14.7371 </r>
       <r>    19.1345     0.1076    14.7499 </r>
       <r>    19.2530     0.0011    14.7500 </r>
       <r>    19.3716     0.0000    14.7500 </r>
       <r>    19.4901     0.0000    14.7500 </r>
       <r>    19.6086     0.0000    14.7500 </r>
       <r>    19.7272     0.0000    14.7500 </r>
       <r>    19.8457     0.0009    14.7501 </r>
       <r>    19.9642     0.1297    14.7655 </r>
       <r>    20.0827     1.5322    14.9471 </r>
       <r>    20.2013     1.8504    15.1664 </r>
       <r>    20.3198     0.2355    15.1943 </r>
       <r>    20.4383     0.1014    15.2063 </r>
       <r>    20.5569     0.5258    15.2687 </r>
       <r>    20.6754     0.3017    15.3044 </r>
       <r>    20.7939     0.2191    15.3304 </r>
       <r>    20.9125     0.6427    15.4066 </r>
       <r>    21.0310     0.5120    15.4673 </r>
       <r>    21.1495     0.8808    15.5717 </r>
       <r>    21.2680     0.9219    15.6810 </r>
       <r>    21.3866     0.1126    15.6943 </r>
       <r>    21.5051     0.0012    15.6944 </r>
       <r>    21.6236     0.0000    15.6944 </r>
       <r>    21.7422     0.0001    15.6945 </r>
       <r>    21.8607     0.0284    15.6978 </r>
       <r>    21.9792     0.8205    15.7951 </r>
       <r>    22.0978     2.3952    16.0790 </r>
       <r>    22.2163     0.7918    16.1728 </r>
       <r>    22.3348     0.0262    16.1759 </r>
       <r>    22.4533     0.0047    16.1765 </r>
       <r>    22.5719     0.1768    16.1974 </r>
       <r>    22.6904     0.7646    16.2881 </r>
       <r>    22.8089     0.6042    16.3597 </r>
       <r>    22.9275     0.2468    16.3889 </r>
       <r>    23.0460     0.6875    16.4704 </r>
       <r>    23.1645     0.5921    16.5406 </r>
       <r>    23.2830     0.1228    16.5552 </r>
       <r>    23.4016     0.0033    16.5556 </r>
       <r>    23.5201     0.0000    16.5556 </r>
       <r>    23.6386     0.0000    16.5556 </r>
       <r>    23.7572     0.0004    16.5556 </r>
       <r>    23.8757     0.0498    16.5615 </r>
       <r>    23.9942     0.7440    16.6497 </r>
       <r>    24.1128     1.5883    16.8379 </r>
       <r>    24.2313     1.9866    17.0734 </r>
       <r>    24.3498     2.6325    17.3854 </r>
       <r>    24.4683     1.2665    17.5356 </r>
       <r>    24.5869     0.2987    17.5710 </r>
       <r>    24.7054     0.0259    17.5740 </r>
       <r>    24.8239     0.0054    17.5747 </r>
       <r>    24.9425     0.1212    17.5891 </r>
       <r>    25.0610     0.2748    17.6216 </r>
       <r>    25.1795     0.0661    17.6295 </r>
       <r>    25.2981     0.0014    17.6296 </r>
       <r>    25.4166     0.0000    17.6296 </r>
       <r>    25.5351     0.0000    17.6296 </r>
       <r>    25.6536     0.0000    17.6296 </r>
       <r>    25.7722     0.0063    17.6304 </r>
       <r>    25.8907     0.1330    17.6461 </r>
       <r>    26.0092     0.2799    17.6793 </r>
       <r>    26.1278     0.1817    17.7009 </r>
       <r>    26.2463     0.1590    17.7197 </r>
       <r>    26.3648     0.0210    17.7222 </r>
       <r>    26.4834     0.0002    17.7222 </r>
       <r>    26.6019     0.0000    17.7222 </r>
       <r>    26.7204     0.0000    17.7222 </r>
       <r>    26.8389     0.0000    17.7222 </r>
       <r>    26.9575     0.0021    17.7225 </r>
       <r>    27.0760     0.1115    17.7357 </r>
       <r>    27.1945     0.5387    17.7995 </r>
       <r>    27.3131     0.3142    17.8368 </r>
       <r>    27.4316     0.1050    17.8492 </r>
       <r>    27.5501     0.0218    17.8518 </r>
       <r>    27.6687     0.0005    17.8519 </r>
       <r>    27.7872     0.0000    17.8519 </r>
       <r>    27.9057     0.0070    17.8527 </r>
       <r>    28.0242     0.1631    17.8720 </r>
       <r>    28.1428     0.3659    17.9154 </r>
       <r>    28.2613     0.0871    17.9257 </r>
       <r>    28.3798     0.0088    17.9268 </r>
       <r>    28.4984     0.1625    17.9460 </r>
       <r>    28.6169     0.3661    17.9894 </r>
       <r>    28.7354     0.0875    17.9998 </r>
       <r>    28.8540     0.0019    18.0000 </r>
       <r>    28.9725     0.0000    18.0000 </r>
       <r>    29.0910     0.0000    18.0000 </r>
       <r>    29.2095     0.0000    18.0000 </r>
       <r>    29.3281     0.0000    18.0000 </r>
       <r>    29.4466     0.0000    18.0000 </r>
       <r>    29.5651     0.0000    18.0000 </r>
       <r>    29.6837     0.0000    18.0000 </r>
       <r>    29.8022     0.0000    18.0000 </r>
       <r>    29.9207     0.0000    18.0000 </r>
       <r>    30.0392     0.0000    18.0000 </r>
       <r>    30.1578     0.0000    18.0000 </r>
      </set>
     </set>
    </array>
   </total>
   <partial>
    <array>
     <dimension dim="1">gridpoints</dimension>
     <dimension dim="2">spin</dimension>
     <dimension dim="3">ion</dimension>
     <field>energy</field>
     <field>  s</field>
     <field> py</field>
     <field> pz</field>
     <field> px</field>
     <field>dxy</field>
     <field>dyz</field>
     <field>dz2</field>
     <field>dxz</field>
     <field>dx2</field>
     <set>
      <set comment="ion 1">
       <set comment="spin 1">
        <r>    -5.4012     0.0000     0.0000     0.0000     0.0000     0.0000     0.0000     0.0000     0.0000     0.0000 </r>
        <r>    -5.2826     0.0000     0.0000     0.0000     0.0000     0.0000     0.0000     0.0000     0.0000     0.0000 </r>
        <r>    -5.1641     0.0000     0.0000     0.0000     0.0000     0.0000     0.0000     0.0000     0.0000     0.0000 </r>
        <r>    -5.0456     0.0000     0.0000     0.0000     0.0000     0.0000     0.0000     0.0000     0.0000     0.0000 </r>
        <r>    -4.9270     0.0000     0.0000     0.0000     0.0000     0.0000     0.0000     0.0000     0.0000     0.0000 </r>
        <r>    -4.8085     0.0000     0.0000     0.0000     0.0000     0.0000     0.0000     0.0000     0.0000     0.0000 </r>
        <r>    -4.6900     0.0000     0.0000     0.0000     0.0000     0.0000     0.0000     0.0000     0.0000     0.0000 </r>
        <r>    -4.5715     0.0000     0.0000     0.0000     0.0000     0.0000     0.0000     0.0000     0.0000     0.0000 </r>
        <r>    -4.4529     0.0000     0.0000     0.0000     0.0000     0.0000     0.0000     0.0000     0.0000     0.0000 </r>
        <r>    -4.3344     0.0000     0.0000     0.0000     0.0000     0.0000     0.0000     0.0000     0.0000     0.0000 </r>
        <r>    -4.2159     0.0000     0.0000     0.0000     0.0000     0.0000     0.0000     0.0000     0.0000     0.0000 </r>
        <r>    -4.0973     0.0000     0.0000     0.0000     0.0000     0.0000     0.0000     0.0000     0.0000     0.0000 </r>
        <r>    -3.9788     0.0002     0.0000     0.0000     0.0000     0.0000     0.0000     0.0000     0.0000     0.0000 </r>
        <r>    -3.8603     0.0075     0.0000     0.0000     0.0000     0.0000     0.0000     0.0000     0.0000     0.0000 </r>
        <r>    -3.7417     0.0315     0.0000     0.0000     0.0000     0.0000     0.0000     0.0000     0.0000     0.0000 </r>
        <r>    -3.6232     0.0140     0.0000     0.0000     0.0000     0.0000     0.0000     0.0000     0.0000     0.0000 </r>
        <r>    -3.5047     0.0006     0.0000     0.0000     0.0000     0.0000     0.0000     0.0000     0.0000     0.0000 </r>
        <r>    -3.3862     0.0000     0.0000     0.0000     0.0000     0.0000     0.0000     0.0000     0.0000     0.0000 </r>
        <r>    -3.2676     0.0000     0.0000     0.0000     0.0000     0.0000     0.0000     0.0000     0.0000     0.0000 </r>
        <r>    -3.1491     0.0000     0.0000     0.0000     0.0000     0.0000     0.0000     0.0000     0.0000     0.0000 </r>
        <r>    -3.0306     0.0000     0.0000     0.0000     0.0000     0.0000     0.0000     0.0000     0.0000     0.0000 </r>
        <r>    -2.9120     0.0078     0.0002     0.0002     0.0002     0.0001     0.0001     0.0000     0.0001     0.0000 </r>
        <r>    -2.7935     0.1307     0.0031     0.0031     0.0031     0.0013     0.0013     0.0000     0.0013     0.0000 </r>
        <r>    -2.6750     0.2164     0.0051     0.0051     0.0051     0.0022     0.0022     0.0000     0.0022     0.0000 </r>
        <r>    -2.5564     0.0437     0.0009     0.0015     0.0009     0.0004     0.0004     0.0002     0.0004     0.0000 </r>
        <r>    -2.4379     0.0977     0.0000     0.0102     0.0000     0.0000     0.0000     0.0029     0.0000     0.0000 </r>
        <r>    -2.3194     0.1554     0.0000     0.0163     0.0000     0.0000     0.0000     0.0046     0.0000     0.0000 </r>
        <r>    -2.2009     0.0261     0.0000     0.0027     0.0000     0.0000     0.0000     0.0008     0.0000     0.0000 </r>
        <r>    -2.0823     0.0004     0.0000     0.0000     0.0000     0.0000     0.0000     0.0000     0.0000     0.0000 </r>
        <r>    -1.9638     0.0000     0.0000     0.0000     0.0000     0.0000     0.0000     0.0000     0.0000     0.0000 </r>
        <r>    -1.8453     0.0000     0.0000     0.0000     0.0000     0.0000     0.0000     0.0000     0.0000     0.0000 </r>
        <r>    -1.7267     0.0000     0.0000     0.0000     0.0000     0.0000     0.0000     0.0000     0.0000     0.0000 </r>
        <r>    -1.6082     0.0000     0.0000     0.0000     0.0000     0.0000     0.0000     0.0000     0.0000     0.0000 </r>
        <r>    -1.4897     0.0027     0.0003     0.0000     0.0003     0.0004     0.0000     0.0000     0.0000     0.0000 </r>
        <r>    -1.3711     0.0960     0.0088     0.0002     0.0088     0.0164     0.0019     0.0011     0.0019     0.0000 </r>
        <r>    -1.2526     0.3684     0.0300     0.0024     0.0300     0.0782     0.0321     0.0035     0.0321     0.0000 </r>
        <r>    -1.1341     0.2423     0.0131     0.0038     0.0131     0.0894     0.0737     0.0014     0.0737     0.0000 </r>
        <r>    -1.0156     0.0557     0.0009     0.0008     0.0009     0.0402     0.0396     0.0147     0.0396     0.0000 </r>
        <r>    -0.8970     0.0706     0.0006     0.0121     0.0006     0.0149     0.0108     0.1072     0.0108     0.0000 </r>
        <r>    -0.7785     0.3937     0.0043     0.0812     0.0043     0.0732     0.0456     0.1547     0.0456     0.0000 </r>
        <r>    -0.6600     0.2865     0.0030     0.0607     0.0030     0.0619     0.0320     0.1091     0.0320     0.0000 </r>
        <r>    -0.5414     0.0911     0.0004     0.0209     0.0004     0.1459     0.0149     0.1871     0.0149     0.0000 </r>
        <r>    -0.4229     0.2180     0.0031     0.0328     0.0031     0.5892     0.1314     0.4693     0.1314     0.0000 </r>
        <r>    -0.3044     0.3560     0.0173     0.0337     0.0173     0.7470     0.2357     0.5184     0.2357     0.0000 </r>
        <r>    -0.1859     0.2122     0.0191     0.0093     0.0184     0.3161     0.1486     0.0846     0.1486     0.0005 </r>
        <r>    -0.0673     0.0329     0.0132     0.0008     0.0025     0.1172     0.0168     0.2570     0.0168     0.0080 </r>
        <r>     0.0512     0.0185     0.0232     0.0005     0.0076     0.5394     0.0011     0.4725     0.0011     0.0117 </r>
        <r>     0.1697     0.0304     0.0221     0.0013     0.0202     0.9898     0.0023     0.4095     0.0023     0.0018 </r>
        <r>     0.2883     0.0355     0.0078     0.0038     0.0165     0.6547     0.0041     0.2281     0.0006     0.0004 </r>
        <r>     0.4068     0.1188     0.0254     0.0435     0.0207     0.4842     0.0430     0.3750     0.0000     0.0052 </r>
        <r>     0.5253     0.1486     0.0319     0.0558     0.0066     0.1328     0.0656     0.4525     0.0035     0.0075 </r>
        <r>     0.6439     0.0610     0.0101     0.0252     0.0416     0.7075     0.2143     0.1504     0.0604     0.0394 </r>
        <r>     0.7624     0.0728     0.0375     0.0315     0.0705     1.2175     0.3874     0.5609     0.1026     0.2008 </r>
        <r>     0.8809     0.0164     0.0263     0.0073     0.0144     0.3099     0.0906     0.3708     0.0198     0.1247 </r>
        <r>     0.9994     0.0282     0.0178     0.0125     0.0164     0.6667     0.0152     0.0769     0.0128     0.0080 </r>
        <r>     1.1180     0.0282     0.0347     0.0117     0.0347     0.6938     0.0211     0.2117     0.0211     0.0000 </r>
        <r>     1.2365     0.0065     0.0281     0.0103     0.0281     0.3607     0.1494     0.2240     0.1494     0.0000 </r>
        <r>     1.3550     0.0008     0.0057     0.0139     0.0057     0.2140     0.2352     0.1506     0.2347     0.0001 </r>
        <r>     1.4736     0.0082     0.0129     0.0071     0.0126     0.0615     0.1816     0.7331     0.1265     0.0110 </r>
        <r>     1.5921     0.0615     0.0121     0.0393     0.0097     0.1905     0.5756     0.9228     0.1287     0.0891 </r>
        <r>     1.7106     0.0533     0.0083     0.0393     0.0072     0.3398     0.5790     0.6604     0.1895     0.0756 </r>
        <r>     1.8292     0.0059     0.0144     0.0334     0.0304     0.3410     0.3522     0.1249     0.0909     0.0328 </r>
        <r>     1.9477     0.0006     0.0199     0.0462     0.0460     0.4486     0.4503     0.1420     0.0805     0.1095 </r>
        <r>     2.0662     0.0099     0.0040     0.0170     0.0085     0.1818     0.2362     0.3571     0.1736     0.0887 </r>
        <r>     2.1847     0.0228     0.0027     0.0578     0.0028     0.2753     0.4870     0.8041     0.4861     0.1740 </r>
        <r>     2.3033     0.0118     0.0107     0.0530     0.0107     0.5236     0.4743     0.4754     0.4743     0.1061 </r>
        <r>     2.4218     0.0451     0.0517     0.0499     0.0517     0.2936     0.2584     0.3200     0.2584     0.0308 </r>
        <r>     2.5403     0.0496     0.0570     0.0519     0.0570     0.0580     0.2867     0.1948     0.2867     0.4430 </r>
        <r>     2.6589     0.0215     0.0329     0.0350     0.0329     0.1789     0.6149     0.0480     0.6027     1.3401 </r>
        <r>     2.7774     0.0722     0.0724     0.1262     0.0724     0.5241     0.7293     0.0753     0.5050     0.4665 </r>
        <r>     2.8959     0.0488     0.0378     0.1038     0.0378     0.1858     0.8545     0.0239     0.4491     0.1457 </r>
        <r>     3.0145     0.0050     0.0087     0.0147     0.0087     0.0081     0.5910     0.0584     0.5137     0.4026 </r>
        <r>     3.1330     0.0034     0.0023     0.0015     0.0023     0.0000     0.1145     0.2515     0.1132     0.5124 </r>
        <r>     3.2515     0.0018     0.0005     0.0012     0.0005     0.0001     0.0044     0.1163     0.0044     0.3956 </r>
        <r>     3.3700     0.0119     0.0001     0.0309     0.0006     0.0033     0.0775     0.0228     0.0836     0.0738 </r>
        <r>     3.4886     0.0574     0.0004     0.1459     0.0066     0.0158     0.3563     0.1758     0.4345     0.4481 </r>
        <r>     3.6071     0.0318     0.0011     0.0759     0.0091     0.0086     0.1741     0.2081     0.2742     0.7046 </r>
        <r>     3.7256     0.0025     0.0038     0.0048     0.0048     0.0073     0.0151     0.1613     0.0285     0.7232 </r>
        <r>     3.8442     0.0184     0.0019     0.0179     0.0017     0.0172     0.0174     0.3931     0.0174     0.5970 </r>
        <r>     3.9627     0.0710     0.0037     0.0802     0.0001     0.0046     0.0065     0.2771     0.0046     0.5299 </r>
        <r>     4.0812     0.0396     0.0085     0.0642     0.0000     0.0001     0.0042     0.1701     0.0002     0.9802 </r>
        <r>     4.1998     0.0157     0.0066     0.0099     0.0006     0.0000     0.0156     0.0430     0.0152     0.9738 </r>
        <r>     4.3183     0.0056     0.0075     0.0003     0.0064     0.0053     0.2196     0.0075     0.2836     1.0601 </r>
        <r>     4.4368     0.0127     0.0112     0.0083     0.0209     0.0663     0.6968     0.0505     1.3991     0.9013 </r>
        <r>     4.5553     0.0677     0.0168     0.0454     0.0277     0.1540     0.7269     0.3362     1.5101     0.2750 </r>
        <r>     4.6739     0.0386     0.0076     0.0264     0.0089     0.1409     0.3479     0.3182     0.4380     0.1917 </r>
        <r>     4.7924     0.0024     0.0011     0.0016     0.0011     0.0286     0.3427     0.0498     0.3436     0.3386 </r>
        <r>     4.9109     0.0066     0.0035     0.0000     0.0035     0.0817     0.3496     0.1127     0.3496     0.9514 </r>
        <r>     5.0295     0.0174     0.0060     0.0000     0.0060     0.2136     0.0638     0.2941     0.0699     0.3865 </r>
        <r>     5.1480     0.0072     0.0016     0.0003     0.0018     0.0790     0.0212     0.0895     0.2487     0.0478 </r>
        <r>     5.2665     0.0083     0.0000     0.0009     0.0009     0.0879     0.1115     0.0474     0.8958     0.2110 </r>
        <r>     5.3851     0.0030     0.0000     0.0003     0.0003     0.0970     0.3697     0.0823     0.6571     0.5534 </r>
        <r>     5.5036     0.0001     0.0001     0.0000     0.0001     0.0280     0.5504     0.0277     0.5608     0.5770 </r>
        <r>     5.6221     0.0000     0.0001     0.0000     0.0001     0.0010     0.3785     0.0010     0.4250     0.2989 </r>
        <r>     5.7406     0.0000     0.0008     0.0008     0.0008     0.0000     0.1553     0.0000     0.5854     0.0357 </r>
        <r>     5.8592     0.0000     0.0174     0.0174     0.0174     0.0000     0.1005     0.0000     0.5097     0.0004 </r>
        <r>     5.9777     0.0000     0.0358     0.0358     0.0358     0.0000     0.0093     0.0000     0.0491     0.0000 </r>
        <r>     6.0962     0.0000     0.0078     0.0078     0.0078     0.0000     0.0001     0.0000     0.0004     0.0000 </r>
        <r>     6.2148     0.0000     0.0002     0.0002     0.0002     0.0000     0.0000     0.0000     0.0000     0.0000 </r>
        <r>     6.3333     0.0000     0.0000     0.0000     0.0000     0.0000     0.0000     0.0000     0.0000     0.0000 </r>
        <r>     6.4518     0.0000     0.0000     0.0000     0.0000     0.0000     0.0000     0.0000     0.0000     0.0000 </r>
        <r>     6.5703     0.0000     0.0000     0.0000     0.0000     0.0000     0.0000     0.0000     0.0000     0.0000 </r>
        <r>     6.6889     0.0000     0.0000     0.0000     0.0000     0.0000     0.0000     0.0000     0.0000     0.0000 </r>
        <r>     6.8074     0.0000     0.0000     0.0000     0.0000     0.0000     0.0000     0.0000     0.0000     0.0000 </r>
        <r>     6.9259     0.0000     0.0000     0.0000     0.0000     0.0001     0.0000     0.0001     0.0000     0.0000 </r>
        <r>     7.0445     0.0067     0.0024     0.0007     0.0024     0.0189     0.0000     0.0105     0.0000     0.0000 </r>
        <r>     7.1630     0.0980     0.0345     0.0104     0.0345     0.2769     0.0001     0.1537     0.0001     0.0000 </r>
        <r>     7.2815     0.1463     0.0508     0.0170     0.0505     0.4046     0.0075     0.2263     0.0001     0.0014 </r>
        <r>     7.4001     0.1014     0.0172     0.0471     0.0077     0.0618     0.1899     0.0806     0.0000     0.0353 </r>
        <r>     7.5186     0.1947     0.0234     0.1094     0.0001     0.0008     0.4641     0.1135     0.0000     0.0864 </r>
        <r>     7.6371     0.0505     0.0060     0.0284     0.0000     0.0000     0.1205     0.0293     0.0000     0.0224 </r>
        <r>     7.7556     0.0012     0.0001     0.0007     0.0000     0.0000     0.0029     0.0007     0.0000     0.0005 </r>
        <r>     7.8742     0.0000     0.0000     0.0000     0.0000     0.0000     0.0000     0.0000     0.0000     0.0000 </r>
        <r>     7.9927     0.0030     0.0022     0.0083     0.0022     0.0008     0.0041     0.0052     0.0041     0.0000 </r>
        <r>     8.1112     0.0547     0.0396     0.1417     0.0396     0.0149     0.0744     0.0943     0.0744     0.0000 </r>
        <r>     8.2298     0.0969     0.0702     0.2398     0.0702     0.0264     0.1319     0.1672     0.1319     0.0000 </r>
        <r>     8.3483     0.0181     0.0131     0.0428     0.0131     0.0049     0.0246     0.0312     0.0246     0.0000 </r>
        <r>     8.4668     0.0004     0.0002     0.0008     0.0002     0.0001     0.0005     0.0006     0.0005     0.0000 </r>
        <r>     8.5854     0.0101     0.0005     0.0178     0.0005     0.0000     0.0104     0.0057     0.0104     0.0000 </r>
        <r>     8.7039     0.1175     0.0059     0.2069     0.0059     0.0005     0.1201     0.0661     0.1201     0.0000 </r>
        <r>     8.8224     0.1382     0.0069     0.2432     0.0069     0.0006     0.1412     0.0777     0.1412     0.0000 </r>
        <r>     8.9409     0.0168     0.0008     0.0296     0.0008     0.0001     0.0172     0.0095     0.0172     0.0000 </r>
        <r>     9.0595     0.0002     0.0000     0.0003     0.0000     0.0000     0.0002     0.0001     0.0002     0.0000 </r>
        <r>     9.1780     0.0000     0.0000     0.0000     0.0000     0.0000     0.0000     0.0000     0.0000     0.0000 </r>
        <r>     9.2965     0.0000     0.0000     0.0000     0.0000     0.0000     0.0000     0.0000     0.0000     0.0000 </r>
        <r>     9.4151     0.0000     0.0000     0.0000     0.0000     0.0000     0.0000     0.0000     0.0000     0.0000 </r>
        <r>     9.5336     0.0000     0.0000     0.0000     0.0000     0.0000     0.0000     0.0000     0.0000     0.0000 </r>
        <r>     9.6521     0.0000     0.0000     0.0000     0.0000     0.0000     0.0000     0.0000     0.0000     0.0000 </r>
        <r>     9.7707     0.0000     0.0000     0.0000     0.0000     0.0000     0.0000     0.0000     0.0000     0.0000 </r>
        <r>     9.8892     0.0000     0.0000     0.0000     0.0000     0.0000     0.0000     0.0000     0.0000     0.0000 </r>
        <r>    10.0077     0.0013     0.0002     0.0000     0.0002     0.0006     0.0000     0.0001     0.0000     0.0000 </r>
        <r>    10.1262     0.0563     0.0094     0.0000     0.0094     0.0285     0.0000     0.0032     0.0000     0.0000 </r>
        <r>    10.2448     0.2276     0.0380     0.0000     0.0380     0.1155     0.0000     0.0128     0.0000     0.0000 </r>
        <r>    10.3633     0.0977     0.0163     0.0000     0.0163     0.0496     0.0000     0.0055     0.0000     0.0000 </r>
        <r>    10.4818     0.0040     0.0007     0.0000     0.0007     0.0020     0.0000     0.0002     0.0000     0.0000 </r>
        <r>    10.6004     0.0000     0.0000     0.0000     0.0000     0.0000     0.0000     0.0000     0.0000     0.0000 </r>
        <r>    10.7189     0.0000     0.0000     0.0000     0.0000     0.0000     0.0000     0.0000     0.0000     0.0000 </r>
        <r>    10.8374     0.0000     0.0000     0.0000     0.0000     0.0000     0.0000     0.0000     0.0000     0.0000 </r>
        <r>    10.9560     0.0000     0.0000     0.0000     0.0000     0.0000     0.0000     0.0000     0.0000     0.0000 </r>
        <r>    11.0745     0.0039     0.0000     0.0000     0.0000     0.0011     0.0011     0.0000     0.0011     0.0000 </r>
        <r>    11.1930     0.0751     0.0000     0.0011     0.0011     0.0185     0.0185     0.0002     0.0176     0.0007 </r>
        <r>    11.3115     0.4056     0.0000     0.0179     0.0179     0.0730     0.0730     0.0040     0.0579     0.0119 </r>
        <r>    11.4301     0.5565     0.0000     0.0301     0.0302     0.0881     0.0881     0.0067     0.0625     0.0201 </r>
        <r>    11.5486     0.0964     0.0000     0.0053     0.0053     0.0150     0.0150     0.0012     0.0105     0.0036 </r>
        <r>    11.6671     0.0015     0.0005     0.0012     0.0010     0.0007     0.0008     0.0005     0.0002     0.0002 </r>
        <r>    11.7857     0.0000     0.0224     0.0684     0.0446     0.0213     0.0329     0.0237     0.0000     0.0079 </r>
        <r>    11.9042     0.0002     0.0989     0.4175     0.1964     0.0938     0.2018     0.1042     0.0000     0.0347 </r>
        <r>    12.0227     0.0290     0.0510     0.3045     0.0965     0.0537     0.1518     0.0491     0.0049     0.0162 </r>
        <r>    12.1412     0.3125     0.0544     0.0440     0.0564     0.1094     0.0652     0.0076     0.0532     0.0007 </r>
        <r>    12.2598     0.3428     0.0574     0.0213     0.0574     0.1178     0.0585     0.0059     0.0584     0.0000 </r>
        <r>    12.3783     0.0388     0.0065     0.0024     0.0065     0.0133     0.0066     0.0007     0.0066     0.0000 </r>
        <r>    12.4968     0.0004     0.0001     0.0000     0.0001     0.0001     0.0001     0.0000     0.0001     0.0000 </r>
        <r>    12.6154     0.0000     0.0000     0.0000     0.0000     0.0000     0.0000     0.0000     0.0000     0.0000 </r>
        <r>    12.7339     0.0000     0.0000     0.0000     0.0000     0.0000     0.0000     0.0000     0.0000     0.0000 </r>
        <r>    12.8524     0.0000     0.0000     0.0000     0.0000     0.0000     0.0000     0.0000     0.0000     0.0000 </r>
        <r>    12.9710     0.0003     0.0000     0.0000     0.0000     0.0000     0.0000     0.0000     0.0000     0.0000 </r>
        <r>    13.0895     0.0301     0.0004     0.0000     0.0000     0.0000     0.0000     0.0038     0.0000     0.0018 </r>
        <r>    13.2080     0.2899     0.0039     0.0000     0.0000     0.0000     0.0000     0.0364     0.0000     0.0175 </r>
        <r>    13.3265     0.2861     0.0038     0.0000     0.0000     0.0000     0.0000     0.0359     0.0000     0.0173 </r>
        <r>    13.4451     0.0289     0.0004     0.0000     0.0000     0.0000     0.0000     0.0036     0.0000     0.0017 </r>
        <r>    13.5636     0.0002     0.0000     0.0000     0.0000     0.0000     0.0000     0.0000     0.0000     0.0000 </r>
        <r>    13.6821     0.0000     0.0000     0.0000     0.0000     0.0000     0.0000     0.0000     0.0000     0.0000 </r>
        <r>    13.8007     0.0000     0.0000     0.0000     0.0000     0.0000     0.0000     0.0000     0.0000     0.0000 </r>
        <r>    13.9192     0.0000     0.0000     0.0000     0.0000     0.0000     0.0000     0.0000     0.0000     0.0000 </r>
        <r>    14.0377     0.0000     0.0000     0.0000     0.0000     0.0000     0.0000     0.0000     0.0000     0.0000 </r>
        <r>    14.1563     0.0054     0.0000     0.0000     0.0000     0.0000     0.0000     0.0023     0.0000     0.0000 </r>
        <r>    14.2748     0.0646     0.0008     0.0018     0.0008     0.0004     0.0011     0.0269     0.0011     0.0000 </r>
        <r>    14.3933     0.1712     0.0264     0.0806     0.0264     0.0144     0.0442     0.0456     0.0442     0.0000 </r>
        <r>    14.5118     0.3419     0.0884     0.3748     0.0884     0.0473     0.1744     0.0498     0.1744     0.0000 </r>
        <r>    14.6304     0.3973     0.1094     0.2790     0.1094     0.0509     0.0840     0.0204     0.0840     0.0000 </r>
        <r>    14.7489     0.3019     0.0842     0.0948     0.0842     0.0372     0.0066     0.0061     0.0066     0.0000 </r>
        <r>    14.8674     0.0306     0.0085     0.0086     0.0085     0.0038     0.0003     0.0006     0.0003     0.0000 </r>
        <r>    14.9860     0.0003     0.0001     0.0001     0.0001     0.0000     0.0000     0.0000     0.0000     0.0000 </r>
        <r>    15.1045     0.0000     0.0000     0.0000     0.0000     0.0000     0.0000     0.0000     0.0000     0.0000 </r>
        <r>    15.2230     0.0009     0.0005     0.0000     0.0005     0.0000     0.0000     0.0011     0.0000     0.0000 </r>
        <r>    15.3416     0.0364     0.0184     0.0000     0.0184     0.0010     0.0000     0.0428     0.0000     0.0000 </r>
        <r>    15.4601     0.1327     0.0671     0.0000     0.0671     0.0036     0.0000     0.1560     0.0000     0.0000 </r>
        <r>    15.5786     0.0514     0.0260     0.0000     0.0260     0.0014     0.0000     0.0604     0.0000     0.0000 </r>
        <r>    15.6971     0.0019     0.0010     0.0000     0.0010     0.0001     0.0000     0.0022     0.0000     0.0000 </r>
        <r>    15.8157     0.0000     0.0000     0.0000     0.0000     0.0000     0.0000     0.0000     0.0000     0.0000 </r>
        <r>    15.9342     0.0001     0.0001     0.0001     0.0001     0.0001     0.0000     0.0000     0.0000     0.0000 </r>
        <r>    16.0527     0.0105     0.0040     0.0040     0.0071     0.0049     0.0040     0.0000     0.0040     0.0000 </r>
        <r>    16.1713     0.0727     0.0279     0.0279     0.1272     0.0559     0.0275     0.0000     0.0275     0.0000 </r>
        <r>    16.2898     0.0525     0.0202     0.0202     0.3195     0.1055     0.0199     0.0000     0.0199     0.0000 </r>
        <r>    16.4083     0.0038     0.0015     0.0015     0.0974     0.0289     0.0014     0.0000     0.0014     0.0000 </r>
        <r>    16.5269     0.0000     0.0000     0.0000     0.0029     0.0008     0.0000     0.0000     0.0000     0.0000 </r>
        <r>    16.6454     0.0038     0.0023     0.0016     0.0000     0.0000     0.0003     0.0001     0.0000     0.0008 </r>
        <r>    16.7639     0.1131     0.0688     0.0491     0.0000     0.0000     0.0085     0.0036     0.0000     0.0248 </r>
        <r>    16.8824     0.3203     0.1947     0.1389     0.0000     0.0000     0.0240     0.0103     0.0000     0.0701 </r>
        <r>    17.0010     0.0964     0.0586     0.0418     0.0000     0.0000     0.0072     0.0031     0.0000     0.0211 </r>
        <r>    17.1195     0.0027     0.0016     0.0012     0.0000     0.0000     0.0002     0.0001     0.0000     0.0006 </r>
        <r>    17.2380     0.0000     0.0000     0.0000     0.0000     0.0000     0.0000     0.0000     0.0000     0.0000 </r>
        <r>    17.3566     0.0000     0.0000     0.0000     0.0000     0.0000     0.0000     0.0000     0.0000     0.0000 </r>
        <r>    17.4751     0.0000     0.0000     0.0000     0.0000     0.0000     0.0000     0.0000     0.0000     0.0000 </r>
        <r>    17.5936     0.0000     0.0010     0.0000     0.0000     0.0000     0.0000     0.0009     0.0000     0.0002 </r>
        <r>    17.7121     0.0001     0.0436     0.0000     0.0000     0.0000     0.0000     0.0409     0.0000     0.0100 </r>
        <r>    17.8307     0.0002     0.1768     0.0000     0.0001     0.0000     0.0000     0.1656     0.0000     0.0406 </r>
        <r>    17.9492     0.0012     0.0852     0.0015     0.0093     0.0003     0.0003     0.0746     0.0003     0.0175 </r>
        <r>    18.0677     0.0381     0.1075     0.0530     0.1128     0.0112     0.0104     0.1096     0.0101     0.0029 </r>
        <r>    18.1863     0.1760     0.1709     0.2642     0.3069     0.0560     0.0536     0.3163     0.0493     0.0353 </r>
        <r>    18.3048     0.1584     0.0406     0.2567     0.2581     0.0545     0.0538     0.1120     0.0469     0.0565 </r>
        <r>    18.4233     0.0225     0.0011     0.0376     0.0381     0.0082     0.0080     0.0058     0.0070     0.0095 </r>
        <r>    18.5419     0.0003     0.0000     0.0005     0.0515     0.0177     0.0001     0.0001     0.0131     0.0001 </r>
        <r>    18.6604     0.0001     0.0001     0.0000     0.4284     0.1482     0.0000     0.0000     0.1091     0.0000 </r>
        <r>    18.7789     0.0105     0.0086     0.0049     0.3807     0.1327     0.0047     0.0008     0.0994     0.0000 </r>
        <r>    18.8974     0.1189     0.0976     0.0558     0.1304     0.0567     0.0528     0.0092     0.0612     0.0000 </r>
        <r>    19.0160     0.1365     0.1121     0.0641     0.1124     0.0522     0.0607     0.0106     0.0607     0.0000 </r>
        <r>    19.1345     0.0162     0.0133     0.0076     0.0133     0.0062     0.0072     0.0013     0.0072     0.0000 </r>
        <r>    19.2530     0.0002     0.0001     0.0001     0.0001     0.0001     0.0001     0.0000     0.0001     0.0000 </r>
        <r>    19.3716     0.0000     0.0000     0.0000     0.0000     0.0000     0.0000     0.0000     0.0000     0.0000 </r>
        <r>    19.4901     0.0000     0.0000     0.0000     0.0000     0.0000     0.0000     0.0000     0.0000     0.0000 </r>
        <r>    19.6086     0.0000     0.0000     0.0000     0.0000     0.0000     0.0000     0.0000     0.0000     0.0000 </r>
        <r>    19.7272     0.0000     0.0000     0.0000     0.0000     0.0000     0.0000     0.0000     0.0000     0.0000 </r>
        <r>    19.8457     0.0000     0.0002     0.0000     0.0001     0.0000     0.0000     0.0001     0.0000     0.0001 </r>
        <r>    19.9642     0.0000     0.0269     0.0049     0.0190     0.0024     0.0031     0.0163     0.0007     0.0083 </r>
        <r>    20.0827     0.0000     0.3251     0.0529     0.2400     0.0254     0.0353     0.1760     0.0099     0.0968 </r>
        <r>    20.2013     0.0000     0.4005     0.0580     0.3072     0.0278     0.0411     0.1932     0.0132     0.1151 </r>
        <r>    20.3198     0.0002     0.0519     0.0066     0.0413     0.0033     0.0050     0.0219     0.0018     0.0143 </r>
        <r>    20.4383     0.0145     0.0122     0.0001     0.0121     0.0102     0.0001     0.0045     0.0000     0.0002 </r>
        <r>    20.5569     0.0771     0.0620     0.0000     0.0620     0.0544     0.0000     0.0228     0.0000     0.0000 </r>
        <r>    20.6754     0.0432     0.0365     0.0000     0.0365     0.0305     0.0004     0.0128     0.0004     0.0000 </r>
        <r>    20.7939     0.0029     0.0513     0.0007     0.0513     0.0017     0.0121     0.0012     0.0121     0.0000 </r>
        <r>    20.9125     0.0192     0.1378     0.0251     0.1378     0.0000     0.0337     0.0197     0.0337     0.0000 </r>
        <r>    21.0310     0.0672     0.0430     0.1030     0.0430     0.0005     0.0164     0.0710     0.0164     0.0000 </r>
        <r>    21.1495     0.0485     0.0261     0.2461     0.0261     0.0060     0.0758     0.0761     0.0758     0.0000 </r>
        <r>    21.2680     0.0305     0.0296     0.2565     0.0296     0.0070     0.0895     0.0625     0.0895     0.0000 </r>
        <r>    21.3866     0.0036     0.0036     0.0313     0.0036     0.0009     0.0110     0.0076     0.0110     0.0000 </r>
        <r>    21.5051     0.0000     0.0000     0.0003     0.0000     0.0000     0.0001     0.0001     0.0001     0.0000 </r>
        <r>    21.6236     0.0000     0.0000     0.0000     0.0000     0.0000     0.0000     0.0000     0.0000     0.0000 </r>
        <r>    21.7422     0.0000     0.0000     0.0000     0.0000     0.0000     0.0000     0.0000     0.0000     0.0000 </r>
        <r>    21.8607     0.0009     0.0011     0.0049     0.0001     0.0000     0.0012     0.0071     0.0002     0.0001 </r>
        <r>    21.9792     0.0249     0.0276     0.1379     0.0040     0.0006     0.0306     0.1910     0.0073     0.0022 </r>
        <r>    22.0978     0.0685     0.0693     0.3957     0.0153     0.0023     0.0811     0.5135     0.0278     0.0051 </r>
        <r>    22.2163     0.0214     0.0193     0.1286     0.0062     0.0010     0.0242     0.1557     0.0113     0.0012 </r>
        <r>    22.3348     0.0007     0.0005     0.0042     0.0002     0.0000     0.0007     0.0047     0.0004     0.0000 </r>
        <r>    22.4533     0.0000     0.0000     0.0014     0.0000     0.0000     0.0009     0.0000     0.0009     0.0000 </r>
        <r>    22.5719     0.0006     0.0007     0.0510     0.0007     0.0006     0.0340     0.0000     0.0340     0.0000 </r>
        <r>    22.6904     0.0112     0.0125     0.1817     0.0125     0.0112     0.1236     0.0000     0.1236     0.0000 </r>
        <r>    22.8089     0.0208     0.0240     0.0836     0.0240     0.0208     0.0610     0.0000     0.0610     0.0007 </r>
        <r>    22.9275     0.0041     0.0414     0.0066     0.0414     0.0042     0.0055     0.0000     0.0055     0.0272 </r>
        <r>    23.0460     0.0001     0.1378     0.0014     0.1379     0.0024     0.0024     0.0000     0.0024     0.1005 </r>
        <r>    23.1645     0.0001     0.0574     0.0038     0.0574     0.0068     0.0068     0.0000     0.0068     0.0395 </r>
        <r>    23.2830     0.0000     0.0032     0.0012     0.0032     0.0021     0.0021     0.0000     0.0021     0.0015 </r>
        <r>    23.4016     0.0000     0.0000     0.0000     0.0000     0.0001     0.0001     0.0000     0.0001     0.0000 </r>
        <r>    23.5201     0.0000     0.0000     0.0000     0.0000     0.0000     0.0000     0.0000     0.0000     0.0000 </r>
        <r>    23.6386     0.0000     0.0000     0.0000     0.0000     0.0000     0.0000     0.0000     0.0000     0.0000 </r>
        <r>    23.7572     0.0000     0.0000     0.0000     0.0000     0.0000     0.0000     0.0000     0.0000     0.0000 </r>
        <r>    23.8757     0.0002     0.0040     0.0001     0.0043     0.0005     0.0008     0.0000     0.0008     0.0014 </r>
        <r>    23.9942     0.0022     0.1025     0.0012     0.1123     0.0056     0.0117     0.0005     0.0127     0.0366 </r>
        <r>    24.1128     0.0030     0.2604     0.0101     0.2847     0.0191     0.0243     0.0303     0.0268     0.0914 </r>
        <r>    24.2313     0.0059     0.1988     0.0514     0.2049     0.0775     0.0526     0.1765     0.0531     0.0356 </r>
        <r>    24.3498     0.0200     0.2991     0.0590     0.2985     0.0702     0.0958     0.1271     0.0955     0.0244 </r>
        <r>    24.4683     0.0159     0.0960     0.0284     0.0957     0.0599     0.0210     0.0255     0.0209     0.0051 </r>
        <r>    24.5869     0.0014     0.0049     0.0024     0.0049     0.0436     0.0004     0.0018     0.0004     0.0001 </r>
        <r>    24.7054     0.0000     0.0000     0.0000     0.0000     0.0048     0.0000     0.0000     0.0000     0.0000 </r>
        <r>    24.8239     0.0003     0.0000     0.0002     0.0000     0.0000     0.0000     0.0006     0.0000     0.0000 </r>
        <r>    24.9425     0.0062     0.0000     0.0049     0.0000     0.0000     0.0000     0.0152     0.0000     0.0000 </r>
        <r>    25.0610     0.0141     0.0000     0.0112     0.0000     0.0000     0.0000     0.0345     0.0000     0.0000 </r>
        <r>    25.1795     0.0034     0.0000     0.0027     0.0000     0.0000     0.0000     0.0083     0.0000     0.0000 </r>
        <r>    25.2981     0.0001     0.0000     0.0001     0.0000     0.0000     0.0000     0.0002     0.0000     0.0000 </r>
        <r>    25.4166     0.0000     0.0000     0.0000     0.0000     0.0000     0.0000     0.0000     0.0000     0.0000 </r>
        <r>    25.5351     0.0000     0.0000     0.0000     0.0000     0.0000     0.0000     0.0000     0.0000     0.0000 </r>
        <r>    25.6536     0.0000     0.0000     0.0000     0.0000     0.0000     0.0000     0.0000     0.0000     0.0000 </r>
        <r>    25.7722     0.0000     0.0022     0.0000     0.0000     0.0000     0.0012     0.0000     0.0000     0.0000 </r>
        <r>    25.8907     0.0000     0.0458     0.0000     0.0000     0.0000     0.0248     0.0000     0.0000     0.0000 </r>
        <r>    26.0092     0.0000     0.0953     0.0022     0.0002     0.0000     0.0504     0.0000     0.0000     0.0000 </r>
        <r>    26.1278     0.0000     0.0481     0.0279     0.0011     0.0000     0.0108     0.0000     0.0000     0.0000 </r>
        <r>    26.2463     0.0000     0.0363     0.0357     0.0014     0.0000     0.0002     0.0000     0.0000     0.0000 </r>
        <r>    26.3648     0.0000     0.0048     0.0047     0.0002     0.0000     0.0000     0.0000     0.0000     0.0000 </r>
        <r>    26.4834     0.0000     0.0001     0.0001     0.0000     0.0000     0.0000     0.0000     0.0000     0.0000 </r>
        <r>    26.6019     0.0000     0.0000     0.0000     0.0000     0.0000     0.0000     0.0000     0.0000     0.0000 </r>
        <r>    26.7204     0.0000     0.0000     0.0000     0.0000     0.0000     0.0000     0.0000     0.0000     0.0000 </r>
        <r>    26.8389     0.0000     0.0000     0.0000     0.0000     0.0000     0.0000     0.0000     0.0000     0.0000 </r>
        <r>    26.9575     0.0000     0.0001     0.0001     0.0001     0.0000     0.0000     0.0001     0.0000     0.0000 </r>
        <r>    27.0760     0.0024     0.0075     0.0039     0.0074     0.0013     0.0000     0.0033     0.0000     0.0000 </r>
        <r>    27.1945     0.0115     0.0360     0.0187     0.0360     0.0064     0.0002     0.0161     0.0002     0.0000 </r>
        <r>    27.3131     0.0059     0.0186     0.0128     0.0216     0.0032     0.0001     0.0082     0.0001     0.0000 </r>
        <r>    27.4316     0.0003     0.0016     0.0079     0.0084     0.0002     0.0000     0.0004     0.0000     0.0000 </r>
        <r>    27.5501     0.0000     0.0002     0.0018     0.0018     0.0000     0.0000     0.0000     0.0000     0.0000 </r>
        <r>    27.6687     0.0000     0.0000     0.0000     0.0000     0.0000     0.0000     0.0000     0.0000     0.0000 </r>
        <r>    27.7872     0.0000     0.0000     0.0000     0.0000     0.0000     0.0000     0.0000     0.0000     0.0000 </r>
        <r>    27.9057     0.0000     0.0003     0.0020     0.0010     0.0006     0.0003     0.0000     0.0001     0.0000 </r>
        <r>    28.0242     0.0000     0.0060     0.0463     0.0231     0.0140     0.0070     0.0000     0.0018     0.0000 </r>
        <r>    28.1428     0.0000     0.0135     0.1038     0.0518     0.0315     0.0157     0.0000     0.0041     0.0000 </r>
        <r>    28.2613     0.0000     0.0032     0.0247     0.0123     0.0075     0.0037     0.0000     0.0010     0.0000 </r>
        <r>    28.3798     0.0000     0.0007     0.0014     0.0003     0.0005     0.0001     0.0004     0.0002     0.0000 </r>
        <r>    28.4984     0.0000     0.0137     0.0212     0.0008     0.0072     0.0003     0.0083     0.0047     0.0010 </r>
        <r>    28.6169     0.0000     0.0309     0.0478     0.0019     0.0162     0.0006     0.0187     0.0105     0.0023 </r>
        <r>    28.7354     0.0000     0.0074     0.0114     0.0004     0.0039     0.0002     0.0045     0.0025     0.0006 </r>
        <r>    28.8540     0.0000     0.0002     0.0002     0.0000     0.0001     0.0000     0.0001     0.0001     0.0000 </r>
        <r>    28.9725     0.0000     0.0000     0.0000     0.0000     0.0000     0.0000     0.0000     0.0000     0.0000 </r>
        <r>    29.0910     0.0000     0.0000     0.0000     0.0000     0.0000     0.0000     0.0000     0.0000     0.0000 </r>
        <r>    29.2095     0.0000     0.0000     0.0000     0.0000     0.0000     0.0000     0.0000     0.0000     0.0000 </r>
        <r>    29.3281     0.0000     0.0000     0.0000     0.0000     0.0000     0.0000     0.0000     0.0000     0.0000 </r>
        <r>    29.4466     0.0000     0.0000     0.0000     0.0000     0.0000     0.0000     0.0000     0.0000     0.0000 </r>
        <r>    29.5651     0.0000     0.0000     0.0000     0.0000     0.0000     0.0000     0.0000     0.0000     0.0000 </r>
        <r>    29.6837     0.0000     0.0000     0.0000     0.0000     0.0000     0.0000     0.0000     0.0000     0.0000 </r>
        <r>    29.8022     0.0000     0.0000     0.0000     0.0000     0.0000     0.0000     0.0000     0.0000     0.0000 </r>
        <r>    29.9207     0.0000     0.0000     0.0000     0.0000     0.0000     0.0000     0.0000     0.0000     0.0000 </r>
        <r>    30.0392     0.0000     0.0000     0.0000     0.0000     0.0000     0.0000     0.0000     0.0000     0.0000 </r>
        <r>    30.1578     0.0000     0.0000     0.0000     0.0000     0.0000     0.0000     0.0000     0.0000     0.0000 </r>
       </set>
      </set>
     </set>
    </array>
   </partial>
  </dos>
  <projected>
   <eigenvalues>
    <array>
     <dimension dim="1">band</dimension>
     <dimension dim="2">kpoint</dimension>
     <dimension dim="3">spin</dimension>
     <field>eigene</field>
     <field>occ</field>
     <set>
      <set comment="spin 1">
       <set comment="kpoint 1">
        <r>   -3.7848    1.0000 </r>
        <r>    1.9672    1.0000 </r>
        <r>    1.9672    1.0000 </r>
        <r>    1.9672    1.0000 </r>
        <r>    3.8466    1.0000 </r>
        <r>    3.8466    1.0000 </r>
        <r>   22.7531    0.0000 </r>
        <r>   27.3558    0.0000 </r>
        <r>   27.3558    0.0000 </r>
       </set>
       <set comment="kpoint 2">
        <r>   -2.7667    1.0000 </r>
        <r>    1.6896    1.0000 </r>
        <r>    2.2653    1.0000 </r>
        <r>    2.2653    1.0000 </r>
        <r>    3.7745    1.0000 </r>
        <r>    3.7745    1.0000 </r>
        <r>   22.7232    0.0000 </r>
        <r>   23.9902    0.0000 </r>
        <r>   28.5415    0.0000 </r>
       </set>
       <set comment="kpoint 3">
        <r>   -1.2291    1.0000 </r>
        <r>    2.1467    1.0000 </r>
        <r>    2.1467    1.0000 </r>
        <r>    2.7776    1.0000 </r>
        <r>    4.5929    1.0000 </r>
        <r>    4.5929    1.0000 </r>
        <r>   16.1540    0.0000 </r>
        <r>   23.1021    0.0000 </r>
        <r>   28.0671    0.0000 </r>
       </set>
       <set comment="kpoint 4">
        <r>   -1.1261    1.0000 </r>
        <r>    1.9126    1.0000 </r>
        <r>    1.9126    1.0000 </r>
        <r>    5.3328    1.0000 </r>
        <r>    5.3328    1.0000 </r>
        <r>    5.8974    1.0000 </r>
        <r>   11.2134    0.0000 </r>
        <r>   22.0496    0.0000 </r>
        <r>   26.1408    0.0000 </r>
       </set>
       <set comment="kpoint 5">
        <r>   -2.4129    1.0000 </r>
        <r>    1.2355    1.0000 </r>
        <r>    2.6624    1.0000 </r>
        <r>    2.6624    1.0000 </r>
        <r>    3.0920    1.0000 </r>
        <r>    4.1812    1.0000 </r>
        <r>   24.4737    0.0000 </r>
        <r>   24.9859    0.0000 </r>
        <r>   25.9284    0.0000 </r>
       </set>
       <set comment="kpoint 6">
        <r>   -0.7975    1.0000 </r>
        <r>    0.9934    1.0000 </r>
        <r>    2.1093    1.0000 </r>
        <r>    2.9501    1.0000 </r>
        <r>    4.5255    1.0000 </r>
        <r>    4.8442    1.0000 </r>
        <r>   18.9048    0.0000 </r>
        <r>   24.2046    0.0000 </r>
        <r>   24.2690    0.0000 </r>
       </set>
       <set comment="kpoint 7">
        <r>   -0.4236    1.0000 </r>
        <r>    1.4457    1.0000 </r>
        <r>    2.6157    1.0000 </r>
        <r>    2.7142    1.0000 </r>
        <r>    5.3869    1.0000 </r>
        <r>    8.1417    0.0000 </r>
        <r>   12.1462    0.0000 </r>
        <r>   22.0500    0.0000 </r>
        <r>   24.0424    0.0000 </r>
       </set>
       <set comment="kpoint 8">
        <r>   -0.2954    1.0000 </r>
        <r>    1.6114    1.0000 </r>
        <r>    2.4284    1.0000 </r>
        <r>    2.5877    1.0000 </r>
        <r>    4.3917    1.0000 </r>
        <r>    7.1832    1.0000 </r>
        <r>   14.4520    0.0000 </r>
        <r>   21.1585    0.0000 </r>
        <r>   24.3431    0.0000 </r>
       </set>
       <set comment="kpoint 9">
        <r>   -1.3098    1.0000 </r>
        <r>    1.2573    1.0000 </r>
        <r>    2.2804    1.0000 </r>
        <r>    2.8785    1.0000 </r>
        <r>    3.1312    1.0000 </r>
        <r>    4.9620    1.0000 </r>
        <r>   20.5261    0.0000 </r>
        <r>   22.6360    0.0000 </r>
        <r>   27.1587    0.0000 </r>
       </set>
       <set comment="kpoint 10">
        <r>   -0.5922    1.0000 </r>
        <r>   -0.0037    1.0000 </r>
        <r>    3.9118    1.0000 </r>
        <r>    4.4547    1.0000 </r>
        <r>    4.4547    1.0000 </r>
        <r>    4.8983    1.0000 </r>
        <r>   20.8482    0.0000 </r>
        <r>   20.8482    0.0000 </r>
        <r>   20.9768    0.0000 </r>
       </set>
       <set comment="kpoint 11">
        <r>   -0.4102    1.0000 </r>
        <r>    0.1005    1.0000 </r>
        <r>    3.4503    1.0000 </r>
        <r>    4.3151    1.0000 </r>
        <r>    5.5172    1.0000 </r>
        <r>    8.7125    0.0000 </r>
        <r>   14.6302    0.0000 </r>
        <r>   18.1236    0.0000 </r>
        <r>   20.0980    0.0000 </r>
       </set>
       <set comment="kpoint 12">
        <r>    0.1760    1.0000 </r>
        <r>    1.1292    1.0000 </r>
        <r>    2.1826    1.0000 </r>
        <r>    3.6792    1.0000 </r>
        <r>    4.7726    1.0000 </r>
        <r>   10.1999    0.0000 </r>
        <r>   14.4880    0.0000 </r>
        <r>   15.4099    0.0000 </r>
        <r>   22.9965    0.0000 </r>
       </set>
       <set comment="kpoint 13">
        <r>   -0.9179    1.0000 </r>
        <r>   -0.5440    1.0000 </r>
        <r>    5.2850    1.0000 </r>
        <r>    5.7357    1.0000 </r>
        <r>    5.7357    1.0000 </r>
        <r>    8.1348    0.0000 </r>
        <r>   14.2825    0.0000 </r>
        <r>   18.0579    0.0000 </r>
        <r>   18.0579    0.0000 </r>
       </set>
       <set comment="kpoint 14">
        <r>    0.4191    1.0000 </r>
        <r>    0.6709    1.0000 </r>
        <r>    1.5828    1.0000 </r>
        <r>    4.0014    1.0000 </r>
        <r>    4.4426    1.0000 </r>
        <r>    7.4474    0.6250 </r>
        <r>   16.8190    0.0000 </r>
        <r>   18.6529    0.0000 </r>
        <r>   22.0231    0.0000 </r>
       </set>
       <set comment="kpoint 15">
        <r>    0.6731    1.0000 </r>
        <r>    0.7402    1.0000 </r>
        <r>    1.8545    1.0000 </r>
        <r>    3.5017    1.0000 </r>
        <r>    5.2134    1.0000 </r>
        <r>   11.3392    0.0000 </r>
        <r>   11.8637    0.0000 </r>
        <r>   18.2112    0.0000 </r>
        <r>   20.0877    0.0000 </r>
       </set>
       <set comment="kpoint 16">
        <r>   -0.0470    1.0000 </r>
        <r>    0.3227    1.0000 </r>
        <r>    2.8089    1.0000 </r>
        <r>    4.1557    1.0000 </r>
        <r>    5.7380    1.0000 </r>
        <r>   11.9017    0.0000 </r>
        <r>   13.2073    0.0000 </r>
        <r>   16.2296    0.0000 </r>
        <r>   17.7859    0.0000 </r>
       </set>
      </set>
     </set>
    </array>
   </eigenvalues>
   <array>
    <dimension dim="1">ion</dimension>
    <dimension dim="2">band</dimension>
    <dimension dim="3">kpoint</dimension>
    <dimension dim="4">spin</dimension>
    <field>  s</field>
    <set>
     <set comment="spin1">
      <set comment="kpoint 1">
       <set comment="band 1">
        <r>  0.6885 </r>
       </set>
       <set comment="band 2">
        <r>  0.0000 </r>
       </set>
       <set comment="band 3">
        <r>  0.0000 </r>
       </set>
       <set comment="band 4">
        <r>  0.0000 </r>
       </set>
       <set comment="band 5">
        <r>  0.0000 </r>
       </set>
       <set comment="band 6">
        <r>  0.0000 </r>
       </set>
       <set comment="band 7">
        <r>  0.0000 </r>
       </set>
       <set comment="band 8">
        <r>  0.0000 </r>
       </set>
       <set comment="band 9">
        <r>  0.0000 </r>
       </set>
      </set>
      <set comment="kpoint 2">
       <set comment="band 1">
        <r>  0.6292 </r>
       </set>
       <set comment="band 2">
        <r>  0.0066 </r>
       </set>
       <set comment="band 3">
        <r>  0.0000 </r>
       </set>
       <set comment="band 4">
        <r>  0.0000 </r>
       </set>
       <set comment="band 5">
        <r>  0.0000 </r>
       </set>
       <set comment="band 6">
        <r>  0.0000 </r>
       </set>
       <set comment="band 7">
        <r>  0.0589 </r>
       </set>
       <set comment="band 8">
        <r>  0.0069 </r>
       </set>
       <set comment="band 9">
        <r>  0.0000 </r>
       </set>
      </set>
      <set comment="kpoint 3">
       <set comment="band 1">
        <r>  0.3438 </r>
       </set>
       <set comment="band 2">
        <r>  0.0000 </r>
       </set>
       <set comment="band 3">
        <r>  0.0000 </r>
       </set>
       <set comment="band 4">
        <r>  0.1358 </r>
       </set>
       <set comment="band 5">
        <r>  0.0000 </r>
       </set>
       <set comment="band 6">
        <r>  0.0000 </r>
       </set>
       <set comment="band 7">
        <r>  0.2236 </r>
       </set>
       <set comment="band 8">
        <r>  0.0003 </r>
       </set>
       <set comment="band 9">
        <r>  0.0000 </r>
       </set>
      </set>
      <set comment="kpoint 4">
       <set comment="band 1">
        <r>  0.2075 </r>
       </set>
       <set comment="band 2">
        <r>  0.0000 </r>
       </set>
       <set comment="band 3">
        <r>  0.0000 </r>
       </set>
       <set comment="band 4">
        <r>  0.0000 </r>
       </set>
       <set comment="band 5">
        <r>  0.0000 </r>
       </set>
       <set comment="band 6">
        <r>  0.0000 </r>
       </set>
       <set comment="band 7">
        <r>  0.4968 </r>
       </set>
       <set comment="band 8">
        <r>  0.0000 </r>
       </set>
       <set comment="band 9">
        <r>  0.0000 </r>
       </set>
      </set>
      <set comment="kpoint 5">
       <set comment="band 1">
        <r>  0.6081 </r>
       </set>
       <set comment="band 2">
        <r>  0.0000 </r>
       </set>
       <set comment="band 3">
        <r>  0.0000 </r>
       </set>
       <set comment="band 4">
        <r>  0.0000 </r>
       </set>
       <set comment="band 5">
        <r>  0.0124 </r>
       </set>
       <set comment="band 6">
        <r>  0.0000 </r>
       </set>
       <set comment="band 7">
        <r>  0.0000 </r>
       </set>
       <set comment="band 8">
        <r>  0.0513 </r>
       </set>
       <set comment="band 9">
        <r>  0.0000 </r>
       </set>
      </set>
      <set comment="kpoint 6">
       <set comment="band 1">
        <r>  0.3926 </r>
       </set>
       <set comment="band 2">
        <r>  0.0309 </r>
       </set>
       <set comment="band 3">
        <r>  0.0203 </r>
       </set>
       <set comment="band 4">
        <r>  0.0000 </r>
       </set>
       <set comment="band 5">
        <r>  0.0646 </r>
       </set>
       <set comment="band 6">
        <r>  0.0000 </r>
       </set>
       <set comment="band 7">
        <r>  0.1506 </r>
       </set>
       <set comment="band 8">
        <r>  0.0034 </r>
       </set>
       <set comment="band 9">
        <r>  0.0000 </r>
       </set>
      </set>
      <set comment="kpoint 7">
       <set comment="band 1">
        <r>  0.1587 </r>
       </set>
       <set comment="band 2">
        <r>  0.0007 </r>
       </set>
       <set comment="band 3">
        <r>  0.0000 </r>
       </set>
       <set comment="band 4">
        <r>  0.0301 </r>
       </set>
       <set comment="band 5">
        <r>  0.0000 </r>
       </set>
       <set comment="band 6">
        <r>  0.0923 </r>
       </set>
       <set comment="band 7">
        <r>  0.3860 </r>
       </set>
       <set comment="band 8">
        <r>  0.0263 </r>
       </set>
       <set comment="band 9">
        <r>  0.0005 </r>
       </set>
      </set>
      <set comment="kpoint 8">
       <set comment="band 1">
        <r>  0.2069 </r>
       </set>
       <set comment="band 2">
        <r>  0.0003 </r>
       </set>
       <set comment="band 3">
        <r>  0.0545 </r>
       </set>
       <set comment="band 4">
        <r>  0.0000 </r>
       </set>
       <set comment="band 5">
        <r>  0.0000 </r>
       </set>
       <set comment="band 6">
        <r>  0.1441 </r>
       </set>
       <set comment="band 7">
        <r>  0.2699 </r>
       </set>
       <set comment="band 8">
        <r>  0.0323 </r>
       </set>
       <set comment="band 9">
        <r>  0.0198 </r>
       </set>
      </set>
      <set comment="kpoint 9">
       <set comment="band 1">
        <r>  0.5200 </r>
       </set>
       <set comment="band 2">
        <r>  0.0000 </r>
       </set>
       <set comment="band 3">
        <r>  0.0050 </r>
       </set>
       <set comment="band 4">
        <r>  0.0000 </r>
       </set>
       <set comment="band 5">
        <r>  0.0000 </r>
       </set>
       <set comment="band 6">
        <r>  0.0311 </r>
       </set>
       <set comment="band 7">
        <r>  0.1466 </r>
       </set>
       <set comment="band 8">
        <r>  0.0000 </r>
       </set>
       <set comment="band 9">
        <r>  0.0215 </r>
       </set>
      </set>
      <set comment="kpoint 10">
       <set comment="band 1">
        <r>  0.1944 </r>
       </set>
       <set comment="band 2">
        <r>  0.0000 </r>
       </set>
       <set comment="band 3">
        <r>  0.2347 </r>
       </set>
       <set comment="band 4">
        <r>  0.0000 </r>
       </set>
       <set comment="band 5">
        <r>  0.0000 </r>
       </set>
       <set comment="band 6">
        <r>  0.0000 </r>
       </set>
       <set comment="band 7">
        <r>  0.0000 </r>
       </set>
       <set comment="band 8">
        <r>  0.0000 </r>
       </set>
       <set comment="band 9">
        <r>  0.2324 </r>
       </set>
      </set>
      <set comment="kpoint 11">
       <set comment="band 1">
        <r>  0.0641 </r>
       </set>
       <set comment="band 2">
        <r>  0.0059 </r>
       </set>
       <set comment="band 3">
        <r>  0.0484 </r>
       </set>
       <set comment="band 4">
        <r>  0.0000 </r>
       </set>
       <set comment="band 5">
        <r>  0.0000 </r>
       </set>
       <set comment="band 6">
        <r>  0.1509 </r>
       </set>
       <set comment="band 7">
        <r>  0.3523 </r>
       </set>
       <set comment="band 8">
        <r>  0.0849 </r>
       </set>
       <set comment="band 9">
        <r>  0.0000 </r>
       </set>
      </set>
      <set comment="kpoint 12">
       <set comment="band 1">
        <r>  0.0544 </r>
       </set>
       <set comment="band 2">
        <r>  0.0091 </r>
       </set>
       <set comment="band 3">
        <r>  0.0000 </r>
       </set>
       <set comment="band 4">
        <r>  0.0000 </r>
       </set>
       <set comment="band 5">
        <r>  0.0000 </r>
       </set>
       <set comment="band 6">
        <r>  0.4128 </r>
       </set>
       <set comment="band 7">
        <r>  0.0000 </r>
       </set>
       <set comment="band 8">
        <r>  0.2382 </r>
       </set>
       <set comment="band 9">
        <r>  0.0000 </r>
       </set>
      </set>
      <set comment="kpoint 13">
       <set comment="band 1">
        <r>  0.0689 </r>
       </set>
       <set comment="band 2">
        <r>  0.0000 </r>
       </set>
       <set comment="band 3">
        <r>  0.0000 </r>
       </set>
       <set comment="band 4">
        <r>  0.0000 </r>
       </set>
       <set comment="band 5">
        <r>  0.0000 </r>
       </set>
       <set comment="band 6">
        <r>  0.0000 </r>
       </set>
       <set comment="band 7">
        <r>  0.6260 </r>
       </set>
       <set comment="band 8">
        <r>  0.0000 </r>
       </set>
       <set comment="band 9">
        <r>  0.0000 </r>
       </set>
      </set>
      <set comment="kpoint 14">
       <set comment="band 1">
        <r>  0.1551 </r>
       </set>
       <set comment="band 2">
        <r>  0.0000 </r>
       </set>
       <set comment="band 3">
        <r>  0.0657 </r>
       </set>
       <set comment="band 4">
        <r>  0.0106 </r>
       </set>
       <set comment="band 5">
        <r>  0.0000 </r>
       </set>
       <set comment="band 6">
        <r>  0.1753 </r>
       </set>
       <set comment="band 7">
        <r>  0.2861 </r>
       </set>
       <set comment="band 8">
        <r>  0.0000 </r>
       </set>
       <set comment="band 9">
        <r>  0.0357 </r>
       </set>
      </set>
      <set comment="kpoint 15">
       <set comment="band 1">
        <r>  0.0695 </r>
       </set>
       <set comment="band 2">
        <r>  0.0000 </r>
       </set>
       <set comment="band 3">
        <r>  0.0000 </r>
       </set>
       <set comment="band 4">
        <r>  0.0067 </r>
       </set>
       <set comment="band 5">
        <r>  0.0074 </r>
       </set>
       <set comment="band 6">
        <r>  0.5248 </r>
       </set>
       <set comment="band 7">
        <r>  0.0000 </r>
       </set>
       <set comment="band 8">
        <r>  0.1266 </r>
       </set>
       <set comment="band 9">
        <r>  0.0000 </r>
       </set>
      </set>
      <set comment="kpoint 16">
       <set comment="band 1">
        <r>  0.0276 </r>
       </set>
       <set comment="band 2">
        <r>  0.0000 </r>
       </set>
       <set comment="band 3">
        <r>  0.0000 </r>
       </set>
       <set comment="band 4">
        <r>  0.0222 </r>
       </set>
       <set comment="band 5">
        <r>  0.0000 </r>
       </set>
       <set comment="band 6">
        <r>  0.0000 </r>
       </set>
       <set comment="band 7">
        <r>  0.6780 </r>
       </set>
       <set comment="band 8">
        <r>  0.0000 </r>
       </set>
       <set comment="band 9">
        <r>  0.0004 </r>
       </set>
      </set>
     </set>
    </set>
   </array>
  </projected>
 </calculation>
 <structure name="finalpos" >
  <crystal>
   <varray name="basis" >
    <v>       0.00000000       1.96195000       1.96195000 </v>
    <v>       1.96195000       0.00000000       1.96195000 </v>
    <v>       1.96195000       1.96195000       0.00000000 </v>
   </varray>
   <i name="volume">     15.10406345 </i>
   <varray name="rec_basis" >
    <v>      -0.25484849       0.25484849       0.25484849 </v>
    <v>       0.25484849      -0.25484849       0.25484849 </v>
    <v>       0.25484849       0.25484849      -0.25484849 </v>
   </varray>
  </crystal>
  <varray name="positions" >
   <v>       0.00000000       0.00000000       0.00000000 </v>
  </varray>
 </structure>
</modeling>
