Au, FCC                                 
           1
     0.000000    1.961950    1.961950
     1.961950    0.000000    1.961950
     1.961950    1.961950    0.000000
   Au
   1
Direct configuration=     1
   0.00000000  0.00000000  0.00000000
