 Entering Gaussian System, Link 0=g03
 Input=caffeine.com
 Output=caffeine.g03
 Initial command:
 /usr/local/g03/l1.exe /Volumes/Home/ghutchis/Documents/Calculations/Gau-79018.inp -scrdir=/Volumes/Home/ghutchis/Documents/Calculations/
 Entering Link 1 = /usr/local/g03/l1.exe PID=     79019.
  
 Copyright (c) 1988,1990,1992,1993,1995,1998,2003,2004,2007, Gaussian, Inc.
                  All Rights Reserved.
  
 This is the Gaussian(R) 03 program.  It is based on the
 the Gaussian(R) 98 system (copyright 1998, Gaussian, Inc.),
 the Gaussian(R) 94 system (copyright 1995, Gaussian, Inc.),
 the Gaussian 92(TM) system (copyright 1992, Gaussian, Inc.),
 the Gaussian 90(TM) system (copyright 1990, Gaussian, Inc.),
 the Gaussian 88(TM) system (copyright 1988, Gaussian, Inc.),
 the Gaussian 86(TM) system (copyright 1986, Carnegie Mellon
 University), and the Gaussian 82(TM) system (copyright 1983,
 Carnegie Mellon University). Gaussian is a federally registered
 trademark of Gaussian, Inc.
  
 This software contains proprietary and confidential information,
 including trade secrets, belonging to Gaussian, Inc.
  
 This software is provided under written license and may be
 used, copied, transmitted, or stored only in accord with that
 written license.
  
 The following legend is applicable only to US Government
 contracts under FAR:
  
                    RESTRICTED RIGHTS LEGEND
  
 Use, reproduction and disclosure by the US Government is
 subject to restrictions as set forth in subparagraphs (a)
 and (c) of the Commercial Computer Software - Restricted
 Rights clause in FAR 52.227-19.
  
 Gaussian, Inc.
 340 Quinnipiac St., Bldg. 40, Wallingford CT 06492
  
  
 ---------------------------------------------------------------
 Warning -- This program may not be used in any manner that
 competes with the business of Gaussian, Inc. or will provide
 assistance to any competitor of Gaussian, Inc.  The licensee
 of this program is prohibited from giving any competitor of
 Gaussian, Inc. access to this program.  By using this program,
 the user acknowledges that Gaussian, Inc. is engaged in the
 business of creating and licensing software in the field of
 computational chemistry and represents and warrants to the
 licensee that it is not a competitor of Gaussian, Inc. and that
 it will not use this program in any manner prohibited above.
 ---------------------------------------------------------------
  

 Cite this work as:
 Gaussian 03, Revision E.01,
 M. J. Frisch, G. W. Trucks, H. B. Schlegel, G. E. Scuseria, 
 M. A. Robb, J. R. Cheeseman, J. A. Montgomery, Jr., T. Vreven, 
 K. N. Kudin, J. C. Burant, J. M. Millam, S. S. Iyengar, J. Tomasi, 
 V. Barone, B. Mennucci, M. Cossi, G. Scalmani, N. Rega, 
 G. A. Petersson, H. Nakatsuji, M. Hada, M. Ehara, K. Toyota, 
 R. Fukuda, J. Hasegawa, M. Ishida, T. Nakajima, Y. Honda, O. Kitao, 
 H. Nakai, M. Klene, X. Li, J. E. Knox, H. P. Hratchian, J. B. Cross, 
 V. Bakken, C. Adamo, J. Jaramillo, R. Gomperts, R. E. Stratmann, 
 O. Yazyev, A. J. Austin, R. Cammi, C. Pomelli, J. W. Ochterski, 
 P. Y. Ayala, K. Morokuma, G. A. Voth, P. Salvador, J. J. Dannenberg, 
 V. G. Zakrzewski, S. Dapprich, A. D. Daniels, M. C. Strain, 
 O. Farkas, D. K. Malick, A. D. Rabuck, K. Raghavachari, 
 J. B. Foresman, J. V. Ortiz, Q. Cui, A. G. Baboul, S. Clifford, 
 J. Cioslowski, B. B. Stefanov, G. Liu, A. Liashenko, P. Piskorz, 
 I. Komaromi, R. L. Martin, D. J. Fox, T. Keith, M. A. Al-Laham, 
 C. Y. Peng, A. Nanayakkara, M. Challacombe, P. M. W. Gill, 
 B. Johnson, W. Chen, M. W. Wong, C. Gonzalez, and J. A. Pople, 
 Gaussian, Inc., Wallingford CT, 2004.
 
 ******************************************
 Gaussian 03:  EM64M-G03RevE.01 11-Sep-2007
                 6-Nov-2008 
 ******************************************
 %Chk=checkpoint.chk
 ---------------------
 #p B3LYP/6-31G(d) Opt
 ---------------------
 1/14=-1,18=20,26=3,38=1/1,3;
 2/9=110,17=6,18=5,40=1/2;
 3/5=1,6=6,7=1,11=2,16=1,25=1,30=1,74=-5/1,2,3;
 4//1;
 5/5=2,38=5/2;
 6/7=2,8=2,9=2,10=2,28=1/1;
 7//1,2,3,16;
 1/14=-1,18=20/3(3);
 2/9=110/2;
 6/7=2,8=2,9=2,10=2,19=2,28=1/1;
 99//99;
 2/9=110/2;
 3/5=1,6=6,7=1,11=2,16=1,25=1,30=1,74=-5/1,2,3;
 4/5=5,16=3/1;
 5/5=2,38=5/2;
 7//1,2,3,16;
 1/14=-1,18=20/3(-5);
 2/9=110/2;
 6/7=2,8=2,9=2,10=2,19=2,28=1/1;
 99/9=1/99;
 Leave Link    1 at Thu Nov  6 11:49:54 2008, MaxMem=          0 cpu:       0.1
 (Enter /usr/local/g03/l101.exe)
 -----
 Title
 -----
 Symbolic Z-matrix:
 Charge =  0 Multiplicity = 1
 C                     0.        0.        0. 
 C                     1.392     0.        0. 
 N                     2.076     1.164     0. 
 C                     1.373     2.321    -0.003 
 O                     1.978     3.365    -0.017 
 N                     0.017     2.344     0.003 
 C                    -0.71      1.202     0.002 
 O                    -1.915     1.218    -0.006 
 N                    -0.404    -1.287    -0.019 
 N                     1.83     -1.279    -0.02 
 C                     0.715    -2.048    -0.031 
 C                    -1.795    -1.761    -0.044 
 C                     3.546     1.178    -0.016 
 C                    -0.69      3.634    -0.013 
 H                     0.72     -3.138    -0.055 
 H                    -1.813    -2.85     -0.09 
 H                    -2.307    -1.428     0.86 
 H                    -2.302    -1.352    -0.918 
 H                     3.894     1.455    -1.011 
 H                     3.929     0.19      0.239 
 H                     3.911     1.904     0.71 
 H                    -1.557     3.583     0.645 
 H                    -0.027     4.428     0.329 
 H                    -1.02      3.851    -1.029 
 
                    Isotopes and Nuclear Properties:
 (Nuclear quadrupole moments (NQMom) in fm**2, nuclear magnetic moments (NMagM)
  in nuclear magnetons)

  Atom         1           2           3           4           5           6           7           8           9          10
 IAtWgt=          12          12          14          12          16          14          12          16          14          14
 AtmWgt=  12.0000000  12.0000000  14.0030740  12.0000000  15.9949146  14.0030740  12.0000000  15.9949146  14.0030740  14.0030740
 NucSpn=           0           0           2           0           0           2           0           0           2           2
 AtZEff=   0.0000000   0.0000000   0.0000000   0.0000000   0.0000000   0.0000000   0.0000000   0.0000000   0.0000000   0.0000000
 NQMom=    0.0000000   0.0000000   2.0440000   0.0000000   0.0000000   2.0440000   0.0000000   0.0000000   2.0440000   2.0440000
 NMagM=    0.0000000   0.0000000   0.4037610   0.0000000   0.0000000   0.4037610   0.0000000   0.0000000   0.4037610   0.4037610

  Atom        11          12          13          14          15          16          17          18          19          20
 IAtWgt=          12          12          12          12           1           1           1           1           1           1
 AtmWgt=  12.0000000  12.0000000  12.0000000  12.0000000   1.0078250   1.0078250   1.0078250   1.0078250   1.0078250   1.0078250
 NucSpn=           0           0           0           0           1           1           1           1           1           1
 AtZEff=   0.0000000   0.0000000   0.0000000   0.0000000   0.0000000   0.0000000   0.0000000   0.0000000   0.0000000   0.0000000
 NQMom=    0.0000000   0.0000000   0.0000000   0.0000000   0.0000000   0.0000000   0.0000000   0.0000000   0.0000000   0.0000000
 NMagM=    0.0000000   0.0000000   0.0000000   0.0000000   2.7928460   2.7928460   2.7928460   2.7928460   2.7928460   2.7928460

  Atom        21          22          23          24
 IAtWgt=           1           1           1           1
 AtmWgt=   1.0078250   1.0078250   1.0078250   1.0078250
 NucSpn=           1           1           1           1
 AtZEff=   0.0000000   0.0000000   0.0000000   0.0000000
 NQMom=    0.0000000   0.0000000   0.0000000   0.0000000
 NMagM=    2.7928460   2.7928460   2.7928460   2.7928460
 Leave Link  101 at Thu Nov  6 11:49:55 2008, MaxMem=   67108864 cpu:       0.1
 (Enter /usr/local/g03/l103.exe)

 GradGradGradGradGradGradGradGradGradGradGradGradGradGradGradGradGradGrad
 Berny optimization.
 Initialization pass.
                           ----------------------------
                           !    Initial Parameters    !
                           ! (Angstroms and Degrees)  !
 --------------------------                            --------------------------
 ! Name  Definition              Value          Derivative Info.                !
 --------------------------------------------------------------------------------
 ! R1    R(1,2)                  1.392          estimate D2E/DX2                !
 ! R2    R(1,7)                  1.396          estimate D2E/DX2                !
 ! R3    R(1,9)                  1.3491         estimate D2E/DX2                !
 ! R4    R(2,3)                  1.3501         estimate D2E/DX2                !
 ! R5    R(2,10)                 1.3521         estimate D2E/DX2                !
 ! R6    R(3,4)                  1.3538         estimate D2E/DX2                !
 ! R7    R(3,13)                 1.4702         estimate D2E/DX2                !
 ! R8    R(4,5)                  1.2067         estimate D2E/DX2                !
 ! R9    R(4,6)                  1.3562         estimate D2E/DX2                !
 ! R10   R(6,7)                  1.3538         estimate D2E/DX2                !
 ! R11   R(6,14)                 1.4711         estimate D2E/DX2                !
 ! R12   R(7,8)                  1.2051         estimate D2E/DX2                !
 ! R13   R(9,11)                 1.3533         estimate D2E/DX2                !
 ! R14   R(9,12)                 1.4698         estimate D2E/DX2                !
 ! R15   R(10,11)                1.3545         estimate D2E/DX2                !
 ! R16   R(11,15)                1.0903         estimate D2E/DX2                !
 ! R17   R(12,16)                1.0901         estimate D2E/DX2                !
 ! R18   R(12,17)                1.091          estimate D2E/DX2                !
 ! R19   R(12,18)                1.09           estimate D2E/DX2                !
 ! R20   R(13,19)                1.0899         estimate D2E/DX2                !
 ! R21   R(13,20)                1.0899         estimate D2E/DX2                !
 ! R22   R(13,21)                1.0897         estimate D2E/DX2                !
 ! R23   R(14,22)                1.0896         estimate D2E/DX2                !
 ! R24   R(14,23)                1.0895         estimate D2E/DX2                !
 ! R25   R(14,24)                1.0901         estimate D2E/DX2                !
 ! A1    A(2,1,7)              120.5696         estimate D2E/DX2                !
 ! A2    A(2,1,9)              107.4257         estimate D2E/DX2                !
 ! A3    A(7,1,9)              131.9993         estimate D2E/DX2                !
 ! A4    A(1,2,3)              120.4397         estimate D2E/DX2                !
 ! A5    A(1,2,10)             108.9019         estimate D2E/DX2                !
 ! A6    A(3,2,10)             130.6509         estimate D2E/DX2                !
 ! A7    A(2,3,4)              118.2771         estimate D2E/DX2                !
 ! A8    A(2,3,13)             120.9833         estimate D2E/DX2                !
 ! A9    A(4,3,13)             120.7337         estimate D2E/DX2                !
 ! A10   A(3,4,5)              118.624          estimate D2E/DX2                !
 ! A11   A(3,4,6)              122.2537         estimate D2E/DX2                !
 ! A12   A(5,4,6)              119.1215         estimate D2E/DX2                !
 ! A13   A(4,6,7)              121.5086         estimate D2E/DX2                !
 ! A14   A(4,6,14)             119.6918         estimate D2E/DX2                !
 ! A15   A(7,6,14)             118.7912         estimate D2E/DX2                !
 ! A16   A(1,7,6)              116.9495         estimate D2E/DX2                !
 ! A17   A(1,7,8)              121.3289         estimate D2E/DX2                !
 ! A18   A(6,7,8)              121.7197         estimate D2E/DX2                !
 ! A19   A(1,9,11)             106.7961         estimate D2E/DX2                !
 ! A20   A(1,9,12)             126.2514         estimate D2E/DX2                !
 ! A21   A(11,9,12)            126.9456         estimate D2E/DX2                !
 ! A22   A(2,10,11)            105.6943         estimate D2E/DX2                !
 ! A23   A(9,11,10)            111.182          estimate D2E/DX2                !
 ! A24   A(9,11,15)            124.4838         estimate D2E/DX2                !
 ! A25   A(10,11,15)           124.3323         estimate D2E/DX2                !
 ! A26   A(9,12,16)            109.7865         estimate D2E/DX2                !
 ! A27   A(9,12,17)            109.3673         estimate D2E/DX2                !
 ! A28   A(9,12,18)            109.4403         estimate D2E/DX2                !
 ! A29   A(16,12,17)           109.3982         estimate D2E/DX2                !
 ! A30   A(16,12,18)           109.47           estimate D2E/DX2                !
 ! A31   A(17,12,18)           109.3642         estimate D2E/DX2                !
 ! A32   A(3,13,19)            109.3672         estimate D2E/DX2                !
 ! A33   A(3,13,20)            109.8888         estimate D2E/DX2                !
 ! A34   A(3,13,21)            109.5131         estimate D2E/DX2                !
 ! A35   A(19,13,20)           109.3773         estimate D2E/DX2                !
 ! A36   A(19,13,21)           109.3881         estimate D2E/DX2                !
 ! A37   A(20,13,21)           109.2917         estimate D2E/DX2                !
 ! A38   A(6,14,22)            109.5597         estimate D2E/DX2                !
 ! A39   A(6,14,23)            110.0712         estimate D2E/DX2                !
 ! A40   A(6,14,24)            109.2801         estimate D2E/DX2                !
 ! A41   A(22,14,23)           109.1937         estimate D2E/DX2                !
 ! A42   A(22,14,24)           109.3469         estimate D2E/DX2                !
 ! A43   A(23,14,24)           109.3738         estimate D2E/DX2                !
 ! D1    D(7,1,2,3)             -0.0953         estimate D2E/DX2                !
 ! D2    D(7,1,2,10)          -179.1995         estimate D2E/DX2                !
 ! D3    D(9,1,2,3)            179.1542         estimate D2E/DX2                !
 ! D4    D(9,1,2,10)             0.0501         estimate D2E/DX2                !
 ! D5    D(2,1,7,6)              0.0427         estimate D2E/DX2                !
 ! D6    D(2,1,7,8)            179.5532         estimate D2E/DX2                !
 ! D7    D(9,1,7,6)           -178.9938         estimate D2E/DX2                !
 ! D8    D(9,1,7,8)              0.5168         estimate D2E/DX2                !
 ! D9    D(2,1,9,11)            -0.0338         estimate D2E/DX2                !
 ! D10   D(2,1,9,12)          -179.1298         estimate D2E/DX2                !
 ! D11   D(7,1,9,11)           179.0967         estimate D2E/DX2                !
 ! D12   D(7,1,9,12)             0.0007         estimate D2E/DX2                !
 ! D13   D(1,2,3,4)             -0.1442         estimate D2E/DX2                !
 ! D14   D(1,2,3,13)          -179.2726         estimate D2E/DX2                !
 ! D15   D(10,2,3,4)           178.7387         estimate D2E/DX2                !
 ! D16   D(10,2,3,13)           -0.3898         estimate D2E/DX2                !
 ! D17   D(1,2,10,11)           -0.045          estimate D2E/DX2                !
 ! D18   D(3,2,10,11)         -179.027          estimate D2E/DX2                !
 ! D19   D(2,3,4,5)           -179.2437         estimate D2E/DX2                !
 ! D20   D(2,3,4,6)              0.4482         estimate D2E/DX2                !
 ! D21   D(13,3,4,5)            -0.113          estimate D2E/DX2                !
 ! D22   D(13,3,4,6)           179.5789         estimate D2E/DX2                !
 ! D23   D(2,3,13,19)          105.0616         estimate D2E/DX2                !
 ! D24   D(2,3,13,20)          -15.0154         estimate D2E/DX2                !
 ! D25   D(2,3,13,21)         -135.0781         estimate D2E/DX2                !
 ! D26   D(4,3,13,19)          -74.0454         estimate D2E/DX2                !
 ! D27   D(4,3,13,20)          165.8775         estimate D2E/DX2                !
 ! D28   D(4,3,13,21)           45.8149         estimate D2E/DX2                !
 ! D29   D(3,4,6,7)             -0.5151         estimate D2E/DX2                !
 ! D30   D(3,4,6,14)          -179.4482         estimate D2E/DX2                !
 ! D31   D(5,4,6,7)            179.1752         estimate D2E/DX2                !
 ! D32   D(5,4,6,14)             0.2422         estimate D2E/DX2                !
 ! D33   D(4,6,7,1)              0.2527         estimate D2E/DX2                !
 ! D34   D(4,6,7,8)           -179.2558         estimate D2E/DX2                !
 ! D35   D(14,6,7,1)           179.1951         estimate D2E/DX2                !
 ! D36   D(14,6,7,8)            -0.3134         estimate D2E/DX2                !
 ! D37   D(4,6,14,22)         -140.4988         estimate D2E/DX2                !
 ! D38   D(4,6,14,23)          -20.4145         estimate D2E/DX2                !
 ! D39   D(4,6,14,24)           99.7162         estimate D2E/DX2                !
 ! D40   D(7,6,14,22)           40.5392         estimate D2E/DX2                !
 ! D41   D(7,6,14,23)          160.6234         estimate D2E/DX2                !
 ! D42   D(7,6,14,24)          -79.2459         estimate D2E/DX2                !
 ! D43   D(1,9,11,10)            0.0063         estimate D2E/DX2                !
 ! D44   D(1,9,11,15)         -179.5083         estimate D2E/DX2                !
 ! D45   D(12,9,11,10)         179.0941         estimate D2E/DX2                !
 ! D46   D(12,9,11,15)          -0.4205         estimate D2E/DX2                !
 ! D47   D(1,9,12,16)          178.0664         estimate D2E/DX2                !
 ! D48   D(1,9,12,17)          -61.8938         estimate D2E/DX2                !
 ! D49   D(1,9,12,18)           57.893          estimate D2E/DX2                !
 ! D50   D(11,9,12,16)          -0.8507         estimate D2E/DX2                !
 ! D51   D(11,9,12,17)         119.1891         estimate D2E/DX2                !
 ! D52   D(11,9,12,18)        -121.0241         estimate D2E/DX2                !
 ! D53   D(2,10,11,9)            0.0244         estimate D2E/DX2                !
 ! D54   D(2,10,11,15)         179.54           estimate D2E/DX2                !
 --------------------------------------------------------------------------------
 Trust Radius=3.00D-01 FncErr=1.00D-07 GrdErr=1.00D-06
 Number of steps in this run= 132 maximum allowed number of steps= 144.
 GradGradGradGradGradGradGradGradGradGradGradGradGradGradGradGradGradGrad

 Leave Link  103 at Thu Nov  6 11:49:56 2008, MaxMem=   67108864 cpu:       0.0
 (Enter /usr/local/g03/l202.exe)
                          Input orientation:                          
 ---------------------------------------------------------------------
 Center     Atomic     Atomic              Coordinates (Angstroms)
 Number     Number      Type              X           Y           Z
 ---------------------------------------------------------------------
    1          6             0        0.000000    0.000000    0.000000
    2          6             0        1.392000    0.000000    0.000000
    3          7             0        2.076000    1.164000    0.000000
    4          6             0        1.373000    2.321000   -0.003000
    5          8             0        1.978000    3.365000   -0.017000
    6          7             0        0.017000    2.344000    0.003000
    7          6             0       -0.710000    1.202000    0.002000
    8          8             0       -1.915000    1.218000   -0.006000
    9          7             0       -0.404000   -1.287000   -0.019000
   10          7             0        1.830000   -1.279000   -0.020000
   11          6             0        0.715000   -2.048000   -0.031000
   12          6             0       -1.795000   -1.761000   -0.044000
   13          6             0        3.546000    1.178000   -0.016000
   14          6             0       -0.690000    3.634000   -0.013000
   15          1             0        0.720000   -3.138000   -0.055000
   16          1             0       -1.813000   -2.850000   -0.090000
   17          1             0       -2.307000   -1.428000    0.860000
   18          1             0       -2.302000   -1.352000   -0.918000
   19          1             0        3.894000    1.455000   -1.011000
   20          1             0        3.929000    0.190000    0.239000
   21          1             0        3.911000    1.904000    0.710000
   22          1             0       -1.557000    3.583000    0.645000
   23          1             0       -0.027000    4.428000    0.329000
   24          1             0       -1.020000    3.851000   -1.029000
 ---------------------------------------------------------------------
                    Distance matrix (angstroms):
                    1          2          3          4          5
     1  C    0.000000
     2  C    1.392000   0.000000
     3  N    2.380057   1.350093   0.000000
     4  C    2.696698   2.321080   1.353834   0.000000
     5  O    3.903332   3.415686   2.203246   1.206713   0.000000
     6  N    2.344064   2.717530   2.373160   1.356208   2.210964
     7  C    1.396033   2.421407   2.786260   2.364545   3.450257
     8  O    2.269534   3.524175   3.991370   3.468078   4.445805
     9  N    1.349054   2.209603   3.486856   4.021896   5.226378
    10  N    2.232743   1.352067   2.455436   3.628931   4.646359
    11  C    2.169445   2.157219   3.488585   4.418360   5.558411
    12  C    2.514972   3.641432   4.852031   5.167265   6.364914
    13  C    3.736583   2.455129   1.470154   2.455310   2.691021
    14  C    3.698949   4.188180   3.708345   2.445412   2.681530
    15  H    3.220011   3.209619   4.510983   5.498163   6.623671
    16  H    3.378989   4.289828   5.589688   6.074324   7.280332
    17  H    2.846231   4.057263   5.164180   5.323736   6.488698
    18  H    2.823089   4.039340   5.132238   5.275773   6.432751
    19  H    4.278128   3.065803   2.100459   2.849818   2.882220
    20  H    3.940845   2.555306   2.106990   3.336594   3.735313
    21  H    4.407407   3.236461   2.102124   2.669026   2.529731
    22  H    3.959566   4.685138   4.412060   3.255372   3.603053
    23  H    4.440288   4.661436   3.896735   2.551406   2.295585
    24  H    4.114540   4.659054   4.226586   3.019938   3.201303
                    6          7          8          9         10
     6  N    0.000000
     7  C    1.353770   0.000000
     8  O    2.236198   1.205133   0.000000
     9  N    3.655391   2.507827   2.925460   0.000000
    10  N    4.051373   3.550696   4.501137   2.234015   0.000000
    11  C    4.447249   3.548833   4.193362   1.353302   1.354514
    12  C    4.487380   3.155742   2.981658   1.469756   3.656983
    13  C    3.716686   4.256106   5.461156   4.656043   2.996919
    14  C    1.471124   2.432128   2.708824   4.929308   5.521596
    15  H    5.527196   4.569874   5.091204   2.165842   2.165457
    16  H    5.507739   4.200450   4.070145   2.105538   3.967920
    17  H    4.512583   3.194288   2.811572   2.100936   4.232183
    18  H    4.459419   3.147027   2.754344   2.101150   4.229085
    19  H    4.104832   4.720910   5.900057   5.193788   3.566081
    20  H    4.472042   4.754012   5.938783   4.585083   2.575042
    21  H    3.982045   4.727336   5.909782   5.416008   3.872331
    22  H    2.103512   2.607685   2.478949   5.048485   5.962637
    23  H    2.109803   3.313683   3.739100   5.737984   6.011664
    24  H    2.100343   2.859416   2.963147   5.272438   5.954618
                   11         12         13         14         15
    11  C    0.000000
    12  C    2.526388   0.000000
    13  C    4.292070   6.096293   0.000000
    14  C    5.853159   5.507087   4.896493   0.000000
    15  H    1.090276   2.867311   5.159036   6.917358   0.000000
    16  H    2.652823   1.090120   6.704412   6.580981   2.549560
    17  H    3.211038   1.090985   6.466546   5.385226   3.595004
    18  H    3.220788   1.090049   6.435341   5.317684   3.614837
    19  H    4.830885   6.606244   1.089889   5.172727   5.664262
    20  H    3.925728   6.053979   1.089889   5.767131   4.632462
    21  H    5.136322   6.823429   1.089668   4.968383   6.015768
    22  H    6.109593   5.393487   5.679926   1.089612   7.130678
    23  H    6.528303   6.447377   4.842298   1.089481   7.612478
    24  H    6.229320   5.750252   5.386971   1.090067   7.267902
                   16         17         18         19         20
    16  H    0.000000
    17  H    1.780062   0.000000
    18  H    1.780087   1.779631   0.000000
    19  H    7.207712   7.089762   6.802817   0.000000
    20  H    6.505414   6.472346   6.522406   1.778750   0.000000
    21  H    7.483628   7.056079   7.200923   1.778688   1.777628
    22  H    6.479911   5.071375   5.229935   6.081457   6.463241
    23  H    7.505641   6.306592   6.335537   5.099860   5.798162
    24  H    6.812780   5.752611   5.359762   5.467041   6.285169
                   21         22         23         24
    21  H    0.000000
    22  H    5.720340   0.000000
    23  H    4.692929   1.776170   0.000000
    24  H    5.579399   1.778333   1.778522   0.000000
 Stoichiometry    C8H10N4O2
 Framework group  C1[X(C8H10N4O2)]
 Deg. of freedom    66
 Full point group                 C1
 Largest Abelian subgroup         C1      NOp   1
 Largest concise Abelian subgroup C1      NOp   1
                         Standard orientation:                         
 ---------------------------------------------------------------------
 Center     Atomic     Atomic              Coordinates (Angstroms)
 Number     Number      Type              X           Y           Z
 ---------------------------------------------------------------------
    1          6             0       -0.897186   -0.145262   -0.017122
    2          6             0       -0.318008    1.120525   -0.016052
    3          7             0        1.025038    1.258194   -0.010680
    4          6             0        1.784607    0.137538   -0.003403
    5          8             0        2.985607    0.253314    0.015408
    6          7             0        1.241347   -1.105088   -0.010350
    7          6             0       -0.099589   -1.291011   -0.014663
    8          8             0       -0.586445   -2.393402   -0.007523
    9          7             0       -2.235654    0.022878   -0.003791
   10          7             0       -1.298869    2.050992   -0.001040
   11          6             0       -2.462107    1.357064    0.005901
   12          6             0       -3.245537   -1.044753    0.018167
   13          6             0        1.649335    2.589099    0.006508
   14          6             0        2.120138   -2.284705    0.010477
   15          1             0       -3.451284    1.815158    0.025367
   16          1             0       -4.243465   -0.607967    0.059619
   17          1             0       -3.152053   -1.649817   -0.884833
   18          1             0       -3.088164   -1.675055    0.893472
   19          1             0        2.041926    2.791321    1.002920
   20          1             0        0.911330    3.348192   -0.252309
   21          1             0        2.464350    2.618183   -0.716182
   22          1             0        1.715726   -3.052554   -0.648396
   23          1             0        3.119401   -2.012538   -0.327705
   24          1             0        2.175984   -2.674023    1.027118
 ---------------------------------------------------------------------
 Rotational constants (GHZ):      1.0859622      0.7258143      0.4386801
 Leave Link  202 at Thu Nov  6 11:49:57 2008, MaxMem=   67108864 cpu:       0.1
 (Enter /usr/local/g03/l301.exe)
 Standard basis: 6-31G(d) (6D, 7F)
 There are   230 symmetry adapted basis functions of A   symmetry.
 Integral buffers will be    131072 words long.
 Raffenetti 2 integral format.
 Two-electron integral symmetry is turned on.
   230 basis functions,   432 primitive gaussians,   230 cartesian basis functions
    51 alpha electrons       51 beta electrons
       nuclear repulsion energy       939.9433065064 Hartrees.
 IExCor= 402 DFT=T Ex=B+HF Corr=LYP ExCW=0 ScaHFX=  0.200000
 ScaDFX=  0.800000  0.720000  1.000000  0.810000
 IRadAn=      0 IRanWt=     -1 IRanGd=            0 ICorTp=0
 NAtoms=   24 NActive=   24 NUniq=   24 SFac= 7.50D-01 NAtFMM=   80 NAOKFM=F Big=F
 Leave Link  301 at Thu Nov  6 11:49:57 2008, MaxMem=   67108864 cpu:       0.0
 (Enter /usr/local/g03/l302.exe)
 NPDir=0 NMtPBC=     1 NCelOv=     1 NCel=       1 NClECP=     1 NCelD=      1
         NCelK=      1 NCelE2=     1 NClLst=     1 CellRange=     0.0.
 One-electron integrals computed using PRISM.
 NBasis=   230 RedAO= T  NBF=   230
 NBsUse=   230 1.00D-06 NBFU=   230
 Precomputing XC quadrature grid using
 IXCGrd= 2 IRadAn=           0 IRanWt=          -1 IRanGd=           0.
 NRdTot=    1507 NPtTot=      191404 NUsed=      202050 NTot=      202082
 NSgBfM=   229   229   229   229.
 Leave Link  302 at Thu Nov  6 11:49:59 2008, MaxMem=   67108864 cpu:       0.8
 (Enter /usr/local/g03/l303.exe)
 DipDrv:  MaxL=1.
 Leave Link  303 at Thu Nov  6 11:50:00 2008, MaxMem=   67108864 cpu:       0.0
 (Enter /usr/local/g03/l401.exe)
 Harris functional with IExCor=  402 diagonalized for initial guess.
 ExpMin= 1.61D-01 ExpMax= 5.48D+03 ExpMxC= 8.25D+02 IAcc=1 IRadAn=         1 AccDes= 1.00D-06
 HarFok:  IExCor= 402 AccDes= 1.00D-06 IRadAn=         1 IDoV=1
 ScaDFX=  1.000000  1.000000  1.000000  1.000000
 Harris En= -680.493878780770    
 Initial guess orbital symmetries:
       Occupied  (A) (A) (A) (A) (A) (A) (A) (A) (A) (A) (A) (A)
                 (A) (A) (A) (A) (A) (A) (A) (A) (A) (A) (A) (A)
                 (A) (A) (A) (A) (A) (A) (A) (A) (A) (A) (A) (A)
                 (A) (A) (A) (A) (A) (A) (A) (A) (A) (A) (A) (A)
                 (A) (A) (A)
       Virtual   (A) (A) (A) (A) (A) (A) (A) (A) (A) (A) (A) (A)
                 (A) (A) (A) (A) (A) (A) (A) (A) (A) (A) (A) (A)
                 (A) (A) (A) (A) (A) (A) (A) (A) (A) (A) (A) (A)
                 (A) (A) (A) (A) (A) (A) (A) (A) (A) (A) (A) (A)
                 (A) (A) (A) (A) (A) (A) (A) (A) (A) (A) (A) (A)
                 (A) (A) (A) (A) (A) (A) (A) (A) (A) (A) (A) (A)
                 (A) (A) (A) (A) (A) (A) (A) (A) (A) (A) (A) (A)
                 (A) (A) (A) (A) (A) (A) (A) (A) (A) (A) (A) (A)
                 (A) (A) (A) (A) (A) (A) (A) (A) (A) (A) (A) (A)
                 (A) (A) (A) (A) (A) (A) (A) (A) (A) (A) (A) (A)
                 (A) (A) (A) (A) (A) (A) (A) (A) (A) (A) (A) (A)
                 (A) (A) (A) (A) (A) (A) (A) (A) (A) (A) (A) (A)
                 (A) (A) (A) (A) (A) (A) (A) (A) (A) (A) (A) (A)
                 (A) (A) (A) (A) (A) (A) (A) (A) (A) (A) (A) (A)
                 (A) (A) (A) (A) (A) (A) (A) (A) (A) (A) (A)
 The electronic state of the initial guess is 1-A.
 Leave Link  401 at Thu Nov  6 11:50:03 2008, MaxMem=   67108864 cpu:       2.1
 (Enter /usr/local/g03/l502.exe)
 Closed shell SCF:
 Requested convergence on RMS density matrix=1.00D-08 within 128 cycles.
 Requested convergence on MAX density matrix=1.00D-06.
 Requested convergence on             energy=1.00D-06.
 No special actions if energy rises.
 Using DIIS extrapolation, IDIIS=  1040.
 Integral symmetry usage will be decided dynamically.
       202049 words used for storage of precomputed grid.
 IEnd=    407076 IEndB=    407076 NGot=  67108864 MDV=  66771559
 LenX=  66771559
 Fock matrices will be formed incrementally for  20 cycles.
 Integral accuracy reduced to 1.0D-05 until final iterations.

 Cycle   1  Pass 0  IDiag  1:
 Petite list used in FoFDir.
 MinBra= 0 MaxBra= 2 Meth= 1.
 IRaf=       0 NMat=   1 IRICut=       1 DoRegI=T DoRafI=F ISym2E= 1 JSym2E=1.
 E= -679.976693676830    
 DIIS: error= 3.26D-02 at cycle   1 NSaved=   1.
 NSaved= 1 IEnMin= 1 EnMin= -679.976693676830     IErMin= 1 ErrMin= 3.26D-02
 ErrMax= 3.26D-02 EMaxC= 1.00D-01 BMatC= 4.41D-01 BMatP= 4.41D-01
 IDIUse=3 WtCom= 6.74D-01 WtEn= 3.26D-01
 Coeff-Com:  0.100D+01
 Coeff-En:   0.100D+01
 Coeff:      0.100D+01
 Gap=     0.185 Goal=   None    Shift=    0.000
 GapD=    0.185 DampG=1.000 DampE=0.500 DampFc=0.5000 IDamp=-1.
 Damping current iteration by 5.00D-01
 RMSDP=7.91D-03 MaxDP=2.80D-01              OVMax= 3.45D-01

 Cycle   2  Pass 0  IDiag  1:
 RMSU=  3.92D-03    CP:  9.79D-01
 E= -680.064370040290     Delta-E=       -0.087676363460 Rises=F Damp=T
 DIIS: error= 1.62D-02 at cycle   2 NSaved=   2.
 NSaved= 2 IEnMin= 2 EnMin= -680.064370040290     IErMin= 2 ErrMin= 1.62D-02
 ErrMax= 1.62D-02 EMaxC= 1.00D-01 BMatC= 8.72D-02 BMatP= 4.41D-01
 IDIUse=3 WtCom= 8.38D-01 WtEn= 1.62D-01
 Coeff-Com:  0.246D+00 0.754D+00
 Coeff-En:   0.373D+00 0.627D+00
 Coeff:      0.266D+00 0.734D+00
 Gap=     0.241 Goal=   None    Shift=    0.000
 RMSDP=2.58D-03 MaxDP=1.26D-01 DE=-8.77D-02 OVMax= 2.36D-01

 Cycle   3  Pass 0  IDiag  1:
 RMSU=  2.14D-03    CP:  9.64D-01  6.45D-01
 E= -680.292117633692     Delta-E=       -0.227747593402 Rises=F Damp=F
 DIIS: error= 1.53D-02 at cycle   3 NSaved=   3.
 NSaved= 3 IEnMin= 3 EnMin= -680.292117633692     IErMin= 3 ErrMin= 1.53D-02
 ErrMax= 1.53D-02 EMaxC= 1.00D-01 BMatC= 7.09D-02 BMatP= 8.72D-02
 IDIUse=3 WtCom= 8.47D-01 WtEn= 1.53D-01
 Coeff-Com:  0.717D-01 0.465D+00 0.463D+00
 Coeff-En:   0.000D+00 0.000D+00 0.100D+01
 Coeff:      0.607D-01 0.394D+00 0.545D+00
 Gap=     0.193 Goal=   None    Shift=    0.000
 RMSDP=1.74D-03 MaxDP=6.97D-02 DE=-2.28D-01 OVMax= 9.45D-02

 Cycle   4  Pass 0  IDiag  1:
 RMSU=  9.01D-04    CP:  9.75D-01  8.17D-01  3.89D-01
 E= -680.344256209882     Delta-E=       -0.052138576190 Rises=F Damp=F
 DIIS: error= 6.38D-03 at cycle   4 NSaved=   4.
 NSaved= 4 IEnMin= 4 EnMin= -680.344256209882     IErMin= 4 ErrMin= 6.38D-03
 ErrMax= 6.38D-03 EMaxC= 1.00D-01 BMatC= 1.37D-02 BMatP= 7.09D-02
 IDIUse=3 WtCom= 9.36D-01 WtEn= 6.38D-02
 Coeff-Com:  0.269D-01 0.111D+00 0.318D+00 0.544D+00
 Coeff-En:   0.000D+00 0.000D+00 0.179D+00 0.821D+00
 Coeff:      0.251D-01 0.104D+00 0.309D+00 0.561D+00
 Gap=     0.189 Goal=   None    Shift=    0.000
 RMSDP=6.15D-04 MaxDP=2.81D-02 DE=-5.21D-02 OVMax= 3.41D-02

 Cycle   5  Pass 0  IDiag  1:
 RMSU=  2.43D-04    CP:  9.73D-01  7.46D-01  5.64D-01  6.50D-01
 E= -680.354834744884     Delta-E=       -0.010578535002 Rises=F Damp=F
 DIIS: error= 2.19D-03 at cycle   5 NSaved=   5.
 NSaved= 5 IEnMin= 5 EnMin= -680.354834744884     IErMin= 5 ErrMin= 2.19D-03
 ErrMax= 2.19D-03 EMaxC= 1.00D-01 BMatC= 1.02D-03 BMatP= 1.37D-02
 IDIUse=3 WtCom= 9.78D-01 WtEn= 2.19D-02
 Coeff-Com:  0.714D-02 0.125D-01 0.132D+00 0.347D+00 0.501D+00
 Coeff-En:   0.000D+00 0.000D+00 0.000D+00 0.129D-01 0.987D+00
 Coeff:      0.698D-02 0.123D-01 0.129D+00 0.340D+00 0.512D+00
 Gap=     0.190 Goal=   None    Shift=    0.000
 RMSDP=1.65D-04 MaxDP=5.85D-03 DE=-1.06D-02 OVMax= 1.29D-02

 Cycle   6  Pass 0  IDiag  1:
 RMSU=  8.14D-05    CP:  9.73D-01  7.50D-01  5.49D-01  6.94D-01  4.53D-01
 E= -680.355654492725     Delta-E=       -0.000819747841 Rises=F Damp=F
 DIIS: error= 7.45D-04 at cycle   6 NSaved=   6.
 NSaved= 6 IEnMin= 6 EnMin= -680.355654492725     IErMin= 6 ErrMin= 7.45D-04
 ErrMax= 7.45D-04 EMaxC= 1.00D-01 BMatC= 1.00D-04 BMatP= 1.02D-03
 IDIUse=3 WtCom= 9.93D-01 WtEn= 7.45D-03
 Coeff-Com:  0.169D-02-0.209D-02 0.428D-01 0.134D+00 0.303D+00 0.520D+00
 Coeff-En:   0.000D+00 0.000D+00 0.000D+00 0.000D+00 0.679D-01 0.932D+00
 Coeff:      0.168D-02-0.208D-02 0.425D-01 0.133D+00 0.302D+00 0.523D+00
 Gap=     0.190 Goal=   None    Shift=    0.000
 RMSDP=5.32D-05 MaxDP=2.11D-03 DE=-8.20D-04 OVMax= 3.74D-03

 Cycle   7  Pass 0  IDiag  1:
 RMSU=  2.80D-05    CP:  9.73D-01  7.52D-01  5.53D-01  6.90D-01  5.53D-01
                    CP:  5.51D-01
 E= -680.355739167703     Delta-E=       -0.000084674979 Rises=F Damp=F
 DIIS: error= 2.14D-04 at cycle   7 NSaved=   7.
 NSaved= 7 IEnMin= 7 EnMin= -680.355739167703     IErMin= 7 ErrMin= 2.14D-04
 ErrMax= 2.14D-04 EMaxC= 1.00D-01 BMatC= 1.11D-05 BMatP= 1.00D-04
 IDIUse=3 WtCom= 9.98D-01 WtEn= 2.14D-03
 Coeff-Com:  0.206D-03-0.301D-02 0.991D-02 0.386D-01 0.125D+00 0.319D+00
 Coeff-Com:  0.510D+00
 Coeff-En:   0.000D+00 0.000D+00 0.000D+00 0.000D+00 0.000D+00 0.462D-01
 Coeff-En:   0.954D+00
 Coeff:      0.206D-03-0.300D-02 0.989D-02 0.385D-01 0.125D+00 0.318D+00
 Coeff:      0.511D+00
 Gap=     0.190 Goal=   None    Shift=    0.000
 RMSDP=1.59D-05 MaxDP=7.03D-04 DE=-8.47D-05 OVMax= 1.62D-03

 Cycle   8  Pass 0  IDiag  1:
 RMSU=  8.45D-06    CP:  9.73D-01  7.51D-01  5.53D-01  6.92D-01  5.52D-01
                    CP:  6.40D-01  6.03D-01
 E= -680.355744109613     Delta-E=       -0.000004941910 Rises=F Damp=F
 DIIS: error= 4.62D-05 at cycle   8 NSaved=   8.
 NSaved= 8 IEnMin= 8 EnMin= -680.355744109613     IErMin= 8 ErrMin= 4.62D-05
 ErrMax= 4.62D-05 EMaxC= 1.00D-01 BMatC= 9.15D-07 BMatP= 1.11D-05
 IDIUse=1 WtCom= 1.00D+00 WtEn= 0.00D+00
 Coeff-Com:  0.185D-04-0.160D-02 0.230D-02 0.111D-01 0.512D-01 0.156D+00
 Coeff-Com:  0.307D+00 0.474D+00
 Coeff:      0.185D-04-0.160D-02 0.230D-02 0.111D-01 0.512D-01 0.156D+00
 Coeff:      0.307D+00 0.474D+00
 Gap=     0.190 Goal=   None    Shift=    0.000
 RMSDP=5.24D-06 MaxDP=2.15D-04 DE=-4.94D-06 OVMax= 4.88D-04

 Initial convergence to 1.0D-05 achieved.  Increase integral accuracy.
 Cycle   9  Pass 1  IDiag  1:
 E= -680.355705448618     Delta-E=        0.000038660995 Rises=F Damp=F
 DIIS: error= 1.49D-05 at cycle   1 NSaved=   1.
 NSaved= 1 IEnMin= 1 EnMin= -680.355705448618     IErMin= 1 ErrMin= 1.49D-05
 ErrMax= 1.49D-05 EMaxC= 1.00D-01 BMatC= 1.83D-07 BMatP= 1.83D-07
 IDIUse=1 WtCom= 1.00D+00 WtEn= 0.00D+00
 Coeff-Com:  0.100D+01
 Coeff:      0.100D+01
 Gap=     0.190 Goal=   None    Shift=    0.000
 RMSDP=5.24D-06 MaxDP=2.15D-04 DE= 3.87D-05 OVMax= 2.78D-04

 Cycle  10  Pass 1  IDiag  1:
 RMSU=  1.10D-05    CP:  1.00D+00
 E= -680.355705493820     Delta-E=       -0.000000045202 Rises=F Damp=F
 DIIS: error= 2.19D-05 at cycle   2 NSaved=   2.
 NSaved= 2 IEnMin= 2 EnMin= -680.355705493820     IErMin= 1 ErrMin= 1.49D-05
 ErrMax= 2.19D-05 EMaxC= 1.00D-01 BMatC= 1.63D-07 BMatP= 1.83D-07
 IDIUse=1 WtCom= 1.00D+00 WtEn= 0.00D+00
 Coeff-Com:  0.480D+00 0.520D+00
 Coeff:      0.480D+00 0.520D+00
 Gap=     0.190 Goal=   None    Shift=    0.000
 RMSDP=2.96D-06 MaxDP=1.10D-04 DE=-4.52D-08 OVMax= 2.38D-04

 Cycle  11  Pass 1  IDiag  1:
 RMSU=  2.91D-06    CP:  1.00D+00  9.57D-01
 E= -680.355705588733     Delta-E=       -0.000000094913 Rises=F Damp=F
 DIIS: error= 1.29D-05 at cycle   3 NSaved=   3.
 NSaved= 3 IEnMin= 3 EnMin= -680.355705588733     IErMin= 3 ErrMin= 1.29D-05
 ErrMax= 1.29D-05 EMaxC= 1.00D-01 BMatC= 6.35D-08 BMatP= 1.63D-07
 IDIUse=1 WtCom= 1.00D+00 WtEn= 0.00D+00
 Coeff-Com:  0.577D-02 0.381D+00 0.613D+00
 Coeff:      0.577D-02 0.381D+00 0.613D+00
 Gap=     0.190 Goal=   None    Shift=    0.000
 RMSDP=1.16D-06 MaxDP=4.23D-05 DE=-9.49D-08 OVMax= 8.09D-05

 Cycle  12  Pass 1  IDiag  1:
 RMSU=  4.46D-07    CP:  1.00D+00  9.89D-01  6.56D-01
 E= -680.355705642298     Delta-E=       -0.000000053565 Rises=F Damp=F
 DIIS: error= 3.24D-06 at cycle   4 NSaved=   4.
 NSaved= 4 IEnMin= 4 EnMin= -680.355705642298     IErMin= 4 ErrMin= 3.24D-06
 ErrMax= 3.24D-06 EMaxC= 1.00D-01 BMatC= 3.60D-09 BMatP= 6.35D-08
 IDIUse=1 WtCom= 1.00D+00 WtEn= 0.00D+00
 Coeff-Com: -0.114D-01 0.221D+00 0.377D+00 0.413D+00
 Coeff:     -0.114D-01 0.221D+00 0.377D+00 0.413D+00
 Gap=     0.190 Goal=   None    Shift=    0.000
 RMSDP=2.63D-07 MaxDP=1.08D-05 DE=-5.36D-08 OVMax= 1.66D-05

 Cycle  13  Pass 1  IDiag  1:
 RMSU=  1.54D-07    CP:  1.00D+00  9.91D-01  6.65D-01  5.34D-01
 E= -680.355705645406     Delta-E=       -0.000000003108 Rises=F Damp=F
 DIIS: error= 5.77D-07 at cycle   5 NSaved=   5.
 NSaved= 5 IEnMin= 5 EnMin= -680.355705645406     IErMin= 5 ErrMin= 5.77D-07
 ErrMax= 5.77D-07 EMaxC= 1.00D-01 BMatC= 1.24D-10 BMatP= 3.60D-09
 IDIUse=1 WtCom= 1.00D+00 WtEn= 0.00D+00
 Coeff-Com: -0.646D-02 0.851D-01 0.145D+00 0.212D+00 0.564D+00
 Coeff:     -0.646D-02 0.851D-01 0.145D+00 0.212D+00 0.564D+00
 Gap=     0.190 Goal=   None    Shift=    0.000
 RMSDP=5.93D-08 MaxDP=2.15D-06 DE=-3.11D-09 OVMax= 4.47D-06

 Cycle  14  Pass 1  IDiag  1:
 RMSU=  4.19D-08    CP:  1.00D+00  9.91D-01  6.64D-01  5.79D-01  7.64D-01
 E= -680.355705645164     Delta-E=        0.000000000242 Rises=F Damp=F
 DIIS: error= 2.12D-07 at cycle   6 NSaved=   6.
 NSaved= 6 IEnMin= 5 EnMin= -680.355705645406     IErMin= 6 ErrMin= 2.12D-07
 ErrMax= 2.12D-07 EMaxC= 1.00D-01 BMatC= 1.67D-11 BMatP= 1.24D-10
 IDIUse=1 WtCom= 1.00D+00 WtEn= 0.00D+00
 Coeff-Com: -0.201D-02 0.216D-01 0.356D-01 0.693D-01 0.312D+00 0.563D+00
 Coeff:     -0.201D-02 0.216D-01 0.356D-01 0.693D-01 0.312D+00 0.563D+00
 Gap=     0.190 Goal=   None    Shift=    0.000
 RMSDP=2.45D-08 MaxDP=9.69D-07 DE= 2.42D-10 OVMax= 2.46D-06

 Cycle  15  Pass 1  IDiag  1:
 RMSU=  1.71D-08    CP:  1.00D+00  9.92D-01  6.62D-01  5.71D-01  8.08D-01
                    CP:  6.56D-01
 E= -680.355705645615     Delta-E=       -0.000000000452 Rises=F Damp=F
 DIIS: error= 1.00D-07 at cycle   7 NSaved=   7.
 NSaved= 7 IEnMin= 7 EnMin= -680.355705645615     IErMin= 7 ErrMin= 1.00D-07
 ErrMax= 1.00D-07 EMaxC= 1.00D-01 BMatC= 3.26D-12 BMatP= 1.67D-11
 IDIUse=1 WtCom= 1.00D+00 WtEn= 0.00D+00
 Coeff-Com: -0.599D-03 0.394D-02 0.616D-02 0.182D-01 0.121D+00 0.359D+00
 Coeff-Com:  0.492D+00
 Coeff:     -0.599D-03 0.394D-02 0.616D-02 0.182D-01 0.121D+00 0.359D+00
 Coeff:      0.492D+00
 Gap=     0.190 Goal=   None    Shift=    0.000
 RMSDP=9.94D-09 MaxDP=3.44D-07 DE=-4.52D-10 OVMax= 5.67D-07

 SCF Done:  E(RB+HF-LYP) =  -680.355705646     A.U. after   15 cycles
             Convg  =    0.9938D-08             -V/T =  2.0081
             S**2   =   0.0000
 KE= 6.748743008194D+02 PE=-3.465382524901D+03 EE= 1.170209211929D+03
 Leave Link  502 at Thu Nov  6 11:53:14 2008, MaxMem=   67108864 cpu:     190.4
 (Enter /usr/local/g03/l601.exe)
 Copying SCF densities to generalized density rwf, ISCF=0 IROHF=0.

 **********************************************************************

            Population analysis using the SCF density.

 **********************************************************************

 Orbital symmetries:
       Occupied  (A) (A) (A) (A) (A) (A) (A) (A) (A) (A) (A) (A)
                 (A) (A) (A) (A) (A) (A) (A) (A) (A) (A) (A) (A)
                 (A) (A) (A) (A) (A) (A) (A) (A) (A) (A) (A) (A)
                 (A) (A) (A) (A) (A) (A) (A) (A) (A) (A) (A) (A)
                 (A) (A) (A)
       Virtual   (A) (A) (A) (A) (A) (A) (A) (A) (A) (A) (A) (A)
                 (A) (A) (A) (A) (A) (A) (A) (A) (A) (A) (A) (A)
                 (A) (A) (A) (A) (A) (A) (A) (A) (A) (A) (A) (A)
                 (A) (A) (A) (A) (A) (A) (A) (A) (A) (A) (A) (A)
                 (A) (A) (A) (A) (A) (A) (A) (A) (A) (A) (A) (A)
                 (A) (A) (A) (A) (A) (A) (A) (A) (A) (A) (A) (A)
                 (A) (A) (A) (A) (A) (A) (A) (A) (A) (A) (A) (A)
                 (A) (A) (A) (A) (A) (A) (A) (A) (A) (A) (A) (A)
                 (A) (A) (A) (A) (A) (A) (A) (A) (A) (A) (A) (A)
                 (A) (A) (A) (A) (A) (A) (A) (A) (A) (A) (A) (A)
                 (A) (A) (A) (A) (A) (A) (A) (A) (A) (A) (A) (A)
                 (A) (A) (A) (A) (A) (A) (A) (A) (A) (A) (A) (A)
                 (A) (A) (A) (A) (A) (A) (A) (A) (A) (A) (A) (A)
                 (A) (A) (A) (A) (A) (A) (A) (A) (A) (A) (A) (A)
                 (A) (A) (A) (A) (A) (A) (A) (A) (A) (A) (A)
 The electronic state is 1-A.
 Alpha  occ. eigenvalues --  -19.10723 -19.10289 -14.41797 -14.39266 -14.38641
 Alpha  occ. eigenvalues --  -14.33021 -10.31378 -10.28593 -10.26436 -10.25728
 Alpha  occ. eigenvalues --  -10.24329 -10.22385 -10.21716 -10.21442  -1.08533
 Alpha  occ. eigenvalues --   -1.04947  -1.03842  -0.97445  -0.94600  -0.89671
 Alpha  occ. eigenvalues --   -0.79231  -0.73981  -0.73519  -0.71447  -0.65840
 Alpha  occ. eigenvalues --   -0.64574  -0.61079  -0.57870  -0.53531  -0.51226
 Alpha  occ. eigenvalues --   -0.50558  -0.48314  -0.48226  -0.45839  -0.45596
 Alpha  occ. eigenvalues --   -0.44690  -0.42977  -0.42598  -0.41835  -0.41238
 Alpha  occ. eigenvalues --   -0.40147  -0.39516  -0.38738  -0.38444  -0.32541
 Alpha  occ. eigenvalues --   -0.29137  -0.27484  -0.27216  -0.26554  -0.24569
 Alpha  occ. eigenvalues --   -0.21247
 Alpha virt. eigenvalues --   -0.02246   0.03446   0.04632   0.09279   0.10971
 Alpha virt. eigenvalues --    0.11682   0.12540   0.13002   0.13385   0.13906
 Alpha virt. eigenvalues --    0.14354   0.16008   0.16390   0.17213   0.17636
 Alpha virt. eigenvalues --    0.18611   0.20546   0.21140   0.23850   0.27912
 Alpha virt. eigenvalues --    0.28753   0.30690   0.31223   0.34280   0.35580
 Alpha virt. eigenvalues --    0.38921   0.40244   0.43771   0.45986   0.47743
 Alpha virt. eigenvalues --    0.48270   0.49457   0.50979   0.52165   0.52688
 Alpha virt. eigenvalues --    0.53176   0.56121   0.58046   0.59223   0.59708
 Alpha virt. eigenvalues --    0.62152   0.63691   0.66044   0.66918   0.67606
 Alpha virt. eigenvalues --    0.69307   0.70050   0.71346   0.71750   0.72775
 Alpha virt. eigenvalues --    0.73874   0.74997   0.76765   0.78224   0.81147
 Alpha virt. eigenvalues --    0.81453   0.83242   0.84049   0.84263   0.85555
 Alpha virt. eigenvalues --    0.86394   0.87781   0.88981   0.89622   0.90261
 Alpha virt. eigenvalues --    0.91019   0.92318   0.93332   0.93585   0.96153
 Alpha virt. eigenvalues --    0.96532   0.98520   1.01988   1.04023   1.06906
 Alpha virt. eigenvalues --    1.09022   1.09662   1.12261   1.13914   1.18323
 Alpha virt. eigenvalues --    1.19536   1.21126   1.25584   1.28384   1.29555
 Alpha virt. eigenvalues --    1.31215   1.31760   1.34487   1.36040   1.37121
 Alpha virt. eigenvalues --    1.38853   1.41630   1.42472   1.45952   1.47397
 Alpha virt. eigenvalues --    1.47931   1.52802   1.54725   1.61429   1.63359
 Alpha virt. eigenvalues --    1.65098   1.74462   1.75778   1.77200   1.79569
 Alpha virt. eigenvalues --    1.80167   1.81680   1.83428   1.86075   1.87488
 Alpha virt. eigenvalues --    1.87971   1.88635   1.91262   1.93853   1.94101
 Alpha virt. eigenvalues --    1.95524   1.96127   1.98878   2.00437   2.03972
 Alpha virt. eigenvalues --    2.05841   2.07226   2.08468   2.09602   2.11876
 Alpha virt. eigenvalues --    2.13132   2.14327   2.19596   2.22466   2.23882
 Alpha virt. eigenvalues --    2.23965   2.26471   2.27763   2.29406   2.29921
 Alpha virt. eigenvalues --    2.31101   2.33095   2.33632   2.36922   2.40368
 Alpha virt. eigenvalues --    2.44711   2.45316   2.46576   2.48804   2.51592
 Alpha virt. eigenvalues --    2.56791   2.57891   2.61975   2.64947   2.69334
 Alpha virt. eigenvalues --    2.70930   2.74826   2.76657   2.78597   2.79915
 Alpha virt. eigenvalues --    2.85166   2.95776   2.96762   2.99116   3.06463
 Alpha virt. eigenvalues --    3.06738   3.13322   3.23596   3.43426   3.60154
 Alpha virt. eigenvalues --    3.97962   4.05211   4.11968   4.16789   4.19783
 Alpha virt. eigenvalues --    4.22277   4.24117   4.29833   4.36671   4.38535
 Alpha virt. eigenvalues --    4.51955   4.63271   4.71482   4.92154
          Condensed to atoms (all electrons):
              1          2          3          4          5          6
     1  C    5.152548   0.436554  -0.052748  -0.014469   0.000819  -0.092232
     2  C    0.436554   4.686806   0.254449  -0.027764  -0.000593  -0.014249
     3  N   -0.052748   0.254449   7.202984   0.285571  -0.114463  -0.098542
     4  C   -0.014469  -0.027764   0.285571   4.164138   0.631460   0.270455
     5  O    0.000819  -0.000593  -0.114463   0.631460   8.106116  -0.108935
     6  N   -0.092232  -0.014249  -0.098542   0.270455  -0.108935   7.325624
     7  C    0.292856  -0.051763  -0.017549  -0.019798  -0.000055   0.215906
     8  O   -0.080127   0.005077   0.000193   0.000142  -0.000046  -0.109228
     9  N    0.335987  -0.056050   0.006459   0.000465   0.000000   0.002833
    10  N   -0.075743   0.396289  -0.068504  -0.000266  -0.000063   0.000045
    11  C   -0.089987  -0.112042   0.004080   0.000141   0.000001  -0.000152
    12  C   -0.043276   0.009946  -0.000037  -0.000022   0.000000   0.000281
    13  C    0.005551  -0.035795   0.282219  -0.030202   0.006429   0.003978
    14  C    0.006398   0.000033   0.003233  -0.033622  -0.007597   0.267233
    15  H    0.003662   0.004668  -0.000094   0.000002   0.000000   0.000001
    16  H    0.003399  -0.000131   0.000001   0.000000   0.000000   0.000006
    17  H   -0.002734  -0.000174  -0.000003   0.000001   0.000000   0.000015
    18  H   -0.002811  -0.000150  -0.000004   0.000000   0.000000   0.000019
    19  H   -0.000155   0.001157  -0.040309  -0.001895   0.001647  -0.000092
    20  H    0.000803  -0.001799  -0.033175   0.004356   0.000845   0.000013
    21  H   -0.000133   0.003007  -0.035003  -0.002568   0.007361   0.000147
    22  H    0.000458  -0.000052   0.000003   0.003797   0.000750  -0.035901
    23  H   -0.000001  -0.000044   0.000567  -0.002180   0.016021  -0.031948
    24  H   -0.000276   0.000012  -0.000079  -0.000190   0.000672  -0.038792
              7          8          9         10         11         12
     1  C    0.292856  -0.080127   0.335987  -0.075743  -0.089987  -0.043276
     2  C   -0.051763   0.005077  -0.056050   0.396289  -0.112042   0.009946
     3  N   -0.017549   0.000193   0.006459  -0.068504   0.004080  -0.000037
     4  C   -0.019798   0.000142   0.000465  -0.000266   0.000141  -0.000022
     5  O   -0.000055  -0.000046   0.000000  -0.000063   0.000001   0.000000
     6  N    0.215906  -0.109228   0.002833   0.000045  -0.000152   0.000281
     7  C    4.438778   0.575046  -0.066169   0.010664   0.006696  -0.002715
     8  O    0.575046   8.144091  -0.013201  -0.000122  -0.000306   0.008528
     9  N   -0.066169  -0.013201   6.827177  -0.078577   0.402397   0.273492
    10  N    0.010664  -0.000122  -0.078577   6.880538   0.492014   0.004545
    11  C    0.006696  -0.000306   0.402397   0.492014   4.762002  -0.037718
    12  C   -0.002715   0.008528   0.273492   0.004545  -0.037718   4.982515
    13  C   -0.000052   0.000005  -0.000082  -0.007122   0.000157   0.000002
    14  C   -0.023641   0.004004  -0.000066   0.000010   0.000003  -0.000008
    15  H   -0.000117   0.000000  -0.049642  -0.035906   0.379547  -0.000288
    16  H    0.000351   0.000481  -0.032626   0.000141  -0.002582   0.362877
    17  H    0.001881   0.001789  -0.032477  -0.000116   0.000883   0.378136
    18  H    0.001987   0.002612  -0.031805  -0.000118   0.000941   0.377899
    19  H    0.000011   0.000000   0.000001   0.000571  -0.000013   0.000000
    20  H   -0.000071   0.000000   0.000027   0.009207   0.000027   0.000000
    21  H    0.000010   0.000000   0.000001   0.000300  -0.000003   0.000000
    22  H   -0.002585   0.008461   0.000003   0.000000   0.000000  -0.000002
    23  H    0.004068   0.000642   0.000001   0.000000   0.000000   0.000000
    24  H   -0.002007   0.001066   0.000002   0.000000   0.000000   0.000000
             13         14         15         16         17         18
     1  C    0.005551   0.006398   0.003662   0.003399  -0.002734  -0.002811
     2  C   -0.035795   0.000033   0.004668  -0.000131  -0.000174  -0.000150
     3  N    0.282219   0.003233  -0.000094   0.000001  -0.000003  -0.000004
     4  C   -0.030202  -0.033622   0.000002   0.000000   0.000001   0.000000
     5  O    0.006429  -0.007597   0.000000   0.000000   0.000000   0.000000
     6  N    0.003978   0.267233   0.000001   0.000006   0.000015   0.000019
     7  C   -0.000052  -0.023641  -0.000117   0.000351   0.001881   0.001987
     8  O    0.000005   0.004004   0.000000   0.000481   0.001789   0.002612
     9  N   -0.000082  -0.000066  -0.049642  -0.032626  -0.032477  -0.031805
    10  N   -0.007122   0.000010  -0.035906   0.000141  -0.000116  -0.000118
    11  C    0.000157   0.000003   0.379547  -0.002582   0.000883   0.000941
    12  C    0.000002  -0.000008  -0.000288   0.362877   0.378136   0.377899
    13  C    4.965869  -0.000091   0.000000   0.000000   0.000000   0.000000
    14  C   -0.000091   4.974880   0.000000   0.000000   0.000001   0.000001
    15  H    0.000000   0.000000   0.521181   0.003323  -0.000029  -0.000032
    16  H    0.000000   0.000000   0.003323   0.555904  -0.028427  -0.027776
    17  H    0.000000   0.000001  -0.000029  -0.028427   0.512571  -0.029971
    18  H    0.000000   0.000001  -0.000032  -0.027776  -0.029971   0.508101
    19  H    0.383585   0.000007   0.000000   0.000000   0.000000   0.000000
    20  H    0.369939   0.000001  -0.000006   0.000000   0.000000   0.000000
    21  H    0.376247  -0.000007   0.000000   0.000000   0.000000   0.000000
    22  H    0.000001   0.373477   0.000000   0.000000   0.000001  -0.000001
    23  H   -0.000020   0.367178   0.000000   0.000000   0.000000   0.000000
    24  H    0.000002   0.386800   0.000000   0.000000   0.000000   0.000001
             19         20         21         22         23         24
     1  C   -0.000155   0.000803  -0.000133   0.000458  -0.000001  -0.000276
     2  C    0.001157  -0.001799   0.003007  -0.000052  -0.000044   0.000012
     3  N   -0.040309  -0.033175  -0.035003   0.000003   0.000567  -0.000079
     4  C   -0.001895   0.004356  -0.002568   0.003797  -0.002180  -0.000190
     5  O    0.001647   0.000845   0.007361   0.000750   0.016021   0.000672
     6  N   -0.000092   0.000013   0.000147  -0.035901  -0.031948  -0.038792
     7  C    0.000011  -0.000071   0.000010  -0.002585   0.004068  -0.002007
     8  O    0.000000   0.000000   0.000000   0.008461   0.000642   0.001066
     9  N    0.000001   0.000027   0.000001   0.000003   0.000001   0.000002
    10  N    0.000571   0.009207   0.000300   0.000000   0.000000   0.000000
    11  C   -0.000013   0.000027  -0.000003   0.000000   0.000000   0.000000
    12  C    0.000000   0.000000   0.000000  -0.000002   0.000000   0.000000
    13  C    0.383585   0.369939   0.376247   0.000001  -0.000020   0.000002
    14  C    0.000007   0.000001  -0.000007   0.373477   0.367178   0.386800
    15  H    0.000000  -0.000006   0.000000   0.000000   0.000000   0.000000
    16  H    0.000000   0.000000   0.000000   0.000000   0.000000   0.000000
    17  H    0.000000   0.000000   0.000000   0.000001   0.000000   0.000000
    18  H    0.000000   0.000000   0.000000  -0.000001   0.000000   0.000001
    19  H    0.538127  -0.029848  -0.031933   0.000000  -0.000001  -0.000001
    20  H   -0.029848   0.508037  -0.024531   0.000000   0.000000   0.000000
    21  H   -0.031933  -0.024531   0.516770   0.000000   0.000004   0.000000
    22  H    0.000000   0.000000   0.000000   0.519070  -0.023783  -0.031461
    23  H   -0.000001   0.000000   0.000004  -0.023783   0.494760  -0.028199
    24  H   -0.000001   0.000000   0.000000  -0.031461  -0.028199   0.536087
 Mulliken atomic charges:
              1
     1  C    0.215655
     2  C    0.502606
     3  N   -0.579248
     4  C    0.772448
     5  O   -0.540369
     6  N   -0.556485
     7  C    0.638270
     8  O   -0.549106
     9  N   -0.488152
    10  N   -0.527786
    11  C    0.193913
    12  C   -0.314155
    13  C   -0.320620
    14  C   -0.318229
    15  H    0.173731
    16  H    0.165058
    17  H    0.198654
    18  H    0.201106
    19  H    0.179142
    20  H    0.196175
    21  H    0.190332
    22  H    0.187762
    23  H    0.202935
    24  H    0.176364
 Sum of Mulliken charges=   0.00000
 Atomic charges with hydrogens summed into heavy atoms:
              1
     1  C    0.215655
     2  C    0.502606
     3  N   -0.579248
     4  C    0.772448
     5  O   -0.540369
     6  N   -0.556485
     7  C    0.638270
     8  O   -0.549106
     9  N   -0.488152
    10  N   -0.527786
    11  C    0.367644
    12  C    0.250663
    13  C    0.245029
    14  C    0.248832
    15  H    0.000000
    16  H    0.000000
    17  H    0.000000
    18  H    0.000000
    19  H    0.000000
    20  H    0.000000
    21  H    0.000000
    22  H    0.000000
    23  H    0.000000
    24  H    0.000000
 Sum of Mulliken charges=   0.00000
 Electronic spatial extent (au):  <R**2>=  2485.1636
 Charge=     0.0000 electrons
 Dipole moment (field-independent basis, Debye):
    X=    -3.3160    Y=     0.4436    Z=    -0.0385  Tot=     3.3457
 Quadrupole moment (field-independent basis, Debye-Ang):
   XX=   -72.9857   YY=   -83.2858   ZZ=   -78.6622
   XY=    -0.7732   XZ=    -0.4527   YZ=    -0.0391
 Traceless Quadrupole moment (field-independent basis, Debye-Ang):
   XX=     5.3256   YY=    -4.9746   ZZ=    -0.3510
   XY=    -0.7732   XZ=    -0.4527   YZ=    -0.0391
 Octapole moment (field-independent basis, Debye-Ang**2):
  XXX=   -86.8949  YYY=     6.4172  ZZZ=     0.9430  XYY=    30.8396
  XXY=   -11.6497  XXZ=    -1.0501  XZZ=     5.3145  YZZ=    -5.3883
  YYZ=    -0.9759  XYZ=    -0.0864
 Hexadecapole moment (field-independent basis, Debye-Ang**3):
 XXXX= -1749.5551 YYYY= -1305.3790 ZZZZ=   -90.3446 XXXY=   -27.2410
 XXXZ=    -9.4057 YYYX=    15.6590 YYYZ=     0.3184 ZZZX=     2.0091
 ZZZY=    -0.0590 XXYY=  -452.4455 XXZZ=  -318.1244 YYZZ=  -219.5596
 XXYZ=    -0.0684 YYXZ=    -0.7733 ZZXY=     9.4190
 N-N= 9.399433065064D+02 E-N=-3.465382529884D+03  KE= 6.748743008194D+02
 No NMR shielding tensors so no spin-rotation constants.
 Leave Link  601 at Thu Nov  6 11:53:16 2008, MaxMem=   67108864 cpu:       0.3
 (Enter /usr/local/g03/l701.exe)
 Compute integral first derivatives.
 ... and contract with generalized density number  0.
 Leave Link  701 at Thu Nov  6 11:53:16 2008, MaxMem=   67108864 cpu:       0.2
 (Enter /usr/local/g03/l702.exe)
 L702 exits ... SP integral derivatives will be done elsewhere.
 Leave Link  702 at Thu Nov  6 11:53:17 2008, MaxMem=   67108864 cpu:       0.0
 (Enter /usr/local/g03/l703.exe)
 Compute integral first derivatives, UseDBF=F.
 Integral derivatives from FoFDir, PRISM(SPDF).
 Symmetry not used in FoFDir.
 MinBra= 0 MaxBra= 2 Meth= 1.
 IRaf=       0 NMat=   1 IRICut=       1 DoRegI=T DoRafI=F ISym2E= 0 JSym2E=0.
 Leave Link  703 at Thu Nov  6 11:54:12 2008, MaxMem=   67108864 cpu:      53.4
 (Enter /usr/local/g03/l716.exe)
 Dipole        =-1.30459720D+00 1.74512586D-01-1.51322317D-02
 ***** Axes restored to original set *****
 -------------------------------------------------------------------
 Center     Atomic                   Forces (Hartrees/Bohr)
 Number     Number              X              Y              Z
 -------------------------------------------------------------------
    1          6           0.042354827    0.016174164    0.001079744
    2          6          -0.034181146   -0.040078453   -0.001266738
    3          7           0.021584050   -0.027503726    0.003817365
    4          6           0.024231665    0.031601489   -0.001076520
    5          8           0.027063518    0.040552881   -0.000678742
    6          7          -0.006361526    0.007392145    0.004018673
    7          6          -0.021788974   -0.016747034   -0.000360199
    8          8          -0.061250645    0.007957850   -0.000350835
    9          7          -0.018477523   -0.031248781   -0.001340343
   10          7           0.006556580   -0.018492392   -0.000188604
   11          6           0.022447326    0.018056729    0.000171860
   12          6           0.003462886    0.003290537    0.001034056
   13          6          -0.002171692    0.005290899    0.000775092
   14          6           0.001295738    0.001503678    0.002215450
   15          1          -0.002163345    0.007288657    0.000451179
   16          1           0.003658272   -0.001263222    0.000005473
   17          1          -0.001544325    0.000833217   -0.000969655
   18          1          -0.001402436    0.000991323    0.000675192
   19          1           0.002512353    0.001834831   -0.001572641
   20          1          -0.005368969   -0.002016051   -0.000714701
   21          1          -0.000778754    0.002120297   -0.000824172
   22          1          -0.001028635   -0.004180407   -0.001420523
   23          1           0.003346781   -0.004531094   -0.001653164
   24          1          -0.001996025    0.001172462   -0.001827246
 -------------------------------------------------------------------
 Cartesian Forces:  Max     0.061250645 RMS     0.015595637
 Leave Link  716 at Thu Nov  6 11:54:12 2008, MaxMem=   67108864 cpu:       0.0
 (Enter /usr/local/g03/l103.exe)

 GradGradGradGradGradGradGradGradGradGradGradGradGradGradGradGradGradGrad
 Berny optimization.
 Internal  Forces:  Max     0.061351841 RMS     0.012865738
 Search for a local minimum.
 Step number   1 out of a maximum of 132
 All quantities printed in internal units (Hartrees-Bohrs-Radians)
 Second derivative matrix not updated -- first step.
     Eigenvalues ---    0.00751   0.00764   0.00769   0.01600   0.01668
     Eigenvalues ---    0.01710   0.02205   0.02234   0.02245   0.02283
     Eigenvalues ---    0.02289   0.02300   0.02305   0.02316   0.02331
     Eigenvalues ---    0.07457   0.07486   0.07502   0.07534   0.07538
     Eigenvalues ---    0.07551   0.15999   0.16000   0.16000   0.16000
     Eigenvalues ---    0.16000   0.16000   0.16000   0.16000   0.16000
     Eigenvalues ---    0.16000   0.23661   0.24989   0.24995   0.24996
     Eigenvalues ---    0.24997   0.24998   0.24998   0.24999   0.24999
     Eigenvalues ---    0.25000   0.34699   0.34781   0.34799   0.34805
     Eigenvalues ---    0.34807   0.34825   0.34825   0.34851   0.34858
     Eigenvalues ---    0.34873   0.35606   0.35722   0.35769   0.40086
     Eigenvalues ---    0.44538   0.48602   0.50261   0.51230   0.51998
     Eigenvalues ---    0.54054   0.54365   0.54699   0.54875   1.01521
     Eigenvalues ---    1.022861000.000001000.000001000.000001000.00000
     Eigenvalues --- 1000.000001000.000001000.000001000.000001000.00000
     Eigenvalues --- 1000.000001000.000001000.000001000.000001000.00000
     Eigenvalues --- 1000.000001000.000001000.000001000.000001000.00000
     Eigenvalues --- 1000.000001000.000001000.000001000.000001000.00000
     Eigenvalues --- 1000.000001000.000001000.000001000.000001000.00000
     Eigenvalues --- 1000.000001000.000001000.000001000.000001000.00000
     Eigenvalues --- 1000.000001000.000001000.000001000.000001000.00000
     Eigenvalues --- 1000.000001000.000001000.000001000.000001000.00000
     Eigenvalues --- 1000.000001000.000001000.000001000.000001000.00000
     Eigenvalues --- 1000.000001000.000001000.000001000.000001000.00000
     Eigenvalues --- 1000.000001000.00000
 RFO step:  Lambda=-3.87968024D-02.
 Linear search not attempted -- first point.
 Maximum step size (   0.300) exceeded in Quadratic search.
    -- Step size scaled by   0.981
 Iteration  1 RMS(Cart)=  0.05314307 RMS(Int)=  0.00095357
 Iteration  2 RMS(Cart)=  0.00182350 RMS(Int)=  0.00015120
 Iteration  3 RMS(Cart)=  0.00000097 RMS(Int)=  0.00015120
 Variable       Old X    -DE/DX   Delta X   Delta X   Delta X     New X
                                 (Linear)    (Quad)   (Total)
    R1        2.63050   0.00000   0.00000  -0.00254  -0.00292   2.62758
    R2        2.63812   0.03742   0.00000   0.07182   0.07172   2.70984
    R3        2.54934   0.02150   0.00000   0.03822   0.03821   2.58756
    R4        2.55131   0.02929   0.00000   0.04638   0.04610   2.59741
    R5        2.55504   0.00468   0.00000   0.00620   0.00619   2.56123
    R6        2.55838   0.03657   0.00000   0.06302   0.06310   2.62148
    R7        2.77819  -0.00571   0.00000  -0.01416  -0.01416   2.76403
    R8        2.28036   0.04866   0.00000   0.04531   0.04531   2.32567
    R9        2.56286   0.04899   0.00000   0.08710   0.08745   2.65032
   R10        2.55826   0.04900   0.00000   0.08533   0.08562   2.64388
   R11        2.78002  -0.00604   0.00000  -0.01502  -0.01502   2.76501
   R12        2.27737   0.06135   0.00000   0.05672   0.05672   2.33409
   R13        2.55737   0.00504   0.00000   0.00860   0.00863   2.56600
   R14        2.77744  -0.00520   0.00000  -0.01288  -0.01288   2.76455
   R15        2.55966  -0.01916   0.00000  -0.03487  -0.03485   2.52481
   R16        2.06032  -0.00731   0.00000  -0.01855  -0.01855   2.04177
   R17        2.06003   0.00120   0.00000   0.00305   0.00305   2.06308
   R18        2.06166   0.00017   0.00000   0.00044   0.00044   2.06211
   R19        2.05989   0.00048   0.00000   0.00123   0.00123   2.06112
   R20        2.05959   0.00270   0.00000   0.00685   0.00685   2.06645
   R21        2.05959  -0.00023   0.00000  -0.00057  -0.00057   2.05902
   R22        2.05917   0.00060   0.00000   0.00153   0.00153   2.06070
   R23        2.05907   0.00016   0.00000   0.00040   0.00040   2.05946
   R24        2.05882  -0.00178   0.00000  -0.00452  -0.00452   2.05430
   R25        2.05993   0.00254   0.00000   0.00645   0.00645   2.06637
    A1        2.10434   0.01559   0.00000   0.04115   0.04075   2.14508
    A2        1.87493  -0.01467   0.00000  -0.04003  -0.03993   1.83501
    A3        2.30382  -0.00091   0.00000  -0.00110  -0.00080   2.30302
    A4        2.10207   0.00331   0.00000   0.00078   0.00019   2.10226
    A5        1.90070   0.01444   0.00000   0.05234   0.05253   1.95322
    A6        2.28029  -0.01774   0.00000  -0.05303  -0.05265   2.22764
    A7        2.06432   0.01232   0.00000   0.03937   0.03916   2.10348
    A8        2.11156  -0.00057   0.00000  -0.00069  -0.00058   2.11097
    A9        2.10720  -0.01175   0.00000  -0.03870  -0.03860   2.06860
   A10        2.07038   0.01041   0.00000   0.03066   0.03045   2.10083
   A11        2.13373  -0.02785   0.00000  -0.08521  -0.08479   2.04894
   A12        2.07906   0.01744   0.00000   0.05456   0.05434   2.13341
   A13        2.12073   0.01959   0.00000   0.07880   0.07939   2.20011
   A14        2.08902  -0.00967   0.00000  -0.03898  -0.03928   2.04974
   A15        2.07330  -0.00992   0.00000  -0.03982  -0.04012   2.03318
   A16        2.04115  -0.02296   0.00000  -0.07491  -0.07473   1.96642
   A17        2.11759   0.01962   0.00000   0.06512   0.06502   2.18261
   A18        2.12441   0.00335   0.00000   0.00982   0.00973   2.13414
   A19        1.86394  -0.00441   0.00000  -0.01199  -0.01208   1.85187
   A20        2.20350   0.00294   0.00000   0.00852   0.00856   2.21207
   A21        2.21562   0.00147   0.00000   0.00352   0.00356   2.21918
   A22        1.84471  -0.00846   0.00000  -0.04327  -0.04342   1.80130
   A23        1.94049   0.01311   0.00000   0.04296   0.04289   1.98339
   A24        2.17265  -0.00875   0.00000  -0.03230  -0.03227   2.14038
   A25        2.17001  -0.00436   0.00000  -0.01063  -0.01060   2.15941
   A26        1.91614  -0.00577   0.00000  -0.02856  -0.02851   1.88763
   A27        1.90882   0.00238   0.00000   0.01192   0.01193   1.92074
   A28        1.91009   0.00178   0.00000   0.00875   0.00874   1.91884
   A29        1.90936   0.00172   0.00000   0.00859   0.00866   1.91802
   A30        1.91061   0.00190   0.00000   0.00907   0.00910   1.91971
   A31        1.90877  -0.00201   0.00000  -0.00974  -0.00978   1.89898
   A32        1.90882   0.00392   0.00000   0.01949   0.01955   1.92837
   A33        1.91792  -0.00840   0.00000  -0.04195  -0.04194   1.87598
   A34        1.91136  -0.00053   0.00000  -0.00226  -0.00234   1.90903
   A35        1.90899   0.00199   0.00000   0.00911   0.00926   1.91825
   A36        1.90918  -0.00137   0.00000  -0.00584  -0.00586   1.90332
   A37        1.90750   0.00441   0.00000   0.02154   0.02140   1.92890
   A38        1.91218  -0.00402   0.00000  -0.01978  -0.01989   1.89229
   A39        1.92110  -0.00696   0.00000  -0.03376  -0.03385   1.88725
   A40        1.90730   0.00339   0.00000   0.01608   0.01616   1.92346
   A41        1.90579   0.00598   0.00000   0.03078   0.03049   1.93628
   A42        1.90846  -0.00010   0.00000  -0.00171  -0.00165   1.90681
   A43        1.90893   0.00175   0.00000   0.00856   0.00866   1.91759
    D1       -0.00166   0.00017   0.00000   0.00349   0.00360   0.00194
    D2       -3.12762   0.00003   0.00000  -0.00114  -0.00128  -3.12890
    D3        3.12683   0.00021   0.00000   0.00472   0.00489   3.13172
    D4        0.00087   0.00007   0.00000   0.00009   0.00001   0.00088
    D5        0.00075  -0.00018   0.00000  -0.00350  -0.00347  -0.00272
    D6        3.13380   0.00000   0.00000   0.00035   0.00046   3.13426
    D7       -3.12403  -0.00017   0.00000  -0.00488  -0.00495  -3.12898
    D8        0.00902   0.00000   0.00000  -0.00104  -0.00102   0.00800
    D9       -0.00059  -0.00005   0.00000   0.00022   0.00026  -0.00033
   D10       -3.12641  -0.00023   0.00000  -0.00301  -0.00299  -3.12939
   D11        3.12583   0.00015   0.00000   0.00203   0.00210   3.12793
   D12        0.00001  -0.00002   0.00000  -0.00120  -0.00115  -0.00114
   D13       -0.00252  -0.00030   0.00000  -0.00383  -0.00392  -0.00644
   D14       -3.12890  -0.00010   0.00000  -0.00169  -0.00172  -3.13062
   D15        3.11958   0.00026   0.00000   0.00318   0.00298   3.12255
   D16       -0.00680   0.00047   0.00000   0.00533   0.00517  -0.00163
   D17       -0.00079  -0.00006   0.00000  -0.00034  -0.00026  -0.00105
   D18       -3.12461  -0.00053   0.00000  -0.00642  -0.00632  -3.13093
   D19       -3.12839   0.00010   0.00000   0.00148   0.00145  -3.12695
   D20        0.00782   0.00025   0.00000   0.00378   0.00365   0.01147
   D21       -0.00197  -0.00001   0.00000  -0.00031  -0.00038  -0.00235
   D22        3.13424   0.00014   0.00000   0.00199   0.00183   3.13607
   D23        1.83367  -0.00007   0.00000   0.00057   0.00051   1.83418
   D24       -0.26207   0.00022   0.00000   0.00309   0.00322  -0.25885
   D25       -2.35756   0.00032   0.00000   0.00395   0.00390  -2.35365
   D26       -1.29234  -0.00007   0.00000   0.00207   0.00199  -1.29034
   D27        2.89511   0.00022   0.00000   0.00459   0.00471   2.89982
   D28        0.79962   0.00032   0.00000   0.00545   0.00539   0.80501
   D29       -0.00899  -0.00031   0.00000  -0.00427  -0.00428  -0.01327
   D30       -3.13196  -0.00014   0.00000  -0.00342  -0.00336  -3.13533
   D31        3.12720  -0.00018   0.00000  -0.00203  -0.00211   3.12508
   D32        0.00423  -0.00001   0.00000  -0.00119  -0.00120   0.00303
   D33        0.00441   0.00035   0.00000   0.00419   0.00425   0.00866
   D34       -3.12860   0.00009   0.00000   0.00004   0.00014  -3.12847
   D35        3.12754   0.00018   0.00000   0.00335   0.00334   3.13088
   D36       -0.00547  -0.00009   0.00000  -0.00081  -0.00078  -0.00624
   D37       -2.45217  -0.00036   0.00000  -0.00465  -0.00479  -2.45696
   D38       -0.35630   0.00016   0.00000  -0.00013   0.00004  -0.35626
   D39        1.74038   0.00014   0.00000  -0.00036  -0.00037   1.74001
   D40        0.70754  -0.00051   0.00000  -0.00510  -0.00526   0.70228
   D41        2.80341   0.00002   0.00000  -0.00058  -0.00043   2.80298
   D42       -1.38310  -0.00001   0.00000  -0.00081  -0.00084  -1.38394
   D43        0.00011   0.00002   0.00000  -0.00043  -0.00044  -0.00033
   D44       -3.13301  -0.00024   0.00000  -0.00392  -0.00392  -3.13693
   D45        3.12578   0.00022   0.00000   0.00289   0.00288   3.12867
   D46       -0.00734  -0.00005   0.00000  -0.00060  -0.00060  -0.00794
   D47        3.10784   0.00005   0.00000   0.00197   0.00201   3.10985
   D48       -1.08025   0.00010   0.00000   0.00235   0.00233  -1.07792
   D49        1.01042   0.00018   0.00000   0.00302   0.00307   1.01350
   D50       -0.01485  -0.00011   0.00000  -0.00178  -0.00179  -0.01664
   D51        2.08024  -0.00007   0.00000  -0.00140  -0.00147   2.07877
   D52       -2.11227   0.00001   0.00000  -0.00074  -0.00073  -2.11300
   D53        0.00043   0.00002   0.00000   0.00046   0.00042   0.00084
   D54        3.13356   0.00026   0.00000   0.00382   0.00382   3.13739
         Item               Value     Threshold  Converged?
 Maximum Force            0.061352     0.000450     NO 
 RMS     Force            0.012866     0.000300     NO 
 Maximum Displacement     0.212254     0.001800     NO 
 RMS     Displacement     0.052690     0.001200     NO 
 Predicted change in Energy=-2.112441D-02
 GradGradGradGradGradGradGradGradGradGradGradGradGradGradGradGradGradGrad

 Leave Link  103 at Thu Nov  6 11:54:13 2008, MaxMem=   67108864 cpu:       0.1
 (Enter /usr/local/g03/l202.exe)
                          Input orientation:                          
 ---------------------------------------------------------------------
 Center     Atomic     Atomic              Coordinates (Angstroms)
 Number     Number      Type              X           Y           Z
 ---------------------------------------------------------------------
    1          6             0       -0.034201    0.013605   -0.004552
    2          6             0        1.356078   -0.008494   -0.005276
    3          7             0        2.071411    1.165183   -0.002758
    4          6             0        1.417644    2.388688   -0.007151
    5          8             0        2.060899    3.437805   -0.020432
    6          7             0        0.015287    2.371066    0.000115
    7          6             0       -0.793955    1.229779   -0.003555
    8          8             0       -2.027320    1.295755   -0.010306
    9          7             0       -0.412752   -1.302205   -0.020627
   10          7             0        1.841801   -1.273699   -0.022122
   11          6             0        0.736857   -2.024777   -0.030323
   12          6             0       -1.781233   -1.818963   -0.040846
   13          6             0        3.533964    1.154752   -0.017252
   14          6             0       -0.675340    3.660935   -0.012646
   15          1             0        0.745942   -3.105054   -0.047964
   16          1             0       -1.732688   -2.908803   -0.082959
   17          1             0       -2.312864   -1.505445    0.859063
   18          1             0       -2.310882   -1.435288   -0.913708
   19          1             0        3.908845    1.426755   -1.007835
   20          1             0        3.856702    0.145692    0.237375
   21          1             0        3.908196    1.871732    0.714207
   22          1             0       -1.540722    3.594743    0.646477
   23          1             0        0.020369    4.420629    0.334655
   24          1             0       -1.011039    3.899607   -1.025579
 ---------------------------------------------------------------------
                    Distance matrix (angstroms):
                    1          2          3          4          5
     1  C    0.000000
     2  C    1.390454   0.000000
     3  N    2.399944   1.374491   0.000000
     4  C    2.783680   2.397973   1.387225   0.000000
     5  O    4.014330   3.517667   2.272716   1.230691   0.000000
     6  N    2.357985   2.731310   2.383654   1.402487   2.307138
     7  C    1.433983   2.481122   2.866094   2.496849   3.609136
     8  O    2.369909   3.626082   4.100817   3.614179   4.615411
     9  N    1.369276   2.191502   3.501340   4.119857   5.346648
    10  N    2.275268   1.355343   2.449743   3.686897   4.716597
    11  C    2.179494   2.109374   3.457981   4.465722   5.620764
    12  C    2.532142   3.622400   4.873339   5.285667   6.511222
    13  C    3.746222   2.469104   1.462662   2.449797   2.717031
    14  C    3.703260   4.194213   3.711269   2.449332   2.745333
    15  H    3.215050   3.156386   4.471446   5.534803   6.673746
    16  H    3.381047   4.237723   5.574491   6.163907   7.394231
    17  H    2.871524   4.055746   5.205464   5.461803   6.658757
    18  H    2.847654   4.038265   5.176559   5.417245   6.607379
    19  H    4.307108   3.095430   2.110632   2.851800   2.904168
    20  H    3.900654   2.517097   2.069853   3.322623   3.758907
    21  H    4.417210   3.250571   2.094524   2.643945   2.530767
    22  H    3.939288   4.668999   4.401338   3.260940   3.666207
    23  H    4.420396   4.638621   3.862454   2.489577   2.292551
    24  H    4.134938   4.681614   4.245555   3.036211   3.265025
                    6          7          8          9         10
     6  N    0.000000
     7  C    1.399079   0.000000
     8  O    2.308386   1.235147   0.000000
     9  N    3.698184   2.560576   3.058812   0.000000
    10  N    4.076881   3.635239   4.644602   2.254733   0.000000
    11  C    4.454775   3.596698   4.320533   1.357868   1.336071
    12  C    4.559112   3.204830   3.124574   1.462938   3.663882
    13  C    3.723011   4.328591   5.563076   4.649002   2.959868
    14  C    1.463178   2.434064   2.724322   4.970088   5.539558
    15  H    5.524858   4.600439   5.201877   2.143265   2.134346
    16  H    5.562313   4.244453   4.215494   2.080210   3.931187
    17  H    4.602762   3.245404   2.946873   2.103708   4.253402
    18  H    4.553512   3.198754   2.890526   2.101952   4.250389
    19  H    4.131281   4.812869   6.020821   5.205574   3.540729
    20  H    4.445790   4.781413   6.000476   4.515663   2.478273
    21  H    3.989236   4.799741   6.007247   5.411511   3.834828
    22  H    2.082387   2.563836   2.439976   5.069264   5.965754
    23  H    2.076692   3.310443   3.751915   5.750187   5.989180
    24  H    2.107565   2.866991   2.973827   5.331671   5.992388
                   11         12         13         14         15
    11  C    0.000000
    12  C    2.526509   0.000000
    13  C    4.234782   6.090555   0.000000
    14  C    5.858492   5.590445   4.898899   0.000000
    15  H    1.080460   2.835612   5.091165   6.913747   0.000000
    16  H    2.623533   1.091733   6.652400   6.654651   2.486634
    17  H    3.218930   1.091220   6.483053   5.489339   3.568998
    18  H    3.227472   1.090699   6.455553   5.427559   3.589123
    19  H    4.788539   6.621687   1.093516   5.195836   5.609154
    20  H    3.809991   5.976921   1.089586   5.740980   4.508392
    21  H    5.078828   6.823557   1.090477   4.973767   5.945516
    22  H    6.101182   5.462460   5.669791   1.089821   7.113253
    23  H    6.495369   6.505327   4.809900   1.087090   7.570255
    24  H    6.256516   5.853626   5.404443   1.093478   7.287523
                   16         17         18         19         20
    16  H    0.000000
    17  H    1.787015   0.000000
    18  H    1.787651   1.774160   0.000000
    19  H    7.174912   7.126905   6.847274   0.000000
    20  H    6.377604   6.416876   6.470208   1.787286   0.000000
    21  H    7.436973   7.080106   7.229344   1.778604   1.791434
    22  H    6.547139   5.162685   5.322456   6.093825   6.418373
    23  H    7.547727   6.390410   6.425333   5.087809   5.744737
    24  H    6.911132   5.870367   5.492104   5.506412   6.275495
                   21         22         23         24
    21  H    0.000000
    22  H    5.715248   0.000000
    23  H    4.664347   1.793412   0.000000
    24  H    5.598036   1.780246   1.784798   0.000000
 Stoichiometry    C8H10N4O2
 Framework group  C1[X(C8H10N4O2)]
 Deg. of freedom    66
 Full point group                 C1
 Largest Abelian subgroup         C1      NOp   1
 Largest concise Abelian subgroup C1      NOp   1
                         Standard orientation:                         
 ---------------------------------------------------------------------
 Center     Atomic     Atomic              Coordinates (Angstroms)
 Number     Number      Type              X           Y           Z
 ---------------------------------------------------------------------
    1          6             0        0.909957    0.171797   -0.013907
    2          6             0        0.353168   -1.102309   -0.012638
    3          7             0       -1.011523   -1.266130   -0.010595
    4          6             0       -1.853417   -0.163617   -0.002076
    5          8             0       -3.074816   -0.313561    0.015284
    6          7             0       -1.255499    1.105005   -0.010036
    7          6             0        0.118694    1.367708   -0.010852
    8          8             0        0.570476    2.517246   -0.004416
    9          7             0        2.264266   -0.029793   -0.002755
   10          7             0        1.302806   -2.069256   -0.000144
   11          6             0        2.444690   -1.375599    0.004847
   12          6             0        3.302355    1.000859    0.014982
   13          6             0       -1.608871   -2.601169    0.004518
   14          6             0       -2.142449    2.268584    0.007075
   15          1             0        3.423858   -1.832146    0.018590
   16          1             0        4.273933    0.504417    0.053180
   17          1             0        3.234580    1.615636   -0.884027
   18          1             0        3.176083    1.641012    0.888987
   19          1             0       -2.008466   -2.830465    0.996246
   20          1             0       -0.825596   -3.313242   -0.253608
   21          1             0       -2.419034   -2.643353   -0.724177
   22          1             0       -1.725423    3.029199   -0.652671
   23          1             0       -3.123539    1.951211   -0.337167
   24          1             0       -2.216785    2.671951    1.020713
 ---------------------------------------------------------------------
 Rotational constants (GHZ):      1.0572943      0.7076643      0.4273598
 Leave Link  202 at Thu Nov  6 11:54:14 2008, MaxMem=   67108864 cpu:       0.1
 (Enter /usr/local/g03/l301.exe)
 Standard basis: 6-31G(d) (6D, 7F)
 There are   230 symmetry adapted basis functions of A   symmetry.
 Integral buffers will be    131072 words long.
 Raffenetti 2 integral format.
 Two-electron integral symmetry is turned on.
   230 basis functions,   432 primitive gaussians,   230 cartesian basis functions
    51 alpha electrons       51 beta electrons
       nuclear repulsion energy       928.5257197810 Hartrees.
 IExCor= 402 DFT=T Ex=B+HF Corr=LYP ExCW=0 ScaHFX=  0.200000
 ScaDFX=  0.800000  0.720000  1.000000  0.810000
 IRadAn=      0 IRanWt=     -1 IRanGd=            0 ICorTp=0
 NAtoms=   24 NActive=   24 NUniq=   24 SFac= 7.50D-01 NAtFMM=   80 NAOKFM=F Big=F
 Leave Link  301 at Thu Nov  6 11:54:15 2008, MaxMem=   67108864 cpu:       0.0
 (Enter /usr/local/g03/l302.exe)
 NPDir=0 NMtPBC=     1 NCelOv=     1 NCel=       1 NClECP=     1 NCelD=      1
         NCelK=      1 NCelE2=     1 NClLst=     1 CellRange=     0.0.
 One-electron integrals computed using PRISM.
 NBasis=   230 RedAO= T  NBF=   230
 NBsUse=   230 1.00D-06 NBFU=   230
 Precomputing XC quadrature grid using
 IXCGrd= 2 IRadAn=           0 IRanWt=          -1 IRanGd=           0.
 NRdTot=    1507 NPtTot=      191404 NUsed=      202050 NTot=      202082
 NSgBfM=   229   229   229   229.
 Leave Link  302 at Thu Nov  6 11:54:17 2008, MaxMem=   67108864 cpu:       0.8
 (Enter /usr/local/g03/l303.exe)
 DipDrv:  MaxL=1.
 Leave Link  303 at Thu Nov  6 11:54:17 2008, MaxMem=   67108864 cpu:       0.0
 (Enter /usr/local/g03/l401.exe)
 Initial guess read from the read-write file:
 Guess basis will be translated and rotated to current coordinates.
 Initial guess orbital symmetries:
       Occupied  (A) (A) (A) (A) (A) (A) (A) (A) (A) (A) (A) (A)
                 (A) (A) (A) (A) (A) (A) (A) (A) (A) (A) (A) (A)
                 (A) (A) (A) (A) (A) (A) (A) (A) (A) (A) (A) (A)
                 (A) (A) (A) (A) (A) (A) (A) (A) (A) (A) (A) (A)
                 (A) (A) (A)
       Virtual   (A) (A) (A) (A) (A) (A) (A) (A) (A) (A) (A) (A)
                 (A) (A) (A) (A) (A) (A) (A) (A) (A) (A) (A) (A)
                 (A) (A) (A) (A) (A) (A) (A) (A) (A) (A) (A) (A)
                 (A) (A) (A) (A) (A) (A) (A) (A) (A) (A) (A) (A)
                 (A) (A) (A) (A) (A) (A) (A) (A) (A) (A) (A) (A)
                 (A) (A) (A) (A) (A) (A) (A) (A) (A) (A) (A) (A)
                 (A) (A) (A) (A) (A) (A) (A) (A) (A) (A) (A) (A)
                 (A) (A) (A) (A) (A) (A) (A) (A) (A) (A) (A) (A)
                 (A) (A) (A) (A) (A) (A) (A) (A) (A) (A) (A) (A)
                 (A) (A) (A) (A) (A) (A) (A) (A) (A) (A) (A) (A)
                 (A) (A) (A) (A) (A) (A) (A) (A) (A) (A) (A) (A)
                 (A) (A) (A) (A) (A) (A) (A) (A) (A) (A) (A) (A)
                 (A) (A) (A) (A) (A) (A) (A) (A) (A) (A) (A) (A)
                 (A) (A) (A) (A) (A) (A) (A) (A) (A) (A) (A) (A)
                 (A) (A) (A) (A) (A) (A) (A) (A) (A) (A) (A)
 The electronic state of the initial guess is 1-A.
 Generating alternative initial guess.
 Harris functional with IExCor=  402 diagonalized for initial guess.
 ExpMin= 1.61D-01 ExpMax= 5.48D+03 ExpMxC= 8.25D+02 IAcc=1 IRadAn=         1 AccDes= 1.00D-06
 HarFok:  IExCor= 402 AccDes= 1.00D-06 IRadAn=         1 IDoV=1
 ScaDFX=  1.000000  1.000000  1.000000  1.000000
 Harris En= -680.503575221024    
 Leave Link  401 at Thu Nov  6 11:54:21 2008, MaxMem=   67108864 cpu:       2.3
 (Enter /usr/local/g03/l502.exe)
 Closed shell SCF:
 Requested convergence on RMS density matrix=1.00D-08 within 128 cycles.
 Requested convergence on MAX density matrix=1.00D-06.
 Requested convergence on             energy=1.00D-06.
 No special actions if energy rises.
 Using DIIS extrapolation, IDIIS=  1040.
 Integral symmetry usage will be decided dynamically.
       202049 words used for storage of precomputed grid.
 IEnd=    407076 IEndB=    407076 NGot=  67108864 MDV=  66771559
 LenX=  66771559
 Fock matrices will be formed incrementally for  20 cycles.
 Integral accuracy reduced to 1.0D-05 until final iterations.

 Cycle   1  Pass 0  IDiag  1:
 Petite list used in FoFDir.
 MinBra= 0 MaxBra= 2 Meth= 1.
 IRaf=       0 NMat=   1 IRICut=       1 DoRegI=T DoRafI=F ISym2E= 1 JSym2E=1.
 E= -666.137441108880    
 DIIS: error= 7.34D-02 at cycle   1 NSaved=   1.
 NSaved= 1 IEnMin= 1 EnMin= -666.137441108880     IErMin= 1 ErrMin= 7.34D-02
 ErrMax= 7.34D-02 EMaxC= 1.00D-01 BMatC= 4.34D+00 BMatP= 4.34D+00
 IDIUse=3 WtCom= 2.66D-01 WtEn= 7.34D-01
 Coeff-Com:  0.100D+01
 Coeff-En:   0.100D+01
 Coeff:      0.100D+01
 Recover alternate guess density for next cycle.
 RMSDP=2.54D-02 MaxDP=5.52D-01              OVMax= 0.00D+00

 Cycle   2  Pass 0  IDiag  1:
 RMSU=  1.82D-02    CP:  4.56D-01
 E= -680.005410102514     Delta-E=      -13.867968993634 Rises=F Damp=F
 DIIS: error= 3.04D-02 at cycle   2 NSaved=   2.
 NSaved= 2 IEnMin= 2 EnMin= -680.005410102514     IErMin= 2 ErrMin= 3.04D-02
 ErrMax= 3.04D-02 EMaxC= 1.00D-01 BMatC= 4.31D-01 BMatP= 4.34D+00
 IDIUse=3 WtCom= 6.96D-01 WtEn= 3.04D-01
 Coeff-Com:  0.449D-01 0.955D+00
 Coeff-En:   0.000D+00 0.100D+01
 Coeff:      0.313D-01 0.969D+00
 Gap=     0.180 Goal=   None    Shift=    0.000
 RMSDP=7.43D-03 MaxDP=2.60D-01 DE=-1.39D+01 OVMax= 3.40D-01

 Cycle   3  Pass 0  IDiag  1:
 RMSU=  7.36D-03    CP:  4.45D-01  9.48D-01
 E= -679.434767691663     Delta-E=        0.570642410852 Rises=F Damp=F
 DIIS: error= 5.92D-02 at cycle   3 NSaved=   3.
 NSaved= 3 IEnMin= 2 EnMin= -680.005410102514     IErMin= 2 ErrMin= 3.04D-02
 ErrMax= 5.92D-02 EMaxC= 1.00D-01 BMatC= 1.20D+00 BMatP= 4.31D-01
 IDIUse=2 WtCom= 0.00D+00 WtEn= 1.00D+00
 Coeff-En:   0.000D+00 0.699D+00 0.301D+00
 Coeff:      0.000D+00 0.699D+00 0.301D+00
 Gap=     0.222 Goal=   None    Shift=    0.000
 RMSDP=4.78D-03 MaxDP=2.22D-01 DE= 5.71D-01 OVMax= 1.83D-01

 Cycle   4  Pass 0  IDiag  1:
 RMSU=  1.90D-03    CP:  4.44D-01  9.58D-01  4.05D-01
