Title                                                                   
FOpt      RB3LYP                                                      6-31G(d)            
Number of atoms                            I               20
Charge                                     I                0
Multiplicity                               I                1
Number of electrons                        I               92
Number of alpha electrons                  I               46
Number of beta electrons                   I               46
Number of basis functions                  I              196
Number of independant functions            I              196
Number of point charges in /Mol/           I                0
Number of translation vectors              I                0
Number of symbols in /Mol/                 I                0
Info1-9                                    I   N=           9
          28          28           0           0           0         110
           2          18        -501
Num ILSW                                   I              100
ILSW                                       I   N=         100
           0           1           0           0           2           0
           0           0           0           0         402      200000
           0           0          -1           0           0           0
           0      800000           0           0           1           0
           1           0           0           0     1000000           0
           0           0      100000           0          -1           0
           0           0           0           0           0           0
           0           0           0           1           0           0
           0           0           1      720000      810000           0
           0           0           0           0           0           0
           0           0           0           0           0           0
           0           0           0           0           0           0
           0           0           0           0           0           0
           0           0           0           0           0           0
           0           0           0           0           0           0
           0           0           0           0           0           0
           0           0           0           0
Number of contracted shells                I               64
Highest angular momentum                   I                2
Largest degree of contraction              I                6
Number of primitive shells                 I              164
Pure/Cartesian d shells                    I                1
Pure/Cartesian f shells                    I                0
Virial Ratio                               R      2.008572129089079E+00
SCF Energy                                 R     -6.847443999868277E+02
Total Energy                               R     -6.847443999868277E+02
RMS Force                                  R      7.193042012789149E-06
RMS Density                                R      3.096833700488194E-09
Atomic numbers                             I   N=          20
           6           6           6           6           8           8
           8           8           1           6           1           8
           6           8           1           1           1           1
           1           1
Nuclear charges                            R   N=          20
  6.00000000E+00  6.00000000E+00  6.00000000E+00  6.00000000E+00  8.00000000E+00
  8.00000000E+00  8.00000000E+00  8.00000000E+00  1.00000000E+00  6.00000000E+00
  1.00000000E+00  8.00000000E+00  6.00000000E+00  8.00000000E+00  1.00000000E+00
  1.00000000E+00  1.00000000E+00  1.00000000E+00  1.00000000E+00  1.00000000E+00
Current cartesian coordinates              R   N=          60
  4.59070127E-01  4.14686469E-01 -1.40100545E+00 -1.73444363E+00  2.00434306E+00
 -4.93586437E-01 -3.67281646E+00  4.71034755E-01  9.79804021E-02 -2.86991041E+00
 -2.14151896E+00 -2.84005219E-01 -4.01880285E-01 -2.15850376E+00 -1.14225677E+00
 -4.08676178E+00 -4.03925064E+00  8.91073641E-02 -6.01774157E+00  1.01622236E+00
  9.48552281E-01 -1.70474364E+00  4.55137941E+00 -4.16573316E-01  8.32608111E-01
  7.57938111E-01 -3.41656553E+00  2.92880759E+00  7.27006898E-01  9.46579872E-02
  3.45039552E+00  2.73693432E+00  1.33867553E-01  2.61229096E+00  2.77563538E-02
  2.66882630E+00  5.15342186E+00 -7.33104410E-01 -1.05458711E+00  7.35924410E+00
 -3.32339385E-01  3.93947664E-01 -6.86879409E+00 -6.03884266E-01  1.17632983E+00
  5.20517624E-03  5.17190822E+00 -6.48873833E-01  1.85430173E+00 -1.64891521E+00
  2.66983521E+00  5.55340959E+00 -6.54695925E-02 -2.97364481E+00  4.65416458E+00
 -2.75279003E+00 -1.17516299E+00  6.85067269E+00 -5.72523166E-01  2.14466129E+00
Atom Types                                 C   N=          20
                                                            
                                                            
                                                            
                                                            
Int Atom Types                             I   N=          20
           0           0           0           0           0           0
           0           0           0           0           0           0
           0           0           0           0           0           0
           0           0
Force Field                                I                0
MM charges                                 R   N=          20
  0.00000000E+00  0.00000000E+00  0.00000000E+00  0.00000000E+00  0.00000000E+00
  0.00000000E+00  0.00000000E+00  0.00000000E+00  0.00000000E+00  0.00000000E+00
  0.00000000E+00  0.00000000E+00  0.00000000E+00  0.00000000E+00  0.00000000E+00
  0.00000000E+00  0.00000000E+00  0.00000000E+00  0.00000000E+00  0.00000000E+00
Integer atomic weights                     I   N=          20
          12          12          12          12          16          16
          16          16           1          12           1          16
          12          16           1           1           1           1
           1           1
Real atomic weights                        R   N=          20
  1.20000000E+01  1.20000000E+01  1.20000000E+01  1.20000000E+01  1.59949146E+01
  1.59949146E+01  1.59949146E+01  1.59949146E+01  1.00782504E+00  1.20000000E+01
  1.00782504E+00  1.59949146E+01  1.20000000E+01  1.59949146E+01  1.00782504E+00
  1.00782504E+00  1.00782504E+00  1.00782504E+00  1.00782504E+00  1.00782504E+00
Atom residue info                          I   N=          20
           0           0           0           0           0           0
           0           0           0           0           0           0
           0           0           0           0           0           0
           0           0
Atom fragment info                         I   N=          20
           0           0           0           0           0           0
           0           0           0           0           0           0
           0           0           0           0           0           0
           0           0
Atom residue num                           I   N=          20
           0           0           0           0           0           0
           0           0           0           0           0           0
           0           0           0           0           0           0
           0           0
Nuclear spins                              I   N=          20
           0           0           0           0           0           0
           0           0           1           0           1           0
           0           0           1           1           1           1
           1           1
Nuclear ZEff                               R   N=          20
 -3.60000000E+00 -3.60000000E+00 -3.60000000E+00 -3.60000000E+00 -5.60000000E+00
 -5.60000000E+00 -5.60000000E+00 -5.60000000E+00 -1.00000000E+00 -3.60000000E+00
 -1.00000000E+00 -5.60000000E+00 -3.60000000E+00 -5.60000000E+00 -1.00000000E+00
 -1.00000000E+00 -1.00000000E+00 -1.00000000E+00 -1.00000000E+00 -1.00000000E+00
Nuclear QMom                               R   N=          20
  0.00000000E+00  0.00000000E+00  0.00000000E+00  0.00000000E+00  0.00000000E+00
  0.00000000E+00  0.00000000E+00  0.00000000E+00  0.00000000E+00  0.00000000E+00
  0.00000000E+00  0.00000000E+00  0.00000000E+00  0.00000000E+00  0.00000000E+00
  0.00000000E+00  0.00000000E+00  0.00000000E+00  0.00000000E+00  0.00000000E+00
Nuclear GFac                               R   N=          20
  0.00000000E+00  0.00000000E+00  0.00000000E+00  0.00000000E+00  0.00000000E+00
  0.00000000E+00  0.00000000E+00  0.00000000E+00  2.79284600E+00  0.00000000E+00
  2.79284600E+00  0.00000000E+00  0.00000000E+00  0.00000000E+00  2.79284600E+00
  2.79284600E+00  2.79284600E+00  2.79284600E+00  2.79284600E+00  2.79284600E+00
MicOpt                                     I   N=          20
          -1          -1          -1          -1          -1          -1
          -1          -1          -1          -1          -1          -1
          -1          -1          -1          -1          -1          -1
          -1          -1
Constraint Structure                       R   N=          60
  4.43917466E-01  6.03339630E-01 -1.58053203E+00 -1.88424812E+00  1.97999888E+00
 -6.59433339E-01 -3.65546321E+00  2.70498412E-01 -1.48641822E-01 -2.54363954E+00
 -2.18689083E+00 -6.82400576E-01 -1.13909172E-01 -2.00253971E+00 -1.33505869E+00
 -3.48920720E+00 -4.13759605E+00  1.30757636E-02 -5.83805961E+00  6.93326928E-01
  1.14738103E+00 -1.88298588E+00  4.37693165E+00  2.80916560E-01  8.87119389E-01
  1.12390792E+00 -3.52449659E+00  2.69600822E+00  1.01248604E+00  1.88329149E-01
  2.71552861E+00  2.88518088E+00  1.04387897E+00  2.53194990E+00 -9.38882881E-01
  2.05118607E+00  5.22886341E+00  3.99976799E-01 -1.07024677E+00  6.70309487E+00
 -5.13320213E-01  1.00210112E+00 -5.46764614E+00  8.62922324E-01  2.92048803E+00
 -1.42169202E+00  5.54034818E+00 -1.03641221E+00  1.63728196E+00 -2.33220076E+00
  1.28606050E+00  6.06905797E+00  2.07101338E+00 -1.93648370E+00  4.99081624E+00
 -1.10204043E+00 -2.45768008E+00  5.58984138E+00 -1.34894281E+00  2.14538258E+00
ONIOM Charges                              I   N=          16
           0           0           0           0           0           0
           0           0           0           0           0           0
           0           0           0           0
ONIOM Multiplicities                       I   N=          16
           1           0           0           0           0           0
           0           0           0           0           0           0
           0           0           0           0
Atom Layers                                I   N=          20
           1           1           1           1           1           1
           1           1           1           1           1           1
           1           1           1           1           1           1
           1           1
Atom Modifiers                             I   N=          20
           0           0           0           0           0           0
           0           0           0           0           0           0
           0           0           0           0           0           0
           0           0
Atom Modified Types                        C   N=          20
                                                            
                                                            
                                                            
                                                            
Int Atom Modified Types                    I   N=          20
           0           0           0           0           0           0
           0           0           0           0           0           0
           0           0           0           0           0           0
           0           0
Link Atoms                                 I   N=          20
           0           0           0           0           0           0
           0           0           0           0           0           0
           0           0           0           0           0           0
           0           0
Atom Modified MM Charges                   R   N=          20
  0.00000000E+00  0.00000000E+00  0.00000000E+00  0.00000000E+00  0.00000000E+00
  0.00000000E+00  0.00000000E+00  0.00000000E+00  0.00000000E+00  0.00000000E+00
  0.00000000E+00  0.00000000E+00  0.00000000E+00  0.00000000E+00  0.00000000E+00
  0.00000000E+00  0.00000000E+00  0.00000000E+00  0.00000000E+00  0.00000000E+00
Link Distances                             R   N=          80
  0.00000000E+00  0.00000000E+00  0.00000000E+00  0.00000000E+00  0.00000000E+00
  0.00000000E+00  0.00000000E+00  0.00000000E+00  0.00000000E+00  0.00000000E+00
  0.00000000E+00  0.00000000E+00  0.00000000E+00  0.00000000E+00  0.00000000E+00
  0.00000000E+00  0.00000000E+00  0.00000000E+00  0.00000000E+00  0.00000000E+00
  0.00000000E+00  0.00000000E+00  0.00000000E+00  0.00000000E+00  0.00000000E+00
  0.00000000E+00  0.00000000E+00  0.00000000E+00  0.00000000E+00  0.00000000E+00
  0.00000000E+00  0.00000000E+00  0.00000000E+00  0.00000000E+00  0.00000000E+00
  0.00000000E+00  0.00000000E+00  0.00000000E+00  0.00000000E+00  0.00000000E+00
  0.00000000E+00  0.00000000E+00  0.00000000E+00  0.00000000E+00  0.00000000E+00
  0.00000000E+00  0.00000000E+00  0.00000000E+00  0.00000000E+00  0.00000000E+00
  0.00000000E+00  0.00000000E+00  0.00000000E+00  0.00000000E+00  0.00000000E+00
  0.00000000E+00  0.00000000E+00  0.00000000E+00  0.00000000E+00  0.00000000E+00
  0.00000000E+00  0.00000000E+00  0.00000000E+00  0.00000000E+00  0.00000000E+00
  0.00000000E+00  0.00000000E+00  0.00000000E+00  0.00000000E+00  0.00000000E+00
  0.00000000E+00  0.00000000E+00  0.00000000E+00  0.00000000E+00  0.00000000E+00
  0.00000000E+00  0.00000000E+00  0.00000000E+00  0.00000000E+00  0.00000000E+00
MxBond                                     I                4
NBond                                      I   N=          20
           4           3           3           3           2           1
           2           2           1           4           1           2
           4           2           1           1           1           1
           1           1
IBond                                      I   N=          80
           2           5           9          10           1           3
           8           0           2           4           7           0
           3           5           6           0           1           4
           0           0           4           0           0           0
           3          15           0           0           2          16
           0           0           1           0           0           0
           1          11          12          13          10           0
           0           0          10          17           0           0
          10          14          18          19          13          20
           0           0           7           0           0           0
           8           0           0           0          12           0
           0           0          13           0           0           0
          13           0           0           0          14           0
           0           0
RBond                                      R   N=          80
  1.00000000E+00  1.00000000E+00  1.00000000E+00  1.00000000E+00  1.00000000E+00
  2.00000000E+00  1.50000000E+00  0.00000000E+00  2.00000000E+00  1.00000000E+00
  1.50000000E+00  0.00000000E+00  1.00000000E+00  1.50000000E+00  2.00000000E+00
  0.00000000E+00  1.00000000E+00  1.50000000E+00  0.00000000E+00  0.00000000E+00
  2.00000000E+00  0.00000000E+00  0.00000000E+00  0.00000000E+00  1.50000000E+00
  1.00000000E+00  0.00000000E+00  0.00000000E+00  1.50000000E+00  1.00000000E+00
  0.00000000E+00  0.00000000E+00  1.00000000E+00  0.00000000E+00  0.00000000E+00
  0.00000000E+00  1.00000000E+00  1.00000000E+00  1.00000000E+00  1.00000000E+00
  1.00000000E+00  0.00000000E+00  0.00000000E+00  0.00000000E+00  1.00000000E+00
  1.00000000E+00  0.00000000E+00  0.00000000E+00  1.00000000E+00  1.00000000E+00
  1.00000000E+00  1.00000000E+00  1.00000000E+00  1.00000000E+00  0.00000000E+00
  0.00000000E+00  1.00000000E+00  0.00000000E+00  0.00000000E+00  0.00000000E+00
  1.00000000E+00  0.00000000E+00  0.00000000E+00  0.00000000E+00  1.00000000E+00
  0.00000000E+00  0.00000000E+00  0.00000000E+00  1.00000000E+00  0.00000000E+00
  0.00000000E+00  0.00000000E+00  1.00000000E+00  0.00000000E+00  0.00000000E+00
  0.00000000E+00  1.00000000E+00  0.00000000E+00  0.00000000E+00  0.00000000E+00
Shell types                                I   N=          64
           0          -1          -1           2           0          -1
          -1           2           0          -1          -1           2
           0          -1          -1           2           0          -1
          -1           2           0          -1          -1           2
           0          -1          -1           2           0          -1
          -1           2           0           0           0          -1
          -1           2           0           0           0          -1
          -1           2           0          -1          -1           2
           0          -1          -1           2           0           0
           0           0           0           0           0           0
           0           0           0           0
Number of primitives per shell             I   N=          64
           6           3           1           1           6           3
           1           1           6           3           1           1
           6           3           1           1           6           3
           1           1           6           3           1           1
           6           3           1           1           6           3
           1           1           3           1           6           3
           1           1           3           1           6           3
           1           1           6           3           1           1
           6           3           1           1           3           1
           3           1           3           1           3           1
           3           1           3           1
Shell to atom map                          I   N=          64
           1           1           1           1           2           2
           2           2           3           3           3           3
           4           4           4           4           5           5
           5           5           6           6           6           6
           7           7           7           7           8           8
           8           8           9           9          10          10
          10          10          11          11          12          12
          12          12          13          13          13          13
          14          14          14          14          15          15
          16          16          17          17          18          18
          19          19          20          20
Primitive exponents                        R   N=         164
  3.04752488E+03  4.57369518E+02  1.03948685E+02  2.92101553E+01  9.28666296E+00
  3.16392696E+00  7.86827235E+00  1.88128854E+00  5.44249258E-01  1.68714478E-01
  8.00000000E-01  3.04752488E+03  4.57369518E+02  1.03948685E+02  2.92101553E+01
  9.28666296E+00  3.16392696E+00  7.86827235E+00  1.88128854E+00  5.44249258E-01
  1.68714478E-01  8.00000000E-01  3.04752488E+03  4.57369518E+02  1.03948685E+02
  2.92101553E+01  9.28666296E+00  3.16392696E+00  7.86827235E+00  1.88128854E+00
  5.44249258E-01  1.68714478E-01  8.00000000E-01  3.04752488E+03  4.57369518E+02
  1.03948685E+02  2.92101553E+01  9.28666296E+00  3.16392696E+00  7.86827235E+00
  1.88128854E+00  5.44249258E-01  1.68714478E-01  8.00000000E-01  5.48467166E+03
  8.25234946E+02  1.88046958E+02  5.29645000E+01  1.68975704E+01  5.79963534E+00
  1.55396162E+01  3.59993359E+00  1.01376175E+00  2.70005823E-01  8.00000000E-01
  5.48467166E+03  8.25234946E+02  1.88046958E+02  5.29645000E+01  1.68975704E+01
  5.79963534E+00  1.55396162E+01  3.59993359E+00  1.01376175E+00  2.70005823E-01
  8.00000000E-01  5.48467166E+03  8.25234946E+02  1.88046958E+02  5.29645000E+01
  1.68975704E+01  5.79963534E+00  1.55396162E+01  3.59993359E+00  1.01376175E+00
  2.70005823E-01  8.00000000E-01  5.48467166E+03  8.25234946E+02  1.88046958E+02
  5.29645000E+01  1.68975704E+01  5.79963534E+00  1.55396162E+01  3.59993359E+00
  1.01376175E+00  2.70005823E-01  8.00000000E-01  1.87311370E+01  2.82539436E+00
  6.40121692E-01  1.61277759E-01  3.04752488E+03  4.57369518E+02  1.03948685E+02
  2.92101553E+01  9.28666296E+00  3.16392696E+00  7.86827235E+00  1.88128854E+00
  5.44249258E-01  1.68714478E-01  8.00000000E-01  1.87311370E+01  2.82539436E+00
  6.40121692E-01  1.61277759E-01  5.48467166E+03  8.25234946E+02  1.88046958E+02
  5.29645000E+01  1.68975704E+01  5.79963534E+00  1.55396162E+01  3.59993359E+00
  1.01376175E+00  2.70005823E-01  8.00000000E-01  3.04752488E+03  4.57369518E+02
  1.03948685E+02  2.92101553E+01  9.28666296E+00  3.16392696E+00  7.86827235E+00
  1.88128854E+00  5.44249258E-01  1.68714478E-01  8.00000000E-01  5.48467166E+03
  8.25234946E+02  1.88046958E+02  5.29645000E+01  1.68975704E+01  5.79963534E+00
  1.55396162E+01  3.59993359E+00  1.01376175E+00  2.70005823E-01  8.00000000E-01
  1.87311370E+01  2.82539436E+00  6.40121692E-01  1.61277759E-01  1.87311370E+01
  2.82539436E+00  6.40121692E-01  1.61277759E-01  1.87311370E+01  2.82539436E+00
  6.40121692E-01  1.61277759E-01  1.87311370E+01  2.82539436E+00  6.40121692E-01
  1.61277759E-01  1.87311370E+01  2.82539436E+00  6.40121692E-01  1.61277759E-01
  1.87311370E+01  2.82539436E+00  6.40121692E-01  1.61277759E-01
Contraction coefficients                   R   N=         164
  1.83473713E-03  1.40373228E-02  6.88426223E-02  2.32184443E-01  4.67941348E-01
  3.62311985E-01 -1.19332420E-01 -1.60854152E-01  1.14345644E+00  1.00000000E+00
  1.00000000E+00  1.83473713E-03  1.40373228E-02  6.88426223E-02  2.32184443E-01
  4.67941348E-01  3.62311985E-01 -1.19332420E-01 -1.60854152E-01  1.14345644E+00
  1.00000000E+00  1.00000000E+00  1.83473713E-03  1.40373228E-02  6.88426223E-02
  2.32184443E-01  4.67941348E-01  3.62311985E-01 -1.19332420E-01 -1.60854152E-01
  1.14345644E+00  1.00000000E+00  1.00000000E+00  1.83473713E-03  1.40373228E-02
  6.88426223E-02  2.32184443E-01  4.67941348E-01  3.62311985E-01 -1.19332420E-01
 -1.60854152E-01  1.14345644E+00  1.00000000E+00  1.00000000E+00  1.83107443E-03
  1.39501722E-02  6.84450781E-02  2.32714336E-01  4.70192898E-01  3.58520853E-01
 -1.10777550E-01 -1.48026263E-01  1.13076702E+00  1.00000000E+00  1.00000000E+00
  1.83107443E-03  1.39501722E-02  6.84450781E-02  2.32714336E-01  4.70192898E-01
  3.58520853E-01 -1.10777550E-01 -1.48026263E-01  1.13076702E+00  1.00000000E+00
  1.00000000E+00  1.83107443E-03  1.39501722E-02  6.84450781E-02  2.32714336E-01
  4.70192898E-01  3.58520853E-01 -1.10777550E-01 -1.48026263E-01  1.13076702E+00
  1.00000000E+00  1.00000000E+00  1.83107443E-03  1.39501722E-02  6.84450781E-02
  2.32714336E-01  4.70192898E-01  3.58520853E-01 -1.10777550E-01 -1.48026263E-01
  1.13076702E+00  1.00000000E+00  1.00000000E+00  3.34946043E-02  2.34726953E-01
  8.13757326E-01  1.00000000E+00  1.83473713E-03  1.40373228E-02  6.88426223E-02
  2.32184443E-01  4.67941348E-01  3.62311985E-01 -1.19332420E-01 -1.60854152E-01
  1.14345644E+00  1.00000000E+00  1.00000000E+00  3.34946043E-02  2.34726953E-01
  8.13757326E-01  1.00000000E+00  1.83107443E-03  1.39501722E-02  6.84450781E-02
  2.32714336E-01  4.70192898E-01  3.58520853E-01 -1.10777550E-01 -1.48026263E-01
  1.13076702E+00  1.00000000E+00  1.00000000E+00  1.83473713E-03  1.40373228E-02
  6.88426223E-02  2.32184443E-01  4.67941348E-01  3.62311985E-01 -1.19332420E-01
 -1.60854152E-01  1.14345644E+00  1.00000000E+00  1.00000000E+00  1.83107443E-03
  1.39501722E-02  6.84450781E-02  2.32714336E-01  4.70192898E-01  3.58520853E-01
 -1.10777550E-01 -1.48026263E-01  1.13076702E+00  1.00000000E+00  1.00000000E+00
  3.34946043E-02  2.34726953E-01  8.13757326E-01  1.00000000E+00  3.34946043E-02
  2.34726953E-01  8.13757326E-01  1.00000000E+00  3.34946043E-02  2.34726953E-01
  8.13757326E-01  1.00000000E+00  3.34946043E-02  2.34726953E-01  8.13757326E-01
  1.00000000E+00  3.34946043E-02  2.34726953E-01  8.13757326E-01  1.00000000E+00
  3.34946043E-02  2.34726953E-01  8.13757326E-01  1.00000000E+00
P(S=P) Contraction coefficients            R   N=         164
  0.00000000E+00  0.00000000E+00  0.00000000E+00  0.00000000E+00  0.00000000E+00
  0.00000000E+00  6.89990666E-02  3.16423961E-01  7.44308291E-01  1.00000000E+00
  0.00000000E+00  0.00000000E+00  0.00000000E+00  0.00000000E+00  0.00000000E+00
  0.00000000E+00  0.00000000E+00  6.89990666E-02  3.16423961E-01  7.44308291E-01
  1.00000000E+00  0.00000000E+00  0.00000000E+00  0.00000000E+00  0.00000000E+00
  0.00000000E+00  0.00000000E+00  0.00000000E+00  6.89990666E-02  3.16423961E-01
  7.44308291E-01  1.00000000E+00  0.00000000E+00  0.00000000E+00  0.00000000E+00
  0.00000000E+00  0.00000000E+00  0.00000000E+00  0.00000000E+00  6.89990666E-02
  3.16423961E-01  7.44308291E-01  1.00000000E+00  0.00000000E+00  0.00000000E+00
  0.00000000E+00  0.00000000E+00  0.00000000E+00  0.00000000E+00  0.00000000E+00
  7.08742682E-02  3.39752839E-01  7.27158577E-01  1.00000000E+00  0.00000000E+00
  0.00000000E+00  0.00000000E+00  0.00000000E+00  0.00000000E+00  0.00000000E+00
  0.00000000E+00  7.08742682E-02  3.39752839E-01  7.27158577E-01  1.00000000E+00
  0.00000000E+00  0.00000000E+00  0.00000000E+00  0.00000000E+00  0.00000000E+00
  0.00000000E+00  0.00000000E+00  7.08742682E-02  3.39752839E-01  7.27158577E-01
  1.00000000E+00  0.00000000E+00  0.00000000E+00  0.00000000E+00  0.00000000E+00
  0.00000000E+00  0.00000000E+00  0.00000000E+00  7.08742682E-02  3.39752839E-01
  7.27158577E-01  1.00000000E+00  0.00000000E+00  0.00000000E+00  0.00000000E+00
  0.00000000E+00  0.00000000E+00  0.00000000E+00  0.00000000E+00  0.00000000E+00
  0.00000000E+00  0.00000000E+00  0.00000000E+00  6.89990666E-02  3.16423961E-01
  7.44308291E-01  1.00000000E+00  0.00000000E+00  0.00000000E+00  0.00000000E+00
  0.00000000E+00  0.00000000E+00  0.00000000E+00  0.00000000E+00  0.00000000E+00
  0.00000000E+00  0.00000000E+00  0.00000000E+00  7.08742682E-02  3.39752839E-01
  7.27158577E-01  1.00000000E+00  0.00000000E+00  0.00000000E+00  0.00000000E+00
  0.00000000E+00  0.00000000E+00  0.00000000E+00  0.00000000E+00  6.89990666E-02
  3.16423961E-01  7.44308291E-01  1.00000000E+00  0.00000000E+00  0.00000000E+00
  0.00000000E+00  0.00000000E+00  0.00000000E+00  0.00000000E+00  0.00000000E+00
  7.08742682E-02  3.39752839E-01  7.27158577E-01  1.00000000E+00  0.00000000E+00
  0.00000000E+00  0.00000000E+00  0.00000000E+00  0.00000000E+00  0.00000000E+00
  0.00000000E+00  0.00000000E+00  0.00000000E+00  0.00000000E+00  0.00000000E+00
  0.00000000E+00  0.00000000E+00  0.00000000E+00  0.00000000E+00  0.00000000E+00
  0.00000000E+00  0.00000000E+00  0.00000000E+00  0.00000000E+00  0.00000000E+00
  0.00000000E+00  0.00000000E+00  0.00000000E+00  0.00000000E+00
Coordinates of each shell                  R   N=         192
  4.59070127E-01  4.14686469E-01 -1.40100545E+00  4.59070127E-01  4.14686469E-01
 -1.40100545E+00  4.59070127E-01  4.14686469E-01 -1.40100545E+00  4.59070127E-01
  4.14686469E-01 -1.40100545E+00 -1.73444363E+00  2.00434306E+00 -4.93586437E-01
 -1.73444363E+00  2.00434306E+00 -4.93586437E-01 -1.73444363E+00  2.00434306E+00
 -4.93586437E-01 -1.73444363E+00  2.00434306E+00 -4.93586437E-01 -3.67281646E+00
  4.71034755E-01  9.79804021E-02 -3.67281646E+00  4.71034755E-01  9.79804021E-02
 -3.67281646E+00  4.71034755E-01  9.79804021E-02 -3.67281646E+00  4.71034755E-01
  9.79804021E-02 -2.86991041E+00 -2.14151896E+00 -2.84005219E-01 -2.86991041E+00
 -2.14151896E+00 -2.84005219E-01 -2.86991041E+00 -2.14151896E+00 -2.84005219E-01
 -2.86991041E+00 -2.14151896E+00 -2.84005219E-01 -4.01880285E-01 -2.15850376E+00
 -1.14225677E+00 -4.01880285E-01 -2.15850376E+00 -1.14225677E+00 -4.01880285E-01
 -2.15850376E+00 -1.14225677E+00 -4.01880285E-01 -2.15850376E+00 -1.14225677E+00
 -4.08676178E+00 -4.03925064E+00  8.91073641E-02 -4.08676178E+00 -4.03925064E+00
  8.91073641E-02 -4.08676178E+00 -4.03925064E+00  8.91073641E-02 -4.08676178E+00
 -4.03925064E+00  8.91073641E-02 -6.01774157E+00  1.01622236E+00  9.48552281E-01
 -6.01774157E+00  1.01622236E+00  9.48552281E-01 -6.01774157E+00  1.01622236E+00
  9.48552281E-01 -6.01774157E+00  1.01622236E+00  9.48552281E-01 -1.70474364E+00
  4.55137941E+00 -4.16573316E-01 -1.70474364E+00  4.55137941E+00 -4.16573316E-01
 -1.70474364E+00  4.55137941E+00 -4.16573316E-01 -1.70474364E+00  4.55137941E+00
 -4.16573316E-01  8.32608111E-01  7.57938111E-01 -3.41656553E+00  8.32608111E-01
  7.57938111E-01 -3.41656553E+00  2.92880759E+00  7.27006898E-01  9.46579872E-02
  2.92880759E+00  7.27006898E-01  9.46579872E-02  2.92880759E+00  7.27006898E-01
  9.46579872E-02  2.92880759E+00  7.27006898E-01  9.46579872E-02  3.45039552E+00
  2.73693432E+00  1.33867553E-01  3.45039552E+00  2.73693432E+00  1.33867553E-01
  2.61229096E+00  2.77563538E-02  2.66882630E+00  2.61229096E+00  2.77563538E-02
  2.66882630E+00  2.61229096E+00  2.77563538E-02  2.66882630E+00  2.61229096E+00
  2.77563538E-02  2.66882630E+00  5.15342186E+00 -7.33104410E-01 -1.05458711E+00
  5.15342186E+00 -7.33104410E-01 -1.05458711E+00  5.15342186E+00 -7.33104410E-01
 -1.05458711E+00  5.15342186E+00 -7.33104410E-01 -1.05458711E+00  7.35924410E+00