 Entering Gaussian System, Link 0=g03
 Input=hf631g-freq.com
 Output=hf631g-freq.log
 Initial command:
 /opt/und/gaussian/03D01/linux86-64/g03/l1.exe /scratch/Gau-16751.inp -scrdir=/scratch/
 Entering Link 1 = /opt/und/gaussian/03D01/linux86-64/g03/l1.exe PID=     16752.
  
 Copyright (c) 1988,1990,1992,1993,1995,1998,2003,2004, Gaussian, Inc.
                  All Rights Reserved.
  
 This is the Gaussian(R) 03 program.  It is based on the
 the Gaussian(R) 98 system (copyright 1998, Gaussian, Inc.),
 the Gaussian(R) 94 system (copyright 1995, Gaussian, Inc.),
 the Gaussian 92(TM) system (copyright 1992, Gaussian, Inc.),
 the Gaussian 90(TM) system (copyright 1990, Gaussian, Inc.),
 the Gaussian 88(TM) system (copyright 1988, Gaussian, Inc.),
 the Gaussian 86(TM) system (copyright 1986, Carnegie Mellon
 University), and the Gaussian 82(TM) system (copyright 1983,
 Carnegie Mellon University). Gaussian is a federally registered
 trademark of Gaussian, Inc.
  
 This software contains proprietary and confidential information,
 including trade secrets, belonging to Gaussian, Inc.
  
 This software is provided under written license and may be
 used, copied, transmitted, or stored only in accord with that
 written license.
  
 The following legend is applicable only to US Government
 contracts under FAR:
  
                    RESTRICTED RIGHTS LEGEND
  
 Use, reproduction and disclosure by the US Government is
 subject to restrictions as set forth in subparagraphs (a)
 and (c) of the Commercial Computer Software - Restricted
 Rights clause in FAR 52.227-19.
  
 Gaussian, Inc.
 340 Quinnipiac St., Bldg. 40, Wallingford CT 06492
  
  
 ---------------------------------------------------------------
 Warning -- This program may not be used in any manner that
 competes with the business of Gaussian, Inc. or will provide
 assistance to any competitor of Gaussian, Inc.  The licensee
 of this program is prohibited from giving any competitor of
 Gaussian, Inc. access to this program.  By using this program,
 the user acknowledges that Gaussian, Inc. is engaged in the
 business of creating and licensing software in the field of
 computational chemistry and represents and warrants to the
 licensee that it is not a competitor of Gaussian, Inc. and that
 it will not use this program in any manner prohibited above.
 ---------------------------------------------------------------
  

 Cite this work as:
 Gaussian 03, Revision D.01,
 M. J. Frisch, G. W. Trucks, H. B. Schlegel, G. E. Scuseria, 
 M. A. Robb, J. R. Cheeseman, J. A. Montgomery, Jr., T. Vreven, 
 K. N. Kudin, J. C. Burant, J. M. Millam, S. S. Iyengar, J. Tomasi, 
 V. Barone, B. Mennucci, M. Cossi, G. Scalmani, N. Rega, 
 G. A. Petersson, H. Nakatsuji, M. Hada, M. Ehara, K. Toyota, 
 R. Fukuda, J. Hasegawa, M. Ishida, T. Nakajima, Y. Honda, O. Kitao, 
 H. Nakai, M. Klene, X. Li, J. E. Knox, H. P. Hratchian, J. B. Cross, 
 V. Bakken, C. Adamo, J. Jaramillo, R. Gomperts, R. E. Stratmann, 
 O. Yazyev, A. J. Austin, R. Cammi, C. Pomelli, J. W. Ochterski, 
 P. Y. Ayala, K. Morokuma, G. A. Voth, P. Salvador, J. J. Dannenberg, 
 V. G. Zakrzewski, S. Dapprich, A. D. Daniels, M. C. Strain, 
 O. Farkas, D. K. Malick, A. D. Rabuck, K. Raghavachari, 
 J. B. Foresman, J. V. Ortiz, Q. Cui, A. G. Baboul, S. Clifford, 
 J. Cioslowski, B. B. Stefanov, G. Liu, A. Liashenko, P. Piskorz, 
 I. Komaromi, R. L. Martin, D. J. Fox, T. Keith, M. A. Al-Laham, 
 C. Y. Peng, A. Nanayakkara, M. Challacombe, P. M. W. Gill, 
 B. Johnson, W. Chen, M. W. Wong, C. Gonzalez, and J. A. Pople, 
 Gaussian, Inc., Wallingford CT, 2004.
 
 ******************************************
 Gaussian 03:  AM64L-G03RevD.01 13-Oct-2005
                 7-Oct-2007 
 ******************************************
 %chk=CH3OH-631g.chk
 %mem=6MW
 %nproc=1
 Will use up to    1 processors via shared memory.
 --------------------------------------------------
 #P HF/6-31G(d) freq=analytic geom=check guess=Read
 --------------------------------------------------
 1/10=4,29=2,30=1,38=1/1,3;
 2/40=1/2;
 3/5=1,6=6,7=1,11=9,16=1,25=1,30=1/1,2,3;
 4/5=1/1;
 5/5=2,38=6/2;
 8/6=4,10=90,11=11/1;
 10/13=10/2;
 11/6=2,8=1,9=11,15=111,16=1/1,2,10;
 10/6=1/2;
 6/7=2,8=2,9=2,10=2,18=1,28=1/1;
 7/8=1,10=1,25=1/1,2,3,16;
 1/10=4,30=1/3;
 99//99;
 Leave Link    1 at Sun Oct  7 17:09:21 2007, MaxMem=    6291456 cpu:       0.8
 (Enter /opt/und/gaussian/03D01/linux86-64/g03/l101.exe)
 ---------------
 CH3OH frequency
 ---------------
 Redundant internal coordinates taken from checkpoint file:
 CH3OH-631g.chk
 Charge =  0 Multiplicity = 1
 C,0,-0.404865129,0.,0.0889734379
 O,0,-0.059641735,0.,1.4455199283
 H,0,0.8826685841,0.,1.5298174824
 H,0,-1.4843969439,0.,0.0333481958
 H,0,-0.0347539892,-0.883623136,-0.4257546287
 H,0,-0.0347539892,0.883623136,-0.4257546287
 Recover connectivity data from disk.
                    Isotopes and Nuclear Properties:
 (Nuclear quadrupole moments (NQMom) in fm**2, nuclear magnetic moments (NMagM)
  in nuclear magnetons)

  Atom         1           2           3           4           5           6
 IAtWgt=          12          16           1           1           1           1
 AtmWgt=  12.0000000  15.9949146   1.0078250   1.0078250   1.0078250   1.0078250
 NucSpn=           0           0           1           1           1           1
 AtZEff=  -3.6000000  -5.6000000  -1.0000000  -1.0000000  -1.0000000  -1.0000000
 NQMom=    0.0000000   0.0000000   0.0000000   0.0000000   0.0000000   0.0000000
 NMagM=    0.0000000   0.0000000   2.7928460   2.7928460   2.7928460   2.7928460
 Leave Link  101 at Sun Oct  7 17:09:22 2007, MaxMem=    6291456 cpu:       0.5
 (Enter /opt/und/gaussian/03D01/linux86-64/g03/l103.exe)

 GradGradGradGradGradGradGradGradGradGradGradGradGradGradGradGradGradGrad
 Berny optimization.
 Initialization pass.
                           ----------------------------
                           !    Initial Parameters    !
                           ! (Angstroms and Degrees)  !
 --------------------------                            --------------------------
 ! Name  Definition              Value          Derivative Info.                !
 --------------------------------------------------------------------------------
 ! R1    R(1,2)                  1.3998         calculate D2E/DX2 analytically  !
 ! R2    R(1,4)                  1.081          calculate D2E/DX2 analytically  !
 ! R3    R(1,5)                  1.0875         calculate D2E/DX2 analytically  !
 ! R4    R(1,6)                  1.0875         calculate D2E/DX2 analytically  !
 ! R5    R(2,3)                  0.9461         calculate D2E/DX2 analytically  !
 ! A1    A(2,1,4)              107.2276         calculate D2E/DX2 analytically  !
 ! A2    A(2,1,5)              112.0088         calculate D2E/DX2 analytically  !
 ! A3    A(2,1,6)              112.0088         calculate D2E/DX2 analytically  !
 ! A4    A(4,1,5)              108.392          calculate D2E/DX2 analytically  !
 ! A5    A(4,1,6)              108.392          calculate D2E/DX2 analytically  !
 ! A6    A(5,1,6)              108.683          calculate D2E/DX2 analytically  !
 ! A7    A(1,2,3)              109.3899         calculate D2E/DX2 analytically  !
 ! D1    D(4,1,2,3)            180.0            calculate D2E/DX2 analytically  !
 ! D2    D(5,1,2,3)             61.2076         calculate D2E/DX2 analytically  !
 ! D3    D(6,1,2,3)            -61.2076         calculate D2E/DX2 analytically  !
 --------------------------------------------------------------------------------
 Trust Radius=3.00D-01 FncErr=1.00D-07 GrdErr=1.00D-07
 Number of steps in this run=   2 maximum allowed number of steps=   2.
 GradGradGradGradGradGradGradGradGradGradGradGradGradGradGradGradGradGrad

 Leave Link  103 at Sun Oct  7 17:09:22 2007, MaxMem=    6291456 cpu:       0.1
 (Enter /opt/und/gaussian/03D01/linux86-64/g03/l202.exe)
                          Input orientation:                          
 ---------------------------------------------------------------------
 Center     Atomic     Atomic              Coordinates (Angstroms)
 Number     Number      Type              X           Y           Z
 ---------------------------------------------------------------------
    1          6             0       -0.404865    0.000000    0.088973
    2          8             0       -0.059642    0.000000    1.445520
    3          1             0        0.882669    0.000000    1.529817
    4          1             0       -1.484397    0.000000    0.033348
    5          1             0       -0.034754   -0.883623   -0.425755
    6          1             0       -0.034754    0.883623   -0.425755
 ---------------------------------------------------------------------
                    Distance matrix (angstroms):
                    1          2          3          4          5
     1  C    0.000000
     2  O    1.399785   0.000000
     3  H    1.932298   0.946073   0.000000
     4  H    1.080964   2.006030   2.800432   0.000000
     5  H    1.087528   2.069560   2.333820   1.758701   0.000000
     6  H    1.087528   2.069560   2.333820   1.758701   1.767246
                    6
     6  H    0.000000
 Stoichiometry    CH4O
 Framework group  CS[SG(CH2O),X(H2)]
 Deg. of freedom     8
 Full point group                 CS
 Largest Abelian subgroup         CS      NOp   2
 Largest concise Abelian subgroup CS      NOp   2
                         Standard orientation:                         
 ---------------------------------------------------------------------
 Center     Atomic     Atomic              Coordinates (Angstroms)
 Number     Number      Type              X           Y           Z
 ---------------------------------------------------------------------
    1          6             0        0.046177    0.654273    0.000000
    2          8             0        0.046177   -0.745512    0.000000
    3          1             0       -0.846236   -1.059604    0.000000
    4          1             0        1.078645    0.974420    0.000000
    5          1             0       -0.439447    1.061822    0.883623
    6          1             0       -0.439447    1.061822   -0.883623
 ---------------------------------------------------------------------
 Rotational constants (GHZ):    131.0524630     25.4187254     24.5438440
 Leave Link  202 at Sun Oct  7 17:09:23 2007, MaxMem=    6291456 cpu:       0.2
 (Enter /opt/und/gaussian/03D01/linux86-64/g03/l301.exe)
 Standard basis: 6-31G(d) (6D, 7F)
 There are    28 symmetry adapted basis functions of A'  symmetry.
 There are    10 symmetry adapted basis functions of A"  symmetry.
 Integral buffers will be    131072 words long.
 Raffenetti 1 integral format.
 Two-electron integral symmetry is turned on.
    38 basis functions,    72 primitive gaussians,    38 cartesian basis functions
     9 alpha electrons        9 beta electrons
       nuclear repulsion energy        40.7853256855 Hartrees.
 IExCor=   0 DFT=F Ex=HF Corr=None ExCW=0 ScaHFX=  1.000000
 ScaDFX=  1.000000  1.000000  1.000000  1.000000
 IRadAn=      0 IRanWt=     -1 IRanGd=            0 ICorTp=0
 NAtoms=    6 NActive=    6 NUniq=    5 SFac= 1.08D+00 NAtFMM=   80 NAOKFM=F Big=F
 Leave Link  301 at Sun Oct  7 17:09:23 2007, MaxMem=    6291456 cpu:       0.1
 (Enter /opt/und/gaussian/03D01/linux86-64/g03/linda-exe/l302.exel)
 NPDir=0 NMtPBC=     1 NCelOv=     1 NCel=       1 NClECP=     1 NCelD=      1
         NCelK=      1 NCelE2=     1 NClLst=     1 CellRange=     0.0.
 One-electron integrals computed using PRISM.
 One-electron integral symmetry used in STVInt
 NBasis=    38 RedAO= T  NBF=    28    10
 NBsUse=    38 1.00D-06 NBFU=    28    10
 Leave Link  302 at Sun Oct  7 17:09:24 2007, MaxMem=    6291456 cpu:       0.2
 (Enter /opt/und/gaussian/03D01/linux86-64/g03/l303.exe)
 DipDrv:  MaxL=1.
 Leave Link  303 at Sun Oct  7 17:09:24 2007, MaxMem=    6291456 cpu:       0.0
 (Enter /opt/und/gaussian/03D01/linux86-64/g03/l401.exe)
 Initial guess read from the checkpoint file:
 CH3OH-631g.chk
 Guess basis will be translated and rotated to current coordinates.
 Initial guess orbital symmetries:
       Occupied  (A') (A') (A') (A') (A') (A") (A') (A') (A")
       Virtual   (A') (A') (A') (A") (A') (A') (A") (A') (A') (A")
                 (A') (A') (A') (A") (A') (A') (A') (A") (A') (A")
                 (A') (A') (A") (A') (A") (A') (A') (A') (A')
 The electronic state of the initial guess is 1-A'.
 Leave Link  401 at Sun Oct  7 17:09:25 2007, MaxMem=    6291456 cpu:       0.1
 (Enter /opt/und/gaussian/03D01/linux86-64/g03/linda-exe/l502.exel)
 Closed shell SCF:
 Requested convergence on RMS density matrix=1.00D-08 within 128 cycles.
 Requested convergence on MAX density matrix=1.00D-06.
 Requested convergence on             energy=1.00D-06.
 No special actions if energy rises.
 Using DIIS extrapolation, IDIIS=  1040.
 Integral symmetry usage will be decided dynamically.
 Keep R1 integrals in memory in canonical form, NReq=     1147246.
 IEnd=     22681 IEndB=     22681 NGot=   6291456 MDV=   6011973
 LenX=   6011973
 Symmetry not used in FoFDir.
 MinBra= 0 MaxBra= 2 Meth= 1.
 IRaf=       0 NMat=   1 IRICut=       1 DoRegI=T DoRafI=F ISym2E= 0 JSym2E=0.

 Cycle   1  Pass 1  IDiag  1:
 E= -115.035417987334    
 DIIS: error= 2.13D-09 at cycle   1 NSaved=   1.
 NSaved= 1 IEnMin= 1 EnMin= -115.035417987334     IErMin= 1 ErrMin= 2.13D-09
 ErrMax= 2.13D-09 EMaxC= 1.00D-01 BMatC= 2.79D-16 BMatP= 2.79D-16
 IDIUse=1 WtCom= 1.00D+00 WtEn= 0.00D+00
 Coeff-Com:  0.100D+01
 Coeff:      0.100D+01
 Gap=     0.670 Goal=   None    Shift=    0.000
 RMSDP=7.62D-10 MaxDP=6.22D-09              OVMax= 1.19D-08

 SCF Done:  E(RHF) =  -115.035417987     A.U. after    1 cycles
             Convg  =    0.7620D-09             -V/T =  2.0015
             S**2   =   0.0000
 KE= 1.148619130272D+02 PE=-3.525836644974D+02 EE= 8.190100779734D+01
 Leave Link  502 at Sun Oct  7 17:09:26 2007, MaxMem=    6291456 cpu:       0.2
 (Enter /opt/und/gaussian/03D01/linux86-64/g03/l801.exe)
 Range of M.O.s used for correlation:     1    38
 NBasis=    38 NAE=     9 NBE=     9 NFC=     0 NFV=     0
 NROrb=     38 NOA=     9 NOB=     9 NVA=    29 NVB=    29
 Leave Link  801 at Sun Oct  7 17:09:26 2007, MaxMem=    6291456 cpu:       0.0
 (Enter /opt/und/gaussian/03D01/linux86-64/g03/linda-exe/l1002.exel)
 Minotr:  Closed-shell wavefunction.
          Direct CPHF calculation.
          Solving linear equations simultaneously.
          Differentiating once with respect to electric field.
                with respect to dipole field.
          Electric field/nuclear overlap derivatives assumed to be zero.
          Using symmetry in CPHF.
          Requested convergence is 1.0D-08 RMS, and 1.0D-07 maximum.
          Secondary convergence is 1.0D-12 RMS, and 1.0D-12 maximum.
          NewPWx=F KeepS1=T KeepF1=T KeepIn=T MapXYZ=F.
          MDV=       6291406 using IRadAn=       2.
          Store integrals in memory, NReq=     1095315.
 Symmetry not used in FoFDir.
 MinBra= 0 MaxBra= 2 Meth= 1.
 IRaf=       0 NMat=   1 IRICut=       1 DoRegI=T DoRafI=F ISym2E= 0 JSym2E=0.
          There are   3 degrees of freedom in the 1st order CPHF.
     3 vectors were produced by pass  0.
 AX will form   3 AO Fock derivatives at one time.
     3 vectors were produced by pass  1.
     3 vectors were produced by pass  2.
     3 vectors were produced by pass  3.
     3 vectors were produced by pass  4.
     3 vectors were produced by pass  5.
     3 vectors were produced by pass  6.
     3 vectors were produced by pass  7.
     3 vectors were produced by pass  8.
 Inv2:  IOpt= 1 Iter= 1 AM= 3.55D-16 Conv= 1.00D-12.
 Inverted reduced A of dimension   27 with in-core refinement.
 End of Minotr Frequency-dependent properties file   721 does not exist.
 Leave Link 1002 at Sun Oct  7 17:09:27 2007, MaxMem=    6291456 cpu:       0.3
 (Enter /opt/und/gaussian/03D01/linux86-64/g03/linda-exe/l1101.exel)
 Using compressed storage, NAtomX=     6.
 Will process   7 centers per pass.
 Leave Link 1101 at Sun Oct  7 17:09:28 2007, MaxMem=    6291456 cpu:       0.3
 (Enter /opt/und/gaussian/03D01/linux86-64/g03/l1102.exe)
 Use density number 0.
 Symmetrizing basis deriv contribution to polar:
 IMax=3 JMax=2 DiffMx= 0.00D+00
 Leave Link 1102 at Sun Oct  7 17:09:29 2007, MaxMem=    6291456 cpu:       0.0
 (Enter /opt/und/gaussian/03D01/linux86-64/g03/linda-exe/l1110.exel)
 Forming Gx(P) for the SCF density, NAtomX=     6.
 Integral derivatives from FoFDir, PRISM(SPDF).
 Do as many integral derivatives as possible in FoFDir.
 G2DrvN: MDV=       6291406.
 G2DrvN: will do    7 centers at a time, making    1 passes doing MaxLOS=2.
 Petite list used in FoFDir.
 MinBra= 0 MaxBra= 2 Meth= 1.
 IRaf=       0 NMat=   1 IRICut=       1 DoRegI=T DoRafI=F ISym2E= 1 JSym2E=1.
 FoFDir/FoFCou used for L=0 through L=2.
 Leave Link 1110 at Sun Oct  7 17:09:30 2007, MaxMem=    6291456 cpu:       0.8
 (Enter /opt/und/gaussian/03D01/linux86-64/g03/linda-exe/l1002.exel)
 Minotr:  Closed-shell wavefunction.
 DoAtom=TTTTTT
          Direct CPHF calculation.
          Solving linear equations simultaneously.
          Differentiating once with respect to electric field.
                with respect to dipole field.
          Differentiating once with respect to nuclear coordinates.
          Using symmetry in CPHF.
          Requested convergence is 1.0D-08 RMS, and 1.0D-07 maximum.
          Secondary convergence is 1.0D-12 RMS, and 1.0D-12 maximum.
          NewPWx=T KeepS1=F KeepF1=F KeepIn=T MapXYZ=F.
          MDV=       6291400 using IRadAn=       2.
          Store integrals in memory, NReq=     1095441.
 Symmetry not used in FoFDir.
 MinBra= 0 MaxBra= 2 Meth= 1.
 IRaf=       0 NMat=   1 IRICut=       1 DoRegI=T DoRafI=F ISym2E= 0 JSym2E=0.
          There are  18 degrees of freedom in the 1st order CPHF.
    18 vectors were produced by pass  0.
 AX will form  18 AO Fock derivatives at one time.
    18 vectors were produced by pass  1.
    18 vectors were produced by pass  2.
    18 vectors were produced by pass  3.
    18 vectors were produced by pass  4.
    18 vectors were produced by pass  5.
     6 vectors were produced by pass  6.
     1 vectors were produced by pass  7.
 Inv2:  IOpt= 1 Iter= 1 AM= 1.34D-15 Conv= 1.00D-12.
 Inverted reduced A of dimension  115 with in-core refinement.
 Isotropic polarizability for W=    0.000000       14.72 Bohr**3.
 End of Minotr Frequency-dependent properties file   721 does not exist.
 Leave Link 1002 at Sun Oct  7 17:09:32 2007, MaxMem=    6291456 cpu:       0.8
 (Enter /opt/und/gaussian/03D01/linux86-64/g03/l601.exe)
 Copying SCF densities to generalized density rwf, ISCF=0 IROHF=0.

 **********************************************************************

            Population analysis using the SCF density.

 **********************************************************************

 Orbital symmetries:
       Occupied  (A') (A') (A') (A') (A') (A") (A') (A') (A")
       Virtual   (A') (A') (A') (A") (A') (A') (A") (A') (A') (A")
                 (A') (A') (A') (A") (A') (A') (A') (A") (A') (A")
                 (A') (A') (A") (A') (A") (A') (A') (A') (A')
 The electronic state is 1-A'.
 Alpha  occ. eigenvalues --  -20.55538 -11.26678  -1.36032  -0.92684  -0.69361
 Alpha  occ. eigenvalues --   -0.62085  -0.59538  -0.49742  -0.44329
 Alpha virt. eigenvalues --    0.22683   0.28037   0.32382   0.33049   0.38749
 Alpha virt. eigenvalues --    0.76243   0.77447   0.79840   1.05540   1.12999
 Alpha virt. eigenvalues --    1.15178   1.18944   1.21799   1.25369   1.27050
 Alpha virt. eigenvalues --    1.40976   1.72472   1.77515   1.87128   2.03235
 Alpha virt. eigenvalues --    2.38777   2.45581   2.47818   2.70468   2.75531
 Alpha virt. eigenvalues --    2.82356   3.16741   4.13594   4.64217
          Condensed to atoms (all electrons):
              1          2          3          4          5          6
     1  C    4.784552   0.219313  -0.026496   0.402804   0.393228   0.393228
     2  O    0.219313   8.357239   0.263771  -0.036823  -0.038698  -0.038698
     3  H   -0.026496   0.263771   0.328118   0.005436  -0.004026  -0.004026
     4  H    0.402804  -0.036823   0.005436   0.521620  -0.033750  -0.033750
     5  H    0.393228  -0.038698  -0.004026  -0.033750   0.586977  -0.044255
     6  H    0.393228  -0.038698  -0.004026  -0.033750  -0.044255   0.586977
 Mulliken atomic charges:
              1
     1  C   -0.166628
     2  O   -0.726105
     3  H    0.437222
     4  H    0.174463
     5  H    0.140524
     6  H    0.140524
 Sum of Mulliken charges=   0.00000
 Atomic charges with hydrogens summed into heavy atoms:
              1
     1  C    0.288883
     2  O   -0.288883
     3  H    0.000000
     4  H    0.000000
     5  H    0.000000
     6  H    0.000000
 Sum of Mulliken charges=   0.00000
 APT atomic charges:
              1
     1  C    0.625726
     2  O   -0.692315
     3  H    0.287152
     4  H   -0.036139
     5  H   -0.092212
     6  H   -0.092212
 Sum of APT charges=   0.00000
 APT Atomic charges with hydrogens summed into heavy atoms:
              1
     1  C    0.405164
     2  O   -0.405164
     3  H    0.000000
     4  H    0.000000
     5  H    0.000000
     6  H    0.000000
 Sum of APT charges=   0.00000
 Electronic spatial extent (au):  <R**2>=    82.7222
 Charge=     0.0000 electrons
 Dipole moment (field-independent basis, Debye):
    X=    -1.5404    Y=     1.0566    Z=     0.0000  Tot=     1.8679
 Quadrupole moment (field-independent basis, Debye-Ang):
   XX=   -11.5878   YY=   -13.0391   ZZ=   -13.6325
   XY=     2.2475   XZ=     0.0000   YZ=     0.0000
 Traceless Quadrupole moment (field-independent basis, Debye-Ang):
   XX=     1.1653   YY=    -0.2859   ZZ=    -0.8793
   XY=     2.2475   XZ=     0.0000   YZ=     0.0000
 Octapole moment (field-independent basis, Debye-Ang**2):
  XXX=    -1.3556  YYY=    -3.6623  ZZZ=     0.0000  XYY=    -2.3937
  XXY=    -2.2703  XXZ=     0.0000  XZZ=    -0.6282  YZZ=    -0.5274
  YYZ=     0.0000  XYZ=     0.0000
 Hexadecapole moment (field-independent basis, Debye-Ang**3):
 XXXX=   -18.0297 YYYY=   -59.1498 ZZZZ=   -18.8107 XXXY=     1.2362
 XXXZ=     0.0000 YYYX=     1.5957 YYYZ=     0.0000 ZZZX=     0.0000
 ZZZY=     0.0000 XXYY=   -11.6416 XXZZ=    -6.4845 YYZZ=   -13.4285
 XXYZ=     0.0000 YYXZ=     0.0000 ZZXY=    -0.7048
 N-N= 4.078532568552D+01 E-N=-3.525836644654D+02  KE= 1.148619130272D+02
 Symmetry A'   KE= 1.082630083960D+02
 Symmetry A"   KE= 6.598904631231D+00
  Exact polarizability:  15.262   0.994  15.402   0.000   0.000  13.492
 Approx polarizability:  12.740   0.522  12.024   0.000   0.000  11.033
 No NMR shielding tensors so no spin-rotation constants.
 Leave Link  601 at Sun Oct  7 17:09:32 2007, MaxMem=    6291456 cpu:       0.2
 (Enter /opt/und/gaussian/03D01/linux86-64/g03/linda-exe/l701.exel)
 Compute integral second derivatives.
 ... and contract with generalized density number  0.
 Leave Link  701 at Sun Oct  7 17:09:33 2007, MaxMem=    6291456 cpu:       0.2
 (Enter /opt/und/gaussian/03D01/linux86-64/g03/l702.exe)
 L702 exits ... SP integral derivatives will be done elsewhere.
 Leave Link  702 at Sun Oct  7 17:09:33 2007, MaxMem=    6291456 cpu:       0.0
 (Enter /opt/und/gaussian/03D01/linux86-64/g03/linda-exe/l703.exel)
 Compute integral second derivatives, UseDBF=F.
 Integral derivatives from FoFDir, PRISM(SPD) Scalar Rys(F).
 Petite list used in FoFDir.
 MinBra= 0 MaxBra= 2 Meth= 1.
 IRaf=       0 NMat=   1 IRICut=       1 DoRegI=T DoRafI=F ISym2E= 1 JSym2E=1.
 Leave Link  703 at Sun Oct  7 17:09:36 2007, MaxMem=    6291456 cpu:       2.1
 (Enter /opt/und/gaussian/03D01/linux86-64/g03/l716.exe)
 Dipole        =-6.06033728D-01 4.15689930D-01-1.09030081D-16
 Polarizability= 1.52615044D+01 9.94476193D-01 1.54021460D+01
                 3.68594044D-14-3.97459843D-14 1.34916223D+01
 HyperPolar    = 1.04332676D+01 6.06630928D+00-1.04334738D+01
                 2.67338190D+01 1.17425082D-13 1.46441359D-13
                -1.32142486D-13-1.99193468D+01 2.36258298D+01
                -3.87099385D-14
 Full mass-weighted force constant matrix:
 Low frequencies ---  -22.6418   -7.4998   -0.0016   -0.0014   -0.0008   14.0010
 Low frequencies ---  343.8392 1163.5200 1187.9406
 Diagonal vibrational polarizability:
        0.2520604       3.6273317      33.9436047
 Diagonal vibrational hyperpolarizability:
       -5.3629970       6.6162029       0.0000000
 Harmonic frequencies (cm**-1), IR intensities (KM/Mole), Raman scattering
 activities (A**4/AMU), depolarization ratios for plane and unpolarized
 incident light, reduced masses (AMU), force constants (mDyne/A),
 and normal coordinates:
                     1                      2                      3
                    A"                     A'                     A'
 Frequencies --   343.8087              1163.5200              1187.9406
 Red. masses --     1.0714                 1.1053                 5.6565
 Frc consts  --     0.0746                 0.8816                 4.7031
 IR Inten    --   147.6662                71.7402                75.2949
 Raman Activ --     2.9649                 1.5458                 9.0133
 Depolar (P) --     0.7500                 0.7319                 0.4112
 Depolar (U) --     0.8571                 0.8452                 0.5828
 Atom AN      X      Y      Z        X      Y      Z        X      Y      Z
   1   6     0.00   0.00   0.00     0.07   0.01   0.00    -0.01   0.46   0.00
   2   8     0.00   0.00   0.07     0.00  -0.05   0.00     0.00  -0.39   0.00
   3   1     0.00   0.00  -0.89    -0.24   0.61   0.00    -0.02  -0.39   0.00
   4   1     0.00   0.00  -0.29    -0.11   0.58   0.00     0.06   0.21   0.00
   5   1     0.22   0.04   0.10    -0.21  -0.25  -0.04     0.07   0.46   0.02
   6   1    -0.22  -0.04   0.10    -0.21  -0.25   0.04     0.07   0.46  -0.02
                     4                      5                      6
                    A"                     A'                     A'
 Frequencies --  1289.8156              1507.4010              1637.5638
 Red. masses --     1.2658                 1.2949                 1.1575
 Frc consts  --     1.2407                 1.7336                 1.8287
 IR Inten    --     3.4777                44.1725                11.0793
 Raman Activ --     6.6967                 3.7522                 6.8159
 Depolar (P) --     0.7500                 0.7162                 0.7087
 Depolar (U) --     0.8571                 0.8346                 0.8295
 Atom AN      X      Y      Z        X      Y      Z        X      Y      Z
   1   6     0.00   0.00   0.14     0.12   0.01   0.00     0.02   0.11   0.00
   2   8     0.00   0.00  -0.06    -0.08   0.04   0.00     0.00   0.01   0.00
   3   1     0.00   0.00  -0.01     0.21  -0.76   0.00     0.00   0.01   0.00
   4   1     0.00   0.00  -0.26    -0.01   0.46   0.00     0.23  -0.61   0.00
   5   1    -0.05   0.65  -0.18    -0.18  -0.17  -0.09    -0.28  -0.45   0.07
   6   1     0.05  -0.65  -0.18    -0.18  -0.17   0.09    -0.28  -0.45  -0.07
                     7                      8                      9
                    A"                     A'                     A'
 Frequencies --  1651.6871              1663.4846              3184.4149
 Red. masses --     1.0499                 1.0517                 1.0370
 Frc consts  --     1.6876                 1.7147                 6.1959
 IR Inten    --     1.0443                 3.1720                63.0135
 Raman Activ --    19.9018                18.3310               121.8406
 Depolar (P) --     0.7500                 0.7447                 0.0681
 Depolar (U) --     0.8571                 0.8537                 0.1276
 Atom AN      X      Y      Z        X      Y      Z        X      Y      Z
   1   6     0.00   0.00  -0.06    -0.05   0.04   0.00     0.03  -0.04   0.00
   2   8     0.00   0.00  -0.01    -0.01   0.01   0.00     0.00   0.00   0.00
   3   1     0.00   0.00  -0.01     0.01  -0.07   0.00     0.00   0.00   0.00
   4   1     0.00   0.00   0.73    -0.09   0.21   0.00     0.27   0.08   0.00
   5   1     0.40   0.27   0.06     0.44  -0.33   0.41    -0.30   0.24   0.56
   6   1    -0.40  -0.27   0.06     0.44  -0.33  -0.41    -0.30   0.24  -0.56
                    10                     11                     12
                    A"                     A'                     A'
 Frequencies --  3230.3085              3306.3755              4120.7272
 Red. masses --     1.1064                 1.0988                 1.0670
 Frc consts  --     6.8020                 7.0776                10.6744
 IR Inten    --   100.1907                48.8802                40.8306
 Raman Activ --    67.4591                74.6340                70.3397
 Depolar (P) --     0.7500                 0.5474                 0.3096
 Depolar (U) --     0.8571                 0.7075                 0.4728
 Atom AN      X      Y      Z        X      Y      Z        X      Y      Z
   1   6     0.00   0.00   0.09    -0.09  -0.01   0.00     0.00   0.00   0.00
   2   8     0.00   0.00   0.00     0.00   0.00   0.00     0.06   0.02   0.00
   3   1     0.00   0.00   0.00    -0.02   0.00   0.00    -0.94  -0.34   0.00
   4   1     0.00   0.00   0.02     0.92   0.27   0.00    -0.01   0.00   0.00
   5   1     0.33  -0.25  -0.57     0.07  -0.06  -0.16     0.00   0.00   0.00
   6   1    -0.33   0.25  -0.57     0.07  -0.06   0.16     0.00   0.00   0.00

 -------------------
 - Thermochemistry -
 -------------------
 Temperature   298.150 Kelvin.  Pressure   1.00000 Atm.
 Atom  1 has atomic number  6 and mass  12.00000
 Atom  2 has atomic number  8 and mass  15.99491
 Atom  3 has atomic number  1 and mass   1.00783
 Atom  4 has atomic number  1 and mass   1.00783
 Atom  5 has atomic number  1 and mass   1.00783
 Atom  6 has atomic number  1 and mass   1.00783
 Molecular mass:    32.02621 amu.
 Principal axes and moments of inertia in atomic units:
                           1         2         3
     EIGENVALUES --    13.77114  71.00046  73.53132
           X            0.05467   0.99850   0.00000
           Y            0.99850  -0.05467   0.00000
           Z            0.00000   0.00000   1.00000
 This molecule is an asymmetric top.
 Rotational symmetry number  1.
 Rotational temperatures (Kelvin)      6.28952     1.21991     1.17792
 Rotational constants (GHZ):         131.05246    25.41873    24.54384
 Zero-point vibrational energy     145268.8 (Joules/Mol)
                                   34.72008 (Kcal/Mol)
 Warning -- explicit consideration of   1 degrees of freedom as
           vibrations may cause significant error
 Vibrational temperatures:    494.66  1674.04  1709.18  1855.75  2168.81
          (Kelvin)           2356.09  2376.41  2393.38  4581.66  4647.69
                             4757.13  5928.80
 
 Zero-point correction=                           0.055330 (Hartree/Particle)
 Thermal correction to Energy=                    0.058592
 Thermal correction to Enthalpy=                  0.059536
 Thermal correction to Gibbs Free Energy=         0.032652
 Sum of electronic and zero-point Energies=           -114.980088
 Sum of electronic and thermal Energies=              -114.976826
 Sum of electronic and thermal Enthalpies=            -114.975882
 Sum of electronic and thermal Free Energies=         -115.002766
 
                     E (Thermal)             CV                S
                      KCal/Mol        Cal/Mol-Kelvin    Cal/Mol-Kelvin
 Total                   36.767              8.350             56.583
 Electronic               0.000              0.000              0.000
 Translational            0.889              2.981             36.324
 Rotational               0.889              2.981             18.914
 Vibrational             34.990              2.388              1.344
 Vibration  1             0.723              1.588              1.194
                       Q            Log10(Q)             Ln(Q)
 Total Bot       0.957717D-15        -15.018763        -34.581979
 Total V=0       0.269899D+11         10.431201         24.018728
 Vib (Bot)       0.442920D-25        -25.353674        -58.378993
 Vib (Bot)  1    0.538777D+00         -0.268591         -0.618453
 Vib (V=0)       0.124822D+01          0.096289          0.221715
 Vib (V=0)  1    0.123504D+01          0.091680          0.211102
 Electronic      0.100000D+01          0.000000          0.000000
 Translational   0.712383D+07          6.852714         15.778956
 Rotational      0.303527D+04          3.482198          8.018057
 
                                                           CH3OH frequency
                                                             IR Spectrum
 
     4                         3 33                                             111   1      1  11                                   
     1                         3 21                                             666   5      2  11                        3          
     2                         0 38                                             653   0      9  86                        4          
     1                         6 04                                             328   7      0  84                        4          
 
     X                         X XX                                             XXX   X      X  XX                        X          
     X                         X XX                                               X   X         XX                        X          
     X                         X XX                                                   X         XX                        X          
     X                         X XX                                                   X         XX                        X          
     X                         X XX                                                   X         XX                        X          
     X                         X XX                                                   X         XX                        X          
                               X XX                                                             XX                        X          
                                 XX                                                             XX                        X          
                                 XX                                                             XX                        X          
                                 X                                                              XX                        X          
                                 X                                                                                        X          
                                 X                                                                                        X          
                                 X                                                                                        X          
                                 X                                                                                        X          
                                                                                                                          X          
                                                                                                                          X          
                                                                                                                          X          
                                                                                                                          X          
                                                                                                                          X          
                                                                                                                          X          
 
 
                                                           CH3OH frequency
                                                            Raman Spectrum
 
     4                         3 33                                             111   1      1  11                                   
     1                         3 21                                             666   5      2  11                        3          
     2                         0 38                                             653   0      9  86                        4          
     1                         6 04                                             328   7      0  84                        4          
 
     X                         X XX                                             XXX   X      X  XX                        X          
     X                         X XX                                             XX                                                   
     X                         X XX                                             XX                                                   
     X                         X XX                                                                                                  
     X                         X XX                                                                                                  
     X                         X XX                                                                                                  
     X                         X XX                                                                                                  
     X                         X XX                                                                                                  
     X                         X XX                                                                                                  
     X                         X XX                                                                                                  
     X                         X XX                                                                                                  
     X                         X  X                                                                                                  
                                  X                                                                                                  
                                  X                                                                                                  
                                  X                                                                                                  
                                  X                                                                                                  
                                  X                                                                                                  
                                  X                                                                                                  
                                  X                                                                                                  
                                  X                                                                                                  
 
 ***** Axes restored to original set *****
 -------------------------------------------------------------------
 Center     Atomic                   Forces (Hartrees/Bohr)
 Number     Number              X              Y              Z
 -------------------------------------------------------------------
    1          6           0.000242363    0.000000000    0.000025034
    2          8          -0.000343816    0.000000000   -0.000232229
    3          1           0.000250978    0.000000000    0.000110719
    4          1          -0.000061649    0.000000000    0.000106380
    5          1          -0.000043937    0.000058818   -0.000004952
    6          1          -0.000043937   -0.000058818   -0.000004952
 -------------------------------------------------------------------
 Cartesian Forces:  Max     0.000343816 RMS     0.000135954
 Force constants in Cartesian coordinates: 
                1             2             3             4             5
      1  0.700097D+00
      2  0.000000D+00  0.645023D+00
      3 -0.185402D-01  0.000000D+00  0.581787D+00
      4 -0.125536D+00  0.000000D+00 -0.683734D-01  0.714873D+00
      5  0.000000D+00 -0.746645D-01  0.000000D+00  0.000000D+00  0.542291D-01
      6 -0.140568D-01  0.000000D+00 -0.296975D+00  0.105325D+00  0.000000D+00
      7 -0.952168D-02  0.000000D+00  0.601141D-02 -0.599145D+00  0.000000D+00
      8  0.000000D+00  0.347902D-04  0.000000D+00  0.000000D+00 -0.347449D-02
      9 -0.557881D-01  0.000000D+00 -0.701589D-02 -0.875171D-03  0.000000D+00
     10 -0.357085D+00  0.000000D+00 -0.681690D-02 -0.856898D-02  0.000000D+00
     11  0.000000D+00 -0.648998D-01  0.000000D+00  0.000000D+00  0.272844D-02
     12  0.905682D-02  0.000000D+00 -0.588978D-01 -0.520792D-01  0.000000D+00
     13 -0.103977D+00  0.807077D-01  0.438596D-01  0.918866D-02 -0.107284D-01
     14  0.807340D-01 -0.252747D+00 -0.959043D-01 -0.439145D-02  0.105907D-01
     15  0.396641D-01 -0.919959D-01 -0.109450D+00  0.800127D-02 -0.324690D-01
     16 -0.103977D+00 -0.807077D-01  0.438596D-01  0.918866D-02  0.107284D-01
     17 -0.807340D-01 -0.252747D+00  0.959043D-01  0.439145D-02  0.105907D-01
     18  0.396641D-01  0.919959D-01 -0.109450D+00  0.800127D-02  0.324690D-01
                6             7             8             9            10
      6  0.442617D+00
      7 -0.639962D-01  0.603693D+00
      8  0.000000D+00  0.000000D+00  0.330188D-02
      9 -0.572439D-01  0.574254D-01  0.000000D+00  0.700731D-01
     10 -0.767617D-02  0.262922D-02  0.000000D+00 -0.157827D-02  0.384461D+00
     11  0.000000D+00  0.000000D+00  0.509134D-03  0.000000D+00  0.000000D+00
     12 -0.103368D-01 -0.256180D-02  0.000000D+00 -0.881651D-02  0.133809D-01
     13 -0.979809D-02  0.117227D-02 -0.141325D-02  0.408068D-03 -0.107183D-01
     14 -0.384094D-02 -0.328234D-03 -0.185657D-03 -0.803096D-03  0.276017D-03
     15 -0.390310D-01  0.156058D-02 -0.150281D-03  0.150160D-02  0.134524D-02
     16 -0.979809D-02  0.117227D-02  0.141325D-02  0.408068D-03 -0.107183D-01
     17  0.384094D-02  0.328234D-03 -0.185657D-03  0.803096D-03 -0.276017D-03
     18 -0.390310D-01  0.156058D-02  0.150281D-03  0.150160D-02  0.134524D-02
               11            12            13            14            15
     11  0.572019D-01
     12  0.000000D+00  0.728415D-01
     13  0.331225D-01  0.161017D-01  0.968397D-01
     14  0.223013D-02  0.140087D-02 -0.889895D-01  0.265501D+00
     15  0.558250D-03  0.260477D-02 -0.444734D-01  0.111602D+00  0.133401D+00
     16 -0.331225D-01  0.161017D-01  0.749469D-02  0.126991D-01 -0.609776D-02
     17  0.223013D-02 -0.140087D-02 -0.126991D-01 -0.253892D-01  0.124547D-01
     18 -0.558250D-03  0.260477D-02 -0.609776D-02 -0.124547D-01  0.109732D-01
               16            17            18
     16  0.968397D-01
     17  0.889895D-01  0.265501D+00
     18 -0.444734D-01 -0.111602D+00  0.133401D+00
 Force constants in internal coordinates: 
                1             2             3             4             5
      1  0.428086D+00
      2  0.120683D-01  0.385011D+00
      3  0.184731D-01  0.434271D-02  0.365751D+00
      4  0.184731D-01  0.434271D-02  0.544947D-02  0.365751D+00
      5 -0.287480D-02 -0.230312D-02 -0.655024D-04 -0.655024D-04  0.609649D+00
      6  0.323319D-01  0.189238D-02 -0.540135D-02 -0.540135D-02  0.684910D-02
      7  0.289547D-01 -0.515815D-02 -0.898842D-03 -0.551424D-02 -0.367755D-02
      8  0.289547D-01 -0.515815D-02 -0.551424D-02 -0.898842D-03 -0.367755D-02
      9 -0.309044D-01  0.707280D-02  0.838788D-02 -0.564978D-02 -0.212267D-03
     10 -0.309044D-01  0.707280D-02 -0.564978D-02  0.838788D-02 -0.212267D-03
     11 -0.315684D-01 -0.471696D-02  0.910447D-02  0.910447D-02  0.115861D-02
     12  0.478102D-01  0.401187D-02  0.155307D-03  0.155307D-03  0.162810D-01
     13  0.000000D+00  0.000000D+00  0.646204D-02 -0.646204D-02  0.000000D+00
     14  0.689300D-03 -0.687266D-02  0.135164D-03  0.703396D-02 -0.194847D-02
     15 -0.689300D-03  0.687266D-02 -0.703396D-02 -0.135164D-03  0.194847D-02
                6             7             8             9            10
      6  0.161435D+00
      7 -0.349872D-01  0.161631D+00
      8 -0.349872D-01 -0.388166D-01  0.161631D+00
      9 -0.448644D-01 -0.426548D-01 -0.255135D-02  0.847074D-01
     10 -0.448644D-01 -0.255135D-02 -0.426548D-01  0.451525D-02  0.847074D-01
     11 -0.188009D-02 -0.471776D-01 -0.471776D-01  0.525818D-02  0.525818D-02
     12  0.249482D-01 -0.745538D-02 -0.745538D-02 -0.571789D-02 -0.571789D-02
     13  0.000000D+00  0.227304D-01 -0.227304D-01  0.246784D-01 -0.246784D-01
     14 -0.269595D-01  0.389154D-02  0.248458D-01 -0.259917D-01 -0.391815D-03
     15  0.269595D-01 -0.248458D-01 -0.389154D-02  0.391815D-03  0.259917D-01
               11            12            13            14            15
     11  0.867549D-01
     12  0.154819D-02  0.205401D+00
     13  0.000000D+00  0.000000D+00  0.299058D-01
     14  0.219309D-01 -0.447267D-02 -0.133617D-01  0.332069D-01
     15 -0.219309D-01  0.447267D-02 -0.133617D-01 -0.165591D-01  0.332069D-01
 Leave Link  716 at Sun Oct  7 17:09:36 2007, MaxMem=    6291456 cpu:       0.0
 (Enter /opt/und/gaussian/03D01/linux86-64/g03/l103.exe)

 GradGradGradGradGradGradGradGradGradGradGradGradGradGradGradGradGradGrad
 Berny optimization.
 Internal  Forces:  Max     0.000259845 RMS     0.000110421
 Search for a local minimum.
 Step number   1 out of a maximum of   2
 All quantities printed in internal units (Hartrees-Bohrs-Radians)
 Second derivative matrix not updated -- analytic derivatives used.
 The second derivative matrix:
                          R1        R2        R3        R4        R5
           R1           0.42809
           R2           0.01207   0.38501
           R3           0.01847   0.00434   0.36575
           R4           0.01847   0.00434   0.00545   0.36575
           R5          -0.00287  -0.00230  -0.00007  -0.00007   0.60965
           A1           0.03233   0.00189  -0.00540  -0.00540   0.00685
           A2           0.02895  -0.00516  -0.00090  -0.00551  -0.00368
           A3           0.02895  -0.00516  -0.00551  -0.00090  -0.00368
           A4          -0.03090   0.00707   0.00839  -0.00565  -0.00021
           A5          -0.03090   0.00707  -0.00565   0.00839  -0.00021
           A6          -0.03157  -0.00472   0.00910   0.00910   0.00116
           A7           0.04781   0.00401   0.00016   0.00016   0.01628
           D1           0.00000   0.00000   0.00646  -0.00646   0.00000
           D2           0.00069  -0.00687   0.00014   0.00703  -0.00195
           D3          -0.00069   0.00687  -0.00703  -0.00014   0.00195
                          A1        A2        A3        A4        A5
           A1           0.16144
           A2          -0.03499   0.16163
           A3          -0.03499  -0.03882   0.16163
           A4          -0.04486  -0.04265  -0.00255   0.08471
           A5          -0.04486  -0.00255  -0.04265   0.00452   0.08471
           A6          -0.00188  -0.04718  -0.04718   0.00526   0.00526
           A7           0.02495  -0.00746  -0.00746  -0.00572  -0.00572
           D1           0.00000   0.02273  -0.02273   0.02468  -0.02468
           D2          -0.02696   0.00389   0.02485  -0.02599  -0.00039
           D3           0.02696  -0.02485  -0.00389   0.00039   0.02599
                          A6        A7        D1        D2        D3
           A6           0.08675
           A7           0.00155   0.20540
           D1           0.00000   0.00000   0.02991
           D2           0.02193  -0.00447  -0.01336   0.03321
           D3          -0.02193   0.00447  -0.01336  -0.01656   0.03321
     Eigenvalues ---    0.00324   0.10623   0.10660   0.15989   0.17848
     Eigenvalues ---    0.21633   0.23492   0.36170   0.36803   0.38552
     Eigenvalues ---    0.46532   0.610591000.000001000.000001000.00000
 Angle between quadratic step and forces=  27.80 degrees.
 Linear search not attempted -- first point.
 Iteration  1 RMS(Cart)=  0.00065955 RMS(Int)=  0.00000041
 Iteration  2 RMS(Cart)=  0.00000035 RMS(Int)=  0.00000009
 Variable       Old X    -DE/DX   Delta X   Delta X   Delta X     New X
                                 (Linear)    (Quad)   (Total)
    R1        2.64521  -0.00014   0.00000  -0.00042  -0.00042   2.64479
    R2        2.04273   0.00006   0.00000   0.00018   0.00018   2.04291
    R3        2.05513  -0.00006   0.00000  -0.00016  -0.00016   2.05497
    R4        2.05513  -0.00006   0.00000  -0.00016  -0.00016   2.05497
    R5        1.78782   0.00026   0.00000   0.00042   0.00042   1.78824
    A1        1.87148  -0.00020   0.00000  -0.00101  -0.00101   1.87047
    A2        1.95492   0.00008   0.00000   0.00049   0.00049   1.95541
    A3        1.95492   0.00008   0.00000   0.00049   0.00049   1.95541
    A4        1.89180   0.00002   0.00000   0.00001   0.00001   1.89181
    A5        1.89180   0.00002   0.00000   0.00001   0.00001   1.89181
    A6        1.89688  -0.00002   0.00000  -0.00003  -0.00003   1.89685
    A7        1.90921   0.00016   0.00000   0.00100   0.00100   1.91021
    D1        3.14159   0.00000   0.00000   0.00000   0.00000   3.14159
    D2        1.06827   0.00005   0.00000   0.00034   0.00034   1.06861
    D3       -1.06827  -0.00005   0.00000  -0.00034  -0.00034  -1.06861
         Item               Value     Threshold  Converged?
 Maximum Force            0.000260     0.000450     YES
 RMS     Force            0.000110     0.000300     YES
 Maximum Displacement     0.001608     0.001800     YES
 RMS     Displacement     0.000660     0.001200     YES
 Predicted change in Energy=-3.359377D-07
 Optimization completed.
    -- Stationary point found.
                           ----------------------------
                           !   Optimized Parameters   !
                           ! (Angstroms and Degrees)  !
 --------------------------                            --------------------------
 ! Name  Definition              Value          Derivative Info.                !
 --------------------------------------------------------------------------------
 ! R1    R(1,2)                  1.3998         -DE/DX =   -0.0001              !
 ! R2    R(1,4)                  1.081          -DE/DX =    0.0001              !
 ! R3    R(1,5)                  1.0875         -DE/DX =   -0.0001              !
 ! R4    R(1,6)                  1.0875         -DE/DX =   -0.0001              !
 ! R5    R(2,3)                  0.9461         -DE/DX =    0.0003              !
 ! A1    A(2,1,4)              107.2276         -DE/DX =   -0.0002              !
 ! A2    A(2,1,5)              112.0088         -DE/DX =    0.0001              !
 ! A3    A(2,1,6)              112.0088         -DE/DX =    0.0001              !
 ! A4    A(4,1,5)              108.392          -DE/DX =    0.0                 !
 ! A5    A(4,1,6)              108.392          -DE/DX =    0.0                 !
 ! A6    A(5,1,6)              108.683          -DE/DX =    0.0                 !
 ! A7    A(1,2,3)              109.3899         -DE/DX =    0.0002              !
 ! D1    D(4,1,2,3)            180.0            -DE/DX =    0.0                 !
 ! D2    D(5,1,2,3)             61.2076         -DE/DX =    0.0                 !
 ! D3    D(6,1,2,3)            -61.2076         -DE/DX =    0.0                 !
 --------------------------------------------------------------------------------
 GradGradGradGradGradGradGradGradGradGradGradGradGradGradGradGradGradGrad

 Leave Link  103 at Sun Oct  7 17:09:37 2007, MaxMem=    6291456 cpu:       0.0
 (Enter /opt/und/gaussian/03D01/linux86-64/g03/l9999.exe)
 1\1\GINC-DCOPT225\Freq\RHF\6-31G(d)\C1H4O1\WSCHNEI1\07-Oct-2007\0\\#P 
 HF/6-31G(d) freq=analytic geom=check guess=Read\\CH3OH frequency\\0,1\
 C,-0.404865129,0.,0.0889734379\O,-0.059641735,0.,1.4455199283\H,0.8826
 685841,0.,1.5298174824\H,-1.4843969439,0.,0.0333481958\H,-0.0347539892
 ,-0.883623136,-0.4257546287\H,-0.0347539892,0.883623136,-0.4257546287\
 \Version=AM64L-G03RevD.01\State=1-A'\HF=-115.035418\RMSD=7.620e-10\RMS
 F=1.360e-04\ZeroPoint=0.05533\Thermal=0.058592\Dipole=0.4847938,0.,-0.
 5523133\DipoleDeriv=0.4406473,0.,0.1547246,0.,0.5307402,0.,0.1239811,0
 .,0.9057901,-0.4205549,0.,-0.2140215,0.,-0.6479427,0.,-0.1762953,0.,-1
 .008448,0.1758609,0.,0.0061171,0.,0.3952553,0.,0.0457125,0.,0.2903387,
 -0.1755584,0.,-0.0306784,0.,0.0515158,0.,0.0034613,0.,0.0156249,-0.010
 1974,0.0842623,0.0419291,0.0712442,-0.1647843,-0.1122314,0.0015702,-0.
 0846408,-0.1016528,-0.0101974,-0.0842623,0.0419291,-0.0712442,-0.16478
 43,0.1122314,0.0015702,0.0846408,-0.1016528\Polar=15.7454343,0.,13.491
 6223,0.9071138,0.,14.9182161\PolarDeriv=6.2468702,0.,-2.8125242,1.2902
 832,0.,-1.1000655,0.,-2.4043727,0.,0.,4.269378,0.,-0.0069588,0.,4.9770
 478,-2.022425,0.,-1.3081795,-6.3286833,0.,0.0806721,-0.3624855,0.,-1.1
 9096,0.,-0.3370477,0.,0.,1.8754404,0.,0.0983089,0.,-1.0692597,0.661515
 3,0.,7.7258062,7.5353878,0.,-0.0613824,2.7114057,0.,1.4695024,0.,1.377
 5667,0.,0.,0.5098103,0.,0.3522306,0.,0.0453977,1.4045053,0.,0.6992526,
 -9.1307949,0.,-0.1333617,-0.6197803,0.,-0.4588809,0.,-1.9132627,0.,0.,
 -0.8908143,0.,-0.4369591,0.,-0.2040577,-2.3597555,0.,0.0725418,0.83861
 01,-2.1179653,1.4632981,-1.5097116,0.1967863,0.640202,-0.6435754,1.638
 5582,-6.0449056,0.2965761,-2.8819071,-1.3242424,-0.0033108,0.3014772,-
 1.874564,1.1580799,-3.1348811,-3.5947105,0.8386101,2.1179653,1.4632981
 ,-1.5097116,-0.1967863,0.640202,0.6435754,1.6385582,6.0449056,-0.29657
 61,-2.8819071,1.3242424,-0.0033108,-0.3014772,-1.874564,1.1580799,3.13
 48811,-3.5947105\HyperPolar=-12.2673353,0.,13.4773076,0.,0.7113865,0.,
 -27.8086746,4.1781693,0.,-32.4983935\PG=CS [SG(C1H2O1),X(H2)]\NImag=0\
 \0.70009656,0.,0.64502326,-0.01854018,0.,0.58178745,-0.12553598,0.,-0.
 06837344,0.71487291,0.,-0.07466452,0.,0.,0.05422909,-0.01405677,0.,-0.
 29697478,0.10532531,0.,0.44261740,-0.00952168,0.,0.00601141,-0.5991452
 8,0.,-0.06399618,0.60369321,0.,0.00003479,0.,0.,-0.00347449,0.,0.,0.00
 330188,-0.05578811,0.,-0.00701589,-0.00087517,0.,-0.05724387,0.0574254
 1,0.,0.07007307,-0.35708481,0.,-0.00681690,-0.00856898,0.,-0.00767617,
 0.00262922,0.,-0.00157827,0.38446118,0.,-0.06489976,0.,0.,0.00272844,0
 .,0.,0.00050913,0.,0.,0.05720192,0.00905682,0.,-0.05889776,-0.05207924
 ,0.,-0.01033682,-0.00256180,0.,-0.00881651,0.01338087,0.,0.07284154,-0
 .10397704,0.08070772,0.04385956,0.00918866,-0.01072842,-0.00979809,0.0
 0117227,-0.00141325,0.00040807,-0.01071830,0.03312253,0.01610167,0.096
 83972,0.08073399,-0.25274689,-0.09590426,-0.00439145,0.01059074,-0.003
 84094,-0.00032823,-0.00018566,-0.00080310,0.00027602,0.00223013,0.0014
 0087,-0.08898946,0.26550086,0.03966411,-0.09199588,-0.10944951,0.00800
 127,-0.03246900,-0.03903096,0.00156058,-0.00015028,0.00150160,0.001345
 24,0.00055825,0.00260477,-0.04447345,0.11160217,0.13340093,-0.10397704
 ,-0.08070772,0.04385956,0.00918866,0.01072842,-0.00979809,0.00117227,0
 .00141325,0.00040807,-0.01071830,-0.03312253,0.01610167,0.00749469,0.0
 1269913,-0.00609776,0.09683972,-0.08073399,-0.25274689,0.09590426,0.00
 439145,0.01059074,0.00384094,0.00032823,-0.00018566,0.00080310,-0.0002
 7602,0.00223013,-0.00140087,-0.01269913,-0.02538919,0.01245475,0.08898
 946,0.26550086,0.03966411,0.09199588,-0.10944951,0.00800127,0.03246900
 ,-0.03903096,0.00156058,0.00015028,0.00150160,0.00134524,-0.00055825,0
 .00260477,-0.00609776,-0.01245475,0.01097318,-0.04447345,-0.11160217,0
 .13340093\\-0.00024236,0.,-0.00002503,0.00034382,0.,0.00023223,-0.0002
 5098,0.,-0.00011072,0.00006165,0.,-0.00010638,0.00004394,-0.00005882,0
 .00000495,0.00004394,0.00005882,0.00000495\\\@


 THERE ARE PEOPLE SO ADDICTED TO EXAGERATING THEY
 CAN'T TELL THE TRUTH WITHOUT LYING. -- FORTUNE COOKIE
 Job cpu time:  0 days  0 hours  0 minutes  4.0 seconds.
 File lengths (MBytes):  RWF=     13 Int=      0 D2E=      0 Chk=     10 Scr=      1
 Normal termination of Gaussian 03 at Sun Oct  7 17:09:37 2007.
