----- GAMESS execution script 'rungms' -----
This job is running on host dftfe.crc.nd.edu
under operating system Linux at Thu Feb 26 00:14:06 EST 2015
Available scratch disk space (Kbyte units) at beginning of the job is
Filesystem     1K-blocks     Used Available Use% Mounted on
/dev/sda2      147771864 22811272 117454160  17% /
GAMESS temporary binary files will be written to /tmp
GAMESS supplementary output files will be written to /tmp
Copying input file gamess.inp to your run's scratch directory...

 Distributed Data Interface kickoff program.
 Initiating 1 compute processes on 1 nodes to run the following command:
 /opt/crc/gamess/2012R1/gamess/gamess.00.x gamess 

          ******************************************************
          *         GAMESS VERSION =  1 MAY 2012 (R1)          *
          *             FROM IOWA STATE UNIVERSITY             *
          * M.W.SCHMIDT, K.K.BALDRIDGE, J.A.BOATZ, S.T.ELBERT, *
          *   M.S.GORDON, J.H.JENSEN, S.KOSEKI, N.MATSUNAGA,   *
          *          K.A.NGUYEN, S.J.SU, T.L.WINDUS,           *
          *       TOGETHER WITH M.DUPUIS, J.A.MONTGOMERY       *
          *         J.COMPUT.CHEM.  14, 1347-1363(1993)        *
          **************** 64 BIT LINUX VERSION ****************

  SINCE 1993, STUDENTS AND POSTDOCS WORKING AT IOWA STATE UNIVERSITY
  AND ALSO IN THEIR VARIOUS JOBS AFTER LEAVING ISU HAVE MADE IMPORTANT
  CONTRIBUTIONS TO THE CODE:
     IVANA ADAMOVIC, CHRISTINE AIKENS, YURI ALEXEEV, POOJA ARORA,
     ANDREY ASADCHEV, ROB BELL, PRADIPTA BANDYOPADHYAY, JONATHAN BENTZ,
     BRETT BODE, GALINA CHABAN, WEI CHEN, CHEOL HO CHOI, PAUL DAY,
     ALBERT DEFUSCO, TIM DUDLEY, DMITRI FEDOROV, GRAHAM FLETCHER,
     MARK FREITAG, KURT GLAESEMANN, DAN KEMP, GRANT MERRILL,
     NORIYUKI MINEZAWA, JONATHAN MULLIN, TAKESHI NAGATA,
     SEAN NEDD, HEATHER NETZLOFF, BOSILJKA NJEGIC, RYAN OLSON, MIKE PAK,
     JIM SHOEMAKER, LYUDMILA SLIPCHENKO, SAROM SOK, JIE SONG,
     TETSUYA TAKETSUGU, SIMON WEBB, SOOHAENG YOO, FEDERICO ZAHARIEV

  ADDITIONAL CODE HAS BEEN PROVIDED BY COLLABORATORS IN OTHER GROUPS:
     IOWA STATE UNIVERSITY:
          JOE IVANIC, LAIMUTIS BYTAUTAS, KLAUS RUEDENBERG
     UNIVERSITY OF TOKYO: KIMIHIKO HIRAO, TAKAHITO NAKAJIMA,
          TAKAO TSUNEDA, MUNEAKI KAMIYA, SUSUMU YANAGISAWA,
          KIYOSHI YAGI, MAHITO CHIBA, SEIKEN TOKURA, NAOAKI KAWAKAMI
     UNIVERSITY OF AARHUS: FRANK JENSEN
     UNIVERSITY OF IOWA: VISVALDAS KAIRYS, HUI LI
     NATIONAL INST. OF STANDARDS AND TECHNOLOGY: WALT STEVENS, DAVID GARMER
     UNIVERSITY OF PISA: BENEDETTA MENNUCCI, JACOPO TOMASI
     UNIVERSITY OF MEMPHIS: HENRY KURTZ, PRAKASHAN KORAMBATH
     UNIVERSITY OF ALBERTA: TOBY ZENG, MARIUSZ KLOBUKOWSKI
     UNIVERSITY OF NEW ENGLAND: MARK SPACKMAN
     MIE UNIVERSITY: HIROAKI UMEDA
     MICHIGAN STATE UNIVERSITY:
          KAROL KOWALSKI, MARTA WLOCH, JEFFREY GOUR, JESSE LUTZ, PIOTR PIECUCH
     UNIVERSITY OF SILESIA: MONIKA MUSIAL, STANISLAW KUCHARSKI
     FACULTES UNIVERSITAIRES NOTRE-DAME DE LA PAIX:
          OLIVIER QUINET, BENOIT CHAMPAGNE
     UNIVERSITY OF CALIFORNIA - SANTA BARBARA: BERNARD KIRTMAN
     INSTITUTE FOR MOLECULAR SCIENCE:
          KAZUYA ISHIMURA, MICHIO KATOUDA, AND SHIGERU NAGASE
     UNIVERSITY OF NOTRE DAME: DAN CHIPMAN
     KYUSHU UNIVERSITY:
          HARUYUKI NAKANO,
          FENG LONG GU, JACEK KORCHOWIEC, MARCIN MAKOWSKI, AND YURIKO AOKI,
          HIROTOSHI MORI AND EISAKU MIYOSHI
     PENNSYLVANIA STATE UNIVERSITY:
          TZVETELIN IORDANOV, CHET SWALINA, JONATHAN SKONE,
          SHARON HAMMES-SCHIFFER
     WASEDA UNIVERSITY:
          MASATO KOBAYASHI, TOMOKO AKAMA, TSUGUKI TOUMA,
          TAKESHI YOSHIKAWA, YASUHIRO IKABATA, HIROMI NAKAI
     UNIVERSITY OF NEBRASKA:
          PEIFENG SU, DEJUN SI, NANDUN THELLAMUREGE, YALI WANG, HUI LI
     UNIVERSITY OF ZURICH:
          ROBERTO PEVERATI, KIM BALDRIDGE
     N. COPERNICUS UNIVERSITY AND JACKSON STATE UNIVERSITY:
          MARIA BARYSZ

 EXECUTION OF GAMESS BEGUN Thu Feb 26 00:14:06 2015

            ECHO OF THE FIRST FEW INPUT CARDS -
 INPUT CARD> $BASIS GBASIS=PC1 $END                                                         
 INPUT CARD> $CONTRL COORD=ZMT ISPHER=1 RUNTYP=ENERGY DFTTYP=PBE $END                       
 INPUT CARD>                                                                                
 INPUT CARD> $DATA                                                                          
 INPUT CARD>Title                                                                           
 INPUT CARD>Cnv 2                                                                           
 INPUT CARD>                                                                                
 INPUT CARD>S                                                                               
 INPUT CARD>O 1 1.30                                                                        
 INPUT CARD>O 1 1.30 2 110.0                                                                
 INPUT CARD> $END                                                                           
    1000000 WORDS OF MEMORY AVAILABLE

     BASIS OPTIONS
     -------------
     GBASIS=PC1          IGAUSS=       0      POLAR=NONE    
     NDFUNC=       0     NFFUNC=       0     DIFFSP=       F
     NPFUNC=       0      DIFFS=       F     BASNAM=        


     RUN TITLE
     ---------
 Title                                                                           

 THE POINT GROUP OF THE MOLECULE IS CNV     
 THE ORDER OF THE PRINCIPAL AXIS IS     2

 YOUR FULLY SUBSTITUTED Z-MATRIX IS
 S   
 O      1   1.3000000
 O      1   1.3000000  2  110.0000

 THE MOMENTS OF INERTIA ARE (AMU-ANGSTROM**2)
 IXX=     8.891   IYY=    36.277   IZZ=    45.167

 ATOM      ATOMIC                      COORDINATES (BOHR)
           CHARGE         X                   Y                   Z
 S          16.0     0.0000000000        0.0000000000       -0.7047320087
 O           8.0    -2.0123647778        0.0000000000        0.7043409783
 O           8.0     2.0123647778        0.0000000000        0.7043409783

          INTERNUCLEAR DISTANCES (ANGS.)
          ------------------------------

                1 S          2 O          3 O     

   1 S       0.0000000    1.3000000 *  1.3000000 *
   2 O       1.3000000 *  0.0000000    2.1297953 *
   3 O       1.3000000 *  2.1297953 *  0.0000000  

  * ... LESS THAN  3.000


     ATOMIC BASIS SET
     ----------------
 THE CONTRACTED PRIMITIVE FUNCTIONS HAVE BEEN UNNORMALIZED
 THE CONTRACTED BASIS FUNCTIONS ARE NOW NORMALIZED TO UNITY

  SHELL TYPE  PRIMITIVE        EXPONENT          CONTRACTION COEFFICIENT(S)

 S         

      1   S       1         55510.0000000    0.000587229760
      1   S       2          8326.7000000    0.004532413947
      1   S       3          1895.6000000    0.023265261648
      1   S       4           536.7700000    0.089696133027
      1   S       5           174.6700000    0.254098332277
      1   S       6            62.5780000    0.438665087637
      1   S       7            23.5730000    0.314547135094
      1   S       8             5.8908000    0.032727897102

      2   S       9          8326.7000000   -0.000019755715
      2   S      10          1895.6000000   -0.000043822381
      2   S      11           536.7700000   -0.001730264906
      2   S      12           174.6700000   -0.009381263460
      2   S      13            62.5780000   -0.064050766303
      2   S      14            23.5730000   -0.082478179196
      2   S      15             5.8908000    0.478342956889
      2   S      16             2.1852000    0.626896670208

      3   S      17          1895.6000000    0.000016227260
      3   S      18           536.7700000    0.000191135619
      3   S      19           174.6700000    0.001952069674
      3   S      20            62.5780000    0.010578701087
      3   S      21            23.5730000    0.022164934551
      3   S      22             5.8908000   -0.184968323118
      3   S      23             2.1852000   -0.480920750976
      3   S      24             0.4528200    1.243822243872

      4   S      25             0.1620200    1.000000000000

      5   P      26           395.4500000    0.004642761329
      5   P      27            92.8340000    0.036023396489
      5   P      28            29.2660000    0.149058869978
      5   P      29            10.5950000    0.360033266263
      5   P      30             4.0272000    0.455756476221
      5   P      31             1.5484000    0.206167664178

      6   P      32            92.8340000    0.000169901442
      6   P      33            29.2660000   -0.002541839934
      6   P      34            10.5950000   -0.007867614595
      6   P      35             4.0272000   -0.037231009184
      6   P      36             1.5484000    0.161417246830
      6   P      37             0.4613400    0.902230419976

      7   P      38             0.1313100    1.000000000000

      8   D      39             0.5500000    1.000000000000

 O         

     15   S      40          2306.7000000    0.005424388755
     15   S      41           347.1500000    0.040474749465
     15   S      42            78.8900000    0.180219634554
     15   S      43            21.8760000    0.462370311787
     15   S      44             6.6646000    0.454888396263

     16   S      45           347.1500000   -0.000655003786
     16   S      46            78.8900000   -0.005362052952
     16   S      47            21.8760000   -0.074902158894
     16   S      48             6.6646000   -0.181442579655
     16   S      49             1.0669000    1.102006874042

     17   S      50             0.3070000    1.000000000000

     18   P      51            17.0220000    0.068979967443
     18   P      52             3.6838000    0.351985516325
     18   P      53             0.9923400    0.724036547822

     19   P      54             0.2448700    1.000000000000

     20   D      55             1.0000000    1.000000000000

 TOTAL NUMBER OF BASIS SET SHELLS             =   20
 NUMBER OF CARTESIAN GAUSSIAN BASIS FUNCTIONS =   49
 NOTE: THIS RUN WILL RESTRICT THE MO VARIATION SPACE TO SPHERICAL HARMONICS.
 THE NUMBER OF ORBITALS KEPT IN THE VARIATIONAL SPACE WILL BE PRINTED LATER.
 NUMBER OF ELECTRONS                          =   32
 CHARGE OF MOLECULE                           =    0
 SPIN MULTIPLICITY                            =    1
 NUMBER OF OCCUPIED ORBITALS (ALPHA)          =   16
 NUMBER OF OCCUPIED ORBITALS (BETA )          =   16
 TOTAL NUMBER OF ATOMS                        =    3
 THE NUCLEAR REPULSION ENERGY IS      120.1089017291

     LEBEDEV GRID-BASED DFT OPTIONS
     ------------------------------
     DFTTYP=PBE     
     NRAD  =      96     NLEB  =     302
     NRAD0 =      24     NLEB0 =     110
     SWOFF =    5.00E-03 (PURE SCF -> DFT)
     SWITCH=    3.00E-04 (COARSE -> TIGHT GRID)
     THRESH=    0.00E+00 GTHRE=    1.00E+00

 GRIMME'S EMPIRICAL DISPERSION CORRECTION= F

     $CONTRL OPTIONS
     ---------------
 SCFTYP=RHF          RUNTYP=ENERGY       EXETYP=RUN     
 MPLEVL=       0     CITYP =NONE         CCTYP =NONE         VBTYP =NONE    
 DFTTYP=PBE          TDDFT =NONE    
 MULT  =       1     ICHARG=       0     NZVAR =       0     COORD =ZMT     
 PP    =NONE         RELWFN=NONE         LOCAL =NONE         NUMGRD=       F
 ISPHER=       1     NOSYM =       0     MAXIT =      30     UNITS =ANGS    
 PLTORB=       F     MOLPLT=       F     AIMPAC=       F     FRIEND=        
 NPRINT=       7     IREST =       0     GEOM  =INPUT   
 NORMF =       0     NORMP =       0     ITOL  =      20     ICUT  =       9
 INTTYP=BEST         GRDTYP=BEST         QMTTOL= 1.0E-06

     $SYSTEM OPTIONS
     ---------------
  REPLICATED MEMORY=     1000000 WORDS (ON EVERY NODE).
 DISTRIBUTED MEMDDI=           0 MILLION WORDS IN AGGREGATE,
 MEMDDI DISTRIBUTED OVER   1 PROCESSORS IS           0 WORDS/PROCESSOR.
 TOTAL MEMORY REQUESTED ON EACH PROCESSOR=     1000000 WORDS.
 TIMLIM=      525600.00 MINUTES, OR     365.0 DAYS.
 PARALL= F  BALTYP=  DLB     KDIAG=    0  COREFL= F
 MXSEQ2=     300 MXSEQ3=     150

          ----------------
          PROPERTIES INPUT
          ----------------

     MOMENTS            FIELD           POTENTIAL          DENSITY
 IEMOM =       1   IEFLD =       0   IEPOT =       0   IEDEN =       0
 WHERE =COMASS     WHERE =NUCLEI     WHERE =NUCLEI     WHERE =NUCLEI  
 OUTPUT=BOTH       OUTPUT=BOTH       OUTPUT=BOTH       OUTPUT=BOTH    
 IEMINT=       0   IEFINT=       0                     IEDINT=       0
                                                       MORB  =       0
          EXTRAPOLATION IN EFFECT
          DIIS IN EFFECT
 ORBITAL PRINTING OPTION: NPREO=     1    49     2     1

     -------------------------------
     INTEGRAL TRANSFORMATION OPTIONS
     -------------------------------
     NWORD  =            0
     CUTOFF = 1.0E-09     MPTRAN =       0
     DIRTRF =       F     AOINTS =DUP     

          ----------------------
          INTEGRAL INPUT OPTIONS
          ----------------------
 NOPK  =       1 NORDER=       0 SCHWRZ=       F

   --- ENCODED Z MATRIX ---
 COORD  TYPE   I   J   K   L   M   N
    1      1    3   1
    2      1    2   1
    3      2    2   1   3

 THE DETERMINANT OF THE G MATRIX IS 10**(    -4)

 THE DETERMINANT OF THE G MATRIX IS 10**(    -4)
 * * * WARNING * * *
 YOUR B MATRIX HAS A SMALL DETERMINANT.
 THIS SUGGESTS YOU MAY HAVE BADLY CHOSEN COORDINATES.

     ------------------------------------------
     THE POINT GROUP IS CNV, NAXIS= 2, ORDER= 4
     ------------------------------------------

 -- VARIATIONAL SPACE WILL BE RESTRICTED TO PURE SPHERICAL HARMONICS ONLY --
 AFTER EXCLUDING CONTAMINANT COMBINATIONS FROM THE CARTESIAN GAUSSIAN BASIS
 SET, THE NUMBER OF SPHERICAL HARMONICS KEPT IN THE VARIATION SPACE IS   46

     DIMENSIONS OF THE SYMMETRY SUBSPACES ARE
 A1  =   19     A2  =    5     B1  =   14     B2  =    8

 ..... DONE SETTING UP THE RUN .....
 STEP CPU TIME =     0.01 TOTAL CPU TIME =        0.0 (    0.0 MIN)
 TOTAL WALL CLOCK TIME=        0.0 SECONDS, CPU UTILIZATION IS  50.00%

          ********************
          1 ELECTRON INTEGRALS
          ********************
 ...... END OF ONE-ELECTRON INTEGRALS ......
 STEP CPU TIME =     0.01 TOTAL CPU TIME =        0.0 (    0.0 MIN)
 TOTAL WALL CLOCK TIME=        0.0 SECONDS, CPU UTILIZATION IS 100.00%

          -------------
          GUESS OPTIONS
          -------------
          GUESS =HUCKEL            NORB  =       0          NORDER=       0
          MIX   =       F          PRTMO =       F          PUNMO =       F
          TOLZ  = 1.0E-08          TOLE  = 1.0E-05
          SYMDEN=       F          PURIFY=       F

 INITIAL GUESS ORBITALS GENERATED BY HUCKEL   ROUTINE.
 HUCKEL GUESS REQUIRES     21583 WORDS.

 STATISTICS FOR GENERATION OF SYMMETRY ORBITAL -Q- MATRIX
 NUMBER OF CARTESIAN ATOMIC ORBITALS=         49
 NUMBER OF SPHERICAL CONTAMINANTS DROPPED=     3
 NUMBER OF LINEARLY DEPENDENT MOS DROPPED=     0
 TOTAL NUMBER OF MOS IN VARIATION SPACE=      46

 SYMMETRIES FOR INITIAL GUESS ORBITALS FOLLOW.   BOTH SET(S).
    16 ORBITALS ARE OCCUPIED (    7 CORE ORBITALS).
     8=?A1      9=?B1     10=?A1     11=B2      12=A1      13=B1      14=A2  
    15=B1      16=?A1     17=B2      18=B1      19=A1      20=A1      21=A1  
    22=A1      23=A1      24=A1      25=A1      26=A1  
 ...... END OF INITIAL ORBITAL SELECTION ......
 STEP CPU TIME =     0.00 TOTAL CPU TIME =        0.0 (    0.0 MIN)
 TOTAL WALL CLOCK TIME=        0.0 SECONDS, CPU UTILIZATION IS  66.67%

                    ----------------------
                    AO INTEGRAL TECHNOLOGY
                    ----------------------
     S,P,L SHELL ROTATED AXIS INTEGRALS, REPROGRAMMED BY
        KAZUYA ISHIMURA (IMS) AND JOSE SIERRA (SYNSTAR).
     S,P,D,L SHELL ROTATED AXIS INTEGRALS PROGRAMMED BY
        KAZUYA ISHIMURA (INSTITUTE FOR MOLECULAR SCIENCE).
     S,P,D,F,G SHELL TO TOTAL QUARTET ANGULAR MOMENTUM SUM 5,
        ERIC PROGRAM BY GRAHAM FLETCHER (ELORET AND NASA ADVANCED
        SUPERCOMPUTING DIVISION, AMES RESEARCH CENTER).
     S,P,D,F,G,L SHELL GENERAL RYS QUADRATURE PROGRAMMED BY
        MICHEL DUPUIS (PACIFIC NORTHWEST NATIONAL LABORATORY).

          --------------------
          2 ELECTRON INTEGRALS
          --------------------

 THE -PK- OPTION IS OFF, THE INTEGRALS ARE NOT IN SUPERMATRIX FORM.
 STORING   15000 INTEGRALS/RECORD ON DISK, USING 12 BYTES/INTEGRAL.
 TWO ELECTRON INTEGRAL EVALUATION REQUIRES   90606 WORDS OF MEMORY.
 II,JST,KST,LST =  1  1  1  1 NREC =         1 INTLOC =    1
 II,JST,KST,LST =  2  1  1  1 NREC =         1 INTLOC =    2
 II,JST,KST,LST =  3  1  1  1 NREC =         1 INTLOC =    7
 II,JST,KST,LST =  4  1  1  1 NREC =         1 INTLOC =   22
 II,JST,KST,LST =  5  1  1  1 NREC =         1 INTLOC =   56
 II,JST,KST,LST =  6  1  1  1 NREC =         1 INTLOC =  125
 II,JST,KST,LST =  7  1  1  1 NREC =         1 INTLOC =  329
 II,JST,KST,LST =  8  1  1  1 NREC =         1 INTLOC =  776
 II,JST,KST,LST =  9  1  1  1 NREC =         1 INTLOC = 2864
 II,JST,KST,LST = 10  1  1  1 NREC =         1 INTLOC = 2864
 II,JST,KST,LST = 11  1  1  1 NREC =         1 INTLOC = 2864
 II,JST,KST,LST = 12  1  1  1 NREC =         1 INTLOC = 2864
 II,JST,KST,LST = 13  1  1  1 NREC =         1 INTLOC = 2864
 II,JST,KST,LST = 14  1  1  1 NREC =         1 INTLOC = 2864
 II,JST,KST,LST = 15  1  1  1 NREC =         1 INTLOC = 2864
 II,JST,KST,LST = 16  1  1  1 NREC =         1 INTLOC = 5132
 II,JST,KST,LST = 17  1  1  1 NREC =         1 INTLOC = 8477
 II,JST,KST,LST = 18  1  1  1 NREC =         1 INTLOC =12950
 II,JST,KST,LST = 19  1  1  1 NREC =         3 INTLOC = 1341
 II,JST,KST,LST = 20  1  1  1 NREC =         5 INTLOC = 2788
 TOTAL NUMBER OF NONZERO TWO-ELECTRON INTEGRALS =              182289
         13 INTEGRAL RECORDS WERE STORED ON DISK FILE  8.
  ...... END OF TWO-ELECTRON INTEGRALS .....
 STEP CPU TIME =     0.16 TOTAL CPU TIME =        0.2 (    0.0 MIN)
 TOTAL WALL CLOCK TIME=        0.2 SECONDS, CPU UTILIZATION IS  94.74%

          --------------------------
               R-PBE SCF CALCULATION
          --------------------------

     NUCLEAR ENERGY =       120.1089017291
     MAXIT =   30     NPUNCH=    2
     EXTRAP=T  DAMP=F  SHIFT=F  RSTRCT=F  DIIS=T  DEM=F  SOSCF=F
         DENSITY MATRIX CONVERGENCE THRESHOLD=  1.00E-05
     COARSE -> FINE DFT GRID SWITCH THRESHOLD=  3.00E-04 (SWITCH IN $DFT)
                   HF -> DFT SWITCH THRESHOLD=  5.00E-03 (SWOFF IN $DFT)
     MEMORY REQUIRED FOR RHF ITERS=    183108 WORDS.

 DFT CODE IS SWITCHING FROM THE FINE GRID NRAD= 96,  NLEB=  302
                      TO THE COARSE GRID NRAD0= 24, NLEB0=  110

     EXCHANGE FUNCTIONAL   =PBE       
     CORRELATION FUNCTIONAL=PBE       
     DFT THRESHOLD         =.460E-07
     GRID CHANGE THRESHOLD =.300E-03
 FOR AN EULER-MACLAURIN QUADRATURE USING  96 RADIAL POINTS:
 SMALLEST GAUSSIAN PRIMITIVE EXPONENT=        0.1313100000 OF TYPE -P-
 ON ATOM NUMBER   1 HAS RADIAL NORMALIZATION=  1.000000
  LARGEST GAUSSIAN PRIMITIVE EXPONENT=    55510.0000000000 OF TYPE -S-
 ON ATOM NUMBER   1 HAS RADIAL NORMALIZATION=  0.999999
 DFT IS SWITCHED OFF, PERFORMING PURE SCF UNTIL SWOFF THRESHOLD IS REACHED.

 ITER EX DEM     TOTAL ENERGY        E CHANGE  DENSITY CHANGE    DIIS ERROR
   1  0  0     -545.9440137452  -545.9440137452   0.300264053   1.311305706
          * * *   INITIATING DIIS PROCEDURE   * * *
   2  1  0     -546.9390516163    -0.9950378711   0.412877308   0.186511361
   3  2  0     -547.0203517247    -0.0813001084   0.073547076   0.134596331
   4  3  0     -547.0567063928    -0.0363546681   0.030693167   0.013187227
   5  4  0     -547.0575386862    -0.0008322934   0.017251745   0.005317749
   6  5  0     -547.0576386317    -0.0000999455   0.003676016   0.001400439
 CONVERGED TO SWOFF, SO DFT CALCULATION IS NOW SWITCHED ON.
          * * *   INITIATING DIIS PROCEDURE   * * *
   7  6  0     -548.1115304060    -1.0538917744   0.165646924   0.099280395
   8  7  0     -548.1270676583    -0.0155372522   0.123460160   0.056069903
   9  8  0     -548.1251163978     0.0019512605   0.048669493   0.071581631
  10  9  0     -548.1369960385    -0.0118796407   0.014534439   0.008841642
  11 10  0     -548.1371727713    -0.0001767328   0.000345622   0.000754142
  12 11  0     -548.1371736455    -0.0000008742   0.000313277   0.000087728
  13 12  0     -548.1371736746    -0.0000000291   0.000010657   0.000011159
 DFT CODE IS SWITCHING BACK TO THE FINE GRID
          * * *   INITIATING DIIS PROCEDURE   * * *
  14 13  0     -548.1466580201    -0.0094843455   0.016112732   0.009810249
  15 14  0     -548.1469069511    -0.0002489310   0.005983148   0.003124864
  16 15  0     -548.1468885477     0.0000184034   0.002874862   0.004553924
  17 16  0     -548.1469264816    -0.0000379339   0.000311714   0.000476960
  18 17  0     -548.1469268979    -0.0000004163   0.000089214   0.000051325
  19 18  0     -548.1469269078    -0.0000000099   0.000027772   0.000007574
  20 19  0     -548.1469269080    -0.0000000002   0.000004003   0.000001028
  21 20  0     -548.1469269080     0.0000000000   0.000000193   0.000000121

          -----------------
          DENSITY CONVERGED
          -----------------
     TIME TO FORM FOCK OPERATORS=       4.5 SECONDS (       0.2 SEC/ITER)
     TIME TO SOLVE SCF EQUATIONS=       0.0 SECONDS (       0.0 SEC/ITER)

 FINAL R-PBE ENERGY IS     -548.1469269080 AFTER  21 ITERATIONS
 DFT EXCHANGE + CORRELATION ENERGY =       -42.8383592472
 TOTAL ELECTRON NUMBER             =        32.0000274324

          ------------
          EIGENVECTORS
          ------------

                      1          2          3          4          5
                  -88.1803   -18.7653   -18.7653    -7.8208    -5.8412
                     A1         B1         A1         A1         B1  
    1  S  1  S    1.002985   0.000000  -0.000079  -0.273907   0.000000
    2  S  1  S   -0.010206   0.000000   0.000097   1.039509   0.000000
    3  S  1  S    0.002000   0.000000  -0.000833   0.042723   0.000000
    4  S  1  S   -0.000537   0.000000   0.012511  -0.010006   0.000000
    5  S  1  X    0.000000  -0.000307   0.000000   0.000000   0.995686
    6  S  1  Y    0.000000   0.000000   0.000000   0.000000   0.000000
    7  S  1  Z    0.000041   0.000000   0.000033   0.012283   0.000000
    8  S  1  X    0.000000  -0.000134   0.000000   0.000000   0.011641
    9  S  1  Y    0.000000   0.000000   0.000000   0.000000   0.000000
   10  S  1  Z    0.000251   0.000000   0.001121   0.002701   0.000000
   11  S  1  X    0.000000  -0.004432   0.000000   0.000000  -0.000161
   12  S  1  Y    0.000000   0.000000   0.000000   0.000000   0.000000
   13  S  1  Z    0.000017   0.000000   0.005153  -0.000360   0.000000
   14  S  1 XX    0.000152   0.000000  -0.000159   0.001394   0.000000
   15  S  1 YY   -0.000128   0.000000  -0.000214  -0.001004   0.000000
   16  S  1 ZZ   -0.000023   0.000000   0.000374  -0.000390   0.000000
   17  S  1 XY    0.000000   0.000000   0.000000   0.000000   0.000000
   18  S  1 XZ    0.000000   0.001348   0.000000   0.000000   0.002119
   19  S  1 YZ    0.000000   0.000000   0.000000   0.000000   0.000000
   20  O  2  S    0.000014   0.703201   0.703249  -0.000515   0.001089
   21  O  2  S    0.000006   0.026408   0.026504  -0.000056  -0.001170
   22  O  2  S   -0.000266  -0.012106  -0.015161  -0.001067   0.000652
   23  O  2  X   -0.000099   0.001421   0.000983  -0.000010  -0.001418
   24  O  2  Y    0.000000   0.000000   0.000000   0.000000   0.000000
   25  O  2  Z    0.000068  -0.001020  -0.000668  -0.000001   0.001249
   26  O  2  X   -0.000209  -0.002024  -0.003407  -0.001597   0.000406
   27  O  2  Y    0.000000   0.000000   0.000000   0.000000   0.000000
   28  O  2  Z    0.000180   0.001951   0.001501   0.001462  -0.000218
   29  O  2 XX   -0.000060  -0.000051  -0.000078   0.000271  -0.000318
   30  O  2 YY    0.000072   0.000151  -0.000035  -0.000174   0.000591
   31  O  2 ZZ   -0.000013  -0.000100   0.000113  -0.000097  -0.000274
   32  O  2 XY    0.000000   0.000000   0.000000   0.000000   0.000000
   33  O  2 XZ    0.000115  -0.000101   0.000195  -0.000320   0.000974
   34  O  2 YZ    0.000000   0.000000   0.000000   0.000000   0.000000
   35  O  3  S    0.000014  -0.703201   0.703249  -0.000515  -0.001089
   36  O  3  S    0.000006  -0.026408   0.026504  -0.000056   0.001170
   37  O  3  S   -0.000266   0.012106  -0.015161  -0.001067  -0.000652
   38  O  3  X    0.000099   0.001421  -0.000983   0.000010  -0.001418
   39  O  3  Y    0.000000   0.000000   0.000000   0.000000   0.000000
   40  O  3  Z    0.000068   0.001020  -0.000668  -0.000001  -0.001249
   41  O  3  X    0.000209  -0.002024   0.003407   0.001597   0.000406
   42  O  3  Y    0.000000   0.000000   0.000000   0.000000   0.000000
   43  O  3  Z    0.000180  -0.001951   0.001501   0.001462   0.000218
   44  O  3 XX   -0.000060   0.000051  -0.000078   0.000271   0.000318
   45  O  3 YY    0.000072  -0.000151  -0.000035  -0.000174  -0.000591
   46  O  3 ZZ   -0.000013   0.000100   0.000113  -0.000097   0.000274
   47  O  3 XY    0.000000   0.000000   0.000000   0.000000   0.000000
   48  O  3 XZ   -0.000115  -0.000101  -0.000195   0.000320   0.000974
   49  O  3 YZ    0.000000   0.000000   0.000000   0.000000   0.000000

                      6          7          8          9         10
                   -5.8392    -5.8329    -1.1435    -1.0092    -0.5483
                     B2         A1         A1         B1         A1  
    1  S  1  S    0.000000   0.003666   0.056236   0.000000   0.059659
    2  S  1  S    0.000000  -0.013860  -0.164676   0.000000  -0.163485
    3  S  1  S    0.000000   0.000542   0.316135   0.000000   0.383663
    4  S  1  S    0.000000  -0.000179   0.094872   0.000000   0.352030
    5  S  1  X    0.000000   0.000000   0.000000  -0.167603   0.000000
    6  S  1  Y    0.996510   0.000000   0.000000   0.000000   0.000000
    7  S  1  Z    0.000000   0.996201  -0.090954   0.000000   0.101727
    8  S  1  X    0.000000   0.000000   0.000000   0.309361   0.000000
    9  S  1  Y    0.010060   0.000000   0.000000   0.000000   0.000000
   10  S  1  Z    0.000000   0.010140   0.155438   0.000000  -0.218132
   11  S  1  X    0.000000   0.000000   0.000000   0.022334   0.000000
   12  S  1  Y   -0.000466   0.000000   0.000000   0.000000   0.000000
   13  S  1  Z    0.000000  -0.000317  -0.008910   0.000000  -0.123565
   14  S  1 XX    0.000000  -0.000505   0.038692   0.000000   0.015394
   15  S  1 YY    0.000000  -0.000729  -0.040090   0.000000   0.025937
   16  S  1 ZZ    0.000000   0.001233   0.001398   0.000000  -0.041331
   17  S  1 XY    0.000000   0.000000   0.000000   0.000000   0.000000
   18  S  1 XZ    0.000000   0.000000   0.000000   0.104839   0.000000
   19  S  1 YZ    0.000922   0.000000   0.000000   0.000000   0.000000
   20  O  2  S    0.000000  -0.000752  -0.121443   0.145564   0.086860
   21  O  2  S    0.000000   0.000943   0.235018  -0.282895  -0.175985
   22  O  2  S    0.000000   0.000137   0.233427  -0.288325  -0.299213
   23  O  2  X    0.000000   0.001400   0.124782  -0.099326   0.072891
   24  O  2  Y    0.000289   0.000000   0.000000   0.000000   0.000000
   25  O  2  Z    0.000000  -0.000734  -0.074850   0.089762  -0.186718
   26  O  2  X    0.000000  -0.000180   0.033546  -0.018420   0.033465
   27  O  2  Y   -0.000143   0.000000   0.000000   0.000000   0.000000
   28  O  2  Z    0.000000  -0.000186  -0.018274   0.020232  -0.087217
   29  O  2 XX    0.000000   0.000525   0.009724  -0.003475  -0.002015
   30  O  2 YY    0.000000  -0.000383  -0.007298   0.005533  -0.005290
   31  O  2 ZZ    0.000000  -0.000142  -0.002426  -0.002058   0.007305
   32  O  2 XY    0.000224   0.000000   0.000000   0.000000   0.000000
   33  O  2 XZ    0.000000  -0.000676  -0.014866   0.012096  -0.011331
   34  O  2 YZ   -0.000213   0.000000   0.000000   0.000000   0.000000
   35  O  3  S    0.000000  -0.000752  -0.121443  -0.145564   0.086860
   36  O  3  S    0.000000   0.000943   0.235018   0.282895  -0.175985
   37  O  3  S    0.000000   0.000137   0.233427   0.288325  -0.299213
   38  O  3  X    0.000000  -0.001400  -0.124782  -0.099326  -0.072891
   39  O  3  Y    0.000289   0.000000   0.000000   0.000000   0.000000
   40  O  3  Z    0.000000  -0.000734  -0.074850  -0.089762  -0.186718
   41  O  3  X    0.000000   0.000180  -0.033546  -0.018420  -0.033465
   42  O  3  Y   -0.000143   0.000000   0.000000   0.000000   0.000000
   43  O  3  Z    0.000000  -0.000186  -0.018274  -0.020232  -0.087217
   44  O  3 XX    0.000000   0.000525   0.009724   0.003475  -0.002015
   45  O  3 YY    0.000000  -0.000383  -0.007298  -0.005533  -0.005290
   46  O  3 ZZ    0.000000  -0.000142  -0.002426   0.002058   0.007305
   47  O  3 XY   -0.000224   0.000000   0.000000   0.000000   0.000000
   48  O  3 XZ    0.000000   0.000676   0.014866   0.012096   0.011331
   49  O  3 YZ   -0.000213   0.000000   0.000000   0.000000   0.000000

                     11         12         13         14         15
                   -0.4938    -0.4658    -0.4315    -0.3453    -0.2998
                     B2         A1         B1         A2         B1  
    1  S  1  S    0.000000   0.007986   0.000000   0.000000   0.000000
    2  S  1  S    0.000000   0.002041   0.000000   0.000000   0.000000
    3  S  1  S    0.000000   0.081899   0.000000   0.000000   0.000000
    4  S  1  S    0.000000  -0.156518   0.000000   0.000000   0.000000
    5  S  1  X    0.000000   0.000000  -0.161374   0.000000  -0.005131
    6  S  1  Y   -0.205425   0.000000   0.000000   0.000000   0.000000
    7  S  1  Z    0.000000  -0.159519   0.000000   0.000000   0.000000
    8  S  1  X    0.000000   0.000000   0.370630   0.000000   0.008306
    9  S  1  Y    0.468692   0.000000   0.000000   0.000000   0.000000
   10  S  1  Z    0.000000   0.361220   0.000000   0.000000   0.000000
   11  S  1  X    0.000000   0.000000   0.029360   0.000000   0.140599
   12  S  1  Y    0.190452   0.000000   0.000000   0.000000   0.000000
   13  S  1  Z    0.000000   0.081294   0.000000   0.000000   0.000000
   14  S  1 XX    0.000000  -0.087037   0.000000   0.000000   0.000000
   15  S  1 YY    0.000000  -0.004577   0.000000   0.000000   0.000000
   16  S  1 ZZ    0.000000   0.091613   0.000000   0.000000   0.000000
   17  S  1 XY    0.000000   0.000000   0.000000  -0.157928   0.000000
   18  S  1 XZ    0.000000   0.000000   0.032493   0.000000  -0.141351
   19  S  1 YZ    0.072981   0.000000   0.000000   0.000000   0.000000
   20  O  2  S    0.000000   0.057172  -0.070327   0.000000  -0.005079
   21  O  2  S    0.000000  -0.116688   0.142713   0.000000   0.008292
   22  O  2  S    0.000000  -0.200993   0.288597   0.000000   0.034639
   23  O  2  X    0.000000   0.340679  -0.230731   0.000000   0.402157
   24  O  2  Y    0.318047   0.000000   0.000000   0.462838   0.000000
   25  O  2  Z    0.000000   0.102271   0.307217   0.000000   0.263672
   26  O  2  X    0.000000   0.195977  -0.117167   0.000000   0.254882
   27  O  2  Y    0.171725   0.000000   0.000000   0.317354   0.000000
   28  O  2  Z    0.000000   0.057863   0.169817   0.000000   0.190934
   29  O  2 XX    0.000000   0.021345  -0.001152   0.000000   0.026121
   30  O  2 YY    0.000000  -0.007176   0.011018   0.000000  -0.002017
   31  O  2 ZZ    0.000000  -0.014169  -0.009866   0.000000  -0.024104
   32  O  2 XY    0.022536   0.000000   0.000000   0.020307   0.000000
   33  O  2 XZ    0.000000  -0.003458   0.017768   0.000000   0.001670
   34  O  2 YZ   -0.015118   0.000000   0.000000  -0.016043   0.000000
   35  O  3  S    0.000000   0.057172   0.070327   0.000000   0.005079
   36  O  3  S    0.000000  -0.116688  -0.142713   0.000000  -0.008292
   37  O  3  S    0.000000  -0.200993  -0.288597   0.000000  -0.034639
   38  O  3  X    0.000000  -0.340679  -0.230731   0.000000   0.402157
   39  O  3  Y    0.318047   0.000000   0.000000  -0.462838   0.000000
   40  O  3  Z    0.000000   0.102271  -0.307217   0.000000  -0.263672
   41  O  3  X    0.000000  -0.195977  -0.117167   0.000000   0.254882
   42  O  3  Y    0.171725   0.000000   0.000000  -0.317354   0.000000
   43  O  3  Z    0.000000   0.057863  -0.169817   0.000000  -0.190934
   44  O  3 XX    0.000000   0.021345   0.001152   0.000000  -0.026121
   45  O  3 YY    0.000000  -0.007176  -0.011018   0.000000   0.002017
   46  O  3 ZZ    0.000000  -0.014169   0.009866   0.000000   0.024104
   47  O  3 XY   -0.022536   0.000000   0.000000   0.020307   0.000000
   48  O  3 XZ    0.000000   0.003458   0.017768   0.000000   0.001670
   49  O  3 YZ   -0.015118   0.000000   0.000000   0.016043   0.000000

                     16         17         18         19         20
                   -0.2871    -0.1142     0.0772     0.1031     0.3349
                     A1         B2         B1         A1         B2  
    1  S  1  S    0.019504   0.000000   0.000000   0.012026   0.000000
    2  S  1  S   -0.105205   0.000000   0.000000  -0.154385   0.000000
    3  S  1  S    0.066597   0.000000   0.000000  -0.061420   0.000000
    4  S  1  S    0.657367   0.000000   0.000000   1.535161   0.000000
    5  S  1  X    0.000000   0.000000  -0.117695   0.000000   0.000000
    6  S  1  Y    0.000000  -0.205668   0.000000   0.000000   0.289660
    7  S  1  Z    0.137545   0.000000   0.000000  -0.079021   0.000000
    8  S  1  X    0.000000   0.000000   0.304179   0.000000   0.000000
    9  S  1  Y    0.000000   0.531363   0.000000   0.000000  -1.104772
   10  S  1  Z   -0.313671   0.000000   0.000000   0.231066   0.000000
   11  S  1  X    0.000000   0.000000   1.314379   0.000000   0.000000
   12  S  1  Y    0.000000   0.628050   0.000000   0.000000   1.214598
   13  S  1  Z   -0.129988   0.000000   0.000000   1.302312   0.000000
   14  S  1 XX   -0.164623   0.000000   0.000000  -0.125339   0.000000
   15  S  1 YY    0.065852   0.000000   0.000000   0.285323   0.000000
   16  S  1 ZZ    0.098771   0.000000   0.000000  -0.159984   0.000000
   17  S  1 XY    0.000000   0.000000   0.000000   0.000000   0.000000
   18  S  1 XZ    0.000000   0.000000  -0.236381   0.000000   0.000000
   19  S  1 YZ    0.000000  -0.122094   0.000000   0.000000  -0.167263
   20  O  2  S    0.007372   0.000000  -0.052599   0.066507   0.000000
   21  O  2  S   -0.015268   0.000000   0.070956  -0.084581   0.000000
   22  O  2  S   -0.068666   0.000000   0.641758  -0.873049   0.000000
   23  O  2  X   -0.034872   0.000000  -0.039629  -0.197058   0.000000
   24  O  2  Y    0.000000  -0.359651   0.000000   0.000000   0.015509
   25  O  2  Z    0.390711   0.000000  -0.264530  -0.013295   0.000000
   26  O  2  X   -0.019377   0.000000  -0.042737  -0.425756   0.000000
   27  O  2  Y    0.000000  -0.371645   0.000000   0.000000  -0.067090
   28  O  2  Z    0.292258   0.000000  -0.318316  -0.025659   0.000000
   29  O  2 XX    0.000479   0.000000  -0.000289  -0.010832   0.000000
   30  O  2 YY    0.006396   0.000000   0.000745   0.018284   0.000000
   31  O  2 ZZ   -0.006874   0.000000  -0.000456  -0.007452   0.000000
   32  O  2 XY    0.000000  -0.005245   0.000000   0.000000  -0.034665
   33  O  2 XZ    0.015317   0.000000  -0.005633   0.003851   0.000000
   34  O  2 YZ    0.000000  -0.001033   0.000000   0.000000   0.016774
   35  O  3  S    0.007372   0.000000   0.052599   0.066507   0.000000
   36  O  3  S   -0.015268   0.000000  -0.070956  -0.084581   0.000000
   37  O  3  S   -0.068666   0.000000  -0.641758  -0.873049   0.000000
   38  O  3  X    0.034872   0.000000  -0.039629   0.197058   0.000000
   39  O  3  Y    0.000000  -0.359651   0.000000   0.000000   0.015509
   40  O  3  Z    0.390711   0.000000   0.264530  -0.013295   0.000000
   41  O  3  X    0.019377   0.000000  -0.042737   0.425756   0.000000
   42  O  3  Y    0.000000  -0.371645   0.000000   0.000000  -0.067090
   43  O  3  Z    0.292258   0.000000   0.318316  -0.025659   0.000000
   44  O  3 XX    0.000479   0.000000   0.000289  -0.010832   0.000000
   45  O  3 YY    0.006396   0.000000  -0.000745   0.018284   0.000000
   46  O  3 ZZ   -0.006874   0.000000   0.000456  -0.007452   0.000000
   47  O  3 XY    0.000000   0.005245   0.000000   0.000000   0.034665
   48  O  3 XZ   -0.015317   0.000000  -0.005633  -0.003851   0.000000
   49  O  3 YZ    0.000000  -0.001033   0.000000   0.000000   0.016774

                     21         22         23         24         25
                    0.3797     0.4479     0.4633     0.5847     0.6168
                     A1         B1         A1         B2         A1  
    1  S  1  S   -0.055772   0.000000  -0.092107   0.000000  -0.053023
    2  S  1  S   -0.184557   0.000000  -0.284547   0.000000  -0.199088
    3  S  1  S   -0.839366   0.000000  -1.349848   0.000000  -0.841565
    4  S  1  S    0.979886   0.000000   2.448467   0.000000  -0.826533
    5  S  1  X    0.000000   0.232604   0.000000   0.000000   0.000000
    6  S  1  Y    0.000000   0.000000   0.000000   0.036878   0.000000
    7  S  1  Z   -0.263718   0.000000   0.079421   0.000000   0.120806
    8  S  1  X    0.000000  -0.740180   0.000000   0.000000   0.000000
    9  S  1  Y    0.000000   0.000000   0.000000  -0.176285   0.000000
   10  S  1  Z    0.993539   0.000000  -0.185411   0.000000  -0.632759
   11  S  1  X    0.000000   1.352717   0.000000   0.000000   0.000000
   12  S  1  Y    0.000000   0.000000   0.000000   0.315640   0.000000
   13  S  1  Z   -0.897469   0.000000   0.696792   0.000000  -0.273331
   14  S  1 XX   -0.257938   0.000000   0.444950   0.000000   0.028522
   15  S  1 YY    0.227013   0.000000  -0.420138   0.000000   0.557573
   16  S  1 ZZ    0.030925   0.000000  -0.024811   0.000000  -0.586095
   17  S  1 XY    0.000000   0.000000   0.000000   0.000000   0.000000
   18  S  1 XZ    0.000000   0.604546   0.000000   0.000000   0.000000
   19  S  1 YZ    0.000000   0.000000   0.000000   0.933466   0.000000
   20  O  2  S    0.008013  -0.017876   0.022502   0.000000  -0.054724
   21  O  2  S   -0.064958  -0.041661   0.008740   0.000000   0.105535
   22  O  2  S    0.049013   0.710150  -0.809675   0.000000   0.640471
   23  O  2  X   -0.076923  -0.215437   0.263061   0.000000  -0.051113
   24  O  2  Y    0.000000   0.000000   0.000000  -0.325878   0.000000
   25  O  2  Z   -0.007546   0.162589  -0.185268   0.000000   0.177952
   26  O  2  X   -0.057824   0.260362  -0.293504   0.000000   0.851047
   27  O  2  Y    0.000000   0.000000   0.000000  -0.008440   0.000000
   28  O  2  Z    0.024617  -0.153197   0.276042   0.000000  -0.444066
   29  O  2 XX    0.024650   0.007384  -0.048403   0.000000  -0.040841
   30  O  2 YY    0.006245  -0.034621   0.027885   0.000000   0.024550
   31  O  2 ZZ   -0.030895   0.027237   0.020518   0.000000   0.016291
   32  O  2 XY    0.000000   0.000000   0.000000   0.042805   0.000000
   33  O  2 XZ    0.009202  -0.054729   0.052114   0.000000  -0.011947
   34  O  2 YZ    0.000000   0.000000   0.000000   0.024197   0.000000
   35  O  3  S    0.008013   0.017876   0.022502   0.000000  -0.054724
   36  O  3  S   -0.064958   0.041661   0.008740   0.000000   0.105535
   37  O  3  S    0.049013  -0.710150  -0.809675   0.000000   0.640471
   38  O  3  X    0.076923  -0.215437  -0.263061   0.000000   0.051113
   39  O  3  Y    0.000000   0.000000   0.000000  -0.325878   0.000000
   40  O  3  Z   -0.007546  -0.162589  -0.185268   0.000000   0.177952
   41  O  3  X    0.057824   0.260362   0.293504   0.000000  -0.851047
   42  O  3  Y    0.000000   0.000000   0.000000  -0.008440   0.000000
   43  O  3  Z    0.024617   0.153197   0.276042   0.000000  -0.444066
   44  O  3 XX    0.024650  -0.007384  -0.048403   0.000000  -0.040841
   45  O  3 YY    0.006245   0.034621   0.027885   0.000000   0.024550
   46  O  3 ZZ   -0.030895  -0.027237   0.020518   0.000000   0.016291
   47  O  3 XY    0.000000   0.000000   0.000000  -0.042805   0.000000
   48  O  3 XZ   -0.009202  -0.054729  -0.052114   0.000000   0.011947
   49  O  3 YZ    0.000000   0.000000   0.000000   0.024197   0.000000

                     26         27         28         29         30
                    0.6234     0.6518     0.6872     0.7550     0.7704
                     A2         B1         A1         A1         A2  
    1  S  1  S    0.000000   0.000000  -0.028249   0.023809   0.000000
    2  S  1  S    0.000000   0.000000  -0.173153   0.126855   0.000000
    3  S  1  S    0.000000   0.000000  -0.533223   0.421967   0.000000
    4  S  1  S    0.000000   0.000000  -0.309330  -0.247293   0.000000
    5  S  1  X    0.000000  -0.210671   0.000000   0.000000   0.000000
    6  S  1  Y    0.000000   0.000000   0.000000   0.000000   0.000000
    7  S  1  Z    0.000000   0.000000   0.064235  -0.060635   0.000000
    8  S  1  X    0.000000   1.152660   0.000000   0.000000   0.000000
    9  S  1  Y    0.000000   0.000000   0.000000   0.000000   0.000000
   10  S  1  Z    0.000000   0.000000  -0.415595   0.245785   0.000000
   11  S  1  X    0.000000  -0.054049   0.000000   0.000000   0.000000
   12  S  1  Y    0.000000   0.000000   0.000000   0.000000   0.000000
   13  S  1  Z    0.000000   0.000000   0.183422  -0.816173   0.000000
   14  S  1 XX    0.000000   0.000000  -0.472552   0.353005   0.000000
   15  S  1 YY    0.000000   0.000000  -0.210191   0.148417   0.000000
   16  S  1 ZZ    0.000000   0.000000   0.682743  -0.501423   0.000000
   17  S  1 XY    0.999036   0.000000   0.000000   0.000000   0.279132
   18  S  1 XZ    0.000000   0.288278   0.000000   0.000000   0.000000
   19  S  1 YZ    0.000000   0.000000   0.000000   0.000000   0.000000
   20  O  2  S    0.000000  -0.057981  -0.017429   0.004696   0.000000
   21  O  2  S    0.000000   0.113795  -0.039428   0.005702   0.000000
   22  O  2  S    0.000000   0.577032   0.297940   0.090200   0.000000
   23  O  2  X    0.000000  -0.140355  -0.389253  -0.290241   0.000000
   24  O  2  Y    0.293949   0.000000   0.000000   0.000000  -0.594662
   25  O  2  Z    0.000000   0.198473  -0.250657  -0.407036   0.000000
   26  O  2  X    0.000000   0.955158   0.555291   0.307101   0.000000
   27  O  2  Y    0.127169   0.000000   0.000000   0.000000   0.854020
   28  O  2  Z    0.000000  -0.737280  -0.282125   0.868621   0.000000
   29  O  2 XX    0.000000   0.006200   0.033641  -0.008133   0.000000
   30  O  2 YY    0.000000   0.007374  -0.012077  -0.014531   0.000000
   31  O  2 ZZ    0.000000  -0.013574  -0.021563   0.022664   0.000000
   32  O  2 XY   -0.021259   0.000000   0.000000   0.000000  -0.038904
   33  O  2 XZ    0.000000   0.010323   0.045734  -0.023142   0.000000
   34  O  2 YZ    0.054792   0.000000   0.000000   0.000000   0.017942
   35  O  3  S    0.000000   0.057981  -0.017429   0.004696   0.000000
   36  O  3  S    0.000000  -0.113795  -0.039428   0.005702   0.000000
   37  O  3  S    0.000000  -0.577032   0.297940   0.090200   0.000000
   38  O  3  X    0.000000  -0.140355   0.389253   0.290241   0.000000
   39  O  3  Y   -0.293949   0.000000   0.000000   0.000000   0.594662
   40  O  3  Z    0.000000  -0.198473  -0.250657  -0.407036   0.000000
   41  O  3  X    0.000000   0.955158  -0.555291  -0.307101   0.000000
   42  O  3  Y   -0.127169   0.000000   0.000000   0.000000  -0.854020
   43  O  3  Z    0.000000   0.737280  -0.282125   0.868621   0.000000
   44  O  3 XX    0.000000  -0.006200   0.033641  -0.008133   0.000000
   45  O  3 YY    0.000000  -0.007374  -0.012077  -0.014531   0.000000
   46  O  3 ZZ    0.000000   0.013574  -0.021563   0.022664   0.000000
   47  O  3 XY   -0.021259   0.000000   0.000000   0.000000  -0.038904
   48  O  3 XZ    0.000000   0.010323  -0.045734   0.023142   0.000000
   49  O  3 YZ   -0.054792   0.000000   0.000000   0.000000  -0.017942

                     31         32         33         34         35
                    0.8299     0.9116     1.0967     1.3933     1.6543
                     B2         B1         A1         B1         B1  
    1  S  1  S    0.000000   0.000000   0.015372   0.000000   0.000000
    2  S  1  S    0.000000   0.000000  -0.179721   0.000000   0.000000
    3  S  1  S    0.000000   0.000000  -0.049037   0.000000   0.000000
    4  S  1  S    0.000000   0.000000   0.590950   0.000000   0.000000
    5  S  1  X    0.000000   0.060655   0.000000  -0.187042   0.044569
    6  S  1  Y   -0.031727   0.000000   0.000000   0.000000   0.000000
    7  S  1  Z    0.000000   0.000000  -0.145629   0.000000   0.000000
    8  S  1  X    0.000000  -0.259606   0.000000   0.762233   0.107952
    9  S  1  Y    0.079112   0.000000   0.000000   0.000000   0.000000
   10  S  1  Z    0.000000   0.000000   0.498681   0.000000   0.000000
   11  S  1  X    0.000000   0.757505   0.000000   0.837763   0.826736
   12  S  1  Y   -0.893532   0.000000   0.000000   0.000000   0.000000
   13  S  1  Z    0.000000   0.000000   0.113581   0.000000   0.000000
   14  S  1 XX    0.000000   0.000000   0.846168   0.000000   0.000000
   15  S  1 YY    0.000000   0.000000  -0.767375   0.000000   0.000000
   16  S  1 ZZ    0.000000   0.000000  -0.078793   0.000000   0.000000
   17  S  1 XY    0.000000   0.000000   0.000000   0.000000   0.000000
   18  S  1 XZ    0.000000  -0.091515   0.000000   1.095837  -0.249674
   19  S  1 YZ   -0.394751   0.000000   0.000000   0.000000   0.000000
   20  O  2  S    0.000000   0.002435   0.037087  -0.028930   0.014522
   21  O  2  S    0.000000   0.003944  -0.337717  -0.183488  -1.241932
   22  O  2  S    0.000000   0.113388  -0.274529   1.248152   1.698347
   23  O  2  X    0.000000   0.321284  -0.442931   0.581263  -0.150979
   24  O  2  Y   -0.568368   0.000000   0.000000   0.000000   0.000000
   25  O  2  Z    0.000000   0.528172   0.428441  -0.303613   0.128807
   26  O  2  X    0.000000  -0.734871   0.138515  -0.022191   0.336822
   27  O  2  Y    1.018216   0.000000   0.000000   0.000000   0.000000
   28  O  2  Z    0.000000  -0.740456  -0.113705  -0.172085  -0.398254
   29  O  2 XX    0.000000   0.067576   0.007359  -0.041656  -0.116570
   30  O  2 YY    0.000000  -0.032127  -0.064161  -0.015659   0.201943
   31  O  2 ZZ    0.000000  -0.035449   0.056802   0.057316  -0.085372
   32  O  2 XY   -0.035054   0.000000   0.000000   0.000000   0.000000
   33  O  2 XZ    0.000000   0.018733   0.025989   0.125800   0.030493
   34  O  2 YZ    0.021859   0.000000   0.000000   0.000000   0.000000
   35  O  3  S    0.000000  -0.002435   0.037087   0.028930  -0.014522
   36  O  3  S    0.000000  -0.003944  -0.337717   0.183488   1.241932
   37  O  3  S    0.000000  -0.113388  -0.274529  -1.248152  -1.698347
   38  O  3  X    0.000000   0.321284   0.442931   0.581263  -0.150979
   39  O  3  Y   -0.568368   0.000000   0.000000   0.000000   0.000000
   40  O  3  Z    0.000000  -0.528172   0.428441   0.303613  -0.128807
   41  O  3  X    0.000000  -0.734871  -0.138515  -0.022191   0.336822
   42  O  3  Y    1.018216   0.000000   0.000000   0.000000   0.000000
   43  O  3  Z    0.000000   0.740456  -0.113705   0.172085   0.398254
   44  O  3 XX    0.000000  -0.067576   0.007359   0.041656   0.116570
   45  O  3 YY    0.000000   0.032127  -0.064161   0.015659  -0.201943
   46  O  3 ZZ    0.000000   0.035449   0.056802  -0.057316   0.085372
   47  O  3 XY    0.035054   0.000000   0.000000   0.000000   0.000000
   48  O  3 XZ    0.000000   0.018733  -0.025989   0.125800   0.030493
   49  O  3 YZ    0.021859   0.000000   0.000000   0.000000   0.000000

                     36         37         38         39         40
                    1.7127     2.0553     2.0573     2.1050     2.1196
                     A1         A2         B2         A1         B1  
    1  S  1  S   -0.013348   0.000000   0.000000   0.003212   0.000000
    2  S  1  S   -0.144052   0.000000   0.000000  -0.007398   0.000000
    3  S  1  S   -0.310411   0.000000   0.000000   0.025661   0.000000
    4  S  1  S    2.843743   0.000000   0.000000  -0.302389   0.000000
    5  S  1  X    0.000000   0.000000   0.000000   0.000000  -0.012735
    6  S  1  Y    0.000000   0.000000  -0.024863   0.000000   0.000000
    7  S  1  Z   -0.053434   0.000000   0.000000  -0.010579   0.000000
    8  S  1  X    0.000000   0.000000   0.000000   0.000000  -0.039601
    9  S  1  Y    0.000000   0.000000   0.107508   0.000000   0.000000
   10  S  1  Z    0.426411   0.000000   0.000000   0.003891   0.000000
   11  S  1  X    0.000000   0.000000   0.000000   0.000000  -0.029794
   12  S  1  Y    0.000000   0.000000   0.026210   0.000000   0.000000
   13  S  1  Z    1.152564   0.000000   0.000000  -0.142965   0.000000
   14  S  1 XX    0.235379   0.000000   0.000000   0.092924   0.000000
   15  S  1 YY   -0.377281   0.000000   0.000000  -0.210064   0.000000
   16  S  1 ZZ    0.141902   0.000000   0.000000   0.117140   0.000000
   17  S  1 XY    0.000000   0.033667   0.000000   0.000000   0.000000
   18  S  1 XZ    0.000000   0.000000   0.000000   0.000000   0.337126
   19  S  1 YZ    0.000000   0.000000  -0.066960   0.000000   0.000000
   20  O  2  S    0.012240   0.000000   0.000000   0.001969  -0.003921
   21  O  2  S    1.243537   0.000000   0.000000  -0.227869   0.302373
   22  O  2  S   -2.608992   0.000000   0.000000   0.315585  -0.254190
   23  O  2  X   -0.117827   0.000000   0.000000  -0.071223   0.131667
   24  O  2  Y    0.000000  -0.038322   0.039516   0.000000   0.000000
   25  O  2  Z    0.094662   0.000000   0.000000   0.020214  -0.073186
   26  O  2  X   -0.609933   0.000000   0.000000   0.122331  -0.125292
   27  O  2  Y    0.000000   0.062494  -0.060711   0.000000   0.000000
   28  O  2  Z    0.201294   0.000000   0.000000  -0.027210   0.086494
   29  O  2 XX    0.071655   0.000000   0.000000  -0.237295  -0.023079
   30  O  2 YY   -0.013485   0.000000   0.000000   0.620458   0.573317
   31  O  2 ZZ   -0.058171   0.000000   0.000000  -0.383163  -0.550238
   32  O  2 XY    0.000000   0.555046   0.231187   0.000000   0.000000
   33  O  2 XZ   -0.176174   0.000000   0.000000  -0.321195  -0.240803
   34  O  2 YZ    0.000000   0.440939   0.670199   0.000000   0.000000
   35  O  3  S    0.012240   0.000000   0.000000   0.001969   0.003921
   36  O  3  S    1.243537   0.000000   0.000000  -0.227869  -0.302373
   37  O  3  S   -2.608992   0.000000   0.000000   0.315585   0.254190
   38  O  3  X    0.117827   0.000000   0.000000   0.071223   0.131667
   39  O  3  Y    0.000000   0.038322   0.039516   0.000000   0.000000
   40  O  3  Z    0.094662   0.000000   0.000000   0.020214   0.073186
   41  O  3  X    0.609933   0.000000   0.000000  -0.122331  -0.125292
   42  O  3  Y    0.000000  -0.062494  -0.060711   0.000000   0.000000
   43  O  3  Z    0.201294   0.000000   0.000000  -0.027210  -0.086494
   44  O  3 XX    0.071655   0.000000   0.000000  -0.237295   0.023079
   45  O  3 YY   -0.013485   0.000000   0.000000   0.620458  -0.573317
   46  O  3 ZZ   -0.058171   0.000000   0.000000  -0.383163   0.550238
   47  O  3 XY    0.000000   0.555046  -0.231187   0.000000   0.000000
   48  O  3 XZ    0.176174   0.000000   0.000000   0.321195  -0.240803
   49  O  3 YZ    0.000000  -0.440939   0.670199   0.000000   0.000000

                     41         42         43         44         45
                    2.1981     2.3976     2.4064     2.6774     2.9132
                     B1         A2         B2         A1         A1  
    1  S  1  S    0.000000   0.000000   0.000000  -0.004950  -0.065697
    2  S  1  S    0.000000   0.000000   0.000000  -0.028032  -0.304321
    3  S  1  S    0.000000   0.000000   0.000000  -0.093514  -1.246835
    4  S  1  S    0.000000   0.000000   0.000000   0.096036  -1.422210
    5  S  1  X    0.046540   0.000000   0.000000   0.000000   0.000000
    6  S  1  Y    0.000000   0.000000   0.092943   0.000000   0.000000
    7  S  1  Z    0.000000   0.000000   0.000000  -0.077415   0.130920
    8  S  1  X   -0.146905   0.000000   0.000000   0.000000   0.000000
    9  S  1  Y    0.000000   0.000000  -0.397182   0.000000   0.000000
   10  S  1  Z    0.000000   0.000000   0.000000   0.315881  -1.106988
   11  S  1  X   -0.064735   0.000000   0.000000   0.000000   0.000000
   12  S  1  Y    0.000000   0.000000  -0.179066   0.000000   0.000000
   13  S  1  Z    0.000000   0.000000   0.000000   0.239895  -0.314802
   14  S  1 XX    0.000000   0.000000   0.000000  -0.696039  -0.472397
   15  S  1 YY    0.000000   0.000000   0.000000   0.002966   0.471045
   16  S  1 ZZ    0.000000   0.000000   0.000000   0.693073   0.001352
   17  S  1 XY    0.000000   0.632735   0.000000   0.000000   0.000000
   18  S  1 XZ    0.188841   0.000000   0.000000   0.000000   0.000000
   19  S  1 YZ    0.000000   0.000000  -0.475161   0.000000   0.000000
   20  O  2  S    0.002198   0.000000   0.000000   0.002987  -0.043823
   21  O  2  S   -0.098352   0.000000   0.000000   0.047885  -0.580114
   22  O  2  S    0.138297   0.000000   0.000000  -0.078180   1.754299
   23  O  2  X   -0.091226   0.000000   0.000000  -0.018194   0.152043
   24  O  2  Y    0.000000  -0.017020  -0.034602   0.000000   0.000000
   25  O  2  Z   -0.087974   0.000000   0.000000  -0.048247  -0.102738
   26  O  2  X    0.238702   0.000000   0.000000  -0.136615   0.757625
   27  O  2  Y    0.000000   0.229701   0.263477   0.000000   0.000000
   28  O  2  Z    0.158361   0.000000   0.000000  -0.255470  -0.528978
   29  O  2 XX    0.637761   0.000000   0.000000  -0.662245   0.458714
   30  O  2 YY   -0.169932   0.000000   0.000000  -0.035550  -0.452602
   31  O  2 ZZ   -0.467829   0.000000   0.000000   0.697795  -0.006111
   32  O  2 XY    0.000000   0.503585   0.733263   0.000000   0.000000
   33  O  2 XZ    0.317913   0.000000   0.000000  -0.297554  -0.722656
   34  O  2 YZ    0.000000  -0.603225  -0.268474   0.000000   0.000000
   35  O  3  S   -0.002198   0.000000   0.000000   0.002987  -0.043823
   36  O  3  S    0.098352   0.000000   0.000000   0.047885  -0.580114
   37  O  3  S   -0.138297   0.000000   0.000000  -0.078180   1.754299
   38  O  3  X   -0.091226   0.000000   0.000000   0.018194  -0.152043
   39  O  3  Y    0.000000   0.017020  -0.034602   0.000000   0.000000
   40  O  3  Z    0.087974   0.000000   0.000000  -0.048247  -0.102738
   41  O  3  X    0.238702   0.000000   0.000000   0.136615  -0.757625
   42  O  3  Y    0.000000  -0.229701   0.263477   0.000000   0.000000
   43  O  3  Z   -0.158361   0.000000   0.000000  -0.255470  -0.528978
   44  O  3 XX   -0.637761   0.000000   0.000000  -0.662245   0.458714
   45  O  3 YY    0.169932   0.000000   0.000000  -0.035550  -0.452602
   46  O  3 ZZ    0.467829   0.000000   0.000000   0.697795  -0.006111
   47  O  3 XY    0.000000   0.503585  -0.733263   0.000000   0.000000
   48  O  3 XZ    0.317913   0.000000   0.000000   0.297554   0.722656
   49  O  3 YZ    0.000000   0.603225  -0.268474   0.000000   0.000000

                     46
                    2.9503
                     B1  
    1  S  1  S    0.000000
    2  S  1  S    0.000000
    3  S  1  S    0.000000
    4  S  1  S    0.000000
    5  S  1  X   -0.219897
    6  S  1  Y    0.000000
    7  S  1  Z    0.000000
    8  S  1  X    1.742472
    9  S  1  Y    0.000000
   10  S  1  Z    0.000000
   11  S  1  X    0.426447
   12  S  1  Y    0.000000
   13  S  1  Z    0.000000
   14  S  1 XX    0.000000
   15  S  1 YY    0.000000
   16  S  1 ZZ    0.000000
   17  S  1 XY    0.000000
   18  S  1 XZ    0.896638
   19  S  1 YZ    0.000000
   20  O  2  S   -0.044808
   21  O  2  S   -0.492092
   22  O  2  S    1.765670
   23  O  2  X    0.239704
   24  O  2  Y    0.000000
   25  O  2  Z   -0.171650
   26  O  2  X    0.802294
   27  O  2  Y    0.000000
   28  O  2  Z   -0.548080
   29  O  2 XX    0.465805
   30  O  2 YY   -0.441384
   31  O  2 ZZ   -0.024421
   32  O  2 XY    0.000000
   33  O  2 XZ   -0.771251
   34  O  2 YZ    0.000000
   35  O  3  S    0.044808
   36  O  3  S    0.492092
   37  O  3  S   -1.765670
   38  O  3  X    0.239704
   39  O  3  Y    0.000000
   40  O  3  Z    0.171650
   41  O  3  X    0.802294
   42  O  3  Y    0.000000
   43  O  3  Z    0.548080
   44  O  3 XX   -0.465805
   45  O  3 YY    0.441384
   46  O  3 ZZ    0.024421
   47  O  3 XY    0.000000
   48  O  3 XZ   -0.771251
   49  O  3 YZ    0.000000
 ...... END OF RHF CALCULATION ......
 STEP CPU TIME =     4.54 TOTAL CPU TIME =        4.7 (    0.1 MIN)
 TOTAL WALL CLOCK TIME=        4.7 SECONDS, CPU UTILIZATION IS  99.79%

     ---------------------------------------------------------------------
     PROPERTIES FOR THE PBE      DFT FUNCTIONAL (RHF  TYPE) DENSITY MATRIX
     ---------------------------------------------------------------------

          -----------------
          ENERGY COMPONENTS
          -----------------

         WAVEFUNCTION NORMALIZATION =       1.0000000000

                ONE ELECTRON ENERGY =    -993.9683098816
                TWO ELECTRON ENERGY =     325.7124812445
           NUCLEAR REPULSION ENERGY =     120.1089017291
                                      ------------------
                       TOTAL ENERGY =    -548.1469269080

 ELECTRON-ELECTRON POTENTIAL ENERGY =     325.7124812445
  NUCLEUS-ELECTRON POTENTIAL ENERGY =   -1543.1606169086
   NUCLEUS-NUCLEUS POTENTIAL ENERGY =     120.1089017291
                                      ------------------
             TOTAL POTENTIAL ENERGY =   -1097.3392339350
               TOTAL KINETIC ENERGY =     549.1923070270
                 VIRIAL RATIO (V/T) =       1.9980965135

          ---------------------------------------
          MULLIKEN AND LOWDIN POPULATION ANALYSES
          ---------------------------------------

     ATOMIC MULLIKEN POPULATION IN EACH MOLECULAR ORBITAL

                      1          2          3          4          5

                  2.000000   2.000000   2.000000   2.000000   2.000000

    1             2.000052   0.000633   0.002475   2.002389   1.999510
    2            -0.000026   0.999684   0.998762  -0.001194   0.000245
    3            -0.000026   0.999684   0.998762  -0.001194   0.000245

                      6          7          8          9         10

                  2.000000   2.000000   2.000000   2.000000   2.000000

    1             1.999986   1.999622   0.724553   0.534678   1.028552
    2             0.000007   0.000189   0.637723   0.732661   0.485724
    3             0.000007   0.000189   0.637723   0.732661   0.485724

                     11         12         13         14         15

                  2.000000   2.000000   2.000000   2.000000   2.000000

    1             0.958861   0.511741   0.289021   0.157518   0.206493
    2             0.520569   0.744130   0.855489   0.921241   0.896753
    3             0.520569   0.744130   0.855489   0.921241   0.896753

                     16

                  2.000000

    1             0.909730
    2             0.545135
    3             0.545135

               ----- POPULATIONS IN EACH AO -----
                             MULLIKEN      LOWDIN
              1  S  1  S      2.00025     1.99575
              2  S  1  S      2.01051     1.94342
              3  S  1  S      0.91534     0.53945
              4  S  1  S      0.89364     0.55687
              5  S  1  X      1.99660     1.95693
              6  S  1  Y      1.99582     1.95434
              7  S  1  Z      1.99723     1.96450
              8  S  1  X      0.70982     0.61540
              9  S  1  Y      0.65455     0.59437
             10  S  1  Z      0.87235     0.83498
             11  S  1  X      0.12438     0.25876
             12  S  1  Y      0.27594     0.34115
             13  S  1  Z      0.22120     0.37658
             14  S  1 XX      0.12523     0.32999
             15  S  1 YY      0.14337     0.23590
             16  S  1 ZZ      0.15752     0.30781
             17  S  1 XY      0.19954     0.19606
             18  S  1 XZ      0.03254     0.24004
             19  S  1 YZ      0.00000     0.03201
             20  O  2  S      1.99786     1.98003
             21  O  2  S      0.81216     0.61953
             22  O  2  S      0.95974     0.51930
             23  O  2  X      1.04560     1.00660
             24  O  2  Y      0.88943     0.84443
             25  O  2  Z      1.05572     1.02693
             26  O  2  X      0.46187     0.54925
             27  O  2  Y      0.54138     0.58166
             28  O  2  Z      0.54262     0.61841
             29  O  2 XX      0.00594     0.20210
             30  O  2 YY      0.00531     0.19043
             31  O  2 ZZ      0.00719     0.19182
             32  O  2 XY      0.00846     0.01013
             33  O  2 XZ      0.00381     0.01741
             34  O  2 YZ      0.00000     0.00482
             35  O  3  S      1.99786     1.98003
             36  O  3  S      0.81216     0.61953
             37  O  3  S      0.95974     0.51930
             38  O  3  X      1.04560     1.00660
             39  O  3  Y      0.88943     0.84443
             40  O  3  Z      1.05572     1.02693
             41  O  3  X      0.46187     0.54925
             42  O  3  Y      0.54138     0.58166
             43  O  3  Z      0.54262     0.61841
             44  O  3 XX      0.00594     0.20210
             45  O  3 YY      0.00531     0.19043
             46  O  3 ZZ      0.00719     0.19182
             47  O  3 XY      0.00846     0.01013
             48  O  3 XZ      0.00381     0.01741
             49  O  3 YZ      0.00000     0.00482

          ----- MULLIKEN ATOMIC OVERLAP POPULATIONS -----
          (OFF-DIAGONAL ELEMENTS NEED TO BE MULTIPLIED BY 2)

             1           2           3

    1   14.4498532
    2    0.4379809   7.9939001
    3    0.4379809  -0.0947885   7.9939001

          TOTAL MULLIKEN AND LOWDIN ATOMIC POPULATIONS
       ATOM         MULL.POP.    CHARGE          LOW.POP.     CHARGE
    1 S            15.325815    0.674185        15.274306    0.725694
    2 O             8.337092   -0.337092         8.362847   -0.362847
    3 O             8.337092   -0.337092         8.362847   -0.362847

          MULLIKEN SPHERICAL HARMONIC POPULATIONS
       ATOM           S       P       D      F      G      H      I    TOTAL
    1 S             5.82    8.85    0.66   0.00   0.00   0.00   0.00   15.33
    2 O             3.77    4.54    0.03   0.00   0.00   0.00   0.00    8.34
    3 O             3.77    4.54    0.03   0.00   0.00   0.00   0.00    8.34

          -------------------------------
          BOND ORDER AND VALENCE ANALYSIS     BOND ORDER THRESHOLD=0.050
          -------------------------------

                   BOND                       BOND                       BOND
  ATOM PAIR DIST  ORDER      ATOM PAIR DIST  ORDER      ATOM PAIR DIST  ORDER
    1   2  1.300  1.986        1   3  1.300  1.986        2   3  2.130  0.140

                       TOTAL       BONDED        FREE
      ATOM            VALENCE     VALENCE     VALENCE
    1 S                 3.971       3.971       0.000
    2 O                 2.126       2.126       0.000
    3 O                 2.126       2.126       0.000

          ---------------------
          ELECTROSTATIC MOMENTS
          ---------------------

 POINT   1           X           Y           Z (BOHR)    CHARGE
                 0.000000    0.000000    0.000000        0.00 (A.U.)
         DX          DY          DZ         /D/  (DEBYE)
     0.000000    0.000000   -1.744927    1.744927
 ...... END OF PROPERTY EVALUATION ......
 STEP CPU TIME =     0.01 TOTAL CPU TIME =        4.7 (    0.1 MIN)
 TOTAL WALL CLOCK TIME=        4.7 SECONDS, CPU UTILIZATION IS 100.00%
               580000  WORDS OF DYNAMIC MEMORY USED
 EXECUTION OF GAMESS TERMINATED NORMALLY Thu Feb 26 00:14:10 2015
 DDI: 263624 bytes (0.3 MB / 0 MWords) used by master data server.

 ----------------------------------------
 CPU timing information for all processes
 ========================================
 0: 4.712 + 0.28 = 4.741
 ----------------------------------------
 ddikick.x: exited gracefully.
----- accounting info -----
Files used on the master node dftfe.crc.nd.edu were:
-rw-r--r-- 1 pmehta1 campus   37475 Feb 26 00:14 /tmp/gamess.dat
-rw-r--r-- 1 pmehta1 campus     142 Feb 26 00:14 /tmp/gamess.F05
-rw-r--r-- 1 pmehta1 campus 2340312 Feb 26 00:14 /tmp/gamess.F08
-rw-r--r-- 1 pmehta1 campus 1220440 Feb 26 00:14 /tmp/gamess.F10
Thu Feb 26 00:14:13 EST 2015
0.254u 0.166s 0:08.18 5.0%	0+0k 0+104io 0pf+0w
