   1   1   0   0
  0.1189785E+02  0.2562484E-09  0.2562484E-09  0.2562484E-09  0.5000000E-15
 1.00000000000000005E-4
  CAR 
 Pt, FCC                                 
     49.24903853     -6.88806212  301      3.73857542      1.00000000
     -6.888  0.0000E+00  0.0000E+00
     -6.701  0.0000E+00  0.0000E+00
     -6.514  0.0000E+00  0.0000E+00
     -6.327  0.0000E+00  0.0000E+00
     -6.140  0.0000E+00  0.0000E+00
     -5.952  0.0000E+00  0.0000E+00
     -5.765  0.0000E+00  0.0000E+00
     -5.578  0.0000E+00  0.0000E+00
     -5.391  0.0000E+00  0.0000E+00
     -5.204  0.0000E+00  0.0000E+00
     -5.017  0.0000E+00  0.0000E+00
     -4.830  0.3230E-13  0.6044E-14
     -4.643  0.1591E-06  0.2977E-07
     -4.455  0.9850E-03  0.1844E-03
     -4.268  0.1724E-01  0.3410E-02
     -4.081  0.3979E-01  0.1086E-01
     -3.894  0.4588E-01  0.1944E-01
     -3.707  0.5356E-01  0.2946E-01
     -3.520  0.7446E-01  0.4340E-01
     -3.333  0.1031E+00  0.6269E-01
     -3.146  0.6593E-01  0.7503E-01
     -2.958  0.7198E-01  0.8850E-01
     -2.771  0.1219E+00  0.1113E+00
     -2.584  0.1546E+00  0.1402E+00
     -2.397  0.6770E-01  0.1529E+00
     -2.210  0.1330E+00  0.1778E+00
     -2.023  0.1737E+00  0.2103E+00
     -1.836  0.1308E+00  0.2348E+00
     -1.649  0.1783E+00  0.2681E+00
     -1.461  0.1837E+00  0.3025E+00
     -1.274  0.1810E+00  0.3364E+00
     -1.087  0.1560E+00  0.3656E+00
     -0.900  0.3079E+00  0.4232E+00
     -0.713  0.2716E+00  0.4740E+00
     -0.526  0.2890E+00  0.5281E+00
     -0.339  0.3289E+00  0.5896E+00
     -0.152  0.6605E+00  0.7132E+00
      0.036  0.7098E+00  0.8461E+00
      0.223  0.1076E+01  0.1047E+01
      0.410  0.1197E+01  0.1271E+01
      0.597  0.1212E+01  0.1498E+01
      0.784  0.1879E+01  0.1850E+01
      0.971  0.2077E+01  0.2239E+01
      1.158  0.1934E+01  0.2600E+01
      1.345  0.1867E+01  0.2950E+01
      1.533  0.1920E+01  0.3309E+01
      1.720  0.2432E+01  0.3764E+01
      1.907  0.2762E+01  0.4281E+01
      2.094  0.3092E+01  0.4860E+01
      2.281  0.3561E+01  0.5526E+01
      2.468  0.3275E+01  0.6139E+01
      2.655  0.2316E+01  0.6572E+01
      2.842  0.2559E+01  0.7051E+01
      3.029  0.2960E+01  0.7605E+01
      3.217  0.3089E+01  0.8183E+01
      3.404  0.2742E+01  0.8696E+01
      3.591  0.3303E+01  0.9314E+01
      3.778  0.4505E+01  0.1016E+02
      3.965  0.1837E+01  0.1050E+02
      4.152  0.5935E+00  0.1061E+02
      4.339  0.2362E+00  0.1066E+02
      4.526  0.5264E+00  0.1075E+02
      4.714  0.3576E+00  0.1082E+02
      4.901  0.2788E+00  0.1087E+02
      5.088  0.3182E+00  0.1093E+02
      5.275  0.3598E+00  0.1100E+02
      5.462  0.2868E+00  0.1105E+02
      5.649  0.2647E+00  0.1110E+02
      5.836  0.3142E+00  0.1116E+02
      6.023  0.4647E+00  0.1125E+02
      6.211  0.1437E+00  0.1128E+02
      6.398  0.2074E+00  0.1132E+02
      6.585  0.2994E+00  0.1137E+02
      6.772  0.2096E+00  0.1141E+02
      6.959  0.3847E+00  0.1148E+02
      7.146  0.2676E+00  0.1153E+02
      7.333  0.3415E+00  0.1160E+02
      7.520  0.6143E-01  0.1161E+02
      7.708  0.1270E+00  0.1163E+02
      7.895  0.1948E+00  0.1167E+02
      8.082  0.3260E+00  0.1173E+02
      8.269  0.2639E+00  0.1178E+02
      8.456  0.1895E+00  0.1181E+02
      8.643  0.3942E-01  0.1182E+02
      8.830  0.1736E+00  0.1185E+02
      9.017  0.9483E-01  0.1187E+02
      9.205  0.1594E+00  0.1190E+02
      9.392  0.2394E+00  0.1195E+02
      9.579  0.3377E+00  0.1201E+02
      9.766  0.2252E+00  0.1205E+02
      9.953  0.3202E+00  0.1211E+02
     10.140  0.3016E+00  0.1217E+02
     10.327  0.4330E+00  0.1225E+02
     10.514  0.2139E+00  0.1229E+02
     10.702  0.2797E+00  0.1234E+02
     10.889  0.2459E+00  0.1239E+02
     11.076  0.2963E+00  0.1244E+02
     11.263  0.2503E+00  0.1249E+02
     11.450  0.2940E+00  0.1254E+02
     11.637  0.2772E+00  0.1260E+02
     11.824  0.1788E+00  0.1263E+02
     12.011  0.2175E+00  0.1267E+02
     12.199  0.3357E+00  0.1273E+02
     12.386  0.1432E+00  0.1276E+02
     12.573  0.2225E+00  0.1280E+02
     12.760  0.2306E+00  0.1284E+02
     12.947  0.3827E+00  0.1292E+02
     13.134  0.3782E+00  0.1299E+02
     13.321  0.2927E+00  0.1304E+02
     13.508  0.4408E+00  0.1312E+02
     13.696  0.3711E+00  0.1319E+02
     13.883  0.3140E+00  0.1325E+02
     14.070  0.2863E+00  0.1331E+02
     14.257  0.1570E+00  0.1334E+02
     14.444  0.4566E+00  0.1342E+02
     14.631  0.4942E+00  0.1351E+02
     14.818  0.4128E+00  0.1359E+02
     15.005  0.4672E+00  0.1368E+02
     15.193  0.3323E+00  0.1374E+02
     15.380  0.4602E+00  0.1383E+02
     15.567  0.2820E+00  0.1388E+02
     15.754  0.2607E+00  0.1393E+02
     15.941  0.3615E+00  0.1400E+02
     16.128  0.5411E+00  0.1410E+02
     16.315  0.3464E+00  0.1416E+02
     16.502  0.3362E+00  0.1422E+02
     16.690  0.2722E+00  0.1428E+02
     16.877  0.5031E+00  0.1437E+02
     17.064  0.5145E+00  0.1447E+02
     17.251  0.5642E+00  0.1457E+02
     17.438  0.2288E+00  0.1461E+02
     17.625  0.1757E+00  0.1465E+02
     17.812  0.6760E+00  0.1477E+02
     17.999  0.5358E+00  0.1487E+02
     18.187  0.5237E+00  0.1497E+02
     18.374  0.4393E+00  0.1505E+02
     18.561  0.2641E+00  0.1510E+02
     18.748  0.4352E+00  0.1519E+02
     18.935  0.4116E+00  0.1526E+02
     19.122  0.4617E+00  0.1535E+02
     19.309  0.4689E+00  0.1544E+02
     19.496  0.4032E+00  0.1551E+02
     19.683  0.4824E+00  0.1560E+02
     19.871  0.2734E+00  0.1565E+02
     20.058  0.5022E+00  0.1575E+02
     20.245  0.4005E+00  0.1582E+02
     20.432  0.4018E+00  0.1590E+02
     20.619  0.6267E+00  0.1601E+02
     20.806  0.3082E+00  0.1607E+02
     20.993  0.3045E+00  0.1613E+02
     21.180  0.2138E+00  0.1617E+02
     21.368  0.4465E+00  0.1625E+02
     21.555  0.3876E+00  0.1633E+02
     21.742  0.1443E+00  0.1635E+02
     21.929  0.3625E+00  0.1642E+02
     22.116  0.4527E+00  0.1650E+02
     22.303  0.2997E+00  0.1656E+02
     22.490  0.3578E+00  0.1663E+02
     22.677  0.3728E+00  0.1670E+02
     22.865  0.2949E+00  0.1675E+02
     23.052  0.3565E+00  0.1682E+02
     23.239  0.2730E+00  0.1687E+02
     23.426  0.3808E+00  0.1694E+02
     23.613  0.3812E+00  0.1701E+02
     23.800  0.2691E+00  0.1706E+02
     23.987  0.3472E+00  0.1713E+02
     24.174  0.3036E+00  0.1719E+02
     24.362  0.4550E+00  0.1727E+02
     24.549  0.5026E+00  0.1736E+02
     24.736  0.5514E+00  0.1747E+02
     24.923  0.3229E+00  0.1753E+02
     25.110  0.5473E+00  0.1763E+02
     25.297  0.7042E+00  0.1776E+02
     25.484  0.2619E+00  0.1781E+02
     25.671  0.3496E+00  0.1788E+02
     25.859  0.6933E+00  0.1801E+02
     26.046  0.5400E+00  0.1811E+02
     26.233  0.3880E+00  0.1818E+02
     26.420  0.6139E+00  0.1830E+02
     26.607  0.6916E+00  0.1842E+02
     26.794  0.6699E+00  0.1855E+02
     26.981  0.6115E+00  0.1866E+02
     27.168  0.4717E+00  0.1875E+02
     27.356  0.6044E+00  0.1887E+02
     27.543  0.5111E+00  0.1896E+02
     27.730  0.6668E+00  0.1909E+02
     27.917  0.4171E+00  0.1916E+02
     28.104  0.7612E+00  0.1931E+02
     28.291  0.3262E+00  0.1937E+02
     28.478  0.4132E+00  0.1944E+02
     28.665  0.3286E+00  0.1951E+02
     28.853  0.5175E+00  0.1960E+02
     29.040  0.4232E+00  0.1968E+02
     29.227  0.3887E+00  0.1976E+02
     29.414  0.3734E+00  0.1983E+02
     29.601  0.2062E+00  0.1986E+02
     29.788  0.5031E+00  0.1996E+02
     29.975  0.6926E+00  0.2009E+02
     30.162  0.5368E+00  0.2019E+02
     30.350  0.1490E+00  0.2022E+02
     30.537  0.3668E+00  0.2028E+02
     30.724  0.1916E+00  0.2032E+02
     30.911  0.1347E+00  0.2035E+02
     31.098  0.2858E+00  0.2040E+02
     31.285  0.1934E+00  0.2044E+02
     31.472  0.4713E+00  0.2052E+02
     31.659  0.4998E+00  0.2062E+02
     31.847  0.8181E+00  0.2077E+02
     32.034  0.5122E+00  0.2087E+02
     32.221  0.7061E+00  0.2100E+02
     32.408  0.5336E+00  0.2110E+02
     32.595  0.5367E+00  0.2120E+02
     32.782  0.5084E+00  0.2129E+02
     32.969  0.5008E+00  0.2139E+02
     33.156  0.5614E+00  0.2149E+02
     33.344  0.6167E+00  0.2161E+02
     33.531  0.7628E+00  0.2175E+02
     33.718  0.3066E+00  0.2181E+02
     33.905  0.2344E+00  0.2185E+02
     34.092  0.4336E+00  0.2193E+02
     34.279  0.5663E+00  0.2204E+02
     34.466  0.1902E+00  0.2207E+02
     34.653  0.4220E+00  0.2215E+02
     34.841  0.5150E+00  0.2225E+02
     35.028  0.3717E+00  0.2232E+02
     35.215  0.3707E+00  0.2239E+02
     35.402  0.5440E+00  0.2249E+02
     35.589  0.3053E+00  0.2255E+02
     35.776  0.2603E+00  0.2260E+02
     35.963  0.3762E+00  0.2267E+02
     36.150  0.4351E+00  0.2275E+02
     36.338  0.3875E+00  0.2282E+02
     36.525  0.2059E+00  0.2286E+02
     36.712  0.2170E+00  0.2290E+02
     36.899  0.4392E+00  0.2298E+02
     37.086  0.2068E+00  0.2302E+02
     37.273  0.4181E+00  0.2310E+02
     37.460  0.5345E+00  0.2320E+02
     37.647  0.3446E+00  0.2326E+02
     37.834  0.3513E+00  0.2333E+02
     38.022  0.1188E+00  0.2335E+02
     38.209  0.7597E-01  0.2337E+02
     38.396  0.3368E+00  0.2343E+02
     38.583  0.2474E+00  0.2347E+02
     38.770  0.3331E+00  0.2354E+02
     38.957  0.2225E+00  0.2358E+02
     39.144  0.7110E-01  0.2359E+02
     39.331  0.1539E-02  0.2359E+02
     39.519  0.9697E-01  0.2361E+02
     39.706  0.2403E+00  0.2366E+02
     39.893  0.1515E+00  0.2368E+02
     40.080  0.1967E+00  0.2372E+02
     40.267  0.8462E-01  0.2374E+02
     40.454  0.1099E+00  0.2376E+02
     40.641  0.8050E-01  0.2377E+02
     40.828  0.2365E-02  0.2377E+02
     41.016  0.8965E-01  0.2379E+02
     41.203  0.1831E+00  0.2382E+02
     41.390  0.4606E-01  0.2383E+02
     41.577  0.2728E-02  0.2383E+02
     41.764  0.6728E-01  0.2385E+02
     41.951  0.1392E+00  0.2387E+02
     42.138  0.4725E-01  0.2388E+02
     42.325  0.1668E-03  0.2388E+02
     42.513  0.9828E-09  0.2388E+02
     42.700  0.1167E-05  0.2388E+02
     42.887  0.4428E-02  0.2388E+02
     43.074  0.5190E-01  0.2389E+02
     43.261  0.3656E-01  0.2390E+02
     43.448  0.9572E-01  0.2392E+02
     43.635  0.3793E-02  0.2392E+02
     43.822  0.1444E-01  0.2392E+02
     44.010  0.1006E+00  0.2394E+02
     44.197  0.1774E-01  0.2394E+02
     44.384  0.9789E-01  0.2396E+02
     44.571  0.2584E-01  0.2396E+02
     44.758  0.3322E-04  0.2396E+02
     44.945  0.4589E-02  0.2396E+02
     45.132  0.5194E-01  0.2397E+02
     45.319  0.7599E-02  0.2398E+02
     45.507  0.4133E-05  0.2398E+02
     45.694  0.1971E-09  0.2398E+02
     45.881  0.4905E-04  0.2398E+02
     46.068  0.1923E-01  0.2398E+02
     46.255  0.4377E-01  0.2399E+02
     46.442  0.1090E-02  0.2399E+02
     46.629  0.1076E-01  0.2399E+02
     46.816  0.5040E-01  0.2400E+02
     47.004  0.2955E-02  0.2400E+02
     47.191  0.4773E-06  0.2400E+02
     47.378  0.9691E-13  0.2400E+02
     47.565  0.0000E+00  0.2400E+02
     47.752  0.0000E+00  0.2400E+02
     47.939  0.0000E+00  0.2400E+02
     48.126  0.0000E+00  0.2400E+02
     48.313  0.0000E+00  0.2400E+02
     48.501  0.0000E+00  0.2400E+02
     48.688  0.0000E+00  0.2400E+02
     48.875  0.0000E+00  0.2400E+02
     49.062  0.0000E+00  0.2400E+02
     49.249  0.0000E+00  0.2400E+02
