    1    1    1    1
  0.1189785E+02  0.2562484E-09  0.2562484E-09  0.2562484E-09  0.5000000E-15
 1.00000000000000005E-4
  CAR 
 Pt, FCC                                 
   10  110   12
 
  0.5000000E-01  0.5000000E-01  0.5000000E-01  0.2000000E-02
   1       -4.3364
   2        2.0998
   3        2.1427
   4        2.1427
   5        3.0873
   6        3.0873
   7       26.8218
   8       28.9712
   9       29.9710
  10       29.9710
  11       33.2532
  12       33.2533
 
  0.1500000E+00  0.5000000E-01  0.5000000E-01  0.6000000E-02
   1       -3.8548
   2        1.9791
   3        2.2335
   4        2.2445
   5        2.9996
   6        3.1149
   7       24.2734
   8       26.4739
   9       29.1342
  10       30.6116
  11       33.3380
  12       33.5081
 
  0.2500000E+00  0.5000000E-01  0.5000000E-01  0.6000000E-02
   1       -2.7208
   2        1.8002
   3        2.3154
   4        2.3457
   5        2.9986
   6        3.2307
   7       19.2837
   8       25.4286
   9       28.6089
  10       29.8811
  11       33.0078
  12       33.1059
 
  0.3500000E+00  0.5000000E-01  0.5000000E-01  0.6000000E-02
   1       -1.2441
   2        1.8782
   3        2.2274
   4        2.2710
   5        3.2689
   6        3.5378
   7       14.6254
   8       24.8682
   9       27.5124
  10       29.0235
  11       30.9372
  12       32.6765
 
  0.4500000E+00  0.5000000E-01  0.5000000E-01  0.6000000E-02
   1       -0.2926
   2        2.1028
   3        2.1580
   4        2.7502
   5        3.5880
   6        3.9886
   7       10.7808
   8       24.7835
   9       26.6620
  10       27.6106
  11       30.4146
  12       31.7932
 
 -0.4500000E+00  0.5000000E-01  0.5000000E-01  0.6000000E-02
   1       -0.1313
   2        2.0572
   3        2.1298
   4        3.1781
   5        3.7337
   6        4.4222
   7        9.3236
   8       25.1022
   9       26.4461
  10       26.5955
  11       30.9833
  12       31.1389
 
 -0.3500000E+00  0.5000000E-01  0.5000000E-01  0.6000000E-02
   1       -0.4989
   2        2.1244
   3        2.2021
   4        2.3693
   5        3.6315
   6        3.6885
   7       11.9255
   8       25.5968
   9       25.9719
  10       27.5873
  11       31.0466
  12       32.2681
 
 -0.2500000E+00  0.5000000E-01  0.5000000E-01  0.6000000E-02
   1       -1.7335
   2        1.7802
   3        2.2667
   4        2.3139
   5        3.2181
   6        3.3688
   7       16.1115
   8       26.1732
   9       26.2437
  10       29.3222
  11       31.4740
  12       34.1799
 
 -0.1500000E+00  0.5000000E-01  0.5000000E-01  0.6000000E-02
   1       -3.1606
   2        1.8453
   3        2.3182
   4        2.3262
   5        2.9756
   6        3.1630
   7       20.9415
   8       26.9601
   9       26.9643
  10       30.7031
  11       32.1534
  12       35.5889
 
 -0.5000000E-01  0.5000000E-01  0.5000000E-01  0.6000000E-02
   1       -4.0938
   2        2.0238
   3        2.2009
   4        2.2040
   5        3.0145
   6        3.1199
   7       25.7917
   8       27.8351
   9       28.2834
  10       30.0115
  11       33.3912
  12       35.0168
 
  0.1500000E+00  0.1500000E+00  0.5000000E-01  0.6000000E-02
   1       -3.6179
   2        1.8719
   3        2.3218
   4        2.3246
   5        2.8848
   6        3.1821
   7       24.4514
   8       26.4314
   9       26.6499
  10       28.8198
  11       33.3802
  12       35.2657
 
  0.2500000E+00  0.1500000E+00  0.5000000E-01  0.1200000E-01
   1       -2.7112
   2        1.6685
   3        2.3774
   4        2.4988
   5        2.8421
   6        3.3028
   7       21.2822
   8       23.3887
   9       27.1909
  10       28.5147
  11       31.4873
  12       35.6095
 
  0.3500000E+00  0.1500000E+00  0.5000000E-01  0.1200000E-01
   1       -1.3355
   2        1.5520
   3        2.1801
   4        2.5061
   5        3.2126
   6        3.6245
   7       16.4681
   8       22.6273
   9       25.6908
  10       27.6257
  11       33.5091
  12       34.2196
 
  0.4500000E+00  0.1500000E+00  0.5000000E-01  0.1200000E-01
   1       -0.1675
   2        1.7993
   3        2.0481
   4        2.3990
   5        3.6162
   6        4.3912
   7       12.2342
   8       22.4732
   9       23.9016
  10       26.9343
  11       32.9946
  12       35.3224
 
 -0.4500000E+00  0.1500000E+00  0.5000000E-01  0.1200000E-01
   1        0.1651
   2        1.8238
   3        2.3173
   4        2.4465
   5        3.7098
   6        5.6762
   7        9.4461
   8       22.1486
   9       23.3766
  10       26.8970
  11       32.2357
  12       34.9727
 
 -0.3500000E+00  0.1500000E+00  0.5000000E-01  0.1200000E-01
   1        0.0290
   2        1.8909
   3        2.1821
   4        2.3505
   5        3.5400
   6        4.9052
   7       11.0547
   8       21.4051
   9       24.6009
  10       27.5890
  11       31.8736
  12       34.6718
 
 -0.2500000E+00  0.1500000E+00  0.5000000E-01  0.1200000E-01
   1       -0.8590
   2        1.6457
   3        2.1014
   4        2.4561
   5        3.1631
   6        3.9572
   7       14.9854
   8       21.2766
   9       26.4658
  10       28.9615
  11       31.9660
  12       33.9790
 
 -0.1500000E+00  0.1500000E+00  0.5000000E-01  0.1200000E-01
   1       -2.2842
   2        1.6579
   3        2.2948
   4        2.5230
   5        2.8390
   6        3.4497
   7       19.6360
   8       21.8069
   9       28.6650
  10       29.9925
  11       32.4638
  12       33.2419
 
 -0.5000000E-01  0.1500000E+00  0.5000000E-01  0.1200000E-01
   1       -3.3862
   2        1.8544
   3        2.3189
   4        2.3370
   5        2.9070
   6        3.1861
   7       22.7289
   8       24.8952
   9       28.4565
  10       30.4590
  11       32.6757
  12       34.6547
 
  0.2500000E+00  0.2500000E+00  0.5000000E-01  0.6000000E-02
   1       -2.0815
   2        1.4268
   3        2.4792
   4        2.7218
   5        2.8414
   6        3.3701
   7       21.6906
   8       22.9984
   9       24.4382
  10       25.2817
  11       28.7160
  12       39.5839
 
  0.3500000E+00  0.2500000E+00  0.5000000E-01  0.1200000E-01
   1       -0.9965
   2        1.2200
   3        2.2707
   4        2.9322
   5        3.2339
   6        3.6383
   7       18.7615
   8       20.6903
   9       22.4274
  10       25.7938
  11       29.0742
  12       38.9651
 
  0.4500000E+00  0.2500000E+00  0.5000000E-01  0.1200000E-01
   1        0.0848
   2        1.1854
   3        2.0405
   4        2.8559
   5        3.6643
   6        4.6823
   7       14.3326
   8       19.9388
   9       20.5704
  10       25.8351
  11       32.4845
  12       37.3353
 
 -0.4500000E+00  0.2500000E+00  0.5000000E-01  0.1200000E-01
   1        0.5972
   2        1.3072
   3        2.0129
   4        2.7353
   5        3.7271
   6        6.7210
   7       10.6206
   8       18.2845
   9       20.9581
  10       26.0083
  11       35.3138
  12       37.6377
 
 -0.3500000E+00  0.2500000E+00  0.5000000E-01  0.1200000E-01
   1        0.6880
   2        1.4449
   3        1.9055
   4        2.6775
   5        3.5185
   6        6.8413
   7       10.6360
   8       17.1619
   9       22.2286
  10       26.7277
  11       34.5742
  12       38.3070
 
 -0.2500000E+00  0.2500000E+00  0.5000000E-01  0.1200000E-01
   1        0.2417
   2        1.5158
   3        1.7583
   4        2.7229
   5        3.1389
   6        5.0707
   7       14.3393
   8       16.7834
   9       24.1248
  10       28.1504
  11       33.4574
  12       37.0355
 
 -0.1500000E+00  0.2500000E+00  0.5000000E-01  0.1200000E-01
   1       -0.9553
   2        1.5195
   3        2.0806
   4        2.6604
   5        2.9104
   6        4.0256
   7       16.8258
   8       19.0672
   9       26.4449
  10       29.9466
  11       31.7344
  12       34.8000
 
 -0.5000000E-01  0.2500000E+00  0.5000000E-01  0.1200000E-01
   1       -2.0943
   2        1.6994
   3        2.2881
   4        2.4020
   5        3.0274
   6        3.4036
   7       17.7918
   8       23.9756
   9       27.5796
  10       29.8257
  11       32.0287
  12       33.6545
 
  0.3500000E+00  0.3500000E+00  0.5000000E-01  0.6000000E-02
   1       -0.4385
   2        0.9530
   3        2.7504
   4        3.2364
   5        3.5054
   6        3.5866
   7       19.1321
   8       19.4916
   9       20.2557
  10       23.8061
  11       26.8256
  12       43.8878
 
  0.4500000E+00  0.3500000E+00  0.5000000E-01  0.1200000E-01
   1        0.0805
   2        0.8256
   3        2.7516
   4        3.4084
   5        3.6714
   6        4.7983
   7       16.7161
   8       17.0426
   9       18.7515
  10       24.7212
  11       27.9261
  12       41.9254
 
 -0.4500000E+00  0.3500000E+00  0.5000000E-01  0.1200000E-01
   1        0.4938
   2        0.8866
   3        2.4444
   4        3.2416
   5        3.7740
   6        7.1352
   7       12.9670
   8       15.0060
   9       19.0235
  10       25.1578
  11       31.7926
  12       40.0805
 
 -0.3500000E+00  0.3500000E+00  0.5000000E-01  0.1200000E-01
   1        0.8804
   2        1.0405
   3        2.0352
   4        3.0621
   5        3.6055
   6        9.3734
   7       10.2783
   8       13.9237
   9       20.1818
  10       25.7062
  11       36.6787
  12       38.3037
 
 -0.2500000E+00  0.3500000E+00  0.5000000E-01  0.1200000E-01
   1        0.8885
   2        1.3588
   3        1.6935
   4        2.8424
   5        3.3872
   6        6.8855
   7       12.1451
   8       15.0577
   9       22.0159
  10       26.6995
  11       35.6644
  12       39.5081
 
 -0.1500000E+00  0.3500000E+00  0.5000000E-01  0.1200000E-01
   1        0.1508
   2        1.7134
   3        1.8561
   4        2.5321
   5        3.3397
   6        5.0226
   7       12.5817
   8       18.9840
   9       24.2824
  10       27.9665
  11       32.6831
  12       35.9943
 
 -0.5000000E-01  0.3500000E+00  0.5000000E-01  0.1200000E-01
   1       -0.6945
   2        1.9242
   3        2.1275
   4        2.3003
   5        3.4140
   6        3.8264
   7       13.3342
   8       23.6197
   9       26.3621
  10       27.9661
  11       31.6744
  12       33.3872
 
  0.4500000E+00  0.4500000E+00  0.5000000E-01  0.6000000E-02
   1        0.0413
   2        0.6254
   3        3.5800
   4        3.6296
   5        3.7881
   6        5.3442
   7       14.3845
   8       17.7438
   9       18.5385
  10       23.2350
  11       26.1819
  12       46.1049
 
 -0.4500000E+00  0.4500000E+00  0.5000000E-01  0.1200000E-01
   1        0.1730
   2        0.6294
   3        3.2917
   4        3.6042
   5        3.8576
   6        7.0314
   7       12.9064
   8       16.0057
   9       17.7702
  10       24.3117
  11       27.5346
  12       44.3248
 
 -0.3500000E+00  0.4500000E+00  0.5000000E-01  0.1200000E-01
   1        0.4898
   2        0.8272
   3        2.6011
   4        3.3496
   5        3.7683
   6        8.4080
   7       12.5517
   8       13.3559
   9       18.7222
  10       25.0389
  11       31.6606
  12       41.1533
 
 -0.2500000E+00  0.4500000E+00  0.5000000E-01  0.1200000E-01
   1        0.7999
   2        1.1240
   3        2.0213
   4        2.9237
   5        3.6743
   6        8.2518
   7       10.1690
   8       15.8435
   9       20.4411
  10       25.8011
  11       36.3062
  12       37.7500
 
 -0.1500000E+00  0.4500000E+00  0.5000000E-01  0.1200000E-01
   1        0.4251
   2        1.6196
   3        2.1710
   4        2.4838
   5        3.6450
   6        6.5110
   7        9.5978
   8       19.6207
   9       22.6591
  10       26.7909
  11       33.3273
  12       36.7616
 
 -0.5000000E-01  0.4500000E+00  0.5000000E-01  0.1200000E-01
   1       -0.0741
   2        1.9963
   3        2.2043
   4        2.6978
   5        3.6846
   6        4.6887
   7        9.9271
   8       23.7964
   9       25.1449
  10       27.0584
  11       31.3267
  12       32.9748
 
 -0.4500000E+00 -0.4500000E+00  0.5000000E-01  0.6000000E-02
   1        0.0518
   2        0.5543
   3        3.6957
   4        3.7300
   5        3.8640
   6        6.3949
   7       12.8207
   8       17.4000
   9       18.1721
  10       23.1283
  11       26.0802
  12       46.6974
 
 -0.3500000E+00 -0.4500000E+00  0.5000000E-01  0.1200000E-01
   1        0.1699
   2        0.6966
   3        3.0941
   4        3.5583
   5        3.7823
   6        5.9601
   7       14.5172
   8       16.3228
   9       18.1033
  10       24.4454
  11       27.6578
  12       43.3147
 
 -0.2500000E+00 -0.4500000E+00  0.5000000E-01  0.1200000E-01
   1        0.4127
   2        1.0107
   3        2.2065
   4        3.0622
   5        3.7496
   6        5.7659
   7       13.5441
   8       17.3805
   9       19.6157
  10       25.4118
  11       32.0652
  12       38.7135
 
 -0.1500000E+00 -0.4500000E+00  0.5000000E-01  0.1200000E-01
   1        0.2724
   2        1.5520
   3        2.0220
   4        2.5506
   5        3.7169
   6        5.3835
   7       11.3253
   8       20.8645
   9       21.7934
  10       26.3634
  11       34.1453
  12       37.4753
 
 -0.3500000E+00 -0.3500000E+00  0.5000000E-01  0.6000000E-02
   1       -0.0625
   2        0.7621
   3        3.2489
   4        3.4705
   5        3.6883
   6        4.1925
   7       16.6757
   8       18.4066
   9       19.2466
  10       23.4561
  11       26.4118
  12       45.0487
 
 -0.2500000E+00 -0.3500000E+00  0.5000000E-01  0.1200000E-01
   1       -0.2776
   2        1.0054
   3        2.4022
   4        3.1804
   5        3.5083
   6        4.0113
   7       17.7230
   8       19.3493
   9       19.8339
  10       25.1583
  11       28.3798
  12       40.4548
 
 -0.1500000E+00 -0.3500000E+00  0.5000000E-01  0.1200000E-01
   1       -0.5502
   2        1.3751
   3        2.0549
   4        2.6618
   5        3.4836
   6        3.9827
   7       15.3128
   8       21.3950
   9       22.9879
  10       26.4959
  11       33.0252
  12       35.9243
 
 -0.2500000E+00 -0.2500000E+00  0.5000000E-01  0.6000000E-02
   1       -1.1779
   2        1.1815
   3        2.4767
   4        2.9750
   5        3.1208
   6        3.4792
   7       20.4095
   8       21.5207
   9       22.0757
  10       24.3235
  11       27.5250
  12       41.8117
 
 -0.1500000E+00 -0.2500000E+00  0.5000000E-01  0.1200000E-01
   1       -1.8788
   2        1.4488
   3        2.3263
   4        2.7001
   5        2.9618
   6        3.4486
   7       19.9549
   8       21.9814
   9       25.2022
  10       26.7362
  11       30.0805
  12       37.3837
 
 -0.1500000E+00 -0.1500000E+00  0.5000000E-01  0.6000000E-02
   1       -2.9310
   2        1.6652
   3        2.4703
   4        2.5002
   5        2.7549
   6        3.2682
   7       23.0564
   8       24.6492
   9       25.5887
  10       27.1781
  11       30.7319
  12       37.2901
 
  0.1500000E+00  0.1500000E+00  0.1500000E+00  0.2000000E-02
   1       -3.6200
   2        1.9455
   3        2.2625
   4        2.2625
   5        3.0577
   6        3.0577
   7       22.5658
   8       27.8348
   9       28.8433
  10       28.8433
  11       34.3474
  12       34.9749
 
  0.2500000E+00  0.1500000E+00  0.1500000E+00  0.6000000E-02
   1       -2.9333
   2        1.7876
   3        2.3198
   4        2.3986
   5        2.8722
   6        3.2750
   7       21.1095
   8       23.2848
   9       29.8592
  10       31.6879
  11       31.7715
  12       33.0383
 
  0.3500000E+00  0.1500000E+00  0.1500000E+00  0.6000000E-02
   1       -1.6797
   2        1.6104
   3        2.2181
   4        2.5773
   5        2.8099
   6        3.6982
   7       18.1490
   8       20.3535
   9       29.0950
  10       29.9267
  11       31.8707
  12       33.3427
 
  0.4500000E+00  0.1500000E+00  0.1500000E+00  0.6000000E-02
   1       -0.3356
   2        1.7294
   3        1.9979
   4        2.4454
   5        3.1957
   6        4.3906
   7       13.6910
   8       20.0426
   9       27.1583
  10       27.1857
  11       33.1407
  12       33.4693
 
 -0.4500000E+00  0.1500000E+00  0.1500000E+00  0.6000000E-02
   1        0.2218
   2        1.8002
   3        2.2680
   4        2.3694
   5        3.5684
   6        5.6251
   7       10.1443
   8       20.4243
   9       25.0172
  10       25.9975
  11       33.5409
  12       34.3090
 
 -0.3500000E+00  0.1500000E+00  0.1500000E+00  0.6000000E-02
   1        0.2053
   2        1.7314
   3        2.2442
   4        2.3975
   5        3.7497
   6        5.5420
   7       10.1257
   8       21.4833
   9       23.6711
  10       25.5145
  11       34.5273
  12       34.7944
 
 -0.2500000E+00  0.1500000E+00  0.1500000E+00  0.6000000E-02
   1       -0.3702
   2        1.5519
   3        2.0458
   4        2.4984
   5        3.6764
   6        4.0471
   7       13.6592
   8       23.0774
   9       23.1899
  10       25.6876
  11       35.2255
  12       35.5890
 
 -0.1500000E+00  0.1500000E+00  0.1500000E+00  0.6000000E-02
   1       -1.6908
   2        1.4834
   3        2.2665
   4        2.5779
   5        3.1706
   6        3.4448
   7       18.1350
   8       23.5438
   9       24.6771
  10       26.6576
  11       31.7345
  12       36.3337
 
  0.2500000E+00  0.2500000E+00  0.1500000E+00  0.6000000E-02
   1       -2.5007
   2        1.6831
   3        2.3457
   4        2.4309
   5        2.9711
   6        3.2980
   7       19.4625
   8       25.1797
   9       25.9175
  10       29.2909
  11       32.1567
  12       34.8052
 
  0.3500000E+00  0.2500000E+00  0.1500000E+00  0.1200000E-01
   1       -1.4903
   2        1.4848
   3        2.1867
   4        2.6892
   5        2.9481
   6        3.6835
   7       18.3137
   8       20.4784
   9       25.8328
  10       28.8395
  11       31.7547
  12       34.7097
 
  0.4500000E+00  0.2500000E+00  0.1500000E+00  0.1200000E-01
   1       -0.2148
   2        1.3984
   3        1.8913
   4        2.8135
   5        3.1209
   6        4.4888
   7       15.6680
   8       17.9618
   9       23.4104
  10       29.9952
  11       31.5015
  12       35.2833
 
 -0.4500000E+00  0.2500000E+00  0.1500000E+00  0.1200000E-01
   1        0.5493
   2        1.4998
   3        1.8084
   4        2.6871
   5        3.5084
   6        5.9801
   7       11.6575
   8       18.1193
   9       21.4144
  10       28.7826
  11       32.3659
  12       38.4239
 
 -0.3500000E+00  0.2500000E+00  0.1500000E+00  0.1200000E-01
   1        0.6431
   2        1.4113
   3        1.9924
   4        2.6555
   5        3.6716
   6        7.1768
   7        9.7700
   8       18.9829
   9       20.0617
  10       28.0608
  11       32.8976
  12       39.6037
 
 -0.2500000E+00  0.2500000E+00  0.1500000E+00  0.1200000E-01
   1        0.3400
   2        1.3663
   3        1.8579
   4        2.7658
   5        3.5714
   6        5.2729
   7       12.8937
   8       19.2155
   9       20.7143
  10       27.9111
  11       33.2349
  12       36.2117
 
 -0.1500000E+00  0.2500000E+00  0.1500000E+00  0.1200000E-01
   1       -0.6574
   2        1.2946
   3        2.0570
   4        2.8929
   5        3.1788
   6        4.0155
   7       17.1481
   8       19.3068
   9       22.8470
  10       27.9592
  11       31.0398
  12       35.9754
 
  0.3500000E+00  0.3500000E+00  0.1500000E+00  0.6000000E-02
   1       -0.8378
   2        1.2694
   3        2.1827
   4        2.7628
   5        3.5754
   6        3.5844
   7       16.9633
   8       22.0955
   9       22.4265
  10       25.2564
  11       30.9072
  12       38.4969
 
  0.4500000E+00  0.3500000E+00  0.1500000E+00  0.1200000E-01
   1        0.0163
   2        1.1103
   3        2.0505
   4        3.1201
   5        3.4200
   6        4.5813
   7       16.1520
   8       18.3005
   9       19.9754
  10       27.2797
  11       30.4750
  12       37.2438
 
 -0.4500000E+00  0.3500000E+00  0.1500000E+00  0.1200000E-01
   1        0.6600
   2        1.1392
   3        1.8276
   4        3.1536
   5        3.5738
   6        6.3265
   7       13.8924
   8       16.3266
   9       17.7940
  10       29.1882
  11       32.0197
  12       36.0040
 
 -0.3500000E+00  0.3500000E+00  0.1500000E+00  0.1200000E-01
   1        0.9940
   2        1.1528
   3        1.7412
   4        2.9713
   5        3.7055
   6        8.8182
   7       10.4636
   8       16.1303
   9       17.0922
  10       29.6745
  11       33.4536
  12       37.6106
 
 -0.2500000E+00  0.3500000E+00  0.1500000E+00  0.1200000E-01
   1        0.9460
   2        1.3156
   3        1.5376
   4        2.9995
   5        3.5629
   6        7.2182
   7       12.5440
   8       15.3151
   9       18.4859
  10       30.4808
  11       32.3787
  12       36.7902
 
 -0.1500000E+00  0.3500000E+00  0.1500000E+00  0.1200000E-01
   1        0.3793
   2        1.2646
   3        1.7635
   4        3.0046
   5        3.3579
   6        5.2217
   7       14.6838
   8       17.0473
   9       20.5012
  10       29.6123
  11       31.7435
  12       35.4763
 
  0.4500000E+00  0.4500000E+00  0.1500000E+00  0.6000000E-02
   1        0.2019
   2        0.8867
   3        2.5405
   4        3.1866
   5        3.7787
   6        5.1694
   7       15.1475
   8       17.0469
   9       19.9015
  10       24.2790
  11       29.7555
  12       41.7000
 
 -0.4500000E+00  0.4500000E+00  0.1500000E+00  0.1200000E-01
   1        0.4018
   2        0.8392
   3        2.5386
   4        3.4128
   5        3.7616
   6        6.7992
   7       14.6547
   8       14.9512
   9       17.0311
  10       26.4680
  11       29.8388
  12       39.9239
 
 -0.3500000E+00  0.4500000E+00  0.1500000E+00  0.1200000E-01
   1        0.6444
   2        1.0081
   3        2.1845
   4        3.2171
   5        3.8548
   6        9.0988
   7       12.9539
   8       13.5043
   9       15.6597
  10       28.7238
  11       32.2214
  12       37.6995
 
 -0.2500000E+00  0.4500000E+00  0.1500000E+00  0.1200000E-01
   1        0.9347
   2        1.2294
   3        1.7211
   4        3.0312
   5        3.7455
   6        9.8320
   7       10.7411
   8       14.1493
   9       16.8420
  10       29.7308
  11       34.6120
  12       36.7564
 
 -0.1500000E+00  0.4500000E+00  0.1500000E+00  0.1200000E-01
   1        0.8503
   2        1.2654
   3        1.7738
   4        2.8490
   5        3.6303
   6        7.2855
   7       10.9326
   8       17.4449
   9       18.7121
  10       29.4083
  11       32.5820
  12       38.2303
 
 -0.4500000E+00 -0.4500000E+00  0.1500000E+00  0.6000000E-02
   1        0.2862
   2        0.6958
   3        3.0348
   4        3.5030
   5        3.8049
   6        7.5543
   7       12.9748
   8       14.3228
   9       18.8844
  10       23.9660
  11       29.3148
  12       43.9404
 
 -0.3500000E+00 -0.4500000E+00  0.1500000E+00  0.1200000E-01
   1        0.3899
   2        0.7806
   3        2.7271
   4        3.4298
   5        3.8555
   6        7.9846
   7       13.0842
   8       14.5135
   9       16.7388
  10       26.3116
  11       29.7263
  12       40.9838
 
 -0.2500000E+00 -0.4500000E+00  0.1500000E+00  0.1200000E-01
   1        0.6807
   2        1.0514
   3        2.0302
   4        3.2148
   5        3.7506
   6        7.7397
   7       13.3223
   8       15.2423
   9       15.9539
  10       28.8809
  11       32.1679
  12       36.8710
 
 -0.3500000E+00 -0.3500000E+00  0.1500000E+00  0.6000000E-02
   1        0.2861
   2        0.7605
   3        2.8542
   4        3.3771
   5        3.8105
   6        6.4173
   7       14.4437
   8       14.8231
   9       19.2296
  10       24.0664
  11       29.4568
  12       42.9917
 
 -0.2500000E+00 -0.3500000E+00  0.1500000E+00  0.1200000E-01
   1        0.3405
   2        0.9526
   3        2.2553
   4        3.3140
   5        3.6104
   6        5.5265
   7       15.3477
   8       17.1144
   9       17.6821
  10       26.7873
  11       30.0806
  12       38.5775
 
 -0.2500000E+00 -0.2500000E+00  0.1500000E+00  0.6000000E-02
   1       -0.1445
   2        1.0632
   3        2.2562
   4        2.9723
   5        3.7008
   6        4.2128
   7       15.9605
   8       19.6891
   9       20.8689
  10       24.6400
  11       30.2334
  12       40.4081
 
  0.2500000E+00  0.2500000E+00  0.2500000E+00  0.2000000E-02
   1       -2.3100
   2        1.8074
   3        2.3065
   4        2.3065
   5        3.1789
   6        3.1789
   7       17.6078
   8       27.1585
   9       27.9531
  10       27.9531
  11       33.5323
  12       33.5323
 
  0.3500000E+00  0.2500000E+00  0.2500000E+00  0.6000000E-02
   1       -1.5260
   2        1.6942
   3        2.2255
   4        2.4007
   5        3.0392
   6        3.6382
   7       16.2990
   8       22.5557
   9       28.3786
  10       29.9575
  11       31.4667
  12       32.3902
 
  0.4500000E+00  0.2500000E+00  0.2500000E+00  0.6000000E-02
   1       -0.3443
   2        1.5343
   3        1.9554
   4        2.6382
   5        2.9772
   6        4.4629
   7       15.5008
   8       17.8272
   9       26.9978
  10       27.3613
  11       33.7568
  12       34.9477
 
 -0.4500000E+00  0.2500000E+00  0.2500000E+00  0.6000000E-02
   1        0.6188
   2        1.5732
   3        1.6386
   4        2.7306
   5        3.2329
   6        5.8395
   7       13.1628
   8       15.8122
   9       24.3647
  10       25.9918
  11       36.1317
  12       36.6881
 
 -0.3500000E+00  0.2500000E+00  0.2500000E+00  0.6000000E-02
   1        0.7697
   2        1.2918
   3        1.9792
   4        2.7702
   5        3.5908
   6        7.8024
   7        9.9286
   8       16.4007
   9       22.3515
  10       25.1015
  11       37.4187
  12       37.6484
 
 -0.2500000E+00  0.2500000E+00  0.2500000E+00  0.6000000E-02
   1        0.5142
   2        1.1393
   3        2.1087
   4        2.8636
   5        3.7771
   6        6.1940
   7       11.9336
   8       17.7416
   9       21.1454
  10       24.7036
  11       34.4658
  12       38.6423
 
  0.3500000E+00  0.3500000E+00  0.2500000E+00  0.6000000E-02
   1       -1.0530
   2        1.6992
   3        2.1606
   4        2.3782
   5        3.4824
   6        3.5413
   7       14.7965
   8       24.5768
   9       25.1056
  10       27.2557
  11       33.2105
  12       35.0352
 
  0.4500000E+00  0.3500000E+00  0.2500000E+00  0.1200000E-01
   1       -0.1951
   2        1.5397
   3        1.9407
   4        2.5868
   5        3.3820
   6        4.4482
   7       13.8497
   8       20.1624
   9       23.5673
  10       28.3941
  11       32.5232
  12       35.9001
 
 -0.4500000E+00  0.3500000E+00  0.2500000E+00  0.1200000E-01
   1        0.7045
   2        1.4364
   3        1.5745
   4        2.8762
   5        3.3486
   6        5.9683
   7       13.3472
   8       15.9458
   9       21.2191
  10       29.2616
  11       32.8033
  12       37.2633
 
 -0.3500000E+00  0.3500000E+00  0.2500000E+00  0.1200000E-01
   1        1.0784
   2        1.1292
   3        1.7209
   4        2.9608
   5        3.5719
   6        8.2406
   7       11.3127
   8       14.5105
   9       19.3446
  10       28.1009
  11       35.0777
  12       38.7989
 
 -0.2500000E+00  0.3500000E+00  0.2500000E+00  0.1200000E-01
   1        0.7490
   2        1.0510
   3        2.0337
   4        3.0942
   5        3.7297
   6        7.9790
   7       11.5722
   8       15.4787
   9       18.0786
  10       27.3047
  11       34.1477
  12       37.1052
 
  0.4500000E+00  0.4500000E+00  0.2500000E+00  0.6000000E-02
   1        0.1829
   2        1.3469
   3        2.0197
   4        2.6659
   5        3.7578
   6        4.9504
   7       12.7013
   8       20.3962
   9       22.0377
  10       25.0449
  11       34.8342
  12       37.2926
 
 -0.4500000E+00  0.4500000E+00  0.2500000E+00  0.1200000E-01
   1        0.6528
   2        1.1765
   3        1.9051
   4        2.9509
   5        3.6792
   6        6.4823
   7       12.1288
   8       17.8595
   9       18.6391
  10       27.5450
  11       33.8516
  12       36.4169
 
 -0.3500000E+00  0.4500000E+00  0.2500000E+00  0.1200000E-01
   1        0.9061
   2        1.3133
   3        1.6165
   4        3.0515
   5        3.7458
   6        8.7598
   7       11.9642
   8       14.8683
   9       16.0170
  10       31.3037
  11       32.6734
  12       36.1778
 
 -0.2500000E+00  0.4500000E+00  0.2500000E+00  0.1200000E-01
   1        0.8325
   2        1.3133
   3        1.7110
   4        3.0572
   5        3.8546
   6       10.3126
   7       11.6383
   8       13.8892
   9       14.7881
  10       31.3681
  11       33.9436
  12       35.2531
 
 -0.4500000E+00 -0.4500000E+00  0.2500000E+00  0.6000000E-02
   1        0.6438
   2        0.9881
   3        2.2521
   4        3.0642
   5        3.7370
   6        7.6932
   7       11.3693
   8       15.3303
   9       20.5357
  10       24.5139
  11       34.2134
  12       40.0353
 
 -0.3500000E+00 -0.4500000E+00  0.2500000E+00  0.1200000E-01
   1        0.7388
   2        1.0092
   3        2.1371
   4        3.1650
   5        3.7513
   6        9.4405
   7       11.2098
   8       13.6330
   9       17.8198
  10       27.1868
  11       34.2200
  12       37.8980
 
 -0.3500000E+00 -0.3500000E+00  0.2500000E+00  0.6000000E-02
   1        0.6655
   2        0.9213
   3        2.3531
   4        3.2147
   5        3.6717
   6        9.1320
   7       10.9848
   8       13.5326
   9       20.2260
  10       24.4286
  11       34.0885
  12       41.1510
 
  0.3500000E+00  0.3500000E+00  0.3500000E+00  0.2000000E-02
   1       -0.8828
   2        2.1556
   3        2.2029
   4        2.2029
   5        3.4730
   6        3.4730
   7       13.1656
   8       26.3186
   9       27.4400
  10       27.4400
  11       31.4541
  12       31.4541
 
  0.4500000E+00  0.3500000E+00  0.3500000E+00  0.6000000E-02
   1       -0.3208
   2        2.0528
   3        2.1409
   4        2.2747
   5        3.4126
   6        4.2366
   7       12.0865
   8       22.4403
   9       26.8983
  10       27.4302
  11       31.5340
  12       32.9223
 
 -0.4500000E+00  0.3500000E+00  0.3500000E+00  0.6000000E-02
   1        0.4427
   2        1.6548
   3        1.8936