Automatically generated mesh
     110
Reciprocal lattice
    0.05000000000000    0.05000000000000    0.05000000000000            96
    0.15000000000000    0.05000000000000    0.05000000000000           288
    0.25000000000000    0.05000000000000    0.05000000000000           288
    0.35000000000000    0.05000000000000    0.05000000000000           288
    0.45000000000000    0.05000000000000    0.05000000000000           288
   -0.45000000000000    0.05000000000000    0.05000000000000           288
   -0.35000000000000    0.05000000000000    0.05000000000000           288
   -0.25000000000000    0.05000000000000    0.05000000000000           288
   -0.15000000000000    0.05000000000000    0.05000000000000           288
   -0.05000000000000    0.05000000000000    0.05000000000000           288
    0.15000000000000    0.15000000000000    0.05000000000000           288
    0.25000000000000    0.15000000000000    0.05000000000000           576
    0.35000000000000    0.15000000000000    0.05000000000000           576
    0.45000000000000    0.15000000000000    0.05000000000000           576
   -0.45000000000000    0.15000000000000    0.05000000000000           576
   -0.35000000000000    0.15000000000000    0.05000000000000           576
   -0.25000000000000    0.15000000000000    0.05000000000000           576
   -0.15000000000000    0.15000000000000    0.05000000000000           576
   -0.05000000000000    0.15000000000000    0.05000000000000           576
    0.25000000000000    0.25000000000000    0.05000000000000           288
    0.35000000000000    0.25000000000000    0.05000000000000           576
    0.45000000000000    0.25000000000000    0.05000000000000           576
   -0.45000000000000    0.25000000000000    0.05000000000000           576
   -0.35000000000000    0.25000000000000    0.05000000000000           576
   -0.25000000000000    0.25000000000000    0.05000000000000           576
   -0.15000000000000    0.25000000000000    0.05000000000000           576
   -0.05000000000000    0.25000000000000    0.05000000000000           576
    0.35000000000000    0.35000000000000    0.05000000000000           288
    0.45000000000000    0.35000000000000    0.05000000000000           576
   -0.45000000000000    0.35000000000000    0.05000000000000           576
   -0.35000000000000    0.35000000000000    0.05000000000000           576
   -0.25000000000000    0.35000000000000    0.05000000000000           576
   -0.15000000000000    0.35000000000000    0.05000000000000           576
   -0.05000000000000    0.35000000000000    0.05000000000000           576
    0.45000000000000    0.45000000000000    0.05000000000000           288
   -0.45000000000000    0.45000000000000    0.05000000000000           576
   -0.35000000000000    0.45000000000000    0.05000000000000           576
   -0.25000000000000    0.45000000000000    0.05000000000000           576
   -0.15000000000000    0.45000000000000    0.05000000000000           576
   -0.05000000000000    0.45000000000000    0.05000000000000           576
   -0.45000000000000   -0.45000000000000    0.05000000000000           288
   -0.35000000000000   -0.45000000000000    0.05000000000000           576
   -0.25000000000000   -0.45000000000000    0.05000000000000           576
   -0.15000000000000   -0.45000000000000    0.05000000000000           576
   -0.35000000000000   -0.35000000000000    0.05000000000000           288
   -0.25000000000000   -0.35000000000000    0.05000000000000           576
   -0.15000000000000   -0.35000000000000    0.05000000000000           576
   -0.25000000000000   -0.25000000000000    0.05000000000000           288
   -0.15000000000000   -0.25000000000000    0.05000000000000           576
   -0.15000000000000   -0.15000000000000    0.05000000000000           288
    0.15000000000000    0.15000000000000    0.15000000000000            96
    0.25000000000000    0.15000000000000    0.15000000000000           288
    0.35000000000000    0.15000000000000    0.15000000000000           288
    0.45000000000000    0.15000000000000    0.15000000000000           288
   -0.45000000000000    0.15000000000000    0.15000000000000           288
   -0.35000000000000    0.15000000000000    0.15000000000000           288
   -0.25000000000000    0.15000000000000    0.15000000000000           288
   -0.15000000000000    0.15000000000000    0.15000000000000           288
    0.25000000000000    0.25000000000000    0.15000000000000           288
    0.35000000000000    0.25000000000000    0.15000000000000           576
    0.45000000000000    0.25000000000000    0.15000000000000           576
   -0.45000000000000    0.25000000000000    0.15000000000000           576
   -0.35000000000000    0.25000000000000    0.15000000000000           576
   -0.25000000000000    0.25000000000000    0.15000000000000           576
   -0.15000000000000    0.25000000000000    0.15000000000000           576
    0.35000000000000    0.35000000000000    0.15000000000000           288
    0.45000000000000    0.35000000000000    0.15000000000000           576
   -0.45000000000000    0.35000000000000    0.15000000000000           576
   -0.35000000000000    0.35000000000000    0.15000000000000           576
   -0.25000000000000    0.35000000000000    0.15000000000000           576
   -0.15000000000000    0.35000000000000    0.15000000000000           576
    0.45000000000000    0.45000000000000    0.15000000000000           288
   -0.45000000000000    0.45000000000000    0.15000000000000           576
   -0.35000000000000    0.45000000000000    0.15000000000000           576
   -0.25000000000000    0.45000000000000    0.15000000000000           576
   -0.15000000000000    0.45000000000000    0.15000000000000           576
   -0.45000000000000   -0.45000000000000    0.15000000000000           288
   -0.35000000000000   -0.45000000000000    0.15000000000000           576
   -0.25000000000000   -0.45000000000000    0.15000000000000           576
   -0.35000000000000   -0.35000000000000    0.15000000000000           288
   -0.25000000000000   -0.35000000000000    0.15000000000000           576
   -0.25000000000000   -0.25000000000000    0.15000000000000           288
    0.25000000000000    0.25000000000000    0.25000000000000            96
    0.35000000000000    0.25000000000000    0.25000000000000           288
    0.45000000000000    0.25000000000000    0.25000000000000           288
   -0.45000000000000    0.25000000000000    0.25000000000000           288
   -0.35000000000000    0.25000000000000    0.25000000000000           288
   -0.25000000000000    0.25000000000000    0.25000000000000           288
    0.35000000000000    0.35000000000000    0.25000000000000           288
    0.45000000000000    0.35000000000000    0.25000000000000           576
   -0.45000000000000    0.35000000000000    0.25000000000000           576
   -0.35000000000000    0.35000000000000    0.25000000000000           576
   -0.25000000000000    0.35000000000000    0.25000000000000           576
    0.45000000000000    0.45000000000000    0.25000000000000           288
   -0.45000000000000    0.45000000000000    0.25000000000000           576
   -0.35000000000000    0.45000000000000    0.25000000000000           576
   -0.25000000000000    0.45000000000000    0.25000000000000           576
   -0.45000000000000   -0.45000000000000    0.25000000000000           288
   -0.35000000000000   -0.45000000000000    0.25000000000000           576
   -0.35000000000000   -0.35000000000000    0.25000000000000           288
    0.35000000000000    0.35000000000000    0.35000000000000            96
    0.45000000000000    0.35000000000000    0.35000000000000           288
   -0.45000000000000    0.35000000000000    0.35000000000000           288
   -0.35000000000000    0.35000000000000    0.35000000000000           288
    0.45000000000000    0.45000000000000    0.35000000000000           288
   -0.45000000000000    0.45000000000000    0.35000000000000           576
   -0.35000000000000    0.45000000000000    0.35000000000000           576
   -0.45000000000000   -0.45000000000000    0.35000000000000           288
    0.45000000000000    0.45000000000000    0.45000000000000            96
   -0.45000000000000    0.45000000000000    0.45000000000000           288
