loading pathscale
loading mpich
 running on    4 nodes
 distr:  one band on    1 nodes,    4 groups
 vasp.4.6.26 15Dec04 complex 
 POSCAR found :  1 types and    1 ions
 LDA part: xc-table for Ceperly-Alder, standard interpolation
 POSCAR, INCAR and KPOINTS ok, starting setup
 WARNING: wrap around errors must be expected
 FFT: planning ... 1
 reading WAVECAR
 entering main loop
       N       E                     dE             d eps       ncg     rms          rms(c)
DAV:   1     0.228539544193E+02    0.22854E+02   -0.42335E+03  2948   0.890E+02
DAV:   2    -0.576019510844E+01   -0.28614E+02   -0.26935E+02  2748   0.139E+02
DAV:   3    -0.635288867369E+01   -0.59269E+00   -0.58118E+00  3076   0.224E+01
DAV:   4    -0.635383182504E+01   -0.94315E-03   -0.94311E-03  2924   0.824E-01
DAV:   5    -0.635383322895E+01   -0.14039E-05   -0.14043E-05  2288   0.334E-02    0.787E+00
RMM:   6    -0.583276878270E+01    0.52106E+00   -0.30229E+00  3254   0.224E+01    0.488E+00
RMM:   7    -0.539223714571E+01    0.44053E+00   -0.53987E-01  3216   0.908E+00    0.967E-01
RMM:   8    -0.537582479474E+01    0.16412E-01   -0.19293E-03  3257   0.461E-01    0.165E-01
RMM:   9    -0.537512430522E+01    0.70049E-03   -0.75538E-04  3251   0.360E-01    0.277E-02
RMM:  10    -0.537513935890E+01   -0.15054E-04   -0.15155E-05  1572   0.493E-02
   1 F= -.53751394E+01 E0= -.53642357E+01  d E =-.218072E-01
