 vasp.4.6.26 15Dec04 complex 
 executed on       LinuxPathScale date 2009.11.24  11:34:37
 running on    4 nodes
 distr:  one band on    1 nodes,    4 groups


--------------------------------------------------------------------------------------------------------


 INCAR:
 POTCAR:   PAW_GGA Ni 03Mar1998                   
 POTCAR:   PAW_GGA Ni 03Mar1998                   
  local pseudopotential read in
  partial core-charges read in
  atomic valenz-charges read in
  non local Contribution for L= 2  read in
    real space projection operators read in
  non local Contribution for L= 2  read in
    real space projection operators read in
  non local Contribution for L= 0  read in
    real space projection operators read in
  non local Contribution for L= 0  read in
    real space projection operators read in
  non local Contribution for L= 1  read in
    real space projection operators read in
  non local Contribution for L= 1  read in
    real space projection operators read in
    PAW grid and wavefunctions read in
 
   number of l-projection  operators is LMAX  = 6
   number of lm-projection operators is LMMAX = 18
 
 PAW_GGA Ni 03Mar1998                   :
 energy of atom  1       EATOM=-1079.4692
 kinetic energy error for atom=    0.0234 (will be added to EATOM!!)
 
 EXHCAR: internal setup
 exchange correlation table for  LEXCH =        7
   RHO(1)=    0.500       N(1)  =     2000
   RHO(2)=  100.500       N(2)  =     4000
 
 POSCAR: Pure FCC metal                          
  positions in direct lattice
  No initial velocities read in
 


--------------------------------------------------------------------------------------------------------


 ion  position               nearest neighbor table
   1  0.000  0.000  0.000-
 
  LATTYP: Found a face centered cubic cell.
 ALAT       =     3.6239000000
  
  Lattice vectors:
  
 A1 = (   0.0000000000,   1.8119500000,   1.8119500000)
 A2 = (   1.8119500000,   0.0000000000,   1.8119500000)
 A3 = (   1.8119500000,   1.8119500000,   0.0000000000)
 Subroutine PRICEL returns:
 Original cell was already a primitive cell.
 

Analysis of symmetry for initial positions (statically):

 Routine SETGRP: Setting up the symmetry group for a 
 face centered cubic supercell.


 Subroutine GETGRP returns: Found 48 space group operations
 (whereof 48 operations were pure point group operations)
 out of a pool of 48 trial point group operations.


The static configuration has the point symmetry O_h .

Analysis of symmetry for dynamics (positions and initial velocities):

 Subroutine DYNSYM returns: Found 48 space group operations
 (whereof 48 operations were pure point group operations)
 out of a pool of 48 trial space group operations
 (whereof 48 operations were pure point group operations)
 and found also     1 'primitive' translations


The dynamic configuration has the point symmetry O_h .
 
 
 KPOINTS: 10x10x10                                

Automatic generation of k-mesh.
 
 Subroutine IBZKPT returns following result:
 ===========================================
 
 Found    110 irreducible k-points:
 
 Following reciprocal coordinates:
            Coordinates               Weight
  0.050000  0.050000  0.050000     96.000000
  0.150000  0.050000  0.050000    288.000000
  0.250000  0.050000  0.050000    288.000000
  0.350000  0.050000  0.050000    288.000000
  0.450000  0.050000  0.050000    288.000000
 -0.450000  0.050000  0.050000    288.000000
 -0.350000  0.050000  0.050000    288.000000
 -0.250000  0.050000  0.050000    288.000000
 -0.150000  0.050000  0.050000    288.000000
 -0.050000  0.050000  0.050000    288.000000
  0.150000  0.150000  0.050000    288.000000
  0.250000  0.150000  0.050000    576.000000
  0.350000  0.150000  0.050000    576.000000
  0.450000  0.150000  0.050000    576.000000
 -0.450000  0.150000  0.050000    576.000000
 -0.350000  0.150000  0.050000    576.000000
 -0.250000  0.150000  0.050000    576.000000
 -0.150000  0.150000  0.050000    576.000000
 -0.050000  0.150000  0.050000    576.000000
  0.250000  0.250000  0.050000    288.000000
  0.350000  0.250000  0.050000    576.000000
  0.450000  0.250000  0.050000    576.000000
 -0.450000  0.250000  0.050000    576.000000
 -0.350000  0.250000  0.050000    576.000000
 -0.250000  0.250000  0.050000    576.000000
 -0.150000  0.250000  0.050000    576.000000
 -0.050000  0.250000  0.050000    576.000000
  0.350000  0.350000  0.050000    288.000000
  0.450000  0.350000  0.050000    576.000000
 -0.450000  0.350000  0.050000    576.000000
 -0.350000  0.350000  0.050000    576.000000
 -0.250000  0.350000  0.050000    576.000000
 -0.150000  0.350000  0.050000    576.000000
 -0.050000  0.350000  0.050000    576.000000
  0.450000  0.450000  0.050000    288.000000
 -0.450000  0.450000  0.050000    576.000000
 -0.350000  0.450000  0.050000    576.000000
 -0.250000  0.450000  0.050000    576.000000
 -0.150000  0.450000  0.050000    576.000000
 -0.050000  0.450000  0.050000    576.000000
 -0.450000 -0.450000  0.050000    288.000000
 -0.350000 -0.450000  0.050000    576.000000
 -0.250000 -0.450000  0.050000    576.000000
 -0.150000 -0.450000  0.050000    576.000000
 -0.350000 -0.350000  0.050000    288.000000
 -0.250000 -0.350000  0.050000    576.000000
 -0.150000 -0.350000  0.050000    576.000000
 -0.250000 -0.250000  0.050000    288.000000
 -0.150000 -0.250000  0.050000    576.000000
 -0.150000 -0.150000  0.050000    288.000000
  0.150000  0.150000  0.150000     96.000000
  0.250000  0.150000  0.150000    288.000000
  0.350000  0.150000  0.150000    288.000000
  0.450000  0.150000  0.150000    288.000000
 -0.450000  0.150000  0.150000    288.000000
 -0.350000  0.150000  0.150000    288.000000
 -0.250000  0.150000  0.150000    288.000000
 -0.150000  0.150000  0.150000    288.000000
  0.250000  0.250000  0.150000    288.000000
  0.350000  0.250000  0.150000    576.000000
  0.450000  0.250000  0.150000    576.000000
 -0.450000  0.250000  0.150000    576.000000
 -0.350000  0.250000  0.150000    576.000000
 -0.250000  0.250000  0.150000    576.000000
 -0.150000  0.250000  0.150000    576.000000
  0.350000  0.350000  0.150000    288.000000
  0.450000  0.350000  0.150000    576.000000
 -0.450000  0.350000  0.150000    576.000000
 -0.350000  0.350000  0.150000    576.000000
 -0.250000  0.350000  0.150000    576.000000
 -0.150000  0.350000  0.150000    576.000000
  0.450000  0.450000  0.150000    288.000000
 -0.450000  0.450000  0.150000    576.000000
 -0.350000  0.450000  0.150000    576.000000
 -0.250000  0.450000  0.150000    576.000000
 -0.150000  0.450000  0.150000    576.000000
 -0.450000 -0.450000  0.150000    288.000000
 -0.350000 -0.450000  0.150000    576.000000
 -0.250000 -0.450000  0.150000    576.000000
 -0.350000 -0.350000  0.150000    288.000000
 -0.250000 -0.350000  0.150000    576.000000
 -0.250000 -0.250000  0.150000    288.000000
  0.250000  0.250000  0.250000     96.000000
  0.350000  0.250000  0.250000    288.000000
  0.450000  0.250000  0.250000    288.000000
 -0.450000  0.250000  0.250000    288.000000
 -0.350000  0.250000  0.250000    288.000000
 -0.250000  0.250000  0.250000    288.000000
  0.350000  0.350000  0.250000    288.000000
  0.450000  0.350000  0.250000    576.000000
 -0.450000  0.350000  0.250000    576.000000
 -0.350000  0.350000  0.250000    576.000000
 -0.250000  0.350000  0.250000    576.000000
  0.450000  0.450000  0.250000    288.000000
 -0.450000  0.450000  0.250000    576.000000
 -0.350000  0.450000  0.250000    576.000000
 -0.250000  0.450000  0.250000    576.000000
 -0.450000 -0.450000  0.250000    288.000000
 -0.350000 -0.450000  0.250000    576.000000
 -0.350000 -0.350000  0.250000    288.000000
  0.350000  0.350000  0.350000     96.000000
  0.450000  0.350000  0.350000    288.000000
 -0.450000  0.350000  0.350000    288.000000
 -0.350000  0.350000  0.350000    288.000000
  0.450000  0.450000  0.350000    288.000000
 -0.450000  0.450000  0.350000    576.000000
 -0.350000  0.450000  0.350000    576.000000
 -0.450000 -0.450000  0.350000    288.000000
  0.450000  0.450000  0.450000     96.000000
 -0.450000  0.450000  0.450000    288.000000
 
 Following cartesian coordinates:
            Coordinates               Weight
  0.050000  0.050000  0.050000     96.000000
 -0.050000  0.150000  0.150000    288.000000
 -0.150000  0.250000  0.250000    288.000000
 -0.250000  0.350000  0.350000    288.000000
 -0.350000  0.450000  0.450000    288.000000
  0.550000 -0.450000 -0.450000    288.000000
  0.450000 -0.350000 -0.350000    288.000000
  0.350000 -0.250000 -0.250000    288.000000
  0.250000 -0.150000 -0.150000    288.000000
  0.150000 -0.050000 -0.050000    288.000000
  0.050000  0.050000  0.250000    288.000000
 -0.050000  0.150000  0.350000    576.000000
 -0.150000  0.250000  0.450000    576.000000
 -0.250000  0.350000  0.550000    576.000000
  0.650000 -0.550000 -0.350000    576.000000
  0.550000 -0.450000 -0.250000    576.000000
  0.450000 -0.350000 -0.150000    576.000000
  0.350000 -0.250000 -0.050000    576.000000
  0.250000 -0.150000  0.050000    576.000000
  0.050000  0.050000  0.450000    288.000000
 -0.050000  0.150000  0.550000    576.000000
 -0.150000  0.250000  0.650000    576.000000
  0.750000 -0.650000 -0.250000    576.000000
  0.650000 -0.550000 -0.150000    576.000000
  0.550000 -0.450000 -0.050000    576.000000
  0.450000 -0.350000  0.050000    576.000000
  0.350000 -0.250000  0.150000    576.000000
  0.050000  0.050000  0.650000    288.000000
 -0.050000  0.150000  0.750000    576.000000
  0.850000 -0.750000 -0.150000    576.000000
  0.750000 -0.650000 -0.050000    576.000000
  0.650000 -0.550000  0.050000    576.000000
  0.550000 -0.450000  0.150000    576.000000
  0.450000 -0.350000  0.250000    576.000000
  0.050000  0.050000  0.850000    288.000000
  0.950000 -0.850000 -0.050000    576.000000
  0.850000 -0.750000  0.050000    576.000000
  0.750000 -0.650000  0.150000    576.000000
  0.650000 -0.550000  0.250000    576.000000
  0.550000 -0.450000  0.350000    576.000000
  0.050000  0.050000 -0.950000    288.000000
 -0.050000  0.150000 -0.850000    576.000000
 -0.150000  0.250000 -0.750000    576.000000
 -0.250000  0.350000 -0.650000    576.000000
  0.050000  0.050000 -0.750000    288.000000
 -0.050000  0.150000 -0.650000    576.000000
 -0.150000  0.250000 -0.550000    576.000000
  0.050000  0.050000 -0.550000    288.000000
 -0.050000  0.150000 -0.450000    576.000000
  0.050000  0.050000 -0.350000    288.000000
  0.150000  0.150000  0.150000     96.000000
  0.050000  0.250000  0.250000    288.000000
 -0.050000  0.350000  0.350000    288.000000
 -0.150000  0.450000  0.450000    288.000000
  0.750000 -0.450000 -0.450000    288.000000
  0.650000 -0.350000 -0.350000    288.000000
  0.550000 -0.250000 -0.250000    288.000000
  0.450000 -0.150000 -0.150000    288.000000
  0.150000  0.150000  0.350000    288.000000
  0.050000  0.250000  0.450000    576.000000
 -0.050000  0.350000  0.550000    576.000000
  0.850000 -0.550000 -0.350000    576.000000
  0.750000 -0.450000 -0.250000    576.000000
  0.650000 -0.350000 -0.150000    576.000000
  0.550000 -0.250000 -0.050000    576.000000
  0.150000  0.150000  0.550000    288.000000
  0.050000  0.250000  0.650000    576.000000
  0.950000 -0.650000 -0.250000    576.000000
  0.850000 -0.550000 -0.150000    576.000000
  0.750000 -0.450000 -0.050000    576.000000
  0.650000 -0.350000  0.050000    576.000000
  0.150000  0.150000  0.750000    288.000000
  1.050000 -0.750000 -0.150000    576.000000
  0.950000 -0.650000 -0.050000    576.000000
  0.850000 -0.550000  0.050000    576.000000
  0.750000 -0.450000  0.150000    576.000000
  0.150000  0.150000 -1.050000    288.000000
  0.050000  0.250000 -0.950000    576.000000
 -0.050000  0.350000 -0.850000    576.000000
  0.150000  0.150000 -0.850000    288.000000
  0.050000  0.250000 -0.750000    576.000000
  0.150000  0.150000 -0.650000    288.000000
  0.250000  0.250000  0.250000     96.000000
  0.150000  0.350000  0.350000    288.000000
  0.050000  0.450000  0.450000    288.000000
  0.950000 -0.450000 -0.450000    288.000000
  0.850000 -0.350000 -0.350000    288.000000
  0.750000 -0.250000 -0.250000    288.000000
  0.250000  0.250000  0.450000    288.000000
  0.150000  0.350000  0.550000    576.000000
  1.050000 -0.550000 -0.350000    576.000000
  0.950000 -0.450000 -0.250000    576.000000
  0.850000 -0.350000 -0.150000    576.000000
  0.250000  0.250000  0.650000    288.000000
  1.150000 -0.650000 -0.250000    576.000000
  1.050000 -0.550000 -0.150000    576.000000
  0.950000 -0.450000 -0.050000    576.000000
  0.250000  0.250000 -1.150000    288.000000
  0.150000  0.350000 -1.050000    576.000000
  0.250000  0.250000 -0.950000    288.000000
  0.350000  0.350000  0.350000     96.000000
  0.250000  0.450000  0.450000    288.000000
  1.150000 -0.450000 -0.450000    288.000000
  1.050000 -0.350000 -0.350000    288.000000
  0.350000  0.350000  0.550000    288.000000
  1.250000 -0.550000 -0.350000    576.000000
  1.150000 -0.450000 -0.250000    576.000000
  0.350000  0.350000 -1.250000    288.000000
  0.450000  0.450000  0.450000     96.000000
  1.350000 -0.450000 -0.450000    288.000000
 


--------------------------------------------------------------------------------------------------------




 Dimension of arrays:
   k-Points           NKPTS =    110   number of bands    NBANDS=     12
   number of dos      NEDOS =    301   number of ions     NIONS =      1
   non local maximal  LDIM  =      6   non local SUM 2l+1 LMDIM =     18
   total plane-waves  NPLWV =   1728
   max r-space proj   IRMAX =      1   max aug-charges    IRDMAX=   2924
   dimension x,y,z NGX =    12 NGY =   12 NGZ =   12
   dimension x,y,z NGXF=    20 NGYF=   20 NGZF=   20
   support grid    NGXF=    20 NGYF=   20 NGZF=   20
   ions per type =               1
 NGX,Y,Z   is equivalent  to a cutoff of   7.79,  7.79,  7.79 a.u.
 NGXF,Y,Z  is equivalent  to a cutoff of  12.98, 12.98, 12.98 a.u.


 I would recommend the setting:
   dimension x,y,z NGX =    12 NGY =   12 NGZ =   12
 SYSTEM =  Pt, FCC                                 
 POSCAR =  Pure FCC metal                          

 Startparameter for this run:
   NWRITE =      1    write-flag & timer
   PREC   = med       medium, high low
   ISTART =      0    job   : 0-new  1-cont  2-samecut
   ICHARG =      2    charge: 1-file 2-atom 10-const
   ISPIN  =      1    spin polarized calculation?
   LNONCOLLINEAR =      F non collinear calculations
   LSORBIT =      F    spin-orbit coupling
   INIWAV =      1    electr: 0-lowe 1-rand  2-diag
   LASPH  =      F    aspherical Exc in radial PAW
   METAGGA=      F    non-selfconsistent MetaGGA calc.

 Electronic Relaxation 1
   ENCUT  =  350.0 eV  25.72 Ry    5.07 a.u.   3.91  3.91  3.91*2*pi/ulx,y,z
   ENINI  =  350.0     initial cutoff
   ENAUG  =  544.6 eV  augmentation charge cutoff
   NELM   =     60;   NELMIN=  2; NELMDL= -5     # of ELM steps 
   EDIFF  = 0.1E-03   stopping-criterion for ELM
   LREAL  =      F    real-space projection
   LCOMPAT=      F    compatible to vasp.4.4
   LREAL_COMPAT= F    compatible to vasp.4.5.1-3
   GGA_COMPAT  = T    GGA compatible to vasp.4.4-vasp.4.6
   LMAXPAW     = -100 max onsite density
   LMAXMIX     =    2 max onsite mixed and CHGCAR
   VOSKOWN=      0    Vosko Wilk Nusair interpolation
   ROPT   =    0.00000
 Ionic relaxation
   EDIFFG = 0.1E-02   stopping-criterion for IOM
   NSW    =      0    number of steps for IOM
   NBLOCK =      1;   KBLOCK =      1    inner block; outer block 
   IBRION =     -1    ionic relax: 0-MD 1-quasi-New 2-CG
   NFREE  =      0    steps in history (QN), initial steepest desc. (CG)
   ISIF   =      2    stress and relaxation
   IWAVPR =     10    prediction:  0-non 1-charg 2-wave 3-comb
   ISYM   =      2    0-nonsym 1-usesym 2-fastsym
   LCORR  =      T    Harris-Foulkes like correction to forces

   POTIM  =   0.50    time-step for ionic-motion
   TEIN   =    0.0    initial temperature
   TEBEG  =    0.0;   TEEND  =   0.0 temperature during run
   SMASS  =  -3.00    Nose mass-parameter (am)
   estimated Nose-frequenzy (Omega)   =  0.10E-29 period in steps =****** mass=  -0.150E-27a.u.
   NPACO  =    256;   APACO  = 16.0  distance and # of slots for P.C.
   PSTRESS=    0.0 pullay stress

  Mass of Ions in am
   POMASS =  58.69
  Ionic Valenz
   ZVAL   =  10.00
  Atomic Wigner-Seitz radii
   RWIGS  =  -1.00
   NELECT =      10.0000    total number of electrons
   NUPDOWN=      -1.0000    fix difference up-down

 DOS related values:
   EMIN   =  10.00;   EMAX   =-10.00  energy-range for DOS
   ISMEAR =     0;   SIGMA  =   0.10  broadening in eV -4-tet -1-fermi 0-gaus

 Electronic relaxation 2 (details)
   IALGO  =     68    algorithm
   LDIAG  =      T    sub-space diagonalisation
   IMIX   =      4    mixing-type and parameters
     AMIX     =   0.40;   BMIX     =  1.00
     AMIX_MAG =   1.60;   BMIX_MAG =  1.00
     AMIN     =   0.10
     WC   =   100.;   INIMIX=   1;  MIXPRE=   1

 Intra band minimization:
   WEIMIN = 0.0000     energy-eigenvalue tresh-hold
   EBREAK =  0.28E-05  absolut break condition
   DEPER  =   0.30     relativ break condition  

   TIME   =   0.10     timestep for ELM

  volume/ion in A,a.u.               =      11.90        80.29
  Fermi-wavevector in a.u.,eV,Ry     =   1.544965 32.475972  2.386917

 Second variation
   LSECVAR=     F    do a second variation
 
 Write flags
   LWAVE  =      F    write WAVECAR
   LCHARG =      F    write CHGCAR
   LVTOT  =      F    write LOCPOT, local potential
   LELF   =      F    write electronic localiz. function (ELF)
   LORBIT =      0    0 simple, 1 ext, 2 COOP (PROOUT)


 Dipole corrections
   IDIPOL =      0    1-x, 2-y, 3-z
   LDIPOL =      F    correct potential



--------------------------------------------------------------------------------------------------------


 Static calculation
 charge density will be updated during run
 non-spin polarized calculation
 RMM-DIIS sequential band-by-band and
  variant of blocked Davidson during initial phase
 performe sub-space diagonalisation
    before iterative eigenvector-optimisation
 modified Broyden-mixing scheme, WC =      100.0
 initial mixing is a Kerker type mixing with AMIX =  0.4000 and BMIX =      1.0000
 Hartree-type preconditioning will be used
 using additional bands  7
 reciprocal scheme for non local part
 use partial core corrections
 calculate Harris-corrections to forces   (improved forces if not selfconsistent)
 use gradient corrections 
 use of overlap-Matrix (Vanderbilt PP)
 Gauss-broadening in eV      SIGMA  =   0.10


--------------------------------------------------------------------------------------------------------


  energy-cutoff  :      350.00
  volume of cell :       11.90
      direct lattice vectors                 reciprocal lattice vectors
     0.000000000  1.811950000  1.811950000    -0.275945804  0.275945804  0.275945804
     1.811950000  0.000000000  1.811950000     0.275945804 -0.275945804  0.275945804
     1.811950000  1.811950000  0.000000000     0.275945804  0.275945804 -0.275945804

  length of vectors
     2.562484264  2.562484264  2.562484264     0.477952153  0.477952153  0.477952153


 
 k-points in units of 2pi/SCALE and weight: 10x10x10                                
   0.05000000  0.05000000  0.05000000       0.002
  -0.05000000  0.15000000  0.15000000       0.006
  -0.15000000  0.25000000  0.25000000       0.006
  -0.25000000  0.35000000  0.35000000       0.006
  -0.35000000  0.45000000  0.45000000       0.006
   0.55000000 -0.45000000 -0.45000000       0.006
   0.45000000 -0.35000000 -0.35000000       0.006
   0.35000000 -0.25000000 -0.25000000       0.006
   0.25000000 -0.15000000 -0.15000000       0.006
   0.15000000 -0.05000000 -0.05000000       0.006
   0.05000000  0.05000000  0.25000000       0.006
  -0.05000000  0.15000000  0.35000000       0.012
  -0.15000000  0.25000000  0.45000000       0.012
  -0.25000000  0.35000000  0.55000000       0.012
   0.65000000 -0.55000000 -0.35000000       0.012
   0.55000000 -0.45000000 -0.25000000       0.012
   0.45000000 -0.35000000 -0.15000000       0.012
   0.35000000 -0.25000000 -0.05000000       0.012
   0.25000000 -0.15000000  0.05000000       0.012
   0.05000000  0.05000000  0.45000000       0.006
  -0.05000000  0.15000000  0.55000000       0.012
  -0.15000000  0.25000000  0.65000000       0.012
   0.75000000 -0.65000000 -0.25000000       0.012
   0.65000000 -0.55000000 -0.15000000       0.012
   0.55000000 -0.45000000 -0.05000000       0.012
   0.45000000 -0.35000000  0.05000000       0.012
   0.35000000 -0.25000000  0.15000000       0.012
   0.05000000  0.05000000  0.65000000       0.006
  -0.05000000  0.15000000  0.75000000       0.012
   0.85000000 -0.75000000 -0.15000000       0.012
   0.75000000 -0.65000000 -0.05000000       0.012
   0.65000000 -0.55000000  0.05000000       0.012
   0.55000000 -0.45000000  0.15000000       0.012
   0.45000000 -0.35000000  0.25000000       0.012
   0.05000000  0.05000000  0.85000000       0.006
   0.95000000 -0.85000000 -0.05000000       0.012
   0.85000000 -0.75000000  0.05000000       0.012
   0.75000000 -0.65000000  0.15000000       0.012
   0.65000000 -0.55000000  0.25000000       0.012
   0.55000000 -0.45000000  0.35000000       0.012
   0.05000000  0.05000000 -0.95000000       0.006
  -0.05000000  0.15000000 -0.85000000       0.012
  -0.15000000  0.25000000 -0.75000000       0.012
  -0.25000000  0.35000000 -0.65000000       0.012
   0.05000000  0.05000000 -0.75000000       0.006
  -0.05000000  0.15000000 -0.65000000       0.012
  -0.15000000  0.25000000 -0.55000000       0.012
   0.05000000  0.05000000 -0.55000000       0.006
  -0.05000000  0.15000000 -0.45000000       0.012
   0.05000000  0.05000000 -0.35000000       0.006
   0.15000000  0.15000000  0.15000000       0.002
   0.05000000  0.25000000  0.25000000       0.006
  -0.05000000  0.35000000  0.35000000       0.006
  -0.15000000  0.45000000  0.45000000       0.006
   0.75000000 -0.45000000 -0.45000000       0.006
   0.65000000 -0.35000000 -0.35000000       0.006
   0.55000000 -0.25000000 -0.25000000       0.006
   0.45000000 -0.15000000 -0.15000000       0.006
   0.15000000  0.15000000  0.35000000       0.006
   0.05000000  0.25000000  0.45000000       0.012
  -0.05000000  0.35000000  0.55000000       0.012
   0.85000000 -0.55000000 -0.35000000       0.012
   0.75000000 -0.45000000 -0.25000000       0.012
   0.65000000 -0.35000000 -0.15000000       0.012
   0.55000000 -0.25000000 -0.05000000       0.012
   0.15000000  0.15000000  0.55000000       0.006
   0.05000000  0.25000000  0.65000000       0.012
   0.95000000 -0.65000000 -0.25000000       0.012
   0.85000000 -0.55000000 -0.15000000       0.012
   0.75000000 -0.45000000 -0.05000000       0.012
   0.65000000 -0.35000000  0.05000000       0.012
   0.15000000  0.15000000  0.75000000       0.006
   1.05000000 -0.75000000 -0.15000000       0.012
   0.95000000 -0.65000000 -0.05000000       0.012
   0.85000000 -0.55000000  0.05000000       0.012
   0.75000000 -0.45000000  0.15000000       0.012
   0.15000000  0.15000000 -1.05000000       0.006
   0.05000000  0.25000000 -0.95000000       0.012
  -0.05000000  0.35000000 -0.85000000       0.012
   0.15000000  0.15000000 -0.85000000       0.006
   0.05000000  0.25000000 -0.75000000       0.012
   0.15000000  0.15000000 -0.65000000       0.006
   0.25000000  0.25000000  0.25000000       0.002
   0.15000000  0.35000000  0.35000000       0.006
   0.05000000  0.45000000  0.45000000       0.006
   0.95000000 -0.45000000 -0.45000000       0.006
   0.85000000 -0.35000000 -0.35000000       0.006
   0.75000000 -0.25000000 -0.25000000       0.006
   0.25000000  0.25000000  0.45000000       0.006
   0.15000000  0.35000000  0.55000000       0.012
   1.05000000 -0.55000000 -0.35000000       0.012
   0.95000000 -0.45000000 -0.25000000       0.012
   0.85000000 -0.35000000 -0.15000000       0.012
   0.25000000  0.25000000  0.65000000       0.006
   1.15000000 -0.65000000 -0.25000000       0.012
   1.05000000 -0.55000000 -0.15000000       0.012
   0.95000000 -0.45000000 -0.05000000       0.012
   0.25000000  0.25000000 -1.15000000       0.006
   0.15000000  0.35000000 -1.05000000       0.012
   0.25000000  0.25000000 -0.95000000       0.006
   0.35000000  0.35000000  0.35000000       0.002
   0.25000000  0.45000000  0.45000000       0.006
   1.15000000 -0.45000000 -0.45000000       0.006
   1.05000000 -0.35000000 -0.35000000       0.006
   0.35000000  0.35000000  0.55000000       0.006
   1.25000000 -0.55000000 -0.35000000       0.012
   1.15000000 -0.45000000 -0.25000000       0.012
   0.35000000  0.35000000 -1.25000000       0.006
   0.45000000  0.45000000  0.45000000       0.002
   1.35000000 -0.45000000 -0.45000000       0.006
 
 k-points in reciprocal lattice and weights: 10x10x10                                
   0.05000000  0.05000000  0.05000000       0.002
   0.15000000  0.05000000  0.05000000       0.006
   0.25000000  0.05000000  0.05000000       0.006
   0.35000000  0.05000000  0.05000000       0.006
   0.45000000  0.05000000  0.05000000       0.006
  -0.45000000  0.05000000  0.05000000       0.006
  -0.35000000  0.05000000  0.05000000       0.006
  -0.25000000  0.05000000  0.05000000       0.006
  -0.15000000  0.05000000  0.05000000       0.006
  -0.05000000  0.05000000  0.05000000       0.006
   0.15000000  0.15000000  0.05000000       0.006
   0.25000000  0.15000000  0.05000000       0.012
   0.35000000  0.15000000  0.05000000       0.012
   0.45000000  0.15000000  0.05000000       0.012
  -0.45000000  0.15000000  0.05000000       0.012
  -0.35000000  0.15000000  0.05000000       0.012
  -0.25000000  0.15000000  0.05000000       0.012
  -0.15000000  0.15000000  0.05000000       0.012
  -0.05000000  0.15000000  0.05000000       0.012
   0.25000000  0.25000000  0.05000000       0.006
   0.35000000  0.25000000  0.05000000       0.012
   0.45000000  0.25000000  0.05000000       0.012
  -0.45000000  0.25000000  0.05000000       0.012
  -0.35000000  0.25000000  0.05000000       0.012
  -0.25000000  0.25000000  0.05000000       0.012
  -0.15000000  0.25000000  0.05000000       0.012
  -0.05000000  0.25000000  0.05000000       0.012
   0.35000000  0.35000000  0.05000000       0.006
   0.45000000  0.35000000  0.05000000       0.012
  -0.45000000  0.35000000  0.05000000       0.012
  -0.35000000  0.35000000  0.05000000       0.012
  -0.25000000  0.35000000  0.05000000       0.012
  -0.15000000  0.35000000  0.05000000       0.012
  -0.05000000  0.35000000  0.05000000       0.012
   0.45000000  0.45000000  0.05000000       0.006
  -0.45000000  0.45000000  0.05000000       0.012
  -0.35000000  0.45000000  0.05000000       0.012
  -0.25000000  0.45000000  0.05000000       0.012
  -0.15000000  0.45000000  0.05000000       0.012
  -0.05000000  0.45000000  0.05000000       0.012
  -0.45000000 -0.45000000  0.05000000       0.006
  -0.35000000 -0.45000000  0.05000000       0.012
  -0.25000000 -0.45000000  0.05000000       0.012
  -0.15000000 -0.45000000  0.05000000       0.012
  -0.35000000 -0.35000000  0.05000000       0.006
  -0.25000000 -0.35000000  0.05000000       0.012
  -0.15000000 -0.35000000  0.05000000       0.012
  -0.25000000 -0.25000000  0.05000000       0.006
  -0.15000000 -0.25000000  0.05000000       0.012
  -0.15000000 -0.15000000  0.05000000       0.006
   0.15000000  0.15000000  0.15000000       0.002
   0.25000000  0.15000000  0.15000000       0.006
   0.35000000  0.15000000  0.15000000       0.006
   0.45000000  0.15000000  0.15000000       0.006
  -0.45000000  0.15000000  0.15000000       0.006
  -0.35000000  0.15000000  0.15000000       0.006
  -0.25000000  0.15000000  0.15000000       0.006
  -0.15000000  0.15000000  0.15000000       0.006
   0.25000000  0.25000000  0.15000000       0.006
   0.35000000  0.25000000  0.15000000       0.012
   0.45000000  0.25000000  0.15000000       0.012
  -0.45000000  0.25000000  0.15000000       0.012
  -0.35000000  0.25000000  0.15000000       0.012
  -0.25000000  0.25000000  0.15000000       0.012
  -0.15000000  0.25000000  0.15000000       0.012
   0.35000000  0.35000000  0.15000000       0.006
   0.45000000  0.35000000  0.15000000       0.012
  -0.45000000  0.35000000  0.15000000       0.012
  -0.35000000  0.35000000  0.15000000       0.012
  -0.25000000  0.35000000  0.15000000       0.012
  -0.15000000  0.35000000  0.15000000       0.012
   0.45000000  0.45000000  0.15000000       0.006
  -0.45000000  0.45000000  0.15000000       0.012
  -0.35000000  0.45000000  0.15000000       0.012
  -0.25000000  0.45000000  0.15000000       0.012
  -0.15000000  0.45000000  0.15000000       0.012
  -0.45000000 -0.45000000  0.15000000       0.006
  -0.35000000 -0.45000000  0.15000000       0.012
  -0.25000000 -0.45000000  0.15000000       0.012
  -0.35000000 -0.35000000  0.15000000       0.006
  -0.25000000 -0.35000000  0.15000000       0.012
  -0.25000000 -0.25000000  0.15000000       0.006
   0.25000000  0.25000000  0.25000000       0.002
   0.35000000  0.25000000  0.25000000       0.006
   0.45000000  0.25000000  0.25000000       0.006
  -0.45000000  0.25000000  0.25000000       0.006
  -0.35000000  0.25000000  0.25000000       0.006
  -0.25000000  0.25000000  0.25000000       0.006
   0.35000000  0.35000000  0.25000000       0.006
   0.45000000  0.35000000  0.25000000       0.012
  -0.45000000  0.35000000  0.25000000       0.012
  -0.35000000  0.35000000  0.25000000       0.012
  -0.25000000  0.35000000  0.25000000       0.012
   0.45000000  0.45000000  0.25000000       0.006
  -0.45000000  0.45000000  0.25000000       0.012
  -0.35000000  0.45000000  0.25000000       0.012
  -0.25000000  0.45000000  0.25000000       0.012
  -0.45000000 -0.45000000  0.25000000       0.006
  -0.35000000 -0.45000000  0.25000000       0.012
  -0.35000000 -0.35000000  0.25000000       0.006
   0.35000000  0.35000000  0.35000000       0.002
   0.45000000  0.35000000  0.35000000       0.006
  -0.45000000  0.35000000  0.35000000       0.006
  -0.35000000  0.35000000  0.35000000       0.006
   0.45000000  0.45000000  0.35000000       0.006
  -0.45000000  0.45000000  0.35000000       0.012
  -0.35000000  0.45000000  0.35000000       0.012
  -0.45000000 -0.45000000  0.35000000       0.006
   0.45000000  0.45000000  0.45000000       0.002
  -0.45000000  0.45000000  0.45000000       0.006
 
 position of ions in fractional coordinates (direct lattice) 
   0.00000000  0.00000000  0.00000000
 
 position of ions in cartesian coordinates  (Angst):
   0.00000000  0.00000000  0.00000000
 


--------------------------------------------------------------------------------------------------------


 k-point  1 :  0.05000.05000.0500  plane waves:    169
 k-point  2 :  0.15000.05000.0500  plane waves:    172
 k-point  3 :  0.25000.05000.0500  plane waves:    171
 k-point  4 :  0.35000.05000.0500  plane waves:    175
 k-point  5 :  0.45000.05000.0500  plane waves:    173
 k-point  6 :  -.45000.05000.0500  plane waves:    174
 k-point  7 :  -.35000.05000.0500  plane waves:    174
 k-point  8 :  -.25000.05000.0500  plane waves:    174
 k-point  9 :  -.15000.05000.0500  plane waves:    172
 k-point 10 :  -.05000.05000.0500  plane waves:    171
 k-point 11 :  0.15000.15000.0500  plane waves:    173
 k-point 12 :  0.25000.15000.0500  plane waves:    172
 k-point 13 :  0.35000.15000.0500  plane waves:    174
 k-point 14 :  0.45000.15000.0500  plane waves:    178
 k-point 15 :  -.45000.15000.0500  plane waves:    175
 k-point 16 :  -.35000.15000.0500  plane waves:    174
 k-point 17 :  -.25000.15000.0500  plane waves:    176
 k-point 18 :  -.15000.15000.0500  plane waves:    173
 k-point 19 :  -.05000.15000.0500  plane waves:    173
 k-point 20 :  0.25000.25000.0500  plane waves:    173
 k-point 21 :  0.35000.25000.0500  plane waves:    176
 k-point 22 :  0.45000.25000.0500  plane waves:    177
 k-point 23 :  -.45000.25000.0500  plane waves:    179
 k-point 24 :  -.35000.25000.0500  plane waves:    176
 k-point 25 :  -.25000.25000.0500  plane waves:    176
 k-point 26 :  -.15000.25000.0500  plane waves:    174
 k-point 27 :  -.05000.25000.0500  plane waves:    172
 k-point 28 :  0.35000.35000.0500  plane waves:    174
 k-point 29 :  0.45000.35000.0500  plane waves:    178
 k-point 30 :  -.45000.35000.0500  plane waves:    181
 k-point 31 :  -.35000.35000.0500  plane waves:    180
 k-point 32 :  -.25000.35000.0500  plane waves:    177
 k-point 33 :  -.15000.35000.0500  plane waves:    176
 k-point 34 :  -.05000.35000.0500  plane waves:    175
 k-point 35 :  0.45000.45000.0500  plane waves:    184
 k-point 36 :  -.45000.45000.0500  plane waves:    183
 k-point 37 :  -.35000.45000.0500  plane waves:    178
 k-point 38 :  -.25000.45000.0500  plane waves:    180
 k-point 39 :  -.15000.45000.0500  plane waves:    177
 k-point 40 :  -.05000.45000.0500  plane waves:    174
 k-point 41 :  -.4500-.45000.0500  plane waves:    186
 k-point 42 :  -.3500-.45000.0500  plane waves:    179
 k-point 43 :  -.2500-.45000.0500  plane waves:    180
 k-point 44 :  -.1500-.45000.0500  plane waves:    176
 k-point 45 :  -.3500-.35000.0500  plane waves:    177
 k-point 46 :  -.2500-.35000.0500  plane waves:    180
 k-point 47 :  -.1500-.35000.0500  plane waves:    177
 k-point 48 :  -.2500-.25000.0500  plane waves:    175
 k-point 49 :  -.1500-.25000.0500  plane waves:    171
 k-point 50 :  -.1500-.15000.0500  plane waves:    170
 k-point 51 :  0.15000.15000.1500  plane waves:    172
 k-point 52 :  0.25000.15000.1500  plane waves:    174
 k-point 53 :  0.35000.15000.1500  plane waves:    173
 k-point 54 :  0.45000.15000.1500  plane waves:    175
 k-point 55 :  -.45000.15000.1500  plane waves:    176
 k-point 56 :  -.35000.15000.1500  plane waves:    174
 k-point 57 :  -.25000.15000.1500  plane waves:    178
 k-point 58 :  -.15000.15000.1500  plane waves:    173
 k-point 59 :  0.25000.25000.1500  plane waves:    170
 k-point 60 :  0.35000.25000.1500  plane waves:    171
 k-point 61 :  0.45000.25000.1500  plane waves:    178
 k-point 62 :  -.45000.25000.1500  plane waves:    176
 k-point 63 :  -.35000.25000.1500  plane waves:    176
 k-point 64 :  -.25000.25000.1500  plane waves:    176
 k-point 65 :  -.15000.25000.1500  plane waves:    176
 k-point 66 :  0.35000.35000.1500  plane waves:    178
 k-point 67 :  0.45000.35000.1500  plane waves:    178
 k-point 68 :  -.45000.35000.1500  plane waves:    183
 k-point 69 :  -.35000.35000.1500  plane waves:    181
 k-point 70 :  -.25000.35000.1500  plane waves:    178
 k-point 71 :  -.15000.35000.1500  plane waves:    180
 k-point 72 :  0.45000.45000.1500  plane waves:    179
 k-point 73 :  -.45000.45000.1500  plane waves:    179
 k-point 74 :  -.35000.45000.1500  plane waves:    180
 k-point 75 :  -.25000.45000.1500  plane waves:    180
 k-point 76 :  -.15000.45000.1500  plane waves:    178
 k-point 77 :  -.4500-.45000.1500  plane waves:    181
 k-point 78 :  -.3500-.45000.1500  plane waves:    178
 k-point 79 :  -.2500-.45000.1500  plane waves:    182
 k-point 80 :  -.3500-.35000.1500  plane waves:    178
 k-point 81 :  -.2500-.35000.1500  plane waves:    179
 k-point 82 :  -.2500-.25000.1500  plane waves:    179
 k-point 83 :  0.25000.25000.2500  plane waves:    168
 k-point 84 :  0.35000.25000.2500  plane waves:    173
 k-point 85 :  0.45000.25000.2500  plane waves:    174
 k-point 86 :  -.45000.25000.2500  plane waves:    176
 k-point 87 :  -.35000.25000.2500  plane waves:    180
 k-point 88 :  -.25000.25000.2500  plane waves:    178
 k-point 89 :  0.35000.35000.2500  plane waves:    176
 k-point 90 :  0.45000.35000.2500  plane waves:    177
 k-point 91 :  -.45000.35000.2500  plane waves:    177
 k-point 92 :  -.35000.35000.2500  plane waves:    179
 k-point 93 :  -.25000.35000.2500  plane waves:    181
 k-point 94 :  0.45000.45000.2500  plane waves:    180
 k-point 95 :  -.45000.45000.2500  plane waves:    180
 k-point 96 :  -.35000.45000.2500  plane waves:    182
 k-point 97 :  -.25000.45000.2500  plane waves:    179
 k-point 98 :  -.4500-.45000.2500  plane waves:    180
 k-point 99 :  -.3500-.45000.2500  plane waves:    179
 k-point ** :  -.3500-.35000.2500  plane waves:    180
 k-point ** :  0.35000.35000.3500  plane waves:    177
 k-point ** :  0.45000.35000.3500  plane waves:    173
 k-point ** :  -.45000.35000.3500  plane waves:    177
 k-point ** :  -.35000.35000.3500  plane waves:    181
 k-point ** :  0.45000.45000.3500  plane waves:    170
 k-point ** :  -.45000.45000.3500  plane waves:    174
 k-point ** :  -.35000.45000.3500  plane waves:    178
 k-point ** :  -.4500-.45000.3500  plane waves:    178
 k-point ** :  0.45000.45000.4500  plane waves:    174
 k-point ** :  -.45000.45000.4500  plane waves:    174

 maximum and minimum number of plane-waves per node :    186   168

 maximum number of plane-waves:    186
 maximal index in each direction: 
   IXMAX=  4   IYMAX=  4   IZMAX=  3
   IXMIN= -4   IYMIN= -4   IZMIN= -4

 WARNING: wrap around error must be expected set NGX to  18
 WARNING: wrap around error must be expected set NGY to  18
 WARNING: wrap around error must be expected set NGZ to  16

 parallel 3dFFT wavefunction:
    minimum data exchange during FFTs selected (reduces bandwidth)
 parallel 3dFFT charge:
    minimum data exchange during FFTs selected (reduces bandwidth)

 For storing wavefunctions    3.73 MBYTES are necessary
 For predicting wavefunctions    0.11 MBYTES are necessary
Broyden mixing: mesh for mixing (old mesh)
   NGX =  7   NGY =  7   NGZ =  7
  (NGX  = 20   NGY  = 20   NGZ  = 20)
 gives a total of    343 points
 initial charge density was supplied:
 charge density of overlapping atoms calculated
 number of electron   10.0000000 magnetization 
 keeping initial charge density in first step


--------------------------------------------------------------------------------------------------------


 Maximum index for augmentation-charges  667 (set IRDMAX)


--------------------------------------------------------------------------------------------------------


 First call to EWALD:  gamma=   0.776
 Maximum number of real-space cells 3x 3x 3
 Maximum number of reciprocal cells 3x 3x 3



----------------------------------------- Iteration    1(   1)  ---------------------------------------


      LOOP:  VPU time    2.09: CPU time    2.10

 eigenvalue-minimisations  :  2948
 total energy-change (2. order) : 0.2285395E+02  (-0.4233542E+03)
 number of electron   10.0000000 magnetization 
 augmentation part    10.0000000 magnetization 

 Free energy of the ion-electron system (eV)
  ---------------------------------------------------
  alpha Z        PSCENC =        84.36083742
  Ewald energy   TEWEN  =      -910.91142205
  -1/2 Hartree   DENC   =      -258.50313149
  -V(xc)+E(xc)   XCENC  =        31.19807968
  PAW double counting   =       871.43822672     -938.66194588
  entropy T*S    EENTRO =        -0.00412866
  eigenvalues    EBANDS =        64.49164028
  atomic energy  EATOM  =      1079.44579839
  ---------------------------------------------------
  free energy    TOTEN  =        22.85395442 eV

  energy without entropy =       22.85808308  energy(sigma->0) =       22.85601875


--------------------------------------------------------------------------------------------------------




----------------------------------------- Iteration    1(   2)  ---------------------------------------


      LOOP:  VPU time    2.49: CPU time    2.50

 eigenvalue-minimisations  :  2748
 total energy-change (2. order) :-0.2861415E+02  (-0.2693529E+02)
 number of electron   10.0000000 magnetization 
 augmentation part    10.0000000 magnetization 

 Free energy of the ion-electron system (eV)
  ---------------------------------------------------
  alpha Z        PSCENC =        84.36083742
  Ewald energy   TEWEN  =      -910.91142205
  -1/2 Hartree   DENC   =      -258.50313149
  -V(xc)+E(xc)   XCENC  =        31.19807968
  PAW double counting   =       871.43822672     -938.66194588
  entropy T*S    EENTRO =        -0.01828694
  eigenvalues    EBANDS =        35.89164903
  atomic energy  EATOM  =      1079.44579839
  ---------------------------------------------------
  free energy    TOTEN  =        -5.76019511 eV

  energy without entropy =       -5.74190817  energy(sigma->0) =       -5.75105164


--------------------------------------------------------------------------------------------------------




----------------------------------------- Iteration    1(   3)  ---------------------------------------


      LOOP:  VPU time    2.24: CPU time    2.26

 eigenvalue-minimisations  :  3076
 total energy-change (2. order) :-0.5926936E+00  (-0.5811755E+00)
 number of electron   10.0000000 magnetization 
 augmentation part    10.0000000 magnetization 

 Free energy of the ion-electron system (eV)
  ---------------------------------------------------
  alpha Z        PSCENC =        84.36083742
  Ewald energy   TEWEN  =      -910.91142205
  -1/2 Hartree   DENC   =      -258.50313149
  -V(xc)+E(xc)   XCENC  =        31.19807968
  PAW double counting   =       871.43822672     -938.66194588
  entropy T*S    EENTRO =        -0.02005498
  eigenvalues    EBANDS =        35.30072351
  atomic energy  EATOM  =      1079.44579839
  ---------------------------------------------------
  free energy    TOTEN  =        -6.35288867 eV

  energy without entropy =       -6.33283369  energy(sigma->0) =       -6.34286118


--------------------------------------------------------------------------------------------------------




----------------------------------------- Iteration    1(   4)  ---------------------------------------


      LOOP:  VPU time    2.15: CPU time    2.16

 eigenvalue-minimisations  :  2924
 total energy-change (2. order) :-0.9431513E-03  (-0.9431102E-03)
 number of electron   10.0000000 magnetization 
 augmentation part    10.0000000 magnetization 

 Free energy of the ion-electron system (eV)
  ---------------------------------------------------
  alpha Z        PSCENC =        84.36083742
  Ewald energy   TEWEN  =      -910.91142205
  -1/2 Hartree   DENC   =      -258.50313149
  -V(xc)+E(xc)   XCENC  =        31.19807968
  PAW double counting   =       871.43822672     -938.66194588
  entropy T*S    EENTRO =        -0.02005953
  eigenvalues    EBANDS =        35.29978491
  atomic energy  EATOM  =      1079.44579839
  ---------------------------------------------------
  free energy    TOTEN  =        -6.35383183 eV

  energy without entropy =       -6.33377229  energy(sigma->0) =       -6.34380206


--------------------------------------------------------------------------------------------------------




----------------------------------------- Iteration    1(   5)  ---------------------------------------


      LOOP:  VPU time    1.86: CPU time    1.86

 eigenvalue-minimisations  :  2288
 total energy-change (2. order) :-0.1403911E-05  (-0.1404308E-05)
 number of electron   10.0000099 magnetization 
 augmentation part     5.6310104 magnetization 

 Broyden mixing:
  rms(total) = 0.78686E+00    rms(broyden)= 0.78640E+00
  rms(prec ) = 0.30402E+01
  weight for this iteration     100.00

 Free energy of the ion-electron system (eV)
  ---------------------------------------------------
  alpha Z        PSCENC =        84.36083742
  Ewald energy   TEWEN  =      -910.91142205
  -1/2 Hartree   DENC   =      -258.50313149
  -V(xc)+E(xc)   XCENC  =        31.19807968
  PAW double counting   =       871.43822672     -938.66194588
  entropy T*S    EENTRO =        -0.02005954
  eigenvalues    EBANDS =        35.29978351
  atomic energy  EATOM  =      1079.44579839
  ---------------------------------------------------
  free energy    TOTEN  =        -6.35383323 eV

  energy without entropy =       -6.33377369  energy(sigma->0) =       -6.34380346


--------------------------------------------------------------------------------------------------------




----------------------------------------- Iteration    1(   6)  ---------------------------------------


      LOOP:  VPU time    0.76: CPU time    0.77

 eigenvalue-minimisations  :  3254
 total energy-change (2. order) : 0.5210644E+00  (-0.3022944E+00)
 number of electron   10.0000134 magnetization 
 augmentation part     6.5993729 magnetization 

 Broyden mixing:
  rms(total) = 0.48839E+00    rms(broyden)= 0.48823E+00
  rms(prec ) = 0.17846E+01
  weight for this iteration     100.00

 eigenvalues of (default mixing * dielectric matrix)
  average eigenvalue GAMMA=   0.6169
  0.6169

 Free energy of the ion-electron system (eV)
  ---------------------------------------------------
  alpha Z        PSCENC =        84.36083742
  Ewald energy   TEWEN  =      -910.91142205
  -1/2 Hartree   DENC   =      -234.05583161
  -V(xc)+E(xc)   XCENC  =        29.93731853
  PAW double counting   =       853.78168486     -916.26916789
  entropy T*S    EENTRO =        -0.02388584
  eigenvalues    EBANDS =         7.90189940
  atomic energy  EATOM  =      1079.44579839
  ---------------------------------------------------
  free energy    TOTEN  =        -5.83276878 eV

  energy without entropy =       -5.80888294  energy(sigma->0) =       -5.82082586


--------------------------------------------------------------------------------------------------------




----------------------------------------- Iteration    1(   7)  ---------------------------------------


      LOOP:  VPU time    0.74: CPU time    0.75

 eigenvalue-minimisations  :  3216
 total energy-change (2. order) : 0.4405316E+00  (-0.5398745E-01)
 number of electron   10.0000117 magnetization 
 augmentation part     6.1379797 magnetization 

 Broyden mixing:
  rms(total) = 0.96684E-01    rms(broyden)= 0.96503E-01
  rms(prec ) = 0.38907E+00
  weight for this iteration     100.00

 eigenvalues of (default mixing * dielectric matrix)
  average eigenvalue GAMMA=   1.4939
  0.5697  2.4181

 Free energy of the ion-electron system (eV)
  ---------------------------------------------------
  alpha Z        PSCENC =        84.36083742
  Ewald energy   TEWEN  =      -910.91142205
  -1/2 Hartree   DENC   =      -242.92118052
  -V(xc)+E(xc)   XCENC  =        30.41128606
  PAW double counting   =       878.16557670     -944.56744020
  entropy T*S    EENTRO =        -0.02130388
  eigenvalues    EBANDS =        20.64561093
  atomic energy  EATOM  =      1079.44579839
  ---------------------------------------------------
  free energy    TOTEN  =        -5.39223715 eV

  energy without entropy =       -5.37093326  energy(sigma->0) =       -5.38158520


--------------------------------------------------------------------------------------------------------




----------------------------------------- Iteration    1(   8)  ---------------------------------------


      LOOP:  VPU time    0.77: CPU time    0.78

 eigenvalue-minimisations  :  3257
 total energy-change (2. order) : 0.1641235E-01  (-0.1929292E-03)
 number of electron   10.0000120 magnetization 
 augmentation part     6.2076257 magnetization 

 Broyden mixing:
  rms(total) = 0.16549E-01    rms(broyden)= 0.16535E-01
  rms(prec ) = 0.56964E-01
  weight for this iteration     100.00

 eigenvalues of (default mixing * dielectric matrix)
  average eigenvalue GAMMA=   1.2788
  2.4197  0.8590  0.5578

 Free energy of the ion-electron system (eV)
  ---------------------------------------------------
  alpha Z        PSCENC =        84.36083742
  Ewald energy   TEWEN  =      -910.91142205
  -1/2 Hartree   DENC   =      -239.13646570
  -V(xc)+E(xc)   XCENC  =        30.23230223
  PAW double counting   =       894.93025176     -963.03614757
  entropy T*S    EENTRO =        -0.02198829
  eigenvalues    EBANDS =        18.76100901
  atomic energy  EATOM  =      1079.44579839
  ---------------------------------------------------
  free energy    TOTEN  =        -5.37582479 eV

  energy without entropy =       -5.35383650  energy(sigma->0) =       -5.36483065


--------------------------------------------------------------------------------------------------------




----------------------------------------- Iteration    1(   9)  ---------------------------------------


      LOOP:  VPU time    0.78: CPU time    0.79

 eigenvalue-minimisations  :  3251
 total energy-change (2. order) : 0.7004895E-03  (-0.7553757E-04)
 number of electron   10.0000120 magnetization 
 augmentation part     6.1952497 magnetization 

 Broyden mixing:
  rms(total) = 0.27701E-02    rms(broyden)= 0.27485E-02
  rms(prec ) = 0.88288E-02
  weight for this iteration     100.00

 eigenvalues of (default mixing * dielectric matrix)
  average eigenvalue GAMMA=   1.3942
  0.5611  2.5524  1.1052  1.3580

 Free energy of the ion-electron system (eV)
  ---------------------------------------------------
  alpha Z        PSCENC =        84.36083742
  Ewald energy   TEWEN  =      -910.91142205
  -1/2 Hartree   DENC   =      -239.13076511
  -V(xc)+E(xc)   XCENC  =        30.23474009
  PAW double counting   =       898.70031418     -967.14394084
  entropy T*S    EENTRO =        -0.02178351
  eigenvalues    EBANDS =        19.09109712
  atomic energy  EATOM  =      1079.44579839
  ---------------------------------------------------
  free energy    TOTEN  =        -5.37512431 eV

  energy without entropy =       -5.35334079  energy(sigma->0) =       -5.36423255


--------------------------------------------------------------------------------------------------------




----------------------------------------- Iteration    1(  10)  ---------------------------------------


      LOOP:  VPU time    0.67: CPU time    0.68

 eigenvalue-minimisations  :  1572
 total energy-change (2. order) :-0.1505369E-04  (-0.1515518E-05)
 number of electron   10.0000120 magnetization 
 augmentation part     6.1952497 magnetization 

 Free energy of the ion-electron system (eV)
  ---------------------------------------------------
  alpha Z        PSCENC =        84.36083742
  Ewald energy   TEWEN  =      -910.91142205
  -1/2 Hartree   DENC   =      -239.14401950
  -V(xc)+E(xc)   XCENC  =        30.23576223
  PAW double counting   =       899.52652044     -967.96237618
  entropy T*S    EENTRO =        -0.02180723
  eigenvalues    EBANDS =        19.09556712
  atomic energy  EATOM  =      1079.44579839
  ---------------------------------------------------
  free energy    TOTEN  =        -5.37513936 eV

  energy without entropy =       -5.35333213  energy(sigma->0) =       -5.36423574


--------------------------------------------------------------------------------------------------------




 average (electrostatic) potential at core
  the test charge radii are     0.9791
  (the norm of the test charge is              1.0000)
       1 -43.2783
 
 
 
 E-fermi :   3.7386     XC(G=0): -12.7620     alpha+bet :-10.8694
   add alpha+bet to get absolut eigen values

 k-point   1 :       0.0500    0.0500    0.0500
  band No.  band energies     occupation 
      1      -4.3364      2.00000
      2       2.0998      2.00000
      3       2.1427      2.00000
      4       2.1427      2.00000
      5       3.0873      2.00000
      6       3.0873      2.00000
      7      26.8218      0.00000
      8      28.9712      0.00000
      9      29.9710      0.00000
     10      29.9710      0.00000
     11      33.2532      0.00000
     12      33.2533      0.00000

 k-point   2 :       0.1500    0.0500    0.0500
  band No.  band energies     occupation 
      1      -3.8548      2.00000
      2       1.9791      2.00000
      3       2.2335      2.00000
      4       2.2445      2.00000
      5       2.9996      2.00000
      6       3.1149      2.00000
      7      24.2734      0.00000
      8      26.4739      0.00000
      9      29.1342      0.00000
     10      30.6116      0.00000
     11      33.3380      0.00000
     12      33.5081      0.00000

 k-point   3 :       0.2500    0.0500    0.0500
  band No.  band energies     occupation 
      1      -2.7208      2.00000
      2       1.8002      2.00000
      3       2.3154      2.00000
      4       2.3457      2.00000
      5       2.9986      2.00000
      6       3.2307      2.00000
      7      19.2837      0.00000
      8      25.4286      0.00000
      9      28.6089      0.00000
     10      29.8811      0.00000
     11      33.0078      0.00000
     12      33.1059      0.00000

 k-point   4 :       0.3500    0.0500    0.0500
  band No.  band energies     occupation 
      1      -1.2441      2.00000
      2       1.8782      2.00000
      3       2.2274      2.00000
      4       2.2710      2.00000
      5       3.2689      2.00000
      6       3.5378      1.99549
      7      14.6254      0.00000
      8      24.8682      0.00000
      9      27.5124      0.00000
     10      29.0235      0.00000
     11      30.9372      0.00000
     12      32.6765      0.00000

 k-point   5 :       0.4500    0.0500    0.0500
  band No.  band energies     occupation 
      1      -0.2926      2.00000
      2       2.1028      2.00000
      3       2.1580      2.00000
      4       2.7502      2.00000
      5       3.5880      1.96679
      6       3.9886      0.00041
      7      10.7808      0.00000
      8      24.7835      0.00000
      9      26.6620      0.00000
     10      27.6106      0.00000
     11      30.4146      0.00000
     12      31.7932      0.00000

 k-point   6 :      -0.4500    0.0500    0.0500
  band No.  band energies     occupation 
      1      -0.1313      2.00000
      2       2.0572      2.00000
      3       2.1298      2.00000
      4       3.1781      2.00000
      5       3.7337      1.05466
      6       4.4222      0.00000
      7       9.3236      0.00000
      8      25.1022      0.00000
      9      26.4461      0.00000
     10      26.5955      0.00000
     11      30.9833      0.00000
     12      31.1389      0.00000

 k-point   7 :      -0.3500    0.0500    0.0500
  band No.  band energies     occupation 
      1      -0.4989      2.00000
      2       2.1244      2.00000
      3       2.2021      2.00000
      4       2.3693      2.00000
      5       3.6315      1.86996
      6       3.6885      1.52159
      7      11.9255      0.00000
      8      25.5968      0.00000
      9      25.9719      0.00000
     10      27.5873      0.00000
     11      31.0466      0.00000
     12      32.2681      0.00000

 k-point   8 :      -0.2500    0.0500    0.0500
  band No.  band energies     occupation 
      1      -1.7335      2.00000
      2       1.7802      2.00000
      3       2.2667      2.00000
      4       2.3139      2.00000
      5       3.2181      2.00000
      6       3.3688      2.00000
      7      16.1115      0.00000
      8      26.1732      0.00000
      9      26.2437      0.00000
     10      29.3222      0.00000
     11      31.4740      0.00000
     12      34.1799      0.00000

 k-point   9 :      -0.1500    0.0500    0.0500
  band No.  band energies     occupation 
      1      -3.1606      2.00000
      2       1.8453      2.00000
      3       2.3182      2.00000
      4       2.3262      2.00000
      5       2.9756      2.00000
      6       3.1630      2.00000
      7      20.9415      0.00000
      8      26.9601      0.00000
      9      26.9643      0.00000
     10      30.7031      0.00000
     11      32.1534      0.00000
     12      35.5889      0.00000

 k-point  10 :      -0.0500    0.0500    0.0500
  band No.  band energies     occupation 
      1      -4.0938      2.00000
      2       2.0238      2.00000
      3       2.2009      2.00000
      4       2.2040      2.00000
      5       3.0145      2.00000
      6       3.1199      2.00000
      7      25.7917      0.00000
      8      27.8351      0.00000
      9      28.2834      0.00000
     10      30.0115      0.00000
     11      33.3912      0.00000
     12      35.0168      0.00000

 k-point  11 :       0.1500    0.1500    0.0500
  band No.  band energies     occupation 
      1      -3.6179      2.00000
      2       1.8719      2.00000
      3       2.3218      2.00000
      4       2.3246      2.00000
      5       2.8848      2.00000
      6       3.1821      2.00000
      7      24.4514      0.00000
      8      26.4314      0.00000
      9      26.6499      0.00000
     10      28.8198      0.00000
     11      33.3802      0.00000
     12      35.2657      0.00000

 k-point  12 :       0.2500    0.1500    0.0500
  band No.  band energies     occupation 
      1      -2.7112      2.00000
      2       1.6685      2.00000
      3       2.3774      2.00000
      4       2.4988      2.00000
      5       2.8421      2.00000
      6       3.3028      2.00000
      7      21.2822      0.00000
      8      23.3887      0.00000
      9      27.1909      0.00000
     10      28.5147      0.00000
     11      31.4873      0.00000
     12      35.6095      0.00000

 k-point  13 :       0.3500    0.1500    0.0500
  band No.  band energies     occupation 
      1      -1.3355      2.00000
      2       1.5520      2.00000
      3       2.1801      2.00000
      4       2.5061      2.00000
      5       3.2126      2.00000
      6       3.6245      1.89318
      7      16.4681      0.00000
      8      22.6273      0.00000
      9      25.6908      0.00000
     10      27.6257      0.00000
     11      33.5091      0.00000
     12      34.2196      0.00000

 k-point  14 :       0.4500    0.1500    0.0500
  band No.  band energies     occupation 
      1      -0.1675      2.00000
      2       1.7993      2.00000
      3       2.0481      2.00000
      4       2.3990      2.00000
      5       3.6162      1.91650
      6       4.3912      0.00000
      7      12.2342      0.00000
      8      22.4732      0.00000
      9      23.9016      0.00000
     10      26.9343      0.00000
     11      32.9946      0.00000
     12      35.3224      0.00000

 k-point  15 :      -0.4500    0.1500    0.0500
  band No.  band energies     occupation 
      1       0.1651      2.00000
      2       1.8238      2.00000
      3       2.3173      2.00000
      4       2.4465      2.00000
      5       3.7098      1.31573
      6       5.6762      0.00000
      7       9.4461      0.00000
      8      22.1486      0.00000
      9      23.3766      0.00000
     10      26.8970      0.00000
     11      32.2357      0.00000
     12      34.9727      0.00000

 k-point  16 :      -0.3500    0.1500    0.0500
  band No.  band energies     occupation 
      1       0.0290      2.00000
      2       1.8909      2.00000
      3       2.1821      2.00000
      4       2.3505      2.00000
      5       3.5400      1.99503
      6       4.9052      0.00000
      7      11.0547      0.00000
      8      21.4051      0.00000
      9      24.6009      0.00000
     10      27.5890      0.00000
     11      31.8736      0.00000
     12      34.6718      0.00000

 k-point  17 :      -0.2500    0.1500    0.0500
  band No.  band energies     occupation 
      1      -0.8590      2.00000
      2       1.6457      2.00000
      3       2.1014      2.00000
      4       2.4561      2.00000
      5       3.1631      2.00000
      6       3.9572      0.00199
      7      14.9854      0.00000
      8      21.2766      0.00000
      9      26.4658      0.00000
     10      28.9615      0.00000
     11      31.9660      0.00000
     12      33.9790      0.00000

 k-point  18 :      -0.1500    0.1500    0.0500
  band No.  band energies     occupation 
      1      -2.2842      2.00000
      2       1.6579      2.00000
      3       2.2948      2.00000
      4       2.5230      2.00000
      5       2.8390      2.00000
      6       3.4497      1.99996
      7      19.6360      0.00000
      8      21.8069      0.00000
      9      28.6650      0.00000
     10      29.9925      0.00000
     11      32.4638      0.00000
     12      33.2419      0.00000

 k-point  19 :      -0.0500    0.1500    0.0500
  band No.  band energies     occupation 
      1      -3.3862      2.00000
      2       1.8544      2.00000
      3       2.3189      2.00000
      4       2.3370      2.00000
      5       2.9070      2.00000
      6       3.1861      2.00000
      7      22.7289      0.00000
      8      24.8952      0.00000
      9      28.4565      0.00000
     10      30.4590      0.00000
     11      32.6757      0.00000
     12      34.6547      0.00000

 k-point  20 :       0.2500    0.2500    0.0500
  band No.  band energies     occupation 
      1      -2.0815      2.00000
      2       1.4268      2.00000
      3       2.4792      2.00000
      4       2.7218      2.00000
      5       2.8414      2.00000
      6       3.3701      2.00000
      7      21.6906      0.00000
      8      22.9984      0.00000
      9      24.4382      0.00000
     10      25.2817      0.00000
     11      28.7160      0.00000
     12      39.5839      0.00000

 k-point  21 :       0.3500    0.2500    0.0500
  band No.  band energies     occupation 
      1      -0.9965      2.00000
      2       1.2200      2.00000
      3       2.2707      2.00000
      4       2.9322      2.00000
      5       3.2339      2.00000
      6       3.6383      1.84379
      7      18.7615      0.00000
      8      20.6903      0.00000
      9      22.4274      0.00000
     10      25.7938      0.00000
     11      29.0742      0.00000
     12      38.9651      0.00000

 k-point  22 :       0.4500    0.2500    0.0500
  band No.  band energies     occupation 
      1       0.0848      2.00000
      2       1.1854      2.00000
      3       2.0405      2.00000
      4       2.8559      2.00000
      5       3.6643      1.70621
      6       4.6823      0.00000
      7      14.3326      0.00000
      8      19.9388      0.00000
      9      20.5704      0.00000
     10      25.8351      0.00000
     11      32.4845      0.00000
     12      37.3353      0.00000

 k-point  23 :      -0.4500    0.2500    0.0500
  band No.  band energies     occupation 
      1       0.5972      2.00000
      2       1.3072      2.00000
      3       2.0129      2.00000
      4       2.7353      2.00000
      5       3.7271      1.12837
      6       6.7210      0.00000
      7      10.6206      0.00000
      8      18.2845      0.00000
      9      20.9581      0.00000
     10      26.0083      0.00000
     11      35.3138      0.00000
     12      37.6377      0.00000

 k-point  24 :      -0.3500    0.2500    0.0500
  band No.  band energies     occupation 
      1       0.6880      2.00000
      2       1.4449      2.00000
      3       1.9055      2.00000
      4       2.6775      2.00000
      5       3.5185      1.99815
      6       6.8413      0.00000
      7      10.6360      0.00000
      8      17.1619      0.00000
      9      22.2286      0.00000
     10      26.7277      0.00000
     11      34.5742      0.00000
     12      38.3070      0.00000

 k-point  25 :      -0.2500    0.2500    0.0500
  band No.  band energies     occupation 
      1       0.2417      2.00000
      2       1.5158      2.00000
      3       1.7583      2.00000
      4       2.7229      2.00000
      5       3.1389      2.00000
      6       5.0707      0.00000
      7      14.3393      0.00000
      8      16.7834      0.00000
      9      24.1248      0.00000
     10      28.1504      0.00000
     11      33.4574      0.00000
     12      37.0355      0.00000

 k-point  26 :      -0.1500    0.2500    0.0500
  band No.  band energies     occupation 
      1      -0.9553      2.00000
      2       1.5195      2.00000
      3       2.0806      2.00000
      4       2.6604      2.00000
      5       2.9104      2.00000
      6       4.0256      0.00005
      7      16.8258      0.00000
      8      19.0672      0.00000
      9      26.4449      0.00000
     10      29.9466      0.00000
     11      31.7344      0.00000
     12      34.8000      0.00000

 k-point  27 :      -0.0500    0.2500    0.0500
  band No.  band energies     occupation 
      1      -2.0943      2.00000
      2       1.6994      2.00000
      3       2.2881      2.00000
      4       2.4020      2.00000
      5       3.0274      2.00000
      6       3.4036      2.00000
      7      17.7918      0.00000
      8      23.9756      0.00000
      9      27.5796      0.00000
     10      29.8257      0.00000
     11      32.0287      0.00000
     12      33.6545      0.00000

 k-point  28 :       0.3500    0.3500    0.0500
  band No.  band energies     occupation 
      1      -0.4385      2.00000
      2       0.9530      2.00000
      3       2.7504      2.00000
      4       3.2364      2.00000
      5       3.5054      1.99902
      6       3.5866      1.96837
      7      19.1321      0.00000
      8      19.4916      0.00000
      9      20.2557      0.00000
     10      23.8061      0.00000
     11      26.8256      0.00000
     12      43.8878      0.00000

 k-point  29 :       0.4500    0.3500    0.0500
  band No.  band energies     occupation 
      1       0.0805      2.00000
      2       0.8256      2.00000
      3       2.7516      2.00000
      4       3.4084      2.00000
      5       3.6714      1.65804
      6       4.7983      0.00000
      7      16.7161      0.00000
      8      17.0426      0.00000
      9      18.7515      0.00000
     10      24.7212      0.00000
     11      27.9261      0.00000
     12      41.9254      0.00000

 k-point  30 :      -0.4500    0.3500    0.0500
  band No.  band energies     occupation 
      1       0.4938      2.00000
      2       0.8866      2.00000
      3       2.4444      2.00000
      4       3.2416      2.00000
      5       3.7740      0.61682
      6       7.1352      0.00000
      7      12.9670      0.00000
      8      15.0060      0.00000
      9      19.0235      0.00000
     10      25.1578      0.00000
     11      31.7926      0.00000
     12      40.0805      0.00000

 k-point  31 :      -0.3500    0.3500    0.0500
  band No.  band energies     occupation 
      1       0.8804      2.00000
      2       1.0405      2.00000
      3       2.0352      2.00000
      4       3.0621      2.00000
      5       3.6055      1.94023
      6       9.3734      0.00000
      7      10.2783      0.00000
      8      13.9237      0.00000
      9      20.1818      0.00000
     10      25.7062      0.00000
     11      36.6787      0.00000
     12      38.3037      0.00000

 k-point  32 :      -0.2500    0.3500    0.0500
  band No.  band energies     occupation 
      1       0.8885      2.00000
      2       1.3588      2.00000
      3       1.6935      2.00000
      4       2.8424      2.00000
      5       3.3872      2.00000
      6       6.8855      0.00000
      7      12.1451      0.00000
      8      15.0577      0.00000
      9      22.0159      0.00000
     10      26.6995      0.00000
     11      35.6644      0.00000
     12      39.5081      0.00000

 k-point  33 :      -0.1500    0.3500    0.0500
  band No.  band energies     occupation 
      1       0.1508      2.00000
      2       1.7134      2.00000
      3       1.8561      2.00000
      4       2.5321      2.00000
      5       3.3397      2.00000
      6       5.0226      0.00000
      7      12.5817      0.00000
      8      18.9840      0.00000
      9      24.2824      0.00000
     10      27.9665      0.00000
     11      32.6831      0.00000
     12      35.9943      0.00000

 k-point  34 :      -0.0500    0.3500    0.0500
  band No.  band energies     occupation 
      1      -0.6945      2.00000
      2       1.9242      2.00000
      3       2.1275      2.00000
      4       2.3003      2.00000
      5       3.4140      2.00000
      6       3.8264      0.21418
      7      13.3342      0.00000
      8      23.6197      0.00000
      9      26.3621      0.00000
     10      27.9661      0.00000
     11      31.6744      0.00000
     12      33.3872      0.00000

 k-point  35 :       0.4500    0.4500    0.0500
  band No.  band energies     occupation 
      1       0.0413      2.00000
      2       0.6254      2.00000
      3       3.5800      1.97511
      4       3.6296      1.87688
      5       3.7881      0.48349
      6       5.3442      0.00000
      7      14.3845      0.00000
      8      17.7438      0.00000
      9      18.5385      0.00000
     10      23.2350      0.00000
     11      26.1819      0.00000
     12      46.1049      0.00000

 k-point  36 :      -0.4500    0.4500    0.0500
  band No.  band energies     occupation 
      1       0.1730      2.00000
      2       0.6294      2.00000
      3       3.2917      2.00000
      4       3.6042      1.94253
      5       3.8576      0.09223
      6       7.0314      0.00000
      7      12.9064      0.00000
      8      16.0057      0.00000
      9      17.7702      0.00000
     10      24.3117      0.00000
     11      27.5346      0.00000
     12      44.3248      0.00000

 k-point  37 :      -0.3500    0.4500    0.0500
  band No.  band energies     occupation 
      1       0.4898      2.00000
      2       0.8272      2.00000
      3       2.6011      2.00000
      4       3.3496      2.00000
      5       3.7683      0.67426
      6       8.4080      0.00000
      7      12.5517      0.00000
      8      13.3559      0.00000
      9      18.7222      0.00000
     10      25.0389      0.00000
     11      31.6606      0.00000
     12      41.1533      0.00000

 k-point  38 :      -0.2500    0.4500    0.0500
  band No.  band energies     occupation 
      1       0.7999      2.00000
      2       1.1240      2.00000
      3       2.0213      2.00000
      4       2.9237      2.00000
      5       3.6743      1.63645
      6       8.2518      0.00000
      7      10.1690      0.00000
      8      15.8435      0.00000
      9      20.4411      0.00000
     10      25.8011      0.00000
     11      36.3062      0.00000
     12      37.7500      0.00000

 k-point  39 :      -0.1500    0.4500    0.0500
  band No.  band energies     occupation 
      1       0.4251      2.00000
      2       1.6196      2.00000
      3       2.1710      2.00000
      4       2.4838      2.00000
      5       3.6450      1.81432
      6       6.5110      0.00000
      7       9.5978      0.00000
      8      19.6207      0.00000
      9      22.6591      0.00000
     10      26.7909      0.00000
     11      33.3273      0.00000
     12      36.7616      0.00000

 k-point  40 :      -0.0500    0.4500    0.0500
  band No.  band energies     occupation 
      1      -0.0741      2.00000
      2       1.9963      2.00000
      3       2.2043      2.00000
      4       2.6978      2.00000
      5       3.6846      1.55506
      6       4.6887      0.00000
      7       9.9271      0.00000
      8      23.7964      0.00000
      9      25.1449      0.00000
     10      27.0584      0.00000
     11      31.3267      0.00000
     12      32.9748      0.00000

 k-point  41 :      -0.4500   -0.4500    0.0500
  band No.  band energies     occupation 
      1       0.0518      2.00000
      2       0.5543      2.00000
      3       3.6957      1.45595
      4       3.7300      1.09675
      5       3.8640      0.07605
      6       6.3949      0.00000
      7      12.8207      0.00000
      8      17.4000      0.00000
      9      18.1721      0.00000
     10      23.1283      0.00000
     11      26.0802      0.00000
     12      46.6974      0.00000

 k-point  42 :      -0.3500   -0.4500    0.0500
  band No.  band energies     occupation 
      1       0.1699      2.00000
      2       0.6966      2.00000
      3       3.0941      2.00000
      4       3.5583      1.98922
      5       3.7823      0.53670
      6       5.9601      0.00000
      7      14.5172      0.00000
      8      16.3228      0.00000
      9      18.1033      0.00000
     10      24.4454      0.00000
     11      27.6578      0.00000
     12      43.3147      0.00000

 k-point  43 :      -0.2500   -0.4500    0.0500
  band No.  band energies     occupation 
      1       0.4127      2.00000
      2       1.0107      2.00000
      3       2.2065      2.00000
      4       3.0622      2.00000
      5       3.7496      0.87613
      6       5.7659      0.00000
      7      13.5441      0.00000
      8      17.3805      0.00000
      9      19.6157      0.00000
     10      25.4118      0.00000
     11      32.0652      0.00000
     12      38.7135      0.00000

 k-point  44 :      -0.1500   -0.4500    0.0500
  band No.  band energies     occupation 
      1       0.2724      2.00000
      2       1.5520      2.00000
      3       2.0220      2.00000
      4       2.5506      2.00000
      5       3.7169      1.24028
      6       5.3835      0.00000
      7      11.3253      0.00000
      8      20.8645      0.00000
      9      21.7934      0.00000
     10      26.3634      0.00000
     11      34.1453      0.00000
     12      37.4753      0.00000

 k-point  45 :      -0.3500   -0.3500    0.0500
  band No.  band energies     occupation 
      1      -0.0625      2.00000
      2       0.7621      2.00000
      3       3.2489      2.00000
      4       3.4705      1.99985
      5       3.6883      1.52311
      6       4.1925      0.00000
      7      16.6757      0.00000
      8      18.4066      0.00000
      9      19.2466      0.00000
     10      23.4561      0.00000
     11      26.4118      0.00000
     12      45.0487      0.00000

 k-point  46 :      -0.2500   -0.3500    0.0500
  band No.  band energies     occupation 
      1      -0.2776      2.00000
      2       1.0054      2.00000
      3       2.4022      2.00000
      4       3.1804      2.00000
      5       3.5083      1.99888
      6       4.0113      0.00011
      7      17.7230      0.00000
      8      19.3493      0.00000
      9      19.8339      0.00000
     10      25.1583      0.00000
     11      28.3798      0.00000
     12      40.4548      0.00000

 k-point  47 :      -0.1500   -0.3500    0.0500
  band No.  band energies     occupation 
      1      -0.5502      2.00000
      2       1.3751      2.00000
      3       2.0549      2.00000
      4       2.6618      2.00000
      5       3.4836      1.99969
      6       3.9827      0.00055
      7      15.3128      0.00000
      8      21.3950      0.00000
      9      22.9879      0.00000
     10      26.4959      0.00000
     11      33.0252      0.00000
     12      35.9243      0.00000

 k-point  48 :      -0.2500   -0.2500    0.0500
  band No.  band energies     occupation 
      1      -1.1779      2.00000
      2       1.1815      2.00000
      3       2.4767      2.00000
      4       2.9750      2.00000
      5       3.1208      2.00000
      6       3.4792      1.99976
      7      20.4095      0.00000
      8      21.5207      0.00000
      9      22.0757      0.00000
     10      24.3235      0.00000
     11      27.5250      0.00000
     12      41.8117      0.00000

 k-point  49 :      -0.1500   -0.2500    0.0500
  band No.  band energies     occupation 
      1      -1.8788      2.00000
      2       1.4488      2.00000
      3       2.3263      2.00000
      4       2.7001      2.00000
      5       2.9618      2.00000
      6       3.4486      1.99996
      7      19.9549      0.00000
      8      21.9814      0.00000
      9      25.2022      0.00000
     10      26.7362      0.00000
     11      30.0805      0.00000
     12      37.3837      0.00000

 k-point  50 :      -0.1500   -0.1500    0.0500
  band No.  band energies     occupation 
      1      -2.9310      2.00000
      2       1.6652      2.00000
      3       2.4703      2.00000
      4       2.5002      2.00000
      5       2.7549      2.00000
      6       3.2682      2.00000
      7      23.0564      0.00000
      8      24.6492      0.00000
      9      25.5887      0.00000
     10      27.1781      0.00000
     11      30.7319      0.00000
     12      37.2901      0.00000

 k-point  51 :       0.1500    0.1500    0.1500
  band No.  band energies     occupation 
      1      -3.6200      2.00000
      2       1.9455      2.00000
      3       2.2625      2.00000
      4       2.2625      2.00000
      5       3.0577      2.00000
      6       3.0577      2.00000
      7      22.5658      0.00000
      8      27.8348      0.00000
      9      28.8433      0.00000
     10      28.8433      0.00000
     11      34.3474      0.00000
     12      34.9749      0.00000

 k-point  52 :       0.2500    0.1500    0.1500
  band No.  band energies     occupation 
      1      -2.9333      2.00000
      2       1.7876      2.00000
      3       2.3198      2.00000
      4       2.3986      2.00000
      5       2.8722      2.00000
      6       3.2750      2.00000
      7      21.1095      0.00000
      8      23.2848      0.00000
      9      29.8592      0.00000
     10      31.6879      0.00000
     11      31.7715      0.00000
     12      33.0383      0.00000

 k-point  53 :       0.3500    0.1500    0.1500
  band No.  band energies     occupation 
      1      -1.6797      2.00000
      2       1.6104      2.00000
      3       2.2181      2.00000
      4       2.5773      2.00000
      5       2.8099      2.00000
      6       3.6982      1.43211
      7      18.1490      0.00000
      8      20.3535      0.00000
      9      29.0950      0.00000
     10      29.9267      0.00000
     11      31.8707      0.00000
     12      33.3427      0.00000

 k-point  54 :       0.4500    0.1500    0.1500
  band No.  band energies     occupation 
      1      -0.3356      2.00000
      2       1.7294      2.00000
      3       1.9979      2.00000
      4       2.4454      2.00000
      5       3.1957      2.00000
      6       4.3906      0.00000
      7      13.6910      0.00000
      8      20.0426      0.00000
      9      27.1583      0.00000
     10      27.1857      0.00000
     11      33.1407      0.00000
     12      33.4693      0.00000

 k-point  55 :      -0.4500    0.1500    0.1500
  band No.  band energies     occupation 
      1       0.2218      2.00000
      2       1.8002      2.00000
      3       2.2680      2.00000
      4       2.3694      2.00000
      5       3.5684      1.98389
      6       5.6251      0.00000
      7      10.1443      0.00000
      8      20.4243      0.00000
      9      25.0172      0.00000
     10      25.9975      0.00000
     11      33.5409      0.00000
     12      34.3090      0.00000

 k-point  56 :      -0.3500    0.1500    0.1500
  band No.  band energies     occupation 
      1       0.2053      2.00000
      2       1.7314      2.00000
      3       2.2442      2.00000
      4       2.3975      2.00000
      5       3.7497      0.87490
      6       5.5420      0.00000
      7      10.1257      0.00000
      8      21.4833      0.00000
      9      23.6711      0.00000
     10      25.5145      0.00000
     11      34.5273      0.00000
     12      34.7944      0.00000

 k-point  57 :      -0.2500    0.1500    0.1500
  band No.  band energies     occupation 
      1      -0.3702      2.00000
      2       1.5519      2.00000
      3       2.0458      2.00000
      4       2.4984      2.00000
      5       3.6764      1.62041
      6       4.0471      0.00001
      7      13.6592      0.00000
      8      23.0774      0.00000
      9      23.1899      0.00000
     10      25.6876      0.00000
     11      35.2255      0.00000
     12      35.5890      0.00000

 k-point  58 :      -0.1500    0.1500    0.1500
  band No.  band energies     occupation 
      1      -1.6908      2.00000
      2       1.4834      2.00000
      3       2.2665      2.00000
      4       2.5779      2.00000
      5       3.1706      2.00000
      6       3.4448      1.99997
      7      18.1350      0.00000
      8      23.5438      0.00000
      9      24.6771      0.00000
     10      26.6576      0.00000
     11      31.7345      0.00000
     12      36.3337      0.00000

 k-point  59 :       0.2500    0.2500    0.1500
  band No.  band energies     occupation 
      1      -2.5007      2.00000
      2       1.6831      2.00000
      3       2.3457      2.00000
[...]
  band No.  band energies     occupation 
      1       0.7697      2.00000
      2       1.2918      2.00000
      3       1.9792      2.00000
      4       2.7702      2.00000
      5       3.5908      1.96334
      6       7.8024      0.00000
      7       9.9286      0.00000
      8      16.4007      0.00000
      9      22.3515      0.00000
     10      25.1015      0.00000
     11      37.4187      0.00000
     12      37.6484      0.00000

 k-point  88 :      -0.2500    0.2500    0.2500
  band No.  band energies     occupation 
      1       0.5142      2.00000
      2       1.1393      2.00000
      3       2.1087      2.00000
      4       2.8636      2.00000
      5       3.7771      0.58615
      6       6.1940      0.00000
      7      11.9336      0.00000
      8      17.7416      0.00000
      9      21.1454      0.00000
     10      24.7036      0.00000
     11      34.4658      0.00000
     12      38.6423      0.00000

 k-point  89 :       0.3500    0.3500    0.2500
  band No.  band energies     occupation 
      1      -1.0530      2.00000
      2       1.6992      2.00000
      3       2.1606      2.00000
      4       2.3782      2.00000
      5       3.4824      1.99971
      6       3.5413      1.99473
      7      14.7965      0.00000
      8      24.5768      0.00000
      9      25.1056      0.00000
     10      27.2557      0.00000
     11      33.2105      0.00000
     12      35.0352      0.00000

 k-point  90 :       0.4500    0.3500    0.2500
  band No.  band energies     occupation 
      1      -0.1951      2.00000
      2       1.5397      2.00000
      3       1.9407      2.00000
      4       2.5868      2.00000
      5       3.3820      2.00000
      6       4.4482      0.00000
      7      13.8497      0.00000
      8      20.1624      0.00000
      9      23.5673      0.00000
     10      28.3941      0.00000
     11      32.5232      0.00000
     12      35.9001      0.00000

 k-point  91 :      -0.4500    0.3500    0.2500
  band No.  band energies     occupation 
      1       0.7045      2.00000
      2       1.4364      2.00000
      3       1.5745      2.00000
      4       2.8762      2.00000
      5       3.3486      2.00000
      6       5.9683      0.00000
      7      13.3472      0.00000
      8      15.9458      0.00000
      9      21.2191      0.00000
     10      29.2616      0.00000
     11      32.8033      0.00000
     12      37.2633      0.00000

 k-point  92 :      -0.3500    0.3500    0.2500
  band No.  band energies     occupation 
      1       1.0784      2.00000
      2       1.1292      2.00000
      3       1.7209      2.00000
      4       2.9608      2.00000
      5       3.5719      1.98157
      6       8.2406      0.00000
      7      11.3127      0.00000
      8      14.5105      0.00000
      9      19.3446      0.00000
     10      28.1009      0.00000
     11      35.0777      0.00000
     12      38.7989      0.00000

 k-point  93 :      -0.2500    0.3500    0.2500
  band No.  band energies     occupation 
      1       0.7490      2.00000
      2       1.0510      2.00000
      3       2.0337      2.00000
      4       3.0942      2.00000
      5       3.7297      1.09994
      6       7.9790      0.00000
      7      11.5722      0.00000
      8      15.4787      0.00000
      9      18.0786      0.00000
     10      27.3047      0.00000
     11      34.1477      0.00000
     12      37.1052      0.00000

 k-point  94 :       0.4500    0.4500    0.2500
  band No.  band energies     occupation 
      1       0.1829      2.00000
      2       1.3469      2.00000
      3       2.0197      2.00000
      4       2.6659      2.00000
      5       3.7578      0.78568
      6       4.9504      0.00000
      7      12.7013      0.00000
      8      20.3962      0.00000
      9      22.0377      0.00000
     10      25.0449      0.00000
     11      34.8342      0.00000
     12      37.2926      0.00000

 k-point  95 :      -0.4500    0.4500    0.2500
  band No.  band energies     occupation 
      1       0.6528      2.00000
      2       1.1765      2.00000
      3       1.9051      2.00000
      4       2.9509      2.00000
      5       3.6792      1.59857
      6       6.4823      0.00000
      7      12.1288      0.00000
      8      17.8595      0.00000
      9      18.6391      0.00000
     10      27.5450      0.00000
     11      33.8516      0.00000
     12      36.4169      0.00000

 k-point  96 :      -0.3500    0.4500    0.2500
  band No.  band energies     occupation 
      1       0.9061      2.00000
      2       1.3133      2.00000
      3       1.6165      2.00000
      4       3.0515      2.00000
      5       3.7458      0.91896
      6       8.7598      0.00000
      7      11.9642      0.00000
      8      14.8683      0.00000
      9      16.0170      0.00000
     10      31.3037      0.00000
     11      32.6734      0.00000
     12      36.1778      0.00000

 k-point  97 :      -0.2500    0.4500    0.2500
  band No.  band energies     occupation 
      1       0.8325      2.00000
      2       1.3133      2.00000
      3       1.7110      2.00000
      4       3.0572      2.00000
      5       3.8546      0.10072
      6      10.3126      0.00000
      7      11.6383      0.00000
      8      13.8892      0.00000
      9      14.7881      0.00000
     10      31.3681      0.00000
     11      33.9436      0.00000
     12      35.2531      0.00000

 k-point  98 :      -0.4500   -0.4500    0.2500
  band No.  band energies     occupation 
      1       0.6438      2.00000
      2       0.9881      2.00000
      3       2.2521      2.00000
      4       3.0642      2.00000
      5       3.7370      1.01802
      6       7.6932      0.00000
      7      11.3693      0.00000
      8      15.3303      0.00000
      9      20.5357      0.00000
     10      24.5139      0.00000
     11      34.2134      0.00000
     12      40.0353      0.00000

 k-point  99 :      -0.3500   -0.4500    0.2500
  band No.  band energies     occupation 
      1       0.7388      2.00000
      2       1.0092      2.00000
      3       2.1371      2.00000
      4       3.1650      2.00000
      5       3.7513      0.85740
      6       9.4405      0.00000
      7      11.2098      0.00000
      8      13.6330      0.00000
      9      17.8198      0.00000
     10      27.1868      0.00000
     11      34.2200      0.00000
     12      37.8980      0.00000

 k-point 100 :      -0.3500   -0.3500    0.2500
  band No.  band energies     occupation 
      1       0.6655      2.00000
      2       0.9213      2.00000
      3       2.3531      2.00000
      4       3.2147      2.00000
      5       3.6717      1.65549
      6       9.1320      0.00000
      7      10.9848      0.00000
      8      13.5326      0.00000
      9      20.2260      0.00000
     10      24.4286      0.00000
     11      34.0885      0.00000
     12      41.1510      0.00000

 k-point 101 :       0.3500    0.3500    0.3500
  band No.  band energies     occupation 
      1      -0.8828      2.00000
      2       2.1556      2.00000
      3       2.2029      2.00000
      4       2.2029      2.00000
      5       3.4730      1.99983
      6       3.4730      1.99983
      7      13.1656      0.00000
      8      26.3186      0.00000
      9      27.4400      0.00000
     10      27.4400      0.00000
     11      31.4541      0.00000
     12      31.4541      0.00000

 k-point 102 :       0.4500    0.3500    0.3500
  band No.  band energies     occupation 
      1      -0.3208      2.00000
      2       2.0528      2.00000
      3       2.1409      2.00000
      4       2.2747      2.00000
      5       3.4126      2.00000
      6       4.2366      0.00000
      7      12.0865      0.00000
      8      22.4403      0.00000
      9      26.8983      0.00000
     10      27.4302      0.00000
     11      31.5340      0.00000
     12      32.9223      0.00000

 k-point 103 :      -0.4500    0.3500    0.3500
  band No.  band energies     occupation 
      1       0.4427      2.00000
      2       1.6548      2.00000
      3       1.8936      2.00000
      4       2.5573      2.00000
      5       3.3982      2.00000
      6       5.7958      0.00000
      7      11.5072      0.00000
      8      17.9736      0.00000
      9      24.5834      0.00000
     10      25.9848      0.00000
     11      35.1343      0.00000
     12      35.3992      0.00000

 k-point 104 :      -0.3500    0.3500    0.3500
  band No.  band energies     occupation 
      1       0.9349      2.00000
      2       1.1855      2.00000
      3       1.8802      2.00000
      4       2.9322      2.00000
      5       3.4748      1.99981
      6       8.0322      0.00000
      7      11.0910      0.00000
      8      14.3899      0.00000
      9      22.0847      0.00000
     10      25.0437      0.00000
     11      38.7273      0.00000
     12      38.7775      0.00000

 k-point 105 :       0.4500    0.4500    0.3500
  band No.  band energies     occupation 
      1      -0.1321      2.00000
      2       1.9642      2.00000
      3       2.2694      2.00000
      4       2.3551      2.00000
      5       3.7270      1.12998
      6       4.4227      0.00000
      7      10.9071      0.00000
      8      24.0132      0.00000
      9      24.7068      0.00000
     10      26.1184      0.00000
     11      32.9687      0.00000
     12      33.3012      0.00000

 k-point 106 :      -0.4500    0.4500    0.3500
  band No.  band energies     occupation 
      1       0.3484      2.00000
      2       1.6550      2.00000
      3       2.1123      2.00000
      4       2.4848      2.00000
      5       3.6481      1.79925
      6       5.9329      0.00000
      7      10.2526      0.00000
      8      20.5216      0.00000
      9      21.8540      0.00000
     10      27.9086      0.00000
     11      32.1591      0.00000
     12      37.2596      0.00000

 k-point 107 :      -0.3500    0.4500    0.3500
  band No.  band energies     occupation 
      1       0.9057      2.00000
      2       1.2187      2.00000
      3       1.8479      2.00000
      4       2.8328      2.00000
      5       3.6294      1.87726
      6       8.0870      0.00000
      7      10.0602      0.00000
      8      16.5554      0.00000
      9      19.5694      0.00000
     10      28.1000      0.00000
     11      33.9943      0.00000
     12      39.7571      0.00000

 k-point 108 :      -0.4500   -0.4500    0.3500
  band No.  band energies     occupation 
      1       0.5109      2.00000
      2       1.4869      2.00000
      3       2.1128      2.00000
      4       2.5732      2.00000
      5       3.6991      1.42366
      6       6.8300      0.00000
      7       9.6678      0.00000
      8      18.8584      0.00000
      9      22.8824      0.00000
     10      25.2395      0.00000
     11      35.9215      0.00000
     12      36.3059      0.00000

 k-point 109 :       0.4500    0.4500    0.4500
  band No.  band energies     occupation 
      1      -0.2345      2.00000
      2       2.1085      2.00000
      3       2.1085      2.00000
      4       3.4732      1.99983
      5       3.6993      1.42184
      6       3.6993      1.42184
      7       9.8339      0.00000
      8      25.7753      0.00000
      9      27.2449      0.00000
     10      27.2449      0.00000
     11      30.2661      0.00000
     12      30.2661      0.00000

 k-point 110 :      -0.4500    0.4500    0.4500
  band No.  band energies     occupation 
      1       0.0225      2.00000
      2       1.9485      2.00000
      3       2.2202      2.00000
      4       2.7121      2.00000
      5       3.6873      1.53150
      6       5.1750      0.00000
      7       9.3836      0.00000
      8      22.9583      0.00000
      9      25.6526      0.00000
     10      26.0993      0.00000
     11      32.1298      0.00000
     12      32.9215      0.00000


--------------------------------------------------------------------------------------------------------


 soft charge-density along one line, spin component 1
         0         1         2         3         4         5         6         7         8         9
 total charge-density along one line
 
 pseudopotential strength for first ion, spin component: 1
 -5.563   0.000   0.000   0.000   0.000  -0.638   0.000   0.000
  0.000  -5.563   0.000   0.000   0.000   0.000  -0.638   0.000
  0.000   0.000  -5.523   0.000   0.000   0.000   0.000  -0.655
  0.000   0.000   0.000  -5.563   0.000   0.000   0.000   0.000
  0.000   0.000   0.000   0.000  -5.523   0.000   0.000   0.000
 -0.638   0.000   0.000   0.000   0.000   1.571   0.000   0.000
  0.000  -0.638   0.000   0.000   0.000   0.000   1.571   0.000
  0.000   0.000  -0.655   0.000   0.000   0.000   0.000   1.578
  0.000   0.000   0.000  -0.638   0.000   0.000   0.000   0.000
  0.000   0.000   0.000   0.000  -0.655   0.000   0.000   0.000
  0.000   0.000   0.000   0.000   0.000   0.000   0.000   0.000
  0.000   0.000   0.000   0.000   0.000   0.000   0.000   0.000
  0.000   0.000   0.000   0.000   0.000   0.000   0.000   0.000
  0.000   0.000   0.000   0.000   0.000   0.000   0.000   0.000
  0.000   0.000   0.000   0.000   0.000   0.000   0.000   0.000
  0.000   0.000   0.000   0.000   0.000   0.000   0.000   0.000
  0.000   0.000   0.000   0.000   0.000   0.000   0.000   0.000
  0.000   0.000   0.000   0.000   0.000   0.000   0.000   0.000
 total augmentation occupancy for first ion, spin component: 1
  1.910   0.000  -0.126   0.017   0.019   0.273  -0.001  -0.019   0.082  -0.013   0.207  -0.048   0.000   0.000   0.000   0.000
  0.000   1.699  -0.063  -0.015   0.086  -0.001   0.070  -0.006  -0.081   0.028  -0.197   0.050   0.000   0.000   0.000   0.000
 -0.126  -0.063   1.831  -0.001   0.034  -0.018  -0.005   0.179   0.002  -0.123  -0.176   0.057   0.000   0.000   0.000   0.000
  0.017  -0.015  -0.001   1.593  -0.001   0.082  -0.081   0.002  -0.168   0.000   0.005   0.000   0.000   0.000   0.000   0.000
  0.019   0.086   0.034  -0.001   1.797  -0.013   0.027  -0.123   0.000  -0.209  -0.038   0.007   0.000   0.000   0.000   0.000
  0.273  -0.001  -0.018   0.082  -0.013   0.089   0.000   0.006   0.002  -0.002   0.083  -0.020   0.000   0.000   0.000   0.000
 -0.001   0.070  -0.005  -0.081   0.027   0.000   0.063   0.007  -0.002  -0.006  -0.088   0.020   0.000   0.000   0.000   0.000
 -0.019  -0.006   0.179   0.002  -0.123   0.006   0.007   0.096   0.001  -0.004  -0.108   0.025   0.000   0.000   0.000   0.000
  0.082  -0.081   0.002  -0.168   0.000   0.002  -0.002   0.001   0.081  -0.001   0.000   0.000   0.000   0.000   0.000   0.000
 -0.013   0.028  -0.123   0.000  -0.209  -0.002  -0.006  -0.004  -0.001   0.067  -0.012   0.003   0.000   0.000   0.000   0.000
  0.207  -0.197  -0.176   0.005  -0.038   0.083  -0.088  -0.108   0.000  -0.012   1.178  -0.340   0.000   0.000   0.000   0.000
 -0.048   0.050   0.057   0.000   0.007  -0.020   0.020   0.025   0.000   0.003  -0.340   0.118   0.000   0.000   0.000   0.000
  0.000   0.000   0.000   0.000   0.000   0.000   0.000   0.000   0.000   0.000   0.000   0.000   0.133   0.063  -0.060  -0.010
  0.000   0.000   0.000   0.000   0.000   0.000   0.000   0.000   0.000   0.000   0.000   0.000   0.063   0.255   0.000  -0.005
  0.000   0.000   0.000   0.000   0.000   0.000   0.000   0.000   0.000   0.000   0.000   0.000  -0.060   0.000   0.158   0.005
  0.000   0.000   0.000   0.000   0.000   0.000   0.000   0.000   0.000   0.000   0.000   0.000  -0.010  -0.005   0.005   0.001
  0.000   0.000   0.000   0.000   0.000   0.000   0.000   0.000   0.000   0.000   0.000   0.000  -0.005  -0.019   0.000   0.000
  0.000   0.000   0.000   0.000   0.000   0.000   0.000   0.000   0.000   0.000   0.000   0.000   0.005   0.000  -0.012   0.000


------------------------ aborting loop because EDIFF is reached ----------------------------------------




--------------------------------------------------------------------------------------------------------




--------------------------------------------------------------------------------------------------------



  FREE ENERGIE OF THE ION-ELECTRON SYSTEM (eV)
  ---------------------------------------------------
  free  energy   TOTEN  =        -5.375139 eV

  energy  without entropy=       -5.353332  energy(sigma->0) =       -5.364236
 

  FORCE on cell =-STRESS in cart. coord.  units (eV/reduce length):
  Direction    X        Y        Z        XY       YZ       ZX
  --------------------------------------------------------------------------------------
  Alpha Z     84.36     84.36     84.36
  Ewald     -303.64   -303.64   -303.64      0.00      0.00      0.00
  Hartree     79.77     79.77     79.77      0.00      0.00      0.00
  E(xc)      -55.02    -55.02    -55.02      0.00      0.00      0.00
  Local       97.79     97.79     97.79      0.00      0.00      0.00
  n-local    -33.52    -33.74    -34.44      0.84     -0.83      0.04
  augment     52.14     52.14     52.14      0.00      0.00      0.00
  Kinetic     76.69     76.88     78.71     -0.38      0.62     -0.04
  -------------------------------------------------------------------------------------
  Total       -1.08     -1.08     -1.08      0.00      0.00      0.00
  in kB     -145.06   -145.06   -145.06      0.00      0.00      0.00
  external pressure =     -145.06 kB  Pullay stress =        0.00 kB


 VOLUME and BASIS-vectors are now :
 -----------------------------------------------------------------------------
  energy-cutoff  :      350.00
  volume of cell :       11.90
      direct lattice vectors                 reciprocal lattice vectors
     0.000000000  1.811950000  1.811950000    -0.275945804  0.275945804  0.275945804
     1.811950000  0.000000000  1.811950000     0.275945804 -0.275945804  0.275945804
     1.811950000  1.811950000  0.000000000     0.275945804  0.275945804 -0.275945804

  length of vectors
     2.562484264  2.562484264  2.562484264     0.477952153  0.477952153  0.477952153


 FORCES acting on ions
    electron-ion (+dipol)            ewald-force                    non-local-force                 convergence-correction
 -----------------------------------------------------------------------------------------------
   -.208E-13 -.258E-13 -.647E-14   0.906E-15 -.152E-15 -.290E-14   0.248E-23 0.248E-23 0.000E+00   -.150E-13 -.105E-13 -.190E-13
 -----------------------------------------------------------------------------------------------
   -.208E-13 -.258E-13 -.647E-14   0.906E-15 -.152E-15 -.290E-14   0.248E-23 0.248E-23 0.000E+00   -.150E-13 -.105E-13 -.190E-13
 
 
 POSITION                                       TOTAL-FORCE (eV/Angst)
 -----------------------------------------------------------------------------------
      0.00000      0.00000      0.00000         0.000000      0.000000      0.000000
 -----------------------------------------------------------------------------------
    total drift:                                0.000000      0.000000      0.000000


--------------------------------------------------------------------------------------------------------



 mean value of Nose-termostat <S>:     1.000 mean value of <T> :     0.000
 mean temperature <T/S>/<1/S>  :     0.000

     LOOP+:  VPU time   14.78: CPU time   14.87
  
  
 General timing and accounting informations for this job:
 ========================================================
  
                  Total CPU time used (sec):       15.546
                            User time (sec):        6.329
                          System time (sec):        9.217
                         Elapsed time (sec):       16.542
  
                   Maximum memory used (kb):           0.
                   Average memory used (kb):           0.
  
                          Minor page faults:       464494
                          Major page faults:            0
                 Voluntary context switches:          694
