<?xml version="1.0" encoding="ISO-8859-1"?>
<modeling>
 <generator>
  <i name="program" type="string">vasp</i>
  <i name="version" type="string">4.6.26 </i>
  <i name="subversion" type="string">15Dec04 complex  parallel</i>
  <i name="platform" type="string">LinuxPathScale</i>
  <i name="date" type="string">2009 11 24</i>
  <i name="time" type="string">11:34:37</i>
 </generator>
 <incar>
  <i type="string" name="SYSTEM"> Pt, FCC</i>
  <i type="int" name="ISTART">     0</i>
  <i type="string" name="PREC">med    ! set fft mesh, cutoffs</i>
  <i type="string" name="ALGO"> Fast   ! use fast algorithm for electro</i>
  <i type="int" name="ISPIN">     1</i>
  <i name="EDIFF">      0.00010000</i>
  <i name="ENCUT">    350.00000000</i>
  <i type="int" name="ISMEAR">     0</i>
  <i name="SIGMA">      0.10000000</i>
  <i type="int" name="NWRITE">     1</i>
  <i type="logical" name="LWAVE"> F  </i>
  <i type="logical" name="LCHARG"> F  </i>
  <i type="logical" name="LVTOT"> F  </i>
 </incar>
 <kpoints>
  <generation param="Monkhorst-Pack">
   <v type="int" name="divisions">      10      10      10</v>
   <v name="usershift">      0.00000000      0.00000000      0.00000000</v>
   <v name="genvec1">      0.10000000      0.00000000      0.00000000</v>
   <v name="genvec2">      0.00000000      0.10000000      0.00000000</v>
   <v name="genvec3">      0.00000000      0.00000000      0.10000000</v>
   <v name="shift">      0.50000000      0.50000000      0.50000000</v>
  </generation>
  <varray name="kpointlist" >
   <v>       0.05000000      0.05000000      0.05000000</v>
   <v>       0.15000000      0.05000000      0.05000000</v>
   <v>       0.25000000      0.05000000      0.05000000</v>
   <v>       0.35000000      0.05000000      0.05000000</v>
   <v>       0.45000000      0.05000000      0.05000000</v>
   <v>      -0.45000000      0.05000000      0.05000000</v>
   <v>      -0.35000000      0.05000000      0.05000000</v>
   <v>      -0.25000000      0.05000000      0.05000000</v>
   <v>      -0.15000000      0.05000000      0.05000000</v>
   <v>      -0.05000000      0.05000000      0.05000000</v>
   <v>       0.15000000      0.15000000      0.05000000</v>
   <v>       0.25000000      0.15000000      0.05000000</v>
   <v>       0.35000000      0.15000000      0.05000000</v>
   <v>       0.45000000      0.15000000      0.05000000</v>
   <v>      -0.45000000      0.15000000      0.05000000</v>
   <v>      -0.35000000      0.15000000      0.05000000</v>
   <v>      -0.25000000      0.15000000      0.05000000</v>
   <v>      -0.15000000      0.15000000      0.05000000</v>
   <v>      -0.05000000      0.15000000      0.05000000</v>
   <v>       0.25000000      0.25000000      0.05000000</v>
   <v>       0.35000000      0.25000000      0.05000000</v>
   <v>       0.45000000      0.25000000      0.05000000</v>
   <v>      -0.45000000      0.25000000      0.05000000</v>
   <v>      -0.35000000      0.25000000      0.05000000</v>
   <v>      -0.25000000      0.25000000      0.05000000</v>
   <v>      -0.15000000      0.25000000      0.05000000</v>
   <v>      -0.05000000      0.25000000      0.05000000</v>
   <v>       0.35000000      0.35000000      0.05000000</v>
   <v>       0.45000000      0.35000000      0.05000000</v>
   <v>      -0.45000000      0.35000000      0.05000000</v>
   <v>      -0.35000000      0.35000000      0.05000000</v>
   <v>      -0.25000000      0.35000000      0.05000000</v>
   <v>      -0.15000000      0.35000000      0.05000000</v>
   <v>      -0.05000000      0.35000000      0.05000000</v>
   <v>       0.45000000      0.45000000      0.05000000</v>
   <v>      -0.45000000      0.45000000      0.05000000</v>
   <v>      -0.35000000      0.45000000      0.05000000</v>
   <v>      -0.25000000      0.45000000      0.05000000</v>
   <v>      -0.15000000      0.45000000      0.05000000</v>
   <v>      -0.05000000      0.45000000      0.05000000</v>
   <v>      -0.45000000     -0.45000000      0.05000000</v>
   <v>      -0.35000000     -0.45000000      0.05000000</v>
   <v>      -0.25000000     -0.45000000      0.05000000</v>
   <v>      -0.15000000     -0.45000000      0.05000000</v>
   <v>      -0.35000000     -0.35000000      0.05000000</v>
   <v>      -0.25000000     -0.35000000      0.05000000</v>
   <v>      -0.15000000     -0.35000000      0.05000000</v>
   <v>      -0.25000000     -0.25000000      0.05000000</v>
   <v>      -0.15000000     -0.25000000      0.05000000</v>
   <v>      -0.15000000     -0.15000000      0.05000000</v>
   <v>       0.15000000      0.15000000      0.15000000</v>
   <v>       0.25000000      0.15000000      0.15000000</v>
   <v>       0.35000000      0.15000000      0.15000000</v>
   <v>       0.45000000      0.15000000      0.15000000</v>
   <v>      -0.45000000      0.15000000      0.15000000</v>
   <v>      -0.35000000      0.15000000      0.15000000</v>
   <v>      -0.25000000      0.15000000      0.15000000</v>
   <v>      -0.15000000      0.15000000      0.15000000</v>
   <v>       0.25000000      0.25000000      0.15000000</v>
   <v>       0.35000000      0.25000000      0.15000000</v>
   <v>       0.45000000      0.25000000      0.15000000</v>
   <v>      -0.45000000      0.25000000      0.15000000</v>
   <v>      -0.35000000      0.25000000      0.15000000</v>
   <v>      -0.25000000      0.25000000      0.15000000</v>
   <v>      -0.15000000      0.25000000      0.15000000</v>
   <v>       0.35000000      0.35000000      0.15000000</v>
   <v>       0.45000000      0.35000000      0.15000000</v>
   <v>      -0.45000000      0.35000000      0.15000000</v>
   <v>      -0.35000000      0.35000000      0.15000000</v>
   <v>      -0.25000000      0.35000000      0.15000000</v>
   <v>      -0.15000000      0.35000000      0.15000000</v>
   <v>       0.45000000      0.45000000      0.15000000</v>
   <v>      -0.45000000      0.45000000      0.15000000</v>
   <v>      -0.35000000      0.45000000      0.15000000</v>
   <v>      -0.25000000      0.45000000      0.15000000</v>
   <v>      -0.15000000      0.45000000      0.15000000</v>
   <v>      -0.45000000     -0.45000000      0.15000000</v>
   <v>      -0.35000000     -0.45000000      0.15000000</v>
   <v>      -0.25000000     -0.45000000      0.15000000</v>
   <v>      -0.35000000     -0.35000000      0.15000000</v>
   <v>      -0.25000000     -0.35000000      0.15000000</v>
   <v>      -0.25000000     -0.25000000      0.15000000</v>
   <v>       0.25000000      0.25000000      0.25000000</v>
   <v>       0.35000000      0.25000000      0.25000000</v>
   <v>       0.45000000      0.25000000      0.25000000</v>
   <v>      -0.45000000      0.25000000      0.25000000</v>
   <v>      -0.35000000      0.25000000      0.25000000</v>
   <v>      -0.25000000      0.25000000      0.25000000</v>
   <v>       0.35000000      0.35000000      0.25000000</v>
   <v>       0.45000000      0.35000000      0.25000000</v>
   <v>      -0.45000000      0.35000000      0.25000000</v>
   <v>      -0.35000000      0.35000000      0.25000000</v>
   <v>      -0.25000000      0.35000000      0.25000000</v>
   <v>       0.45000000      0.45000000      0.25000000</v>
   <v>      -0.45000000      0.45000000      0.25000000</v>
   <v>      -0.35000000      0.45000000      0.25000000</v>
   <v>      -0.25000000      0.45000000      0.25000000</v>
   <v>      -0.45000000     -0.45000000      0.25000000</v>
   <v>      -0.35000000     -0.45000000      0.25000000</v>
   <v>      -0.35000000     -0.35000000      0.25000000</v>
   <v>       0.35000000      0.35000000      0.35000000</v>
   <v>       0.45000000      0.35000000      0.35000000</v>
   <v>      -0.45000000      0.35000000      0.35000000</v>
   <v>      -0.35000000      0.35000000      0.35000000</v>
   <v>       0.45000000      0.45000000      0.35000000</v>
   <v>      -0.45000000      0.45000000      0.35000000</v>
   <v>      -0.35000000      0.45000000      0.35000000</v>
   <v>      -0.45000000     -0.45000000      0.35000000</v>
   <v>       0.45000000      0.45000000      0.45000000</v>
   <v>      -0.45000000      0.45000000      0.45000000</v>
  </varray>
  <varray name="weights" >
   <v>       0.00200000</v>
   <v>       0.00600000</v>
   <v>       0.00600000</v>
   <v>       0.00600000</v>
   <v>       0.00600000</v>
   <v>       0.00600000</v>
   <v>       0.00600000</v>
   <v>       0.00600000</v>
   <v>       0.00600000</v>
   <v>       0.00600000</v>
   <v>       0.00600000</v>
   <v>       0.01200000</v>
   <v>       0.01200000</v>
   <v>       0.01200000</v>
   <v>       0.01200000</v>
   <v>       0.01200000</v>
   <v>       0.01200000</v>
   <v>       0.01200000</v>
   <v>       0.01200000</v>
   <v>       0.00600000</v>
   <v>       0.01200000</v>
   <v>       0.01200000</v>
   <v>       0.01200000</v>
   <v>       0.01200000</v>
   <v>       0.01200000</v>
   <v>       0.01200000</v>
   <v>       0.01200000</v>
   <v>       0.00600000</v>
   <v>       0.01200000</v>
   <v>       0.01200000</v>
   <v>       0.01200000</v>
   <v>       0.01200000</v>
   <v>       0.01200000</v>
   <v>       0.01200000</v>
   <v>       0.00600000</v>
   <v>       0.01200000</v>
   <v>       0.01200000</v>
   <v>       0.01200000</v>
   <v>       0.01200000</v>
   <v>       0.01200000</v>
   <v>       0.00600000</v>
   <v>       0.01200000</v>
   <v>       0.01200000</v>
   <v>       0.01200000</v>
   <v>       0.00600000</v>
   <v>       0.01200000</v>
   <v>       0.01200000</v>
   <v>       0.00600000</v>
   <v>       0.01200000</v>
   <v>       0.00600000</v>
   <v>       0.00200000</v>
   <v>       0.00600000</v>
   <v>       0.00600000</v>
   <v>       0.00600000</v>
   <v>       0.00600000</v>
   <v>       0.00600000</v>
   <v>       0.00600000</v>
   <v>       0.00600000</v>
   <v>       0.00600000</v>
   <v>       0.01200000</v>
   <v>       0.01200000</v>
   <v>       0.01200000</v>
   <v>       0.01200000</v>
   <v>       0.01200000</v>
   <v>       0.01200000</v>
   <v>       0.00600000</v>
   <v>       0.01200000</v>
   <v>       0.01200000</v>
   <v>       0.01200000</v>
   <v>       0.01200000</v>
   <v>       0.01200000</v>
   <v>       0.00600000</v>
   <v>       0.01200000</v>
   <v>       0.01200000</v>
   <v>       0.01200000</v>
   <v>       0.01200000</v>
   <v>       0.00600000</v>
   <v>       0.01200000</v>
   <v>       0.01200000</v>
   <v>       0.00600000</v>
   <v>       0.01200000</v>
   <v>       0.00600000</v>
   <v>       0.00200000</v>
   <v>       0.00600000</v>
   <v>       0.00600000</v>
   <v>       0.00600000</v>
   <v>       0.00600000</v>
   <v>       0.00600000</v>
   <v>       0.00600000</v>
   <v>       0.01200000</v>
   <v>       0.01200000</v>
   <v>       0.01200000</v>
   <v>       0.01200000</v>
   <v>       0.00600000</v>
   <v>       0.01200000</v>
   <v>       0.01200000</v>
   <v>       0.01200000</v>
   <v>       0.00600000</v>
   <v>       0.01200000</v>
   <v>       0.00600000</v>
   <v>       0.00200000</v>
   <v>       0.00600000</v>
   <v>       0.00600000</v>
   <v>       0.00600000</v>
   <v>       0.00600000</v>
   <v>       0.01200000</v>
   <v>       0.01200000</v>
   <v>       0.00600000</v>
   <v>       0.00200000</v>
   <v>       0.00600000</v>
  </varray>
 </kpoints>
 <parameters>
  <separator name="general" >
   <i type="string" name="SYSTEM">Pt, FCC</i>
   <i type="logical" name="LCOMPAT"> F  </i>
  </separator>
  <separator name="electronic" >
   <i type="string" name="PREC">med</i>
   <i name="ENMAX">    350.00000000</i>
   <i name="ENAUG">    544.56500000</i>
   <i name="EDIFF">      0.00010000</i>
   <i type="int" name="IALGO">    68</i>
   <i type="int" name="IWAVPR">    10</i>
   <i type="int" name="NBANDS">     9</i>
   <i name="NELECT">     10.00000000</i>
   <separator name="electronic smearing" >
    <i type="int" name="ISMEAR">     0</i>
    <i name="SIGMA">      0.10000000</i>
   </separator>
   <separator name="electronic projectors" >
    <i type="logical" name="LREAL"> F  </i>
    <v name="ROPT">      0.00000000</v>
    <i type="int" name="LMAXPAW">  -100</i>
    <i type="int" name="LMAXMIX">     2</i>
   </separator>
   <separator name="electronic startup" >
    <i type="int" name="ISTART">     0</i>
    <i type="int" name="ICHARG">     2</i>
    <i type="int" name="INIWAV">     1</i>
   </separator>
   <separator name="electronic spin" >
    <i type="int" name="ISPIN">     1</i>
    <i type="logical" name="LNONCOLLINEAR"> F  </i>
    <v name="MAGMOM">      1.00000000</v>
    <i name="NUPDOWN">     -1.00000000</i>
    <i type="logical" name="LSORBIT"> F  </i>
    <v name="SAXIS">      0.00000000      0.00000000      1.00000000</v>
    <i type="logical" name="LSPIRAL"> F  </i>
    <v name="QSPIRAL">      0.00000000      0.00000000      0.00000000</v>
    <i type="logical" name="LZEROZ"> F  </i>
   </separator>
   <separator name="electronic exchange-correlation" >
    <i type="string" name="GGA">--</i>
    <i type="int" name="VOSKOWN">     0</i>
    <i type="logical" name="LASPH"> F  </i>
    <i type="logical" name="LMETAGGA"> F  </i>
    <i type="string" name="GGA2">--</i>
   </separator>
   <separator name="electronic convergence" >
    <i type="int" name="NELM">    60</i>
    <i type="int" name="NELMDL">    -5</i>
    <i type="int" name="NELMIN">     2</i>
    <i name="ENINI">    350.00000000</i>
    <separator name="electronic convergence detail" >
     <i type="logical" name="LDIAG"> T  </i>
     <i name="WEIMIN">      0.00000000</i>
     <i name="EBREAK">      0.00000278</i>
     <i name="DEPER">      0.30000000</i>
     <i type="int" name="NRMM">     4</i>
     <i name="TIME">      0.10000000</i>
    </separator>
   </separator>
   <separator name="electronic mixer" >
    <i name="AMIX">      0.40000000</i>
    <i name="BMIX">      1.00000000</i>
    <i name="AMIN">      0.10000000</i>
    <i name="AMIX_MAG">      1.60000000</i>
    <i name="BMIX_MAG">      1.00000000</i>
    <separator name="electronic mixer details" >
     <i type="int" name="IMIX">     4</i>
     <i type="int" name="MAXMIX">   -45</i>
     <i name="WC">    100.00000000</i>
     <i type="int" name="INIMIX">     1</i>
     <i type="int" name="MIXPRE">     1</i>
     <i type="int" name="MREMOVE">     5</i>
    </separator>
   </separator>
   <separator name="electronic dipolcorrection" >
    <i type="int" name="IDIPOL">     0</i>
    <i type="logical" name="LDIPOL"> F  </i>
    <v name="DIPOL">   -100.00000000</v>
    <i name="EFIELD">      0.00000000</i>
   </separator>
  </separator>
  <separator name="grids" >
   <i type="int" name="NGX">    12</i>
   <i type="int" name="NGY">    12</i>
   <i type="int" name="NGZ">    12</i>
   <i type="int" name="NGXF">    20</i>
   <i type="int" name="NGYF">    20</i>
   <i type="int" name="NGZF">    20</i>
   <i type="logical" name="ADDGRID"> F  </i>
  </separator>
  <separator name="ionic" >
   <i type="int" name="NSW">     0</i>
   <i type="int" name="IBRION">    -1</i>
   <i type="int" name="ISIF">     2</i>
   <i name="PSTRESS">      0.00000000</i>
   <i name="EDIFFG">      0.00100000</i>
   <i type="int" name="NFREE">     0</i>
   <i name="POTIM">      0.50000000</i>
   <i name="SMASS">     -3.00000000</i>
  </separator>
  <separator name="ionic md" >
   <i name="TEBEG">      0.00010000</i>
   <i name="TEEND">      0.00010000</i>
   <i type="int" name="NBLOCK">     1</i>
   <i type="int" name="KBLOCK">     1</i>
   <i type="int" name="NPACO">   256</i>
   <i name="APACO">     16.00000000</i>
  </separator>
  <separator name="symmetry" >
   <i type="int" name="ISYM">     2</i>
   <i name="SYMPREC">      0.00001000</i>
  </separator>
  <separator name="dos" >
   <i type="logical" name="LORBIT"> F  </i>
   <v name="RWIGS">     -1.00000000</v>
   <i type="int" name="NEDOS">   301</i>
   <i name="EMIN">     10.00000000</i>
   <i name="EMAX">    -10.00000000</i>
  </separator>
  <separator name="writing" >
   <i type="int" name="NWRITE">     1</i>
   <i type="logical" name="LWAVE"> F  </i>
   <i type="logical" name="LCHARG"> F  </i>
   <i type="logical" name="LPARD"> F  </i>
   <i type="logical" name="LVTOT"> F  </i>
   <i type="logical" name="LELF"> F  </i>
   <i type="logical" name="LOPTICS"> F  </i>
   <i name="STM">      0.00000000</i>
  </separator>
  <separator name="performance" >
   <i type="int" name="NPAR">     4</i>
   <i type="int" name="NSIM">     4</i>
   <i type="int" name="NBLK">    32</i>
   <i type="logical" name="LPLANE"> T  </i>
   <i type="logical" name="LCRITICAL_MEM"> F  </i>
   <i type="logical" name="LSCALAPACK"> F  </i>
   <i type="logical" name="LSCALU"> F  </i>
   <i type="logical" name="LASYNC"> F  </i>
  </separator>
  <separator name="miscellaneous" >
   <i type="int" name="IDIOT">     3</i>
   <i type="logical" name="LMUSIC"> F  </i>
   <v name="POMASS">     58.69000000</v>
   <i type="logical" name="LCORR"> T  </i>
  </separator>
  <i type="logical" name="LREAL_COMPAT"> F  </i>
  <i type="logical" name="GGA_COMPAT"> T  </i>
  <i type="logical" name="LBERRY"> F  </i>
  <i type="int" name="ICORELEVEL">     0</i>
  <i type="logical" name="LDAU"> F  </i>
  <i type="int" name="I_CONSTRAINED_M">     0</i>
 </parameters>
 <atominfo>
  <atoms>       1</atoms>
  <types>       1</types>
  <array name="atoms" >
   <dimension dim="1">ion</dimension>
   <field type="string">element</field>
   <field type="int">atomtype</field>
   <set>
    <rc><c>Ni</c><c>   1</c></rc>
   </set>
  </array>
  <array name="atomtypes" >
   <dimension dim="1">type</dimension>
   <field type="int">atomspertype</field>
   <field type="string">element</field>
   <field>mass</field>
   <field>valence</field>
   <field type="string">pseudopotential</field>
   <set>
    <rc><c>   1</c><c>Ni</c><c>     58.69000000</c><c>     10.00000000</c><c> PAW_GGA Ni 03Mar1998                   </c></rc>
   </set>
  </array>
 </atominfo>
 <structure name="initialpos" >
  <crystal>
   <varray name="basis" >
    <v>       0.00000000      1.81195000      1.81195000</v>
    <v>       1.81195000      0.00000000      1.81195000</v>
    <v>       1.81195000      1.81195000      0.00000000</v>
   </varray>
   <i name="volume">     11.89785368</i>
   <varray name="rec_basis" >
    <v>      -0.27594580      0.27594580      0.27594580</v>
    <v>       0.27594580     -0.27594580      0.27594580</v>
    <v>       0.27594580      0.27594580     -0.27594580</v>
   </varray>
  </crystal>
  <varray name="positions" >
   <v>       0.00000000      0.00000000      0.00000000</v>
  </varray>
 </structure>
 <calculation>
  <scstep>
   <time name="dav">    2.07    2.08</time>
   <time name="total">    2.09    2.10</time>
   <energy>
    <i name="alphaZ">     84.36083742</i>
    <i name="ewald">   -910.91142205</i>
    <i name="hartreedc">   -258.50313149</i>
    <i name="XCdc">     31.19807968</i>
    <i name="pawpsdc">    871.43822672</i>
    <i name="pawaedc">   -938.66194588</i>
    <i name="eentropy">     -0.00412866</i>
    <i name="bandstr">     64.49164028</i>
    <i name="atom">   1079.44579839</i>
    <i name="e_fr_energy">     22.85395442</i>
    <i name="e_wo_entrp">     22.85808308</i>
    <i name="e_0_energy">     22.85601875</i>
   </energy>
  </scstep>
  <scstep>
   <time name="dav">    2.49    2.49</time>
   <time name="total">    2.49    2.50</time>
   <energy>
    <i name="e_fr_energy">     -5.76019511</i>
    <i name="e_wo_entrp">     -5.74190817</i>
    <i name="e_0_energy">     -5.75105164</i>
   </energy>
  </scstep>
  <scstep>
   <time name="dav">    2.24    2.24</time>
   <time name="total">    2.24    2.26</time>
   <energy>
    <i name="e_fr_energy">     -6.35288867</i>
    <i name="e_wo_entrp">     -6.33283369</i>
    <i name="e_0_energy">     -6.34286118</i>
   </energy>
  </scstep>
  <scstep>
   <time name="dav">    2.14    2.15</time>
   <time name="total">    2.15    2.16</time>
   <energy>
    <i name="e_fr_energy">     -6.35383183</i>
    <i name="e_wo_entrp">     -6.33377229</i>
    <i name="e_0_energy">     -6.34380206</i>
   </energy>
  </scstep>
  <scstep>
   <time name="dav">    1.83    1.84</time>
   <time name="total">    1.86    1.86</time>
   <energy>
    <i name="e_fr_energy">     -6.35383323</i>
    <i name="e_wo_entrp">     -6.33377369</i>
    <i name="e_0_energy">     -6.34380346</i>
   </energy>
  </scstep>
  <scstep>
   <time name="diag">    0.31    0.31</time>
   <time name="diis">    0.19    0.19</time>
   <time name="orth">    0.22    0.22</time>
   <time name="total">    0.76    0.77</time>
   <energy>
    <i name="e_fr_energy">     -5.83276878</i>
    <i name="e_wo_entrp">     -5.80888294</i>
    <i name="e_0_energy">     -5.82082586</i>
   </energy>
  </scstep>
  <scstep>
   <time name="diag">    0.31    0.31</time>
   <time name="diis">    0.19    0.19</time>
   <time name="orth">    0.21    0.21</time>
   <time name="total">    0.74    0.75</time>
   <energy>
    <i name="e_fr_energy">     -5.39223715</i>
    <i name="e_wo_entrp">     -5.37093326</i>
    <i name="e_0_energy">     -5.38158520</i>
   </energy>
  </scstep>
  <scstep>
   <time name="diag">    0.32    0.32</time>
   <time name="diis">    0.20    0.21</time>
   <time name="orth">    0.21    0.21</time>
   <time name="total">    0.77    0.78</time>
   <energy>
    <i name="e_fr_energy">     -5.37582479</i>
    <i name="e_wo_entrp">     -5.35383650</i>
    <i name="e_0_energy">     -5.36483065</i>
   </energy>
  </scstep>
  <scstep>
   <time name="diag">    0.32    0.32</time>
   <time name="diis">    0.21    0.21</time>
   <time name="orth">    0.21    0.21</time>
   <time name="total">    0.78    0.79</time>
   <energy>
    <i name="e_fr_energy">     -5.37512431</i>
    <i name="e_wo_entrp">     -5.35334079</i>
    <i name="e_0_energy">     -5.36423255</i>
   </energy>
  </scstep>
  <scstep>
   <time name="diag">    0.31    0.31</time>
   <time name="diis">    0.12    0.12</time>
   <time name="orth">    0.22    0.22</time>
   <time name="total">    0.67    0.68</time>
   <energy>
    <i name="alphaZ">     84.36083742</i>
    <i name="ewald">   -910.91142205</i>
    <i name="hartreedc">   -239.14401950</i>
    <i name="XCdc">     30.23576223</i>
    <i name="pawpsdc">    899.52652044</i>
    <i name="pawaedc">   -967.96237618</i>
    <i name="eentropy">     -0.02180723</i>
    <i name="bandstr">     19.09556712</i>
    <i name="atom">   1079.44579839</i>
    <i name="e_fr_energy">     -5.37513936</i>
    <i name="e_wo_entrp">     -5.35333213</i>
    <i name="e_0_energy">     -5.36423574</i>
   </energy>
  </scstep>
  <structure>
   <crystal>
    <varray name="basis" >
     <v>       0.00000000      1.81195000      1.81195000</v>
     <v>       1.81195000      0.00000000      1.81195000</v>
     <v>       1.81195000      1.81195000      0.00000000</v>
    </varray>
    <i name="volume">     11.89785368</i>
    <varray name="rec_basis" >
     <v>      -0.27594580      0.27594580      0.27594580</v>
     <v>       0.27594580     -0.27594580      0.27594580</v>
     <v>       0.27594580      0.27594580     -0.27594580</v>
    </varray>
   </crystal>
   <varray name="positions" >
    <v>       0.00000000      0.00000000      0.00000000</v>
   </varray>
  </structure>
  <varray name="forces" >
   <v>       0.00000000      0.00000000      0.00000000</v>
  </varray>
  <varray name="stress" >
   <v>    -145.06246588      0.00000000      0.00000000</v>
   <v>       0.00000000   -145.06246588      0.00000000</v>
   <v>       0.00000000      0.00000000   -145.06246588</v>
  </varray>
  <energy>
   <i name="e_fr_energy">     -5.37513936</i>
   <i name="e_wo_entrp">     -5.36423574</i>
   <i name="e_0_energy">     -0.02180723</i>
  </energy>
  <eigenvalues>
   <array>
    <dimension dim="1">band</dimension>
    <dimension dim="2">kpoint</dimension>
    <dimension dim="3">spin</dimension>
    <field>eigene</field>
    <field>occ</field>
    <set>
     <set comment="spin 1">
      <set comment="kpoint 1">
       <r>  -4.3364  1.0000</r>
       <r>   2.0998  1.0000</r>
       <r>   2.1427  1.0000</r>
       <r>   2.1427  1.0000</r>
       <r>   3.0873  1.0000</r>
       <r>   3.0873  1.0000</r>
       <r>  26.8218  0.0000</r>
       <r>  28.9712  0.0000</r>
       <r>  29.9710  0.0000</r>
       <r>  29.9710  0.0000</r>
       <r>  33.2532  0.0000</r>
       <r>  33.2533  0.0000</r>
      </set>
      <set comment="kpoint 2">
       <r>  -3.8548  1.0000</r>
       <r>   1.9791  1.0000</r>
       <r>   2.2335  1.0000</r>
       <r>   2.2445  1.0000</r>
       <r>   2.9996  1.0000</r>
       <r>   3.1149  1.0000</r>
       <r>  24.2734  0.0000</r>
       <r>  26.4739  0.0000</r>
       <r>  29.1342  0.0000</r>
       <r>  30.6116  0.0000</r>
       <r>  33.3380  0.0000</r>
       <r>  33.5081  0.0000</r>
      </set>
      <set comment="kpoint 3">
       <r>  -2.7208  1.0000</r>
       <r>   1.8002  1.0000</r>
       <r>   2.3154  1.0000</r>
       <r>   2.3457  1.0000</r>
       <r>   2.9986  1.0000</r>
       <r>   3.2307  1.0000</r>
       <r>  19.2837  0.0000</r>
       <r>  25.4286  0.0000</r>
       <r>  28.6089  0.0000</r>
       <r>  29.8811  0.0000</r>
       <r>  33.0078  0.0000</r>
       <r>  33.1059  0.0000</r>
      </set>
      <set comment="kpoint 4">
       <r>  -1.2441  1.0000</r>
       <r>   1.8782  1.0000</r>
       <r>   2.2274  1.0000</r>
       <r>   2.2710  1.0000</r>
       <r>   3.2689  1.0000</r>
       <r>   3.5378  0.9977</r>
       <r>  14.6254  0.0000</r>
       <r>  24.8682  0.0000</r>
       <r>  27.5124  0.0000</r>
       <r>  29.0235  0.0000</r>
       <r>  30.9372  0.0000</r>
       <r>  32.6765  0.0000</r>
      </set>
      <set comment="kpoint 5">
       <r>  -0.2926  1.0000</r>
       <r>   2.1028  1.0000</r>
       <r>   2.1580  1.0000</r>
       <r>   2.7502  1.0000</r>
       <r>   3.5880  0.9834</r>
       <r>   3.9886  0.0002</r>
       <r>  10.7808  0.0000</r>
       <r>  24.7835  0.0000</r>
       <r>  26.6620  0.0000</r>
       <r>  27.6106  0.0000</r>
       <r>  30.4146  0.0000</r>
       <r>  31.7932  0.0000</r>
      </set>
      <set comment="kpoint 6">
       <r>  -0.1313  1.0000</r>
       <r>   2.0572  1.0000</r>
       <r>   2.1298  1.0000</r>
       <r>   3.1781  1.0000</r>
       <r>   3.7337  0.5273</r>
       <r>   4.4222  0.0000</r>
       <r>   9.3236  0.0000</r>
       <r>  25.1022  0.0000</r>
       <r>  26.4461  0.0000</r>
       <r>  26.5955  0.0000</r>
       <r>  30.9833  0.0000</r>
       <r>  31.1389  0.0000</r>
      </set>
      <set comment="kpoint 7">
       <r>  -0.4989  1.0000</r>
       <r>   2.1244  1.0000</r>
       <r>   2.2021  1.0000</r>
       <r>   2.3693  1.0000</r>
       <r>   3.6315  0.9350</r>
       <r>   3.6885  0.7608</r>
       <r>  11.9255  0.0000</r>
       <r>  25.5968  0.0000</r>
       <r>  25.9719  0.0000</r>
       <r>  27.5873  0.0000</r>
       <r>  31.0466  0.0000</r>
       <r>  32.2681  0.0000</r>
      </set>
      <set comment="kpoint 8">
       <r>  -1.7335  1.0000</r>
       <r>   1.7802  1.0000</r>
       <r>   2.2667  1.0000</r>
       <r>   2.3139  1.0000</r>
       <r>   3.2181  1.0000</r>
       <r>   3.3688  1.0000</r>
       <r>  16.1115  0.0000</r>
       <r>  26.1732  0.0000</r>
       <r>  26.2437  0.0000</r>
       <r>  29.3222  0.0000</r>
       <r>  31.4740  0.0000</r>
       <r>  34.1799  0.0000</r>
      </set>
      <set comment="kpoint 9">
       <r>  -3.1606  1.0000</r>
       <r>   1.8453  1.0000</r>
       <r>   2.3182  1.0000</r>
       <r>   2.3262  1.0000</r>
       <r>   2.9756  1.0000</r>
       <r>   3.1630  1.0000</r>
       <r>  20.9415  0.0000</r>
       <r>  26.9601  0.0000</r>
       <r>  26.9643  0.0000</r>
       <r>  30.7031  0.0000</r>
       <r>  32.1534  0.0000</r>
       <r>  35.5889  0.0000</r>
      </set>
      <set comment="kpoint 10">
       <r>  -4.0938  1.0000</r>
       <r>   2.0238  1.0000</r>
       <r>   2.2009  1.0000</r>
       <r>   2.2040  1.0000</r>
       <r>   3.0145  1.0000</r>
       <r>   3.1199  1.0000</r>
       <r>  25.7917  0.0000</r>
       <r>  27.8351  0.0000</r>
       <r>  28.2834  0.0000</r>
       <r>  30.0115  0.0000</r>
       <r>  33.3912  0.0000</r>
       <r>  35.0168  0.0000</r>
      </set>
      <set comment="kpoint 11">
       <r>  -3.6179  1.0000</r>
       <r>   1.8719  1.0000</r>
       <r>   2.3218  1.0000</r>
       <r>   2.3246  1.0000</r>
       <r>   2.8848  1.0000</r>
       <r>   3.1821  1.0000</r>
       <r>  24.4514  0.0000</r>
       <r>  26.4314  0.0000</r>
       <r>  26.6499  0.0000</r>
       <r>  28.8198  0.0000</r>
       <r>  33.3802  0.0000</r>
       <r>  35.2657  0.0000</r>
      </set>
      <set comment="kpoint 12">
       <r>  -2.7112  1.0000</r>
       <r>   1.6685  1.0000</r>
       <r>   2.3774  1.0000</r>
       <r>   2.4988  1.0000</r>
       <r>   2.8421  1.0000</r>
       <r>   3.3028  1.0000</r>
       <r>  21.2822  0.0000</r>
       <r>  23.3887  0.0000</r>
       <r>  27.1909  0.0000</r>
       <r>  28.5147  0.0000</r>
       <r>  31.4873  0.0000</r>
       <r>  35.6095  0.0000</r>
      </set>
      <set comment="kpoint 13">
       <r>  -1.3355  1.0000</r>
       <r>   1.5520  1.0000</r>
       <r>   2.1801  1.0000</r>
       <r>   2.5061  1.0000</r>
       <r>   3.2126  1.0000</r>
       <r>   3.6245  0.9466</r>
       <r>  16.4681  0.0000</r>
       <r>  22.6273  0.0000</r>
       <r>  25.6908  0.0000</r>
       <r>  27.6257  0.0000</r>
       <r>  33.5091  0.0000</r>
       <r>  34.2196  0.0000</r>
      </set>
      <set comment="kpoint 14">
       <r>  -0.1675  1.0000</r>
       <r>   1.7993  1.0000</r>
       <r>   2.0481  1.0000</r>
       <r>   2.3990  1.0000</r>
       <r>   3.6162  0.9582</r>
       <r>   4.3912  0.0000</r>
       <r>  12.2342  0.0000</r>
       <r>  22.4732  0.0000</r>
       <r>  23.9016  0.0000</r>
       <r>  26.9343  0.0000</r>
       <r>  32.9946  0.0000</r>
       <r>  35.3224  0.0000</r>
      </set>
      <set comment="kpoint 15">
       <r>   0.1651  1.0000</r>
       <r>   1.8238  1.0000</r>
       <r>   2.3173  1.0000</r>
       <r>   2.4465  1.0000</r>
       <r>   3.7098  0.6579</r>
       <r>   5.6762  0.0000</r>
       <r>   9.4461  0.0000</r>
       <r>  22.1486  0.0000</r>
       <r>  23.3766  0.0000</r>
       <r>  26.8970  0.0000</r>
       <r>  32.2357  0.0000</r>
       <r>  34.9727  0.0000</r>
      </set>
      <set comment="kpoint 16">
       <r>   0.0290  1.0000</r>
       <r>   1.8909  1.0000</r>
       <r>   2.1821  1.0000</r>
       <r>   2.3505  1.0000</r>
       <r>   3.5400  0.9975</r>
       <r>   4.9052  0.0000</r>
       <r>  11.0547  0.0000</r>
       <r>  21.4051  0.0000</r>
       <r>  24.6009  0.0000</r>
       <r>  27.5890  0.0000</r>
       <r>  31.8736  0.0000</r>
       <r>  34.6718  0.0000</r>
      </set>
      <set comment="kpoint 17">
       <r>  -0.8590  1.0000</r>
       <r>   1.6457  1.0000</r>
       <r>   2.1014  1.0000</r>
       <r>   2.4561  1.0000</r>
       <r>   3.1631  1.0000</r>
       <r>   3.9572  0.0010</r>
       <r>  14.9854  0.0000</r>
       <r>  21.2766  0.0000</r>
       <r>  26.4658  0.0000</r>
       <r>  28.9615  0.0000</r>
       <r>  31.9660  0.0000</r>
       <r>  33.9790  0.0000</r>
      </set>
      <set comment="kpoint 18">
       <r>  -2.2842  1.0000</r>
       <r>   1.6579  1.0000</r>
       <r>   2.2948  1.0000</r>
       <r>   2.5230  1.0000</r>
       <r>   2.8390  1.0000</r>
       <r>   3.4497  1.0000</r>
       <r>  19.6360  0.0000</r>
       <r>  21.8069  0.0000</r>
       <r>  28.6650  0.0000</r>
       <r>  29.9925  0.0000</r>
       <r>  32.4638  0.0000</r>
       <r>  33.2419  0.0000</r>
      </set>
      <set comment="kpoint 19">
       <r>  -3.3862  1.0000</r>
       <r>   1.8544  1.0000</r>
       <r>   2.3189  1.0000</r>
       <r>   2.3370  1.0000</r>
       <r>   2.9070  1.0000</r>
       <r>   3.1861  1.0000</r>
       <r>  22.7289  0.0000</r>
       <r>  24.8952  0.0000</r>
       <r>  28.4565  0.0000</r>
       <r>  30.4590  0.0000</r>
       <r>  32.6757  0.0000</r>
       <r>  34.6547  0.0000</r>
      </set>
      <set comment="kpoint 20">
       <r>  -2.0815  1.0000</r>
       <r>   1.4268  1.0000</r>
       <r>   2.4792  1.0000</r>
       <r>   2.7218  1.0000</r>
       <r>   2.8414  1.0000</r>
       <r>   3.3701  1.0000</r>
       <r>  21.6906  0.0000</r>
       <r>  22.9984  0.0000</r>
       <r>  24.4382  0.0000</r>
       <r>  25.2817  0.0000</r>
       <r>  28.7160  0.0000</r>
       <r>  39.5839  0.0000</r>
      </set>
      <set comment="kpoint 21">
       <r>  -0.9965  1.0000</r>
       <r>   1.2200  1.0000</r>
       <r>   2.2707  1.0000</r>
       <r>   2.9322  1.0000</r>
       <r>   3.2339  1.0000</r>
       <r>   3.6383  0.9219</r>
       <r>  18.7615  0.0000</r>
       <r>  20.6903  0.0000</r>
       <r>  22.4274  0.0000</r>
       <r>  25.7938  0.0000</r>
       <r>  29.0742  0.0000</r>
       <r>  38.9651  0.0000</r>
      </set>
      <set comment="kpoint 22">
       <r>   0.0848  1.0000</r>
       <r>   1.1854  1.0000</r>
       <r>   2.0405  1.0000</r>
       <r>   2.8559  1.0000</r>
       <r>   3.6643  0.8531</r>
       <r>   4.6823  0.0000</r>
       <r>  14.3326  0.0000</r>
       <r>  19.9388  0.0000</r>
       <r>  20.5704  0.0000</r>
       <r>  25.8351  0.0000</r>
       <r>  32.4845  0.0000</r>
       <r>  37.3353  0.0000</r>
      </set>
      <set comment="kpoint 23">
       <r>   0.5972  1.0000</r>
       <r>   1.3072  1.0000</r>
       <r>   2.0129  1.0000</r>
       <r>   2.7353  1.0000</r>
       <r>   3.7271  0.5642</r>
       <r>   6.7210  0.0000</r>
       <r>  10.6206  0.0000</r>
       <r>  18.2845  0.0000</r>
       <r>  20.9581  0.0000</r>
       <r>  26.0083  0.0000</r>
       <r>  35.3138  0.0000</r>
       <r>  37.6377  0.0000</r>
      </set>
      <set comment="kpoint 24">
       <r>   0.6880  1.0000</r>
       <r>   1.4449  1.0000</r>
       <r>   1.9055  1.0000</r>
       <r>   2.6775  1.0000</r>
       <r>   3.5185  0.9991</r>
       <r>   6.8413  0.0000</r>
       <r>  10.6360  0.0000</r>
       <r>  17.1619  0.0000</r>
       <r>  22.2286  0.0000</r>
       <r>  26.7277  0.0000</r>
       <r>  34.5742  0.0000</r>
       <r>  38.3070  0.0000</r>
      </set>
      <set comment="kpoint 25">
       <r>   0.2417  1.0000</r>
       <r>   1.5158  1.0000</r>
       <r>   1.7583  1.0000</r>
       <r>   2.7229  1.0000</r>
       <r>   3.1389  1.0000</r>
       <r>   5.0707  0.0000</r>
       <r>  14.3393  0.0000</r>
       <r>  16.7834  0.0000</r>
       <r>  24.1248  0.0000</r>
       <r>  28.1504  0.0000</r>
       <r>  33.4574  0.0000</r>
       <r>  37.0355  0.0000</r>
      </set>
      <set comment="kpoint 26">
       <r>  -0.9553  1.0000</r>
       <r>   1.5195  1.0000</r>
       <r>   2.0806  1.0000</r>
       <r>   2.6604  1.0000</r>
       <r>   2.9104  1.0000</r>
       <r>   4.0256  0.0000</r>
       <r>  16.8258  0.0000</r>
       <r>  19.0672  0.0000</r>
       <r>  26.4449  0.0000</r>
       <r>  29.9466  0.0000</r>
       <r>  31.7344  0.0000</r>
       <r>  34.8000  0.0000</r>
      </set>
      <set comment="kpoint 27">
       <r>  -2.0943  1.0000</r>
       <r>   1.6994  1.0000</r>
       <r>   2.2881  1.0000</r>
       <r>   2.4020  1.0000</r>
       <r>   3.0274  1.0000</r>
       <r>   3.4036  1.0000</r>
       <r>  17.7918  0.0000</r>
       <r>  23.9756  0.0000</r>
       <r>  27.5796  0.0000</r>
       <r>  29.8257  0.0000</r>
       <r>  32.0287  0.0000</r>
       <r>  33.6545  0.0000</r>
      </set>
      <set comment="kpoint 28">
       <r>  -0.4385  1.0000</r>
       <r>   0.9530  1.0000</r>
       <r>   2.7504  1.0000</r>
       <r>   3.2364  1.0000</r>
       <r>   3.5054  0.9995</r>
       <r>   3.5866  0.9842</r>
       <r>  19.1321  0.0000</r>
       <r>  19.4916  0.0000</r>
       <r>  20.2557  0.0000</r>
       <r>  23.8061  0.0000</r>
       <r>  26.8256  0.0000</r>
       <r>  43.8878  0.0000</r>
      </set>
      <set comment="kpoint 29">
       <r>   0.0805  1.0000</r>
       <r>   0.8256  1.0000</r>
       <r>   2.7516  1.0000</r>
       <r>   3.4084  1.0000</r>
       <r>   3.6714  0.8290</r>
       <r>   4.7983  0.0000</r>
       <r>  16.7161  0.0000</r>
       <r>  17.0426  0.0000</r>
       <r>  18.7515  0.0000</r>
       <r>  24.7212  0.0000</r>
       <r>  27.9261  0.0000</r>
       <r>  41.9254  0.0000</r>
      </set>
      <set comment="kpoint 30">
       <r>   0.4938  1.0000</r>
       <r>   0.8866  1.0000</r>
       <r>   2.4444  1.0000</r>
       <r>   3.2416  1.0000</r>
       <r>   3.7740  0.3084</r>
       <r>   7.1352  0.0000</r>
       <r>  12.9670  0.0000</r>
       <r>  15.0060  0.0000</r>
       <r>  19.0235  0.0000</r>
       <r>  25.1578  0.0000</r>
       <r>  31.7926  0.0000</r>
       <r>  40.0805  0.0000</r>
      </set>
      <set comment="kpoint 31">
       <r>   0.8804  1.0000</r>
       <r>   1.0405  1.0000</r>
       <r>   2.0352  1.0000</r>
       <r>   3.0621  1.0000</r>
       <r>   3.6055  0.9701</r>
       <r>   9.3734  0.0000</r>
       <r>  10.2783  0.0000</r>
       <r>  13.9237  0.0000</r>
       <r>  20.1818  0.0000</r>
       <r>  25.7062  0.0000</r>
       <r>  36.6787  0.0000</r>
       <r>  38.3037  0.0000</r>
      </set>
      <set comment="kpoint 32">
       <r>   0.8885  1.0000</r>
       <r>   1.3588  1.0000</r>
       <r>   1.6935  1.0000</r>
       <r>   2.8424  1.0000</r>
       <r>   3.3872  1.0000</r>
       <r>   6.8855  0.0000</r>
       <r>  12.1451  0.0000</r>
       <r>  15.0577  0.0000</r>
       <r>  22.0159  0.0000</r>
       <r>  26.6995  0.0000</r>
       <r>  35.6644  0.0000</r>
       <r>  39.5081  0.0000</r>
      </set>
      <set comment="kpoint 33">
       <r>   0.1508  1.0000</r>
       <r>   1.7134  1.0000</r>
       <r>   1.8561  1.0000</r>
       <r>   2.5321  1.0000</r>
       <r>   3.3397  1.0000</r>
       <r>   5.0226  0.0000</r>
       <r>  12.5817  0.0000</r>
       <r>  18.9840  0.0000</r>
       <r>  24.2824  0.0000</r>
       <r>  27.9665  0.0000</r>
       <r>  32.6831  0.0000</r>
       <r>  35.9943  0.0000</r>
      </set>
      <set comment="kpoint 34">
       <r>  -0.6945  1.0000</r>
       <r>   1.9242  1.0000</r>
       <r>   2.1275  1.0000</r>
       <r>   2.3003  1.0000</r>
       <r>   3.4140  1.0000</r>
       <r>   3.8264  0.1071</r>
       <r>  13.3342  0.0000</r>
       <r>  23.6197  0.0000</r>
       <r>  26.3621  0.0000</r>
       <r>  27.9661  0.0000</r>
       <r>  31.6744  0.0000</r>
       <r>  33.3872  0.0000</r>
      </set>
      <set comment="kpoint 35">
       <r>   0.0413  1.0000</r>
       <r>   0.6254  1.0000</r>
       <r>   3.5800  0.9876</r>
       <r>   3.6296  0.9384</r>
       <r>   3.7881  0.2417</r>
       <r>   5.3442  0.0000</r>
       <r>  14.3845  0.0000</r>
       <r>  17.7438  0.0000</r>
       <r>  18.5385  0.0000</r>
       <r>  23.2350  0.0000</r>
       <r>  26.1819  0.0000</r>
       <r>  46.1049  0.0000</r>
      </set>
      <set comment="kpoint 36">
       <r>   0.1730  1.0000</r>
       <r>   0.6294  1.0000</r>
       <r>   3.2917  1.0000</r>
       <r>   3.6042  0.9713</r>
       <r>   3.8576  0.0461</r>
       <r>   7.0314  0.0000</r>
       <r>  12.9064  0.0000</r>
       <r>  16.0057  0.0000</r>
       <r>  17.7702  0.0000</r>
       <r>  24.3117  0.0000</r>
       <r>  27.5346  0.0000</r>
       <r>  44.3248  0.0000</r>
      </set>
      <set comment="kpoint 37">
       <r>   0.4898  1.0000</r>
       <r>   0.8272  1.0000</r>
       <r>   2.6011  1.0000</r>
       <r>   3.3496  1.0000</r>
       <r>   3.7683  0.3371</r>
       <r>   8.4080  0.0000</r>
       <r>  12.5517  0.0000</r>
       <r>  13.3559  0.0000</r>
       <r>  18.7222  0.0000</r>
       <r>  25.0389  0.0000</r>
       <r>  31.6606  0.0000</r>
       <r>  41.1533  0.0000</r>
      </set>
      <set comment="kpoint 38">
       <r>   0.7999  1.0000</r>
       <r>   1.1240  1.0000</r>
       <r>   2.0213  1.0000</r>
       <r>   2.9237  1.0000</r>
       <r>   3.6743  0.8182</r>
       <r>   8.2518  0.0000</r>
       <r>  10.1690  0.0000</r>
       <r>  15.8435  0.0000</r>
       <r>  20.4411  0.0000</r>
       <r>  25.8011  0.0000</r>
       <r>  36.3062  0.0000</r>
       <r>  37.7500  0.0000</r>
      </set>
      <set comment="kpoint 39">
       <r>   0.4251  1.0000</r>
       <r>   1.6196  1.0000</r>
       <r>   2.1710  1.0000</r>
       <r>   2.4838  1.0000</r>
       <r>   3.6450  0.9072</r>
       <r>   6.5110  0.0000</r>
       <r>   9.5978  0.0000</r>
       <r>  19.6207  0.0000</r>
       <r>  22.6591  0.0000</r>
       <r>  26.7909  0.0000</r>
       <r>  33.3273  0.0000</r>
       <r>  36.7616  0.0000</r>
      </set>
      <set comment="kpoint 40">
       <r>  -0.0741  1.0000</r>
       <r>   1.9963  1.0000</r>
       <r>   2.2043  1.0000</r>
       <r>   2.6978  1.0000</r>
       <r>   3.6846  0.7775</r>
       <r>   4.6887  0.0000</r>
       <r>   9.9271  0.0000</r>
       <r>  23.7964  0.0000</r>
       <r>  25.1449  0.0000</r>
       <r>  27.0584  0.0000</r>
       <r>  31.3267  0.0000</r>
       <r>  32.9748  0.0000</r>
      </set>
      <set comment="kpoint 41">
       <r>   0.0518  1.0000</r>
       <r>   0.5543  1.0000</r>
       <r>   3.6957  0.7280</r>
       <r>   3.7300  0.5484</r>
       <r>   3.8640  0.0380</r>
       <r>   6.3949  0.0000</r>
       <r>  12.8207  0.0000</r>
       <r>  17.4000  0.0000</r>
       <r>  18.1721  0.0000</r>
       <r>  23.1283  0.0000</r>
       <r>  26.0802  0.0000</r>
       <r>  46.6974  0.0000</r>
      </set>
      <set comment="kpoint 42">
       <r>   0.1699  1.0000</r>
       <r>   0.6966  1.0000</r>
       <r>   3.0941  1.0000</r>
       <r>   3.5583  0.9946</r>
       <r>   3.7823  0.2683</r>
       <r>   5.9601  0.0000</r>
       <r>  14.5172  0.0000</r>
       <r>  16.3228  0.0000</r>
       <r>  18.1033  0.0000</r>
       <r>  24.4454  0.0000</r>
       <r>  27.6578  0.0000</r>
       <r>  43.3147  0.0000</r>
      </set>
      <set comment="kpoint 43">
       <r>   0.4127  1.0000</r>
       <r>   1.0107  1.0000</r>
       <r>   2.2065  1.0000</r>
       <r>   3.0622  1.0000</r>
       <r>   3.7496  0.4381</r>
       <r>   5.7659  0.0000</r>
       <r>  13.5441  0.0000</r>
       <r>  17.3805  0.0000</r>
       <r>  19.6157  0.0000</r>
       <r>  25.4118  0.0000</r>
       <r>  32.0652  0.0000</r>
       <r>  38.7135  0.0000</r>
      </set>
      <set comment="kpoint 44">
       <r>   0.2724  1.0000</r>
       <r>   1.5520  1.0000</r>
       <r>   2.0220  1.0000</r>
       <r>   2.5506  1.0000</r>
       <r>   3.7169  0.6201</r>
       <r>   5.3835  0.0000</r>
       <r>  11.3253  0.0000</r>
       <r>  20.8645  0.0000</r>
       <r>  21.7934  0.0000</r>
       <r>  26.3634  0.0000</r>
       <r>  34.1453  0.0000</r>
       <r>  37.4753  0.0000</r>
      </set>
      <set comment="kpoint 45">
       <r>  -0.0625  1.0000</r>
       <r>   0.7621  1.0000</r>
       <r>   3.2489  1.0000</r>
       <r>   3.4705  0.9999</r>
       <r>   3.6883  0.7616</r>
       <r>   4.1925  0.0000</r>
       <r>  16.6757  0.0000</r>
       <r>  18.4066  0.0000</r>
       <r>  19.2466  0.0000</r>
       <r>  23.4561  0.0000</r>
       <r>  26.4118  0.0000</r>
       <r>  45.0487  0.0000</r>
      </set>
      <set comment="kpoint 46">
       <r>  -0.2776  1.0000</r>
       <r>   1.0054  1.0000</r>
       <r>   2.4022  1.0000</r>
       <r>   3.1804  1.0000</r>
       <r>   3.5083  0.9994</r>
       <r>   4.0113  0.0001</r>
       <r>  17.7230  0.0000</r>
       <r>  19.3493  0.0000</r>
       <r>  19.8339  0.0000</r>
       <r>  25.1583  0.0000</r>
       <r>  28.3798  0.0000</r>
       <r>  40.4548  0.0000</r>
      </set>
      <set comment="kpoint 47">
       <r>  -0.5502  1.0000</r>
       <r>   1.3751  1.0000</r>
       <r>   2.0549  1.0000</r>
       <r>   2.6618  1.0000</r>
       <r>   3.4836  0.9998</r>
       <r>   3.9827  0.0003</r>
       <r>  15.3128  0.0000</r>
       <r>  21.3950  0.0000</r>
       <r>  22.9879  0.0000</r>
       <r>  26.4959  0.0000</r>
       <r>  33.0252  0.0000</r>
       <r>  35.9243  0.0000</r>
      </set>
      <set comment="kpoint 48">
       <r>  -1.1779  1.0000</r>
       <r>   1.1815  1.0000</r>
       <r>   2.4767  1.0000</r>
       <r>   2.9750  1.0000</r>
       <r>   3.1208  1.0000</r>
       <r>   3.4792  0.9999</r>
       <r>  20.4095  0.0000</r>
       <r>  21.5207  0.0000</r>
       <r>  22.0757  0.0000</r>
       <r>  24.3235  0.0000</r>
       <r>  27.5250  0.0000</r>
       <r>  41.8117  0.0000</r>
      </set>
      <set comment="kpoint 49">
       <r>  -1.8788  1.0000</r>
       <r>   1.4488  1.0000</r>
       <r>   2.3263  1.0000</r>
       <r>   2.7001  1.0000</r>
       <r>   2.9618  1.0000</r>
       <r>   3.4486  1.0000</r>
       <r>  19.9549  0.0000</r>
       <r>  21.9814  0.0000</r>
       <r>  25.2022  0.0000</r>
       <r>  26.7362  0.0000</r>
       <r>  30.0805  0.0000</r>
       <r>  37.3837  0.0000</r>
      </set>
      <set comment="kpoint 50">
       <r>  -2.9310  1.0000</r>
       <r>   1.6652  1.0000</r>
       <r>   2.4703  1.0000</r>
       <r>   2.5002  1.0000</r>
       <r>   2.7549  1.0000</r>
       <r>   3.2682  1.0000</r>
       <r>  23.0564  0.0000</r>
       <r>  24.6492  0.0000</r>
       <r>  25.5887  0.0000</r>
       <r>  27.1781  0.0000</r>
       <r>  30.7319  0.0000</r>
       <r>  37.2901  0.0000</r>
      </set>
      <set comment="kpoint 51">
       <r>  -3.6200  1.0000</r>
       <r>   1.9455  1.0000</r>
       <r>   2.2625  1.0000</r>
       <r>   2.2625  1.0000</r>
       <r>   3.0577  1.0000</r>
       <r>   3.0577  1.0000</r>
       <r>  22.5658  0.0000</r>
       <r>  27.8348  0.0000</r>
       <r>  28.8433  0.0000</r>
       <r>  28.8433  0.0000</r>
       <r>  34.3474  0.0000</r>
       <r>  34.9749  0.0000</r>
      </set>
      <set comment="kpoint 52">
       <r>  -2.9333  1.0000</r>
       <r>   1.7876  1.0000</r>
       <r>   2.3198  1.0000</r>
       <r>   2.3986  1.0000</r>
       <r>   2.8722  1.0000</r>
       <r>   3.2750  1.0000</r>
       <r>  21.1095  0.0000</r>
       <r>  23.2848  0.0000</r>
       <r>  29.8592  0.0000</r>
       <r>  31.6879  0.0000</r>
       <r>  31.7715  0.0000</r>
       <r>  33.0383  0.0000</r>
      </set>
      <set comment="kpoint 53">
       <r>  -1.6797  1.0000</r>
       <r>   1.6104  1.0000</r>
       <r>   2.2181  1.0000</r>
       <r>   2.5773  1.0000</r>
       <r>   2.8099  1.0000</r>
       <r>   3.6982  0.7161</r>
       <r>  18.1490  0.0000</r>
       <r>  20.3535  0.0000</r>
       <r>  29.0950  0.0000</r>
       <r>  29.9267  0.0000</r>
       <r>  31.8707  0.0000</r>
       <r>  33.3427  0.0000</r>
      </set>
      <set comment="kpoint 54">
       <r>  -0.3356  1.0000</r>
       <r>   1.7294  1.0000</r>
       <r>   1.9979  1.0000</r>
       <r>   2.4454  1.0000</r>
       <r>   3.1957  1.0000</r>
       <r>   4.3906  0.0000</r>
       <r>  13.6910  0.0000</r>
       <r>  20.0426  0.0000</r>
       <r>  27.1583  0.0000</r>
       <r>  27.1857  0.0000</r>
       <r>  33.1407  0.0000</r>
       <r>  33.4693  0.0000</r>
      </set>
      <set comment="kpoint 55">
       <r>   0.2218  1.0000</r>
       <r>   1.8002  1.0000</r>
       <r>   2.2680  1.0000</r>
       <r>   2.3694  1.0000</r>
       <r>   3.5684  0.9919</r>
       <r>   5.6251  0.0000</r>
       <r>  10.1443  0.0000</r>
       <r>  20.4243  0.0000</r>
       <r>  25.0172  0.0000</r>
       <r>  25.9975  0.0000</r>
       <r>  33.5409  0.0000</r>
       <r>  34.3090  0.0000</r>
      </set>
      <set comment="kpoint 56">
       <r>   0.2053  1.0000</r>
       <r>   1.7314  1.0000</r>
       <r>   2.2442  1.0000</r>
       <r>   2.3975  1.0000</r>
       <r>   3.7497  0.4374</r>
       <r>   5.5420  0.0000</r>
       <r>  10.1257  0.0000</r>
       <r>  21.4833  0.0000</r>
       <r>  23.6711  0.0000</r>
       <r>  25.5145  0.0000</r>
       <r>  34.5273  0.0000</r>
       <r>  34.7944  0.0000</r>
      </set>
      <set comment="kpoint 57">
       <r>  -0.3702  1.0000</r>
       <r>   1.5519  1.0000</r>
       <r>   2.0458  1.0000</r>
       <r>   2.4984  1.0000</r>
       <r>   3.6764  0.8102</r>
       <r>   4.0471  0.0000</r>
       <r>  13.6592  0.0000</r>
       <r>  23.0774  0.0000</r>
       <r>  23.1899  0.0000</r>
       <r>  25.6876  0.0000</r>
       <r>  35.2255  0.0000</r>
       <r>  35.5890  0.0000</r>
      </set>
      <set comment="kpoint 58">
       <r>  -1.6908  1.0000</r>
       <r>   1.4834  1.0000</r>
       <r>   2.2665  1.0000</r>
       <r>   2.5779  1.0000</r>
       <r>   3.1706  1.0000</r>
       <r>   3.4448  1.0000</r>
       <r>  18.1350  0.0000</r>
       <r>  23.5438  0.0000</r>
       <r>  24.6771  0.0000</r>
       <r>  26.6576  0.0000</r>
       <r>  31.7345  0.0000</r>
       <r>  36.3337  0.0000</r>
      </set>
      <set comment="kpoint 59">
       <r>  -2.5007  1.0000</r>
       <r>   1.6831  1.0000</r>
       <r>   2.3457  1.0000</r>
       <r>   2.4309  1.0000</r>
       <r>   2.9711  1.0000</r>
       <r>   3.2980  1.0000</r>
       <r>  19.4625  0.0000</r>
       <r>  25.1797  0.0000</r>
       <r>  25.9175  0.0000</r>
       <r>  29.2909  0.0000</r>
       <r>  32.1567  0.0000</r>
       <r>  34.8052  0.0000</r>
      </set>
      <set comment="kpoint 60">
       <r>  -1.4903  1.0000</r>
       <r>   1.4848  1.0000</r>
       <r>   2.1867  1.0000</r>
       <r>   2.6892  1.0000</r>
       <r>   2.9481  1.0000</r>
       <r>   3.6835  0.7820</r>
       <r>  18.3137  0.0000</r>
       <r>  20.4784  0.0000</r>
       <r>  25.8328  0.0000</r>
       <r>  28.8395  0.0000</r>
       <r>  31.7547  0.0000</r>
       <r>  34.7097  0.0000</r>
      </set>
      <set comment="kpoint 61">
       <r>  -0.2148  1.0000</r>
       <r>   1.3984  1.0000</r>
       <r>   1.8913  1.0000</r>
       <r>   2.8135  1.0000</r>
       <r>   3.1209  1.0000</r>
       <r>   4.4888  0.0000</r>
       <r>  15.6680  0.0000</r>
       <r>  17.9618  0.0000</r>
       <r>  23.4104  0.0000</r>
       <r>  29.9952  0.0000</r>
       <r>  31.5015  0.0000</r>
       <r>  35.2833  0.0000</r>
      </set>
      <set comment="kpoint 62">
       <r>   0.5493  1.0000</r>
       <r>   1.4998  1.0000</r>
       <r>   1.8084  1.0000</r>
       <r>   2.6871  1.0000</r>
       <r>   3.5084  0.9994</r>
       <r>   5.9801  0.0000</r>
       <r>  11.6575  0.0000</r>
       <r>  18.1193  0.0000</r>
       <r>  21.4144  0.0000</r>
       <r>  28.7826  0.0000</r>
       <r>  32.3659  0.0000</r>
       <r>  38.4239  0.0000</r>
      </set>
      <set comment="kpoint 63">
       <r>   0.6431  1.0000</r>
       <r>   1.4113  1.0000</r>
       <r>   1.9924  1.0000</r>
       <r>   2.6555  1.0000</r>
       <r>   3.6716  0.8282</r>
       <r>   7.1768  0.0000</r>
       <r>   9.7700  0.0000</r>
       <r>  18.9829  0.0000</r>
       <r>  20.0617  0.0000</r>
       <r>  28.0608  0.0000</r>
       <r>  32.8976  0.0000</r>
       <r>  39.6037  0.0000</r>
      </set>
      <set comment="kpoint 64">
       <r>   0.3400  1.0000</r>
       <r>   1.3663  1.0000</r>
       <r>   1.8579  1.0000</r>
       <r>   2.7658  1.0000</r>
       <r>   3.5714  0.9910</r>
       <r>   5.2729  0.0000</r>
       <r>  12.8937  0.0000</r>
       <r>  19.2155  0.0000</r>
       <r>  20.7143  0.0000</r>
       <r>  27.9111  0.0000</r>
       <r>  33.2349  0.0000</r>
       <r>  36.2117  0.0000</r>
      </set>
      <set comment="kpoint 65">
       <r>  -0.6574  1.0000</r>
       <r>   1.2946  1.0000</r>
       <r>   2.0570  1.0000</r>
       <r>   2.8929  1.0000</r>
       <r>   3.1788  1.0000</r>
       <r>   4.0155  0.0000</r>
       <r>  17.1481  0.0000</r>
       <r>  19.3068  0.0000</r>
       <r>  22.8470  0.0000</r>
       <r>  27.9592  0.0000</r>
       <r>  31.0398  0.0000</r>
       <r>  35.9754  0.0000</r>
      </set>
      <set comment="kpoint 66">
       <r>  -0.8378  1.0000</r>
       <r>   1.2694  1.0000</r>
       <r>   2.1827  1.0000</r>
       <r>   2.7628  1.0000</r>
       <r>   3.5754  0.9895</r>
       <r>   3.5844  0.9854</r>
       <r>  16.9633  0.0000</r>
       <r>  22.0955  0.0000</r>
       <r>  22.4265  0.0000</r>
       <r>  25.2564  0.0000</r>
       <r>  30.9072  0.0000</r>
       <r>  38.4969  0.0000</r>
      </set>
      <set comment="kpoint 67">
       <r>   0.0163  1.0000</r>
       <r>   1.1103  1.0000</r>
       <r>   2.0505  1.0000</r>
       <r>   3.1201  1.0000</r>
       <r>   3.4200  1.0000</r>
       <r>   4.5813  0.0000</r>
       <r>  16.1520  0.0000</r>
       <r>  18.3005  0.0000</r>
       <r>  19.9754  0.0000</r>
       <r>  27.2797  0.0000</r>
       <r>  30.4750  0.0000</r>
       <r>  37.2438  0.0000</r>
      </set>
      <set comment="kpoint 68">
       <r>   0.6600  1.0000</r>
       <r>   1.1392  1.0000</r>
       <r>   1.8276  1.0000</r>
       <r>   3.1536  1.0000</r>
       <r>   3.5738  0.9901</r>
       <r>   6.3265  0.0000</r>
       <r>  13.8924  0.0000</r>
       <r>  16.3266  0.0000</r>
       <r>  17.7940  0.0000</r>
       <r>  29.1882  0.0000</r>
       <r>  32.0197  0.0000</r>
       <r>  36.0040  0.0000</r>
      </set>
      <set comment="kpoint 69">
       <r>   0.9940  1.0000</r>
       <r>   1.1528  1.0000</r>
       <r>   1.7412  1.0000</r>
       <r>   2.9713  1.0000</r>
       <r>   3.7055  0.6800</r>
       <r>   8.8182  0.0000</r>
       <r>  10.4636  0.0000</r>
       <r>  16.1303  0.0000</r>
       <r>  17.0922  0.0000</r>
       <r>  29.6745  0.0000</r>
       <r>  33.4536  0.0000</r>
       <r>  37.6106  0.0000</r>
      </set>
      <set comment="kpoint 70">
       <r>   0.9460  1.0000</r>
       <r>   1.3156  1.0000</r>
       <r>   1.5376  1.0000</r>
       <r>   2.9995  1.0000</r>
       <r>   3.5629  0.9935</r>
       <r>   7.2182  0.0000</r>
       <r>  12.5440  0.0000</r>
       <r>  15.3151  0.0000</r>
       <r>  18.4859  0.0000</r>
       <r>  30.4808  0.0000</r>
       <r>  32.3787  0.0000</r>
       <r>  36.7902  0.0000</r>
      </set>
      <set comment="kpoint 71">
       <r>   0.3793  1.0000</r>
       <r>   1.2646  1.0000</r>
       <r>   1.7635  1.0000</r>
       <r>   3.0046  1.0000</r>
       <r>   3.3579  1.0000</r>
       <r>   5.2217  0.0000</r>
       <r>  14.6838  0.0000</r>
       <r>  17.0473  0.0000</r>
       <r>  20.5012  0.0000</r>
       <r>  29.6123  0.0000</r>
       <r>  31.7435  0.0000</r>
       <r>  35.4763  0.0000</r>
      </set>
      <set comment="kpoint 72">
       <r>   0.2019  1.0000</r>
       <r>   0.8867  1.0000</r>
       <r>   2.5405  1.0000</r>
       <r>   3.1866  1.0000</r>
       <r>   3.7787  0.2851</r>
       <r>   5.1694  0.0000</r>
       <r>  15.1475  0.0000</r>
       <r>  17.0469  0.0000</r>
       <r>  19.9015  0.0000</r>
       <r>  24.2790  0.0000</r>
       <r>  29.7555  0.0000</r>
       <r>  41.7000  0.0000</r>
      </set>
      <set comment="kpoint 73">
       <r>   0.4018  1.0000</r>
       <r>   0.8392  1.0000</r>
       <r>   2.5386  1.0000</r>
       <r>   3.4128  1.0000</r>
       <r>   3.7616  0.3721</r>
       <r>   6.7992  0.0000</r>
       <r>  14.6547  0.0000</r>
       <r>  14.9512  0.0000</r>
       <r>  17.0311  0.0000</r>
       <r>  26.4680  0.0000</r>
       <r>  29.8388  0.0000</r>
       <r>  39.9239  0.0000</r>
      </set>
      <set comment="kpoint 74">
       <r>   0.6444  1.0000</r>
       <r>   1.0081  1.0000</r>
       <r>   2.1845  1.0000</r>
       <r>   3.2171  1.0000</r>
       <r>   3.8548  0.0502</r>
       <r>   9.0988  0.0000</r>
       <r>  12.9539  0.0000</r>
       <r>  13.5043  0.0000</r>
       <r>  15.6597  0.0000</r>
       <r>  28.7238  0.0000</r>
       <r>  32.2214  0.0000</r>
       <r>  37.6995  0.0000</r>
      </set>
      <set comment="kpoint 75">
       <r>   0.9347  1.0000</r>
       <r>   1.2294  1.0000</r>
       <r>   1.7211  1.0000</r>
       <r>   3.0312  1.0000</r>
       <r>   3.7455  0.4611</r>
       <r>   9.8320  0.0000</r>
       <r>  10.7411  0.0000</r>
       <r>  14.1493  0.0000</r>
       <r>  16.8420  0.0000</r>
       <r>  29.7308  0.0000</r>
       <r>  34.6120  0.0000</r>
       <r>  36.7564  0.0000</r>
      </set>
      <set comment="kpoint 76">
       <r>   0.8503  1.0000</r>
       <r>   1.2654  1.0000</r>
       <r>   1.7738  1.0000</r>
       <r>   2.8490  1.0000</r>
       <r>   3.6303  0.9371</r>
       <r>   7.2855  0.0000</r>
       <r>  10.9326  0.0000</r>
       <r>  17.4449  0.0000</r>
       <r>  18.7121  0.0000</r>
       <r>  29.4083  0.0000</r>
       <r>  32.5820  0.0000</r>
       <r>  38.2303  0.0000</r>
      </set>
      <set comment="kpoint 77">
       <r>   0.2862  1.0000</r>
       <r>   0.6958  1.0000</r>
       <r>   3.0348  1.0000</r>
       <r>   3.5030  0.9996</r>
       <r>   3.8049  0.1742</r>
       <r>   7.5543  0.0000</r>
       <r>  12.9748  0.0000</r>
       <r>  14.3228  0.0000</r>
       <r>  18.8844  0.0000</r>
       <r>  23.9660  0.0000</r>
       <r>  29.3148  0.0000</r>
       <r>  43.9404  0.0000</r>
      </set>
      <set comment="kpoint 78">
       <r>   0.3899  1.0000</r>
       <r>   0.7806  1.0000</r>
       <r>   2.7271  1.0000</r>
       <r>   3.4298  1.0000</r>
       <r>   3.8555  0.0491</r>
       <r>   7.9846  0.0000</r>
       <r>  13.0842  0.0000</r>
       <r>  14.5135  0.0000</r>
       <r>  16.7388  0.0000</r>
       <r>  26.3116  0.0000</r>
       <r>  29.7263  0.0000</r>
       <r>  40.9838  0.0000</r>
      </set>
      <set comment="kpoint 79">
       <r>   0.6807  1.0000</r>
       <r>   1.0514  1.0000</r>
       <r>   2.0302  1.0000</r>
       <r>   3.2148  1.0000</r>
       <r>   3.7506  0.4326</r>
       <r>   7.7397  0.0000</r>
       <r>  13.3223  0.0000</r>
       <r>  15.2423  0.0000</r>
       <r>  15.9539  0.0000</r>
       <r>  28.8809  0.0000</r>
       <r>  32.1679  0.0000</r>
       <r>  36.8710  0.0000</r>
      </set>
      <set comment="kpoint 80">
       <r>   0.2861  1.0000</r>
       <r>   0.7605  1.0000</r>
       <r>   2.8542  1.0000</r>
       <r>   3.3771  1.0000</r>
       <r>   3.8105  0.1544</r>
       <r>   6.4173  0.0000</r>
       <r>  14.4437  0.0000</r>
       <r>  14.8231  0.0000</r>
       <r>  19.2296  0.0000</r>
       <r>  24.0664  0.0000</r>
       <r>  29.4568  0.0000</r>
       <r>  42.9917  0.0000</r>
      </set>
      <set comment="kpoint 81">
       <r>   0.3405  1.0000</r>
       <r>   0.9526  1.0000</r>
       <r>   2.2553  1.0000</r>
       <r>   3.3140  1.0000</r>
       <r>   3.6104  0.9651</r>
       <r>   5.5265  0.0000</r>
       <r>  15.3477  0.0000</r>
       <r>  17.1144  0.0000</r>
       <r>  17.6821  0.0000</r>
       <r>  26.7873  0.0000</r>
       <r>  30.0806  0.0000</r>
       <r>  38.5775  0.0000</r>
      </set>
      <set comment="kpoint 82">
       <r>  -0.1445  1.0000</r>
       <r>   1.0632  1.0000</r>
       <r>   2.2562  1.0000</r>
       <r>   2.9723  1.0000</r>
       <r>   3.7008  0.7034</r>
       <r>   4.2128  0.0000</r>
       <r>  15.9605  0.0000</r>
       <r>  19.6891  0.0000</r>
       <r>  20.8689  0.0000</r>
       <r>  24.6400  0.0000</r>
       <r>  30.2334  0.0000</r>
       <r>  40.4081  0.0000</r>
      </set>
      <set comment="kpoint 83">
       <r>  -2.3100  1.0000</r>
       <r>   1.8074  1.0000</r>
       <r>   2.3065  1.0000</r>
       <r>   2.3065  1.0000</r>
       <r>   3.1789  1.0000</r>
       <r>   3.1789  1.0000</r>
       <r>  17.6078  0.0000</r>
       <r>  27.1585  0.0000</r>
       <r>  27.9531  0.0000</r>
       <r>  27.9531  0.0000</r>
       <r>  33.5323  0.0000</r>
       <r>  33.5323  0.0000</r>
      </set>
      <set comment="kpoint 84">
       <r>  -1.5260  1.0000</r>
       <r>   1.6942  1.0000</r>
       <r>   2.2255  1.0000</r>
       <r>   2.4007  1.0000</r>
       <r>   3.0392  1.0000</r>
       <r>   3.6382  0.9221</r>
       <r>  16.2990  0.0000</r>
       <r>  22.5557  0.0000</r>
       <r>  28.3786  0.0000</r>
       <r>  29.9575  0.0000</r>
       <r>  31.4667  0.0000</r>
       <r>  32.3902  0.0000</r>
      </set>
      <set comment="kpoint 85">
       <r>  -0.3443  1.0000</r>
       <r>   1.5343  1.0000</r>
       <r>   1.9554  1.0000</r>
       <r>   2.6382  1.0000</r>
       <r>   2.9772  1.0000</r>
       <r>   4.4629  0.0000</r>
       <r>  15.5008  0.0000</r>
       <r>  17.8272  0.0000</r>
       <r>  26.9978  0.0000</r>
       <r>  27.3613  0.0000</r>
       <r>  33.7568  0.0000</r>
       <r>  34.9477  0.0000</r>
      </set>
      <set comment="kpoint 86">
       <r>   0.6188  1.0000</r>
       <r>   1.5732  1.0000</r>
       <r>   1.6386  1.0000</r>
       <r>   2.7306  1.0000</r>
       <r>   3.2329  1.0000</r>
       <r>   5.8395  0.0000</r>
       <r>  13.1628  0.0000</r>
       <r>  15.8122  0.0000</r>
       <r>  24.3647  0.0000</r>
       <r>  25.9918  0.0000</r>
       <r>  36.1317  0.0000</r>
       <r>  36.6881  0.0000</r>
      </set>
      <set comment="kpoint 87">
       <r>   0.7697  1.0000</r>
       <r>   1.2918  1.0000</r>
       <r>   1.9792  1.0000</r>
       <r>   2.7702  1.0000</r>
       <r>   3.5908  0.9817</r>
       <r>   7.8024  0.0000</r>
       <r>   9.9286  0.0000</r>
       <r>  16.4007  0.0000</r>
       <r>  22.3515  0.0000</r>
       <r>  25.1015  0.0000</r>
       <r>  37.4187  0.0000</r>
       <r>  37.6484  0.0000</r>
      </set>
      <set comment="kpoint 88">
       <r>   0.5142  1.0000</r>
       <r>   1.1393  1.0000</r>
       <r>   2.1087  1.0000</r>
       <r>   2.8636  1.0000</r>
       <r>   3.7771  0.2931</r>
       <r>   6.1940  0.0000</r>
       <r>  11.9336  0.0000</r>
       <r>  17.7416  0.0000</r>
       <r>  21.1454  0.0000</r>
       <r>  24.7036  0.0000</r>
       <r>  34.4658  0.0000</r>
       <r>  38.6423  0.0000</r>
      </set>
      <set comment="kpoint 89">
       <r>  -1.0530  1.0000</r>
       <r>   1.6992  1.0000</r>
       <r>   2.1606  1.0000</r>
       <r>   2.3782  1.0000</r>
       <r>   3.4824  0.9999</r>
       <r>   3.5413  0.9974</r>
       <r>  14.7965  0.0000</r>
       <r>  24.5768  0.0000</r>
       <r>  25.1056  0.0000</r>
       <r>  27.2557  0.0000</r>
       <r>  33.2105  0.0000</r>
       <r>  35.0352  0.0000</r>
      </set>
      <set comment="kpoint 90">
       <r>  -0.1951  1.0000</r>
       <r>   1.5397  1.0000</r>
       <r>   1.9407  1.0000</r>
       <r>   2.5868  1.0000</r>
       <r>   3.3820  1.0000</r>
       <r>   4.4482  0.0000</r>
       <r>  13.8497  0.0000</r>
       <r>  20.1624  0.0000</r>
       <r>  23.5673  0.0000</r>
       <r>  28.3941  0.0000</r>
       <r>  32.5232  0.0000</r>
       <r>  35.9001  0.0000</r>
      </set>
      <set comment="kpoint 91">
       <r>   0.7045  1.0000</r>
       <r>   1.4364  1.0000</r>
       <r>   1.5745  1.0000</r>
       <r>   2.8762  1.0000</r>
       <r>   3.3486  1.0000</r>
       <r>   5.9683  0.0000</r>
       <r>  13.3472  0.0000</r>
       <r>  15.9458  0.0000</r>
       <r>  21.2191  0.0000</r>
       <r>  29.2616  0.0000</r>
       <r>  32.8033  0.0000</r>
       <r>  37.2633  0.0000</r>
      </set>
      <set comment="kpoint 92">
       <r>   1.0784  1.0000</r>
       <r>   1.1292  1.0000</r>
       <r>   1.7209  1.0000</r>
       <r>   2.9608  1.0000</r>
       <r>   3.5719  0.9908</r>
       <r>   8.2406  0.0000</r>
       <r>  11.3127  0.0000</r>
       <r>  14.5105  0.0000</r>
       <r>  19.3446  0.0000</r>
       <r>  28.1009  0.0000</r>
       <r>  35.0777  0.0000</r>
       <r>  38.7989  0.0000</r>
      </set>
      <set comment="kpoint 93">
       <r>   0.7490  1.0000</r>
       <r>   1.0510  1.0000</r>
       <r>   2.0337  1.0000</r>
       <r>   3.0942  1.0000</r>
       <r>   3.7297  0.5500</r>
       <r>   7.9790  0.0000</r>
       <r>  11.5722  0.0000</r>
       <r>  15.4787  0.0000</r>
       <r>  18.0786  0.0000</r>
       <r>  27.3047  0.0000</r>
       <r>  34.1477  0.0000</r>
       <r>  37.1052  0.0000</r>
      </set>
      <set comment="kpoint 94">
       <r>   0.1829  1.0000</r>
       <r>   1.3469  1.0000</r>
       <r>   2.0197  1.0000</r>
       <r>   2.6659  1.0000</r>
       <r>   3.7578  0.3928</r>
       <r>   4.9504  0.0000</r>
       <r>  12.7013  0.0000</r>
       <r>  20.3962  0.0000</r>
       <r>  22.0377  0.0000</r>
       <r>  25.0449  0.0000</r>
       <r>  34.8342  0.0000</r>
       <r>  37.2926  0.0000</r>
      </set>
      <set comment="kpoint 95">
       <r>   0.6528  1.0000</r>
       <r>   1.1765  1.0000</r>
       <r>   1.9051  1.0000</r>
       <r>   2.9509  1.0000</r>
       <r>   3.6792  0.7993</r>
       <r>   6.4823  0.0000</r>
       <r>  12.1288  0.0000</r>
       <r>  17.8595  0.0000</r>
       <r>  18.6391  0.0000</r>
       <r>  27.5450  0.0000</r>
       <r>  33.8516  0.0000</r>
       <r>  36.4169  0.0000</r>
      </set>
      <set comment="kpoint 96">
       <r>   0.9061  1.0000</r>
       <r>   1.3133  1.0000</r>
       <r>   1.6165  1.0000</r>
       <r>   3.0515  1.0000</r>
       <r>   3.7458  0.4595</r>
       <r>   8.7598  0.0000</r>
       <r>  11.9642  0.0000</r>
       <r>  14.8683  0.0000</r>
       <r>  16.0170  0.0000</r>
       <r>  31.3037  0.0000</r>
       <r>  32.6734  0.0000</r>
       <r>  36.1778  0.0000</r>
      </set>
      <set comment="kpoint 97">
       <r>   0.8325  1.0000</r>
       <r>   1.3133  1.0000</r>
       <r>   1.7110  1.0000</r>
       <r>   3.0572  1.0000</r>
       <r>   3.8546  0.0504</r>
       <r>  10.3126  0.0000</r>
       <r>  11.6383  0.0000</r>
       <r>  13.8892  0.0000</r>
       <r>  14.7881  0.0000</r>
       <r>  31.3681  0.0000</r>
       <r>  33.9436  0.0000</r>
       <r>  35.2531  0.0000</r>
      </set>
      <set comment="kpoint 98">
       <r>   0.6438  1.0000</r>
       <r>   0.9881  1.0000</r>
       <r>   2.2521  1.0000</r>
       <r>   3.0642  1.0000</r>
       <r>   3.7370  0.5090</r>
       <r>   7.6932  0.0000</r>
       <r>  11.3693  0.0000</r>
       <r>  15.3303  0.0000</r>
       <r>  20.5357  0.0000</r>
       <r>  24.5139  0.0000</r>
       <r>  34.2134  0.0000</r>
       <r>  40.0353  0.0000</r>
      </set>
      <set comment="kpoint 99">
       <r>   0.7388  1.0000</r>
       <r>   1.0092  1.0000</r>
       <r>   2.1371  1.0000</r>
       <r>   3.1650  1.0000</r>
       <r>   3.7513  0.4287</r>
       <r>   9.4405  0.0000</r>
       <r>  11.2098  0.0000</r>
       <r>  13.6330  0.0000</r>
       <r>  17.8198  0.0000</r>
       <r>  27.1868  0.0000</r>
       <r>  34.2200  0.0000</r>
       <r>  37.8980  0.0000</r>
      </set>
      <set comment="kpoint 100">
       <r>   0.6655  1.0000</r>
       <r>   0.9213  1.0000</r>
       <r>   2.3531  1.0000</r>
       <r>   3.2147  1.0000</r>
       <r>   3.6717  0.8277</r>
       <r>   9.1320  0.0000</r>
       <r>  10.9848  0.0000</r>
       <r>  13.5326  0.0000</r>
       <r>  20.2260  0.0000</r>
       <r>  24.4286  0.0000</r>
       <r>  34.0885  0.0000</r>
       <r>  41.1510  0.0000</r>
      </set>
      <set comment="kpoint 101">
       <r>  -0.8828  1.0000</r>
       <r>   2.1556  1.0000</r>
       <r>   2.2029  1.0000</r>
       <r>   2.2029  1.0000</r>
       <r>   3.4730  0.9999</r>
       <r>   3.4730  0.9999</r>
       <r>  13.1656  0.0000</r>
       <r>  26.3186  0.0000</r>
       <r>  27.4400  0.0000</r>
       <r>  27.4400  0.0000</r>
       <r>  31.4541  0.0000</r>
       <r>  31.4541  0.0000</r>
      </set>
      <set comment="kpoint 102">
       <r>  -0.3208  1.0000</r>
       <r>   2.0528  1.0000</r>
       <r>   2.1409  1.0000</r>
       <r>   2.2747  1.0000</r>
       <r>   3.4126  1.0000</r>
       <r>   4.2366  0.0000</r>
       <r>  12.0865  0.0000</r>
       <r>  22.4403  0.0000</r>
       <r>  26.8983  0.0000</r>
       <r>  27.4302  0.0000</r>
       <r>  31.5340  0.0000</r>
       <r>  32.9223  0.0000</r>
      </set>
      <set comment="kpoint 103">
       <r>   0.4427  1.0000</r>
       <r>   1.6548  1.0000</r>
       <r>   1.8936  1.0000</r>
       <r>   2.5573  1.0000</r>
       <r>   3.3982  1.0000</r>
       <r>   5.7958  0.0000</r>
       <r>  11.5072  0.0000</r>
       <r>  17.9736  0.0000</r>
       <r>  24.5834  0.0000</r>
       <r>  25.9848  0.0000</r>
       <r>  35.1343  0.0000</r>
       <r>  35.3992  0.0000</r>
      </set>
      <set comment="kpoint 104">
       <r>   0.9349  1.0000</r>
       <r>   1.1855  1.0000</r>
       <r>   1.8802  1.0000</r>
       <r>   2.9322  1.0000</r>
       <r>   3.4748  0.9999</r>
       <r>   8.0322  0.0000</r>
       <r>  11.0910  0.0000</r>
       <r>  14.3899  0.0000</r>
       <r>  22.0847  0.0000</r>
       <r>  25.0437  0.0000</r>
       <r>  38.7273  0.0000</r>
       <r>  38.7775  0.0000</r>
      </set>
      <set comment="kpoint 105">
       <r>  -0.1321  1.0000</r>
       <r>   1.9642  1.0000</r>
       <r>   2.2694  1.0000</r>
       <r>   2.3551  1.0000</r>
       <r>   3.7270  0.5650</r>
       <r>   4.4227  0.0000</r>
       <r>  10.9071  0.0000</r>
       <r>  24.0132  0.0000</r>
       <r>  24.7068  0.0000</r>
       <r>  26.1184  0.0000</r>
       <r>  32.9687  0.0000</r>
       <r>  33.3012  0.0000</r>
      </set>
      <set comment="kpoint 106">
       <r>   0.3484  1.0000</r>
       <r>   1.6550  1.0000</r>
       <r>   2.1123  1.0000</r>
       <r>   2.4848  1.0000</r>
       <r>   3.6481  0.8996</r>
       <r>   5.9329  0.0000</r>
       <r>  10.2526  0.0000</r>
       <r>  20.5216  0.0000</r>
       <r>  21.8540  0.0000</r>
       <r>  27.9086  0.0000</r>
       <r>  32.1591  0.0000</r>
       <r>  37.2596  0.0000</r>
      </set>
      <set comment="kpoint 107">
       <r>   0.9057  1.0000</r>
       <r>   1.2187  1.0000</r>
       <r>   1.8479  1.0000</r>
       <r>   2.8328  1.0000</r>
       <r>   3.6294  0.9386</r>
       <r>   8.0870  0.0000</r>
       <r>  10.0602  0.0000</r>
       <r>  16.5554  0.0000</r>
       <r>  19.5694  0.0000</r>
       <r>  28.1000  0.0000</r>
       <r>  33.9943  0.0000</r>
       <r>  39.7571  0.0000</r>
      </set>
      <set comment="kpoint 108">
       <r>   0.5109  1.0000</r>
       <r>   1.4869  1.0000</r>
       <r>   2.1128  1.0000</r>
       <r>   2.5732  1.0000</r>
       <r>   3.6991  0.7118</r>
       <r>   6.8300  0.0000</r>
       <r>   9.6678  0.0000</r>
       <r>  18.8584  0.0000</r>
       <r>  22.8824  0.0000</r>
       <r>  25.2395  0.0000</r>
       <r>  35.9215  0.0000</r>
       <r>  36.3059  0.0000</r>
      </set>
      <set comment="kpoint 109">
       <r>  -0.2345  1.0000</r>
       <r>   2.1085  1.0000</r>
       <r>   2.1085  1.0000</r>
       <r>   3.4732  0.9999</r>
       <r>   3.6993  0.7109</r>
       <r>   3.6993  0.7109</r>
       <r>   9.8339  0.0000</r>
       <r>  25.7753  0.0000</r>
       <r>  27.2449  0.0000</r>
       <r>  27.2449  0.0000</r>
       <r>  30.2661  0.0000</r>
       <r>  30.2661  0.0000</r>
      </set>
      <set comment="kpoint 110">
       <r>   0.0225  1.0000</r>
       <r>   1.9485  1.0000</r>
       <r>   2.2202  1.0000</r>
       <r>   2.7121  1.0000</r>
       <r>   3.6873  0.7658</r>
       <r>   5.1750  0.0000</r>
       <r>   9.3836  0.0000</r>
       <r>  22.9583  0.0000</r>
       <r>  25.6526  0.0000</r>
       <r>  26.0993  0.0000</r>
       <r>  32.1298  0.0000</r>
       <r>  32.9215  0.0000</r>
      </set>
     </set>
    </set>
   </array>
  </eigenvalues>
 </calculation>
 <structure name="finalpos" >
  <crystal>
   <varray name="basis" >
    <v>       0.00000000      1.81195000      1.81195000</v>
    <v>       1.81195000      0.00000000      1.81195000</v>
    <v>       1.81195000      1.81195000      0.00000000</v>
   </varray>
   <i name="volume">     11.89785368</i>
   <varray name="rec_basis" >
    <v>      -0.27594580      0.27594580      0.27594580</v>
    <v>       0.27594580     -0.27594580      0.27594580</v>
    <v>       0.27594580      0.27594580     -0.27594580</v>
   </varray>
  </crystal>
  <varray name="positions" >
   <v>       0.00000000      0.00000000      0.00000000</v>
  </varray>
 </structure>
</modeling>
