   1   1   1   0
  0.1987675E+02  0.3040559E-09  0.3040559E-09  0.3040559E-09  0.5000000E-15
   1.0000000000000000E-004
  CAR 
 Au, FCC                                 
     23.75155922     -5.66681827  301      3.79009501      1.00000000
     -5.667  0.0000E+00  0.0000E+00
     -5.569  0.0000E+00  0.0000E+00
     -5.471  0.0000E+00  0.0000E+00
     -5.373  0.0000E+00  0.0000E+00
     -5.275  0.0000E+00  0.0000E+00
     -5.177  0.0000E+00  0.0000E+00
     -5.078  0.0000E+00  0.0000E+00
     -4.980  0.0000E+00  0.0000E+00
     -4.882  0.2167E-15  0.2125E-16
     -4.784  0.5093E-11  0.4995E-12
     -4.686  0.1826E-07  0.1791E-08
     -4.588  0.1018E-04  0.1000E-05
     -4.490  0.9160E-03  0.9082E-04
     -4.392  0.1411E-01  0.1475E-02
     -4.294  0.4018E-01  0.5415E-02
     -4.196  0.2356E-01  0.7725E-02
     -4.098  0.3213E-01  0.1088E-01
     -4.000  0.1132E+00  0.2198E-01
     -3.902  0.8415E-01  0.3023E-01
     -3.804  0.4072E-01  0.3422E-01
     -3.706  0.1129E+00  0.4530E-01
     -3.608  0.8607E-01  0.5374E-01
     -3.509  0.5451E-01  0.5908E-01
     -3.411  0.1506E+00  0.7385E-01
     -3.313  0.1153E+00  0.8516E-01
     -3.215  0.1156E+00  0.9649E-01
     -3.117  0.2473E+00  0.1207E+00
     -3.019  0.1562E+00  0.1361E+00
     -2.921  0.1302E+00  0.1488E+00
     -2.823  0.7329E-01  0.1560E+00
     -2.725  0.8805E-01  0.1647E+00
     -2.627  0.2893E+00  0.1930E+00
     -2.529  0.3029E+00  0.2227E+00
     -2.431  0.2900E+00  0.2512E+00
     -2.333  0.3432E+00  0.2848E+00
     -2.235  0.2706E+00  0.3114E+00
     -2.137  0.5436E+00  0.3647E+00
     -2.039  0.8070E+00  0.4438E+00
     -1.940  0.7688E+00  0.5192E+00
     -1.842  0.9442E+00  0.6118E+00
     -1.744  0.1148E+01  0.7243E+00
     -1.646  0.1777E+01  0.8986E+00
     -1.548  0.2052E+01  0.1100E+01
     -1.450  0.2040E+01  0.1300E+01
     -1.352  0.2396E+01  0.1535E+01
     -1.254  0.2271E+01  0.1757E+01
     -1.156  0.1893E+01  0.1943E+01
     -1.058  0.2047E+01  0.2144E+01
     -0.960  0.1832E+01  0.2323E+01
     -0.862  0.1635E+01  0.2484E+01
     -0.764  0.1471E+01  0.2628E+01
     -0.666  0.2075E+01  0.2832E+01
     -0.568  0.2381E+01  0.3065E+01
     -0.470  0.2552E+01  0.3315E+01
     -0.372  0.2455E+01  0.3556E+01
     -0.273  0.2383E+01  0.3790E+01
     -0.175  0.2828E+01  0.4067E+01
     -0.077  0.3188E+01  0.4380E+01
      0.021  0.3340E+01  0.4707E+01
      0.119  0.3443E+01  0.5045E+01
      0.217  0.3523E+01  0.5390E+01
      0.315  0.3481E+01  0.5732E+01
      0.413  0.2587E+01  0.5985E+01
      0.511  0.2371E+01  0.6218E+01
      0.609  0.2319E+01  0.6445E+01
      0.707  0.2191E+01  0.6660E+01
      0.805  0.2073E+01  0.6863E+01
      0.903  0.2467E+01  0.7105E+01
      1.001  0.3082E+01  0.7407E+01
      1.099  0.2996E+01  0.7701E+01
      1.197  0.2069E+01  0.7904E+01
      1.296  0.2486E+01  0.8148E+01
      1.394  0.2846E+01  0.8427E+01
      1.492  0.1743E+01  0.8598E+01
      1.590  0.1934E+01  0.8788E+01
      1.688  0.2771E+01  0.9059E+01
      1.786  0.2447E+01  0.9299E+01
      1.884  0.2936E+01  0.9587E+01
      1.982  0.3851E+01  0.9965E+01
      2.080  0.3093E+01  0.1027E+02
      2.178  0.1922E+01  0.1046E+02
      2.276  0.7579E+00  0.1053E+02
      2.374  0.9363E-01  0.1054E+02
      2.472  0.8821E-01  0.1055E+02
      2.570  0.1754E+00  0.1057E+02
      2.668  0.3542E+00  0.1060E+02
      2.766  0.6691E+00  0.1067E+02
      2.865  0.5126E+00  0.1072E+02
      2.963  0.3521E+00  0.1075E+02
      3.061  0.2355E+00  0.1077E+02
      3.159  0.6963E-01  0.1078E+02
      3.257  0.4456E-01  0.1079E+02
      3.355  0.1345E+00  0.1080E+02
      3.453  0.2607E+00  0.1082E+02
      3.551  0.5693E+00  0.1088E+02
      3.649  0.5548E+00  0.1093E+02
      3.747  0.4916E+00  0.1098E+02
      3.845  0.3405E+00  0.1102E+02
      3.943  0.2260E+00  0.1104E+02
      4.041  0.2827E+00  0.1107E+02
      4.139  0.1820E+00  0.1108E+02
      4.237  0.9701E-01  0.1109E+02
      4.335  0.3058E+00  0.1112E+02
      4.433  0.3117E+00  0.1115E+02
      4.532  0.3217E+00  0.1119E+02
      4.630  0.5060E+00  0.1123E+02
      4.728  0.3223E+00  0.1127E+02
      4.826  0.3020E+00  0.1130E+02
      4.924  0.3648E+00  0.1133E+02
      5.022  0.1181E+00  0.1134E+02
      5.120  0.9369E-01  0.1135E+02
      5.218  0.4125E+00  0.1139E+02
      5.316  0.5141E+00  0.1144E+02
      5.414  0.3101E+00  0.1147E+02
      5.512  0.2885E+00  0.1150E+02
      5.610  0.2728E+00  0.1153E+02
      5.708  0.2438E+00  0.1155E+02
      5.806  0.2270E+00  0.1158E+02
      5.904  0.3031E+00  0.1160E+02
      6.002  0.4589E+00  0.1165E+02
      6.101  0.3918E+00  0.1169E+02
      6.199  0.1160E+00  0.1170E+02
      6.297  0.2508E+00  0.1172E+02
      6.395  0.5502E+00  0.1178E+02
      6.493  0.5511E+00  0.1183E+02
      6.591  0.5304E+00  0.1188E+02
      6.689  0.4340E+00  0.1193E+02
      6.787  0.2371E+00  0.1195E+02
      6.885  0.1494E+00  0.1196E+02
      6.983  0.2823E+00  0.1199E+02
      7.081  0.3665E+00  0.1203E+02
      7.179  0.4896E+00  0.1208E+02
      7.277  0.3529E+00  0.1211E+02
      7.375  0.2395E+00  0.1213E+02
      7.473  0.3841E+00  0.1217E+02
      7.571  0.4391E+00  0.1222E+02
      7.670  0.3689E+00  0.1225E+02
      7.768  0.1923E+00  0.1227E+02
      7.866  0.1353E+00  0.1228E+02
      7.964  0.6405E-01  0.1229E+02
      8.062  0.1009E+00  0.1230E+02
      8.160  0.3122E+00  0.1233E+02
      8.258  0.5097E+00  0.1238E+02
      8.356  0.2710E+00  0.1241E+02
      8.454  0.1767E+00  0.1242E+02
      8.552  0.3528E+00  0.1246E+02
      8.650  0.4923E+00  0.1251E+02
      8.748  0.6176E+00  0.1257E+02
      8.846  0.7142E+00  0.1264E+02
      8.944  0.5228E+00  0.1269E+02
      9.042  0.2746E+00  0.1272E+02
      9.140  0.3386E+00  0.1275E+02
      9.238  0.4420E+00  0.1279E+02
      9.337  0.4375E+00  0.1284E+02
      9.435  0.5774E+00  0.1289E+02
      9.533  0.4470E+00  0.1294E+02
      9.631  0.1263E+00  0.1295E+02
      9.729  0.1183E+00  0.1296E+02
      9.827  0.8181E-01  0.1297E+02
      9.925  0.3429E-01  0.1297E+02
     10.023  0.2124E+00  0.1299E+02
     10.121  0.5147E+00  0.1304E+02
     10.219  0.4759E+00  0.1309E+02
     10.317  0.1913E+00  0.1311E+02
     10.415  0.9937E-01  0.1312E+02
     10.513  0.2355E+00  0.1314E+02
     10.611  0.4962E+00  0.1319E+02
     10.709  0.5774E+00  0.1325E+02
     10.807  0.2822E+00  0.1327E+02
     10.906  0.2314E+00  0.1330E+02
     11.004  0.5524E+00  0.1335E+02
     11.102  0.8800E+00  0.1344E+02
     11.200  0.7125E+00  0.1351E+02
     11.298  0.2388E+00  0.1353E+02
     11.396  0.1047E+00  0.1354E+02
     11.494  0.2653E+00  0.1357E+02
     11.592  0.3924E+00  0.1360E+02
     11.690  0.5410E+00  0.1366E+02
     11.788  0.4194E+00  0.1370E+02
     11.886  0.2447E+00  0.1372E+02
     11.984  0.2220E+00  0.1374E+02
     12.082  0.7605E-01  0.1375E+02
     12.180  0.1460E+00  0.1377E+02
     12.278  0.3190E+00  0.1380E+02
     12.376  0.6168E+00  0.1386E+02
     12.475  0.6944E+00  0.1393E+02
     12.573  0.5353E+00  0.1398E+02
     12.671  0.5157E+00  0.1403E+02
     12.769  0.2296E+00  0.1405E+02
     12.867  0.7889E-01  0.1406E+02
     12.965  0.3268E+00  0.1409E+02
     13.063  0.5302E+00  0.1414E+02
     13.161  0.4243E+00  0.1419E+02
     13.259  0.7302E+00  0.1426E+02
     13.357  0.7472E+00  0.1433E+02
     13.455  0.3632E+00  0.1437E+02
     13.553  0.3200E+00  0.1440E+02
     13.651  0.5349E+00  0.1445E+02
     13.749  0.9296E+00  0.1454E+02
     13.847  0.1011E+01  0.1464E+02
     13.945  0.5979E+00  0.1470E+02
     14.043  0.3717E+00  0.1474E+02
     14.142  0.5423E+00  0.1479E+02
     14.240  0.4783E+00  0.1484E+02
     14.338  0.5106E+00  0.1489E+02
     14.436  0.3108E+00  0.1492E+02
     14.534  0.6613E-01  0.1492E+02
     14.632  0.9942E-01  0.1493E+02
     14.730  0.3718E+00  0.1497E+02
     14.828  0.6169E+00  0.1503E+02
     14.926  0.7287E+00  0.1510E+02
     15.024  0.7468E+00  0.1517E+02
     15.122  0.8686E+00  0.1526E+02
     15.220  0.7588E+00  0.1533E+02
     15.318  0.6062E+00  0.1539E+02
     15.416  0.7223E+00  0.1546E+02
     15.514  0.6841E+00  0.1553E+02
     15.612  0.5935E+00  0.1559E+02
     15.711  0.3212E+00  0.1562E+02
     15.809  0.1424E+00  0.1563E+02
     15.907  0.4308E+00  0.1568E+02
     16.005  0.4524E+00  0.1572E+02
     16.103  0.1946E+00  0.1574E+02
     16.201  0.2248E+00  0.1576E+02
     16.299  0.6434E+00  0.1583E+02
     16.397  0.8211E+00  0.1591E+02
     16.495  0.6804E+00  0.1597E+02
     16.593  0.6006E+00  0.1603E+02
     16.691  0.4889E+00  0.1608E+02
     16.789  0.3633E+00  0.1611E+02
     16.887  0.3153E+00  0.1615E+02
     16.985  0.6120E+00  0.1621E+02
     17.083  0.8311E+00  0.1629E+02
     17.181  0.6512E+00  0.1635E+02
     17.280  0.2861E+00  0.1638E+02
     17.378  0.5063E-01  0.1638E+02
     17.476  0.1755E+00  0.1640E+02
     17.574  0.6054E+00  0.1646E+02
     17.672  0.7125E+00  0.1653E+02
     17.770  0.3415E+00  0.1656E+02
     17.868  0.1762E+00  0.1658E+02
     17.966  0.4902E+00  0.1663E+02
     18.064  0.5800E+00  0.1669E+02
     18.162  0.4550E+00  0.1673E+02
     18.260  0.6391E+00  0.1679E+02
     18.358  0.7065E+00  0.1686E+02
     18.456  0.4903E+00  0.1691E+02
     18.554  0.4436E+00  0.1695E+02
     18.652  0.5792E+00  0.1701E+02
     18.750  0.7789E+00  0.1709E+02
     18.848  0.7144E+00  0.1716E+02
     18.947  0.3026E+00  0.1719E+02
     19.045  0.1761E+00  0.1720E+02
     19.143  0.4263E+00  0.1725E+02
     19.241  0.6542E+00  0.1731E+02
     19.339  0.4419E+00  0.1735E+02
     19.437  0.1533E+00  0.1737E+02
     19.535  0.2232E+00  0.1739E+02
     19.633  0.4198E+00  0.1743E+02
     19.731  0.2740E+00  0.1746E+02
     19.829  0.2470E+00  0.1748E+02
     19.927  0.6288E+00  0.1754E+02
     20.025  0.7851E+00  0.1762E+02
     20.123  0.3952E+00  0.1766E+02
     20.221  0.1728E+00  0.1768E+02
     20.319  0.2019E+00  0.1770E+02
     20.417  0.4710E+00  0.1774E+02
     20.516  0.4737E+00  0.1779E+02
     20.614  0.1427E+00  0.1780E+02
     20.712  0.1764E-01  0.1781E+02
     20.810  0.1024E+00  0.1782E+02
     20.908  0.2440E+00  0.1784E+02
     21.006  0.1217E+00  0.1785E+02
     21.104  0.5508E-01  0.1786E+02
     21.202  0.1430E+00  0.1787E+02
     21.300  0.2534E+00  0.1790E+02
     21.398  0.1735E+00  0.1791E+02
     21.496  0.2704E+00  0.1794E+02
     21.594  0.2826E+00  0.1797E+02
     21.692  0.1485E+00  0.1798E+02
     21.790  0.2855E-01  0.1798E+02
     21.888  0.1192E-02  0.1798E+02
     21.986  0.8368E-03  0.1798E+02
     22.085  0.1339E-01  0.1799E+02
     22.183  0.3994E-01  0.1799E+02
     22.281  0.2529E-01  0.1799E+02
     22.379  0.2463E-01  0.1799E+02
     22.477  0.4022E-01  0.1800E+02
     22.575  0.1411E-01  0.1800E+02
     22.673  0.9160E-03  0.1800E+02
     22.771  0.1018E-04  0.1800E+02
     22.869  0.1826E-07  0.1800E+02
     22.967  0.5093E-11  0.1800E+02
     23.065  0.2123E-15  0.1800E+02
     23.163  0.0000E+00  0.1800E+02
     23.261  0.0000E+00  0.1800E+02
     23.359  0.0000E+00  0.1800E+02
     23.457  0.0000E+00  0.1800E+02
     23.555  0.0000E+00  0.1800E+02
     23.653  0.0000E+00  0.1800E+02
     23.752  0.0000E+00  0.1800E+02
     23.75155922     -5.66681827  301      3.79009501      1.00000000
     -5.667  0.0000E+00  0.0000E+00  0.0000E+00  0.0000E+00  0.0000E+00  0.0000E+00  0.0000E+00  0.0000E+00  0.0000E+00
     -5.569  0.0000E+00  0.0000E+00  0.0000E+00  0.0000E+00  0.0000E+00  0.0000E+00  0.0000E+00  0.0000E+00  0.0000E+00
     -5.471  0.0000E+00  0.0000E+00  0.0000E+00  0.0000E+00  0.0000E+00  0.0000E+00  0.0000E+00  0.0000E+00  0.0000E+00
     -5.373  0.0000E+00  0.0000E+00  0.0000E+00  0.0000E+00  0.0000E+00  0.0000E+00  0.0000E+00  0.0000E+00  0.0000E+00
     -5.275  0.0000E+00  0.0000E+00  0.0000E+00  0.0000E+00  0.0000E+00  0.0000E+00  0.0000E+00  0.0000E+00  0.0000E+00
     -5.177  0.0000E+00  0.0000E+00  0.0000E+00  0.0000E+00  0.0000E+00  0.0000E+00  0.0000E+00  0.0000E+00  0.0000E+00
     -5.078  0.0000E+00  0.0000E+00  0.0000E+00  0.0000E+00  0.0000E+00  0.0000E+00  0.0000E+00  0.0000E+00  0.0000E+00
     -4.980  0.0000E+00  0.0000E+00  0.0000E+00  0.0000E+00  0.0000E+00  0.0000E+00  0.0000E+00  0.0000E+00  0.0000E+00
     -4.882  0.1156E-15  0.3103E-18  0.3103E-18  0.3103E-18  0.1519E-19  0.1519E-19  0.8773E-31  0.1519E-19  0.2307E-30
     -4.784  0.2718E-11  0.7293E-14  0.7293E-14  0.7293E-14  0.3570E-15  0.3570E-15  0.2062E-26  0.3570E-15  0.5421E-26
     -4.686  0.9744E-08  0.2615E-10  0.2615E-10  0.2615E-10  0.1280E-11  0.1280E-11  0.7393E-23  0.1280E-11  0.1944E-22
     -4.588  0.5434E-05  0.1458E-07  0.1458E-07  0.1458E-07  0.7138E-09  0.7138E-09  0.2273E-19  0.7138E-09  0.6666E-19
     -4.490  0.4888E-03  0.1312E-05  0.1312E-05  0.1312E-05  0.6420E-07  0.6421E-07  0.6157E-15  0.6420E-07  0.1847E-14
     -4.392  0.7530E-02  0.2021E-04  0.2021E-04  0.2021E-04  0.9892E-06  0.9892E-06  0.3050E-11  0.9892E-06  0.9151E-11
     -4.294  0.2144E-01  0.5753E-04  0.5753E-04  0.5767E-04  0.2824E-05  0.2817E-05  0.2341E-08  0.2824E-05  0.7024E-08
     -4.196  0.1255E-01  0.3362E-04  0.3362E-04  0.4985E-04  0.2500E-05  0.1691E-05  0.2876E-06  0.2500E-05  0.8628E-06
     -4.098  0.1677E-01  0.4353E-04  0.4353E-04  0.3809E-03  0.1989E-04  0.3064E-05  0.5979E-05  0.1989E-04  0.1794E-04
     -4.000  0.5900E-01  0.1528E-03  0.1528E-03  0.1432E-02  0.7484E-04  0.1108E-04  0.2267E-04  0.7484E-04  0.6802E-04
     -3.902  0.4383E-01  0.1280E-03  0.1280E-03  0.1049E-02  0.5601E-04  0.1670E-04  0.1682E-04  0.5601E-04  0.5045E-04
     -3.804  0.2081E-01  0.3625E-03  0.3625E-03  0.1812E-03  0.3461E-04  0.1840E-03  0.7233E-05  0.3461E-04  0.2170E-04
     -3.706  0.5728E-01  0.1338E-02  0.1338E-02  0.1410E-03  0.1044E-03  0.7051E-03  0.1913E-04  0.1044E-03  0.5716E-04
     -3.608  0.4362E-01  0.1008E-02  0.1045E-02  0.1166E-03  0.8846E-04  0.5370E-03  0.2487E-04  0.9049E-04  0.4235E-04
     -3.509  0.2697E-01  0.3469E-03  0.1190E-02  0.2209E-03  0.1600E-03  0.2699E-03  0.2500E-03  0.2068E-03  0.5985E-05
     -3.411  0.7403E-01  0.5660E-03  0.4097E-02  0.5650E-03  0.3777E-03  0.5734E-03  0.1039E-02  0.5719E-03  0.4975E-06
     -3.313  0.5660E-01  0.3894E-03  0.3167E-02  0.5487E-03  0.3306E-03  0.3581E-03  0.8607E-03  0.3655E-03  0.2643E-04
     -3.215  0.5521E-01  0.1071E-02  0.5686E-03  0.3159E-02  0.1916E-02  0.2299E-03  0.4283E-03  0.3265E-03  0.3464E-03
     -3.117  0.1176E+00  0.2548E-02  0.2675E-03  0.7686E-02  0.4692E-02  0.5018E-03  0.7360E-03  0.7595E-03  0.8512E-03
     -3.019  0.7320E-01  0.1522E-02  0.4402E-03  0.4698E-02  0.3242E-02  0.9116E-03  0.3814E-03  0.1386E-02  0.5088E-03
     -2.921  0.5871E-01  0.1074E-02  0.9790E-03  0.3555E-02  0.3301E-02  0.2064E-02  0.1388E-03  0.3137E-02  0.3591E-03
     -2.823  0.3283E-01  0.6566E-03  0.7137E-03  0.1846E-02  0.1794E-02  0.1395E-02  0.1289E-03  0.1795E-02  0.1979E-03
     -2.725  0.3817E-01  0.1521E-02  0.2919E-02  0.2690E-03  0.7377E-03  0.3522E-02  0.1560E-02  0.8206E-03  0.2021E-03
     -2.627  0.1231E+00  0.4457E-02  0.1054E-01  0.4180E-03  0.3484E-02  0.1169E-01  0.6660E-02  0.3842E-02  0.5040E-03
     -2.529  0.1250E+00  0.4220E-02  0.1058E-01  0.6860E-03  0.6624E-02  0.1393E-01  0.6858E-02  0.6926E-02  0.3709E-03
     -2.431  0.1158E+00  0.2911E-02  0.1227E-01  0.6411E-03  0.6723E-02  0.1424E-01  0.9592E-02  0.6830E-02  0.1078E-03
     -2.333  0.1335E+00  0.2586E-02  0.1531E-01  0.9318E-03  0.9875E-02  0.1725E-01  0.1235E-01  0.1018E-01  0.4096E-04
     -2.235  0.8912E-01  0.1483E-02  0.7738E-02  0.2093E-02  0.2141E-01  0.2326E-01  0.5840E-02  0.2042E-01  0.3014E-03
     -2.137  0.1403E+00  0.3465E-02  0.2322E-02  0.8862E-02  0.7733E-01  0.7236E-01  0.2408E-02  0.6495E-01  0.1968E-02
     -2.039  0.2134E+00  0.7071E-02  0.2184E-02  0.1652E-01  0.1171E+00  0.9615E-01  0.8328E-02  0.8414E-01  0.4138E-02
     -1.940  0.1840E+00  0.5596E-02  0.7573E-02  0.1187E-01  0.1066E+00  0.9103E-01  0.4972E-01  0.7182E-01  0.3216E-02
     -1.842  0.1686E+00  0.3399E-02  0.1322E-01  0.4924E-02  0.1224E+00  0.1267E+00  0.1509E+00  0.9376E-01  0.2895E-02
     -1.744  0.1877E+00  0.3574E-02  0.2122E-01  0.5758E-02  0.1277E+00  0.1101E+00  0.2998E+00  0.6854E-01  0.1015E-01
     -1.646  0.2444E+00  0.6377E-02  0.2792E-01  0.8719E-02  0.3134E+00  0.1672E+00  0.4555E+00  0.8799E-01  0.1302E-01
     -1.548  0.2188E+00  0.8636E-02  0.2222E-01  0.8606E-02  0.5152E+00  0.2093E+00  0.4894E+00  0.9623E-01  0.9065E-02
     -1.450  0.1843E+00  0.8408E-02  0.2606E-01  0.6522E-02  0.6762E+00  0.1623E+00  0.4544E+00  0.6570E-01  0.5713E-02
     -1.352  0.1618E+00  0.8937E-02  0.2373E-01  0.8807E-02  0.9487E+00  0.1614E+00  0.5160E+00  0.6529E-01  0.1528E-01
     -1.254  0.1318E+00  0.9915E-02  0.1364E-01  0.1543E-01  0.8747E+00  0.2140E+00  0.4466E+00  0.6460E-01  0.5701E-01
     -1.156  0.1092E+00  0.1245E-01  0.7025E-02  0.2293E-01  0.7246E+00  0.2344E+00  0.2782E+00  0.4056E-01  0.9212E-01
     -1.058  0.7435E-01  0.1397E-01  0.6717E-02  0.2006E-01  0.7827E+00  0.2828E+00  0.3547E+00  0.2982E-01  0.1120E+00
     -0.960  0.4378E-01  0.1529E-01  0.7533E-02  0.1450E-01  0.6390E+00  0.2366E+00  0.4009E+00  0.2405E-01  0.1286E+00
     -0.862  0.3524E-01  0.1788E-01  0.1111E-01  0.1549E-01  0.5166E+00  0.2358E+00  0.3598E+00  0.2682E-01  0.1223E+00
     -0.764  0.2005E-01  0.1537E-01  0.1089E-01  0.1545E-01  0.5066E+00  0.2309E+00  0.3014E+00  0.2908E-01  0.8831E-01
     -0.666  0.1876E-01  0.2002E-01  0.1856E-01  0.1994E-01  0.7345E+00  0.3475E+00  0.3846E+00  0.5564E-01  0.1354E+00
     -0.568  0.1812E-01  0.2755E-01  0.1977E-01  0.1787E-01  0.4794E+00  0.4753E+00  0.6671E+00  0.9998E-01  0.1891E+00
     -0.470  0.1882E-01  0.2483E-01  0.1677E-01  0.1887E-01  0.4295E+00  0.5454E+00  0.7237E+00  0.2123E+00  0.1723E+00
     -0.372  0.2326E-01  0.1592E-01  0.1702E-01  0.2039E-01  0.5358E+00  0.5228E+00  0.4954E+00  0.2535E+00  0.2177E+00
     -0.273  0.2684E-01  0.1446E-01  0.1192E-01  0.2086E-01  0.4930E+00  0.4864E+00  0.5871E+00  0.1821E+00  0.2319E+00
     -0.175  0.4403E-01  0.1625E-01  0.1827E-01  0.2555E-01  0.5498E+00  0.6399E+00  0.6912E+00  0.1915E+00  0.2651E+00
     -0.077  0.5802E-01  0.1484E-01  0.3818E-01  0.3467E-01  0.7390E+00  0.8081E+00  0.4434E+00  0.2629E+00  0.3458E+00
      0.021  0.4629E-01  0.1545E-01  0.3631E-01  0.2845E-01  0.7669E+00  0.6742E+00  0.5377E+00  0.3645E+00  0.4397E+00
      0.119  0.3420E-01  0.1366E-01  0.2390E-01  0.1626E-01  0.6890E+00  0.6387E+00  0.7144E+00  0.4851E+00  0.4409E+00
      0.217  0.3505E-01  0.1377E-01  0.3442E-01  0.1673E-01  0.6222E+00  0.7605E+00  0.5611E+00  0.6106E+00  0.4758E+00
      0.315  0.5001E-01  0.1729E-01  0.5274E-01  0.2368E-01  0.4700E+00  0.8101E+00  0.3692E+00  0.7821E+00  0.4824E+00
      0.413  0.5221E-01  0.1695E-01  0.4190E-01  0.2109E-01  0.2637E+00  0.5872E+00  0.3721E+00  0.5360E+00  0.3655E+00
      0.511  0.4901E-01  0.1389E-01  0.4484E-01  0.1604E-01  0.1915E+00  0.5538E+00  0.3666E+00  0.4441E+00  0.3941E+00
      0.609  0.2674E-01  0.1148E-01  0.3800E-01  0.1312E-01  0.1626E+00  0.5074E+00  0.2675E+00  0.5009E+00  0.5313E+00
      0.707  0.2066E-01  0.1273E-01  0.2932E-01  0.1406E-01  0.1606E+00  0.3474E+00  0.3356E+00  0.3824E+00  0.6531E+00
      0.805  0.1635E-01  0.7387E-02  0.1833E-01  0.9538E-02  0.1143E+00  0.1880E+00  0.3493E+00  0.3601E+00  0.8198E+00
      0.903  0.1623E-01  0.3872E-02  0.1404E-01  0.7965E-02  0.7786E-01  0.2086E+00  0.3951E+00  0.4837E+00  0.1065E+01
      1.001  0.2980E-01  0.8248E-02  0.2967E-01  0.1039E-01  0.1094E+00  0.4044E+00  0.5598E+00  0.5112E+00  0.1159E+01
      1.099  0.3488E-01  0.1330E-01  0.3611E-01  0.1525E-01  0.1172E+00  0.3961E+00  0.6427E+00  0.3803E+00  0.1088E+01
      1.197  0.2088E-01  0.9701E-02  0.1868E-01  0.1339E-01  0.7693E-01  0.1904E+00  0.4076E+00  0.3498E+00  0.8068E+00
      1.296  0.2277E-01  0.8065E-02  0.1756E-01  0.1113E-01  0.1272E+00  0.2171E+00  0.3477E+00  0.6037E+00  0.9503E+00
      1.394  0.2813E-01  0.6023E-02  0.2616E-01  0.7208E-02  0.1677E+00  0.3551E+00  0.3860E+00  0.6311E+00  0.1042E+01
      1.492  0.1565E-01  0.3360E-02  0.1438E-01  0.3401E-02  0.7698E-01  0.2438E+00  0.1667E+00  0.3557E+00  0.7524E+00
      1.590  0.9150E-02  0.3795E-02  0.8355E-02  0.4062E-02  0.8089E-01  0.2844E+00  0.1169E+00  0.5657E+00  0.7601E+00
      1.688  0.1179E-01  0.4711E-02  0.1283E-01  0.5326E-02  0.1591E+00  0.3676E+00  0.1845E+00  0.9019E+00  0.9861E+00
      1.786  0.1009E-01  0.2654E-02  0.9341E-02  0.4362E-02  0.1939E+00  0.2362E+00  0.1866E+00  0.8573E+00  0.8369E+00
      1.884  0.1327E-01  0.2556E-02  0.5650E-02  0.6022E-02  0.2497E+00  0.2791E+00  0.2238E+00  0.1274E+01  0.7670E+00
      1.982  0.2249E-01  0.3754E-02  0.7072E-02  0.7389E-02  0.3133E+00  0.5029E+00  0.2726E+00  0.1860E+01  0.7184E+00
      2.080  0.4419E-01  0.5590E-02  0.1197E-01  0.8544E-02  0.2834E+00  0.5273E+00  0.2720E+00  0.1335E+01  0.4705E+00
      2.178  0.5144E-01  0.4447E-02  0.1515E-01  0.9191E-02  0.1605E+00  0.2820E+00  0.1583E+00  0.9770E+00  0.1589E+00
      2.276  0.2177E-01  0.1341E-02  0.7662E-02  0.3998E-02  0.3956E-01  0.9188E-01  0.3771E-01  0.4828E+00  0.2762E-01
      2.374  0.3382E-02  0.5580E-03  0.1334E-02  0.6831E-03  0.2737E-02  0.1533E-01  0.3307E-02  0.5535E-01  0.4017E-02
      2.472  0.8479E-02  0.3284E-02  0.3301E-02  0.2075E-02  0.4561E-04  0.3382E-01  0.4795E-02  0.1158E-02  0.1428E-01
      2.570  0.1738E-01  0.5836E-02  0.5965E-02  0.3306E-02  0.1127E-03  0.7066E-01  0.1061E-01  0.1683E-03  0.3059E-01
      2.668  0.3805E-01  0.8718E-02  0.1143E-01  0.3980E-02  0.1280E-02  0.1475E+00  0.2870E-01  0.2655E-02  0.5888E-01
      2.766  0.7723E-01  0.1383E-01  0.2525E-01  0.6340E-02  0.3337E-02  0.2745E+00  0.6853E-01  0.1024E-01  0.8897E-01
      2.865  0.6482E-01  0.8338E-02  0.2478E-01  0.3560E-02  0.2187E-02  0.2043E+00  0.6176E-01  0.1184E-01  0.4990E-01
      2.963  0.5192E-01  0.4319E-02  0.2541E-01  0.2156E-02  0.1054E-02  0.1217E+00  0.4809E-01  0.1671E-01  0.1443E-01
      3.061  0.3418E-01  0.4358E-02  0.1700E-01  0.3604E-02  0.1518E-02  0.6273E-01  0.3459E-01  0.2420E-01  0.4074E-02
      3.159  0.9713E-02  0.1726E-02  0.4712E-02  0.1663E-02  0.6898E-03  0.1391E-01  0.1076E-01  0.1067E-01  0.3354E-03
      3.257  0.7531E-02  0.5052E-03  0.3834E-02  0.5083E-03  0.2621E-03  0.7998E-02  0.6454E-02  0.7951E-02  0.6221E-05
      3.355  0.2345E-01  0.1430E-02  0.1080E-01  0.1684E-02  0.6301E-02  0.2159E-01  0.1965E-01  0.2163E-01  0.8392E-04
      3.453  0.4667E-01  0.4965E-02  0.1040E-01  0.8042E-02  0.6965E-01  0.1372E-01  0.4144E-01  0.1436E-01  0.1128E-02
      3.551  0.1020E+00  0.1302E-01  0.2430E-01  0.2163E-01  0.1789E+00  0.7372E-02  0.8814E-01  0.1044E-01  0.3839E-02
      3.649  0.9381E-01  0.1638E-01  0.3171E-01  0.2684E-01  0.1475E+00  0.7012E-02  0.7347E-01  0.1391E-01  0.7306E-02
      3.747  0.8009E-01  0.1760E-01  0.1724E-01  0.3619E-01  0.1350E+00  0.2020E-02  0.5137E-01  0.1173E-01  0.1408E-01
      3.845  0.5468E-01  0.1255E-01  0.9649E-02  0.2883E-01  0.9380E-01  0.1461E-02  0.3095E-01  0.6881E-02  0.1256E-01
      3.943  0.2419E-01  0.1512E-01  0.1835E-01  0.1950E-01  0.2202E-01  0.1529E-01  0.1366E-01  0.9713E-02  0.8223E-02
      4.041  0.4609E-01  0.1058E-01  0.2602E-01  0.9977E-02  0.3396E-02  0.5673E-01  0.2767E-01  0.1863E-01  0.5152E-02
      4.139  0.3522E-01  0.3809E-02  0.1642E-01  0.2656E-02  0.4306E-03  0.4459E-01  0.2119E-01  0.1290E-01  0.2045E-02
      4.237  0.2022E-01  0.1140E-02  0.1327E-01  0.3721E-03  0.4059E-04  0.2204E-01  0.9686E-02  0.3327E-02  0.1095E-02
      4.335  0.6721E-01  0.4126E-02  0.4237E-01  0.3537E-03  0.7858E-04  0.7144E-01  0.2550E-01  0.5448E-02  0.6213E-02
      4.433  0.7167E-01  0.6732E-02  0.3436E-01  0.1460E-02  0.1176E-02  0.7853E-01  0.2084E-01  0.5007E-02  0.1111E-01
      4.532  0.7483E-01  0.1115E-01  0.1983E-01  0.9226E-02  0.9798E-02  0.7292E-01  0.1468E-01  0.1076E-01  0.1803E-01
      4.630  0.1147E+00  0.1822E-01  0.3089E-01  0.1741E-01  0.1661E-01  0.1094E+00  0.2503E-01  0.1779E-01  0.2645E-01
      4.728  0.5840E-01  0.1707E-01  0.2534E-01  0.1480E-01  0.5492E-02  0.6556E-01  0.1544E-01  0.7635E-02  0.1671E-01
      4.826  0.5914E-01  0.1225E-01  0.3140E-01  0.8997E-02  0.3436E-03  0.5840E-01  0.2111E-01  0.1406E-01  0.8181E-02
      4.924  0.8424E-01  0.8807E-02  0.3910E-01  0.5038E-02  0.1507E-04  0.7365E-01  0.3066E-01  0.2218E-01  0.4579E-02
      5.022  0.2767E-01  0.2641E-02  0.1288E-01  0.1422E-02  0.4222E-05  0.2406E-01  0.1002E-01  0.7019E-02  0.1313E-02
      5.120  0.1946E-01  0.9991E-03  0.1788E-01  0.4704E-03  0.3575E-04  0.1589E-01  0.7160E-02  0.1871E-02  0.2299E-03
      5.218  0.7575E-01  0.7557E-02  0.8038E-01  0.5625E-02  0.5888E-03  0.6371E-01  0.3152E-01  0.8749E-02  0.1122E-02
      5.316  0.8040E-01  0.1859E-01  0.8727E-01  0.1694E-01  0.4725E-02  0.7118E-01  0.4120E-01  0.1449E-01  0.2507E-02
      5.414  0.6994E-01  0.1415E-01  0.2592E-01  0.1718E-01  0.3151E-01  0.2410E-01  0.2004E-01  0.6908E-02  0.2285E-02
      5.512  0.9772E-01  0.9292E-02  0.6424E-02  0.1575E-01  0.5553E-01  0.7597E-02  0.1215E-01  0.3614E-02  0.2034E-02
      5.610  0.8236E-01  0.4610E-02  0.2411E-01  0.6146E-02  0.1973E-01  0.3098E-01  0.1887E-01  0.1318E-01  0.7305E-03
      5.708  0.6877E-01  0.3380E-02  0.2734E-01  0.3381E-02  0.6944E-02  0.3482E-01  0.1911E-01  0.1507E-01  0.3405E-03
      5.806  0.7010E-01  0.8206E-02  0.9253E-02  0.1296E-01  0.3533E-01  0.8791E-02  0.9918E-02  0.6936E-02  0.1545E-02
      5.904  0.8796E-01  0.9922E-02  0.1942E-01  0.1885E-01  0.4909E-01  0.7695E-02  0.9856E-02  0.5724E-02  0.3364E-02
      6.002  0.1104E+00  0.4645E-02  0.6966E-01  0.2305E-01  0.4547E-01  0.2698E-01  0.1314E-01  0.5721E-02  0.9169E-02
      6.101  0.9687E-01  0.2678E-02  0.5800E-01  0.2106E-01  0.3855E-01  0.2268E-01  0.1052E-01  0.4484E-02  0.9420E-02
      6.199  0.3578E-01  0.7663E-03  0.1244E-01  0.4885E-02  0.9376E-02  0.7992E-02  0.3891E-02  0.5182E-02  0.2145E-02
      6.297  0.1013E+00  0.2243E-02  0.1144E-01  0.7021E-02  0.1702E-01  0.2060E-01  0.7153E-02  0.1984E-01  0.3198E-02
      6.395  0.2349E+00  0.7927E-02  0.1230E-01  0.1948E-01  0.5029E-01  0.4238E-01  0.5800E-02  0.3449E-01  0.9062E-02
      6.493  0.2276E+00  0.1052E-01  0.1464E-01  0.1906E-01  0.5426E-01  0.4157E-01  0.3633E-02  0.3771E-01  0.6379E-02
      6.591  0.1904E+00  0.1087E-01  0.3532E-01  0.1779E-01  0.5015E-01  0.3376E-01  0.8226E-02  0.3853E-01  0.2969E-02
      6.689  0.1694E+00  0.7172E-02  0.3761E-01  0.7383E-02  0.2142E-01  0.3772E-01  0.9327E-02  0.1924E-01  0.1881E-02
      6.787  0.1084E+00  0.3237E-02  0.1763E-01  0.7898E-03  0.3254E-02  0.2707E-01  0.5198E-02  0.3666E-02  0.1124E-02
      6.885  0.4891E-01  0.6238E-03  0.2559E-01  0.6207E-04  0.4783E-03  0.1936E-01  0.6506E-02  0.1215E-02  0.4044E-03
      6.983  0.8224E-01  0.8178E-03  0.5465E-01  0.8656E-03  0.2054E-02  0.3468E-01  0.1406E-01  0.2815E-02  0.5615E-03
      7.081  0.1305E+00  0.7546E-02  0.4266E-01  0.8548E-02  0.1401E-01  0.2635E-01  0.1570E-01  0.7107E-02  0.8492E-03
      7.179  0.1502E+00  0.2083E-01  0.4679E-01  0.2158E-01  0.2262E-01  0.2881E-01  0.2502E-01  0.1465E-01  0.8875E-03
      7.277  0.8188E-01  0.1816E-01  0.4005E-01  0.1764E-01  0.8678E-02  0.2960E-01  0.2314E-01  0.1593E-01  0.6143E-03
      7.375  0.9290E-01  0.6353E-02  0.1851E-01  0.6719E-02  0.5637E-02  0.1847E-01  0.1005E-01  0.8652E-02  0.2786E-02
      7.473  0.1769E+00  0.6992E-02  0.2239E-01  0.7448E-02  0.1040E-01  0.2754E-01  0.9876E-02  0.1113E-01  0.5978E-02
      7.571  0.1420E+00  0.1943E-01  0.3398E-01  0.1912E-01  0.1454E-01  0.4097E-01  0.1139E-01  0.1916E-01  0.3766E-02
      7.670  0.6385E-01  0.2510E-01  0.4094E-01  0.2888E-01  0.9268E-02  0.3817E-01  0.1695E-01  0.9365E-02  0.3353E-02
      7.768  0.3020E-01  0.1483E-01  0.2209E-01  0.1562E-01  0.3806E-02  0.2040E-01  0.8507E-02  0.2543E-02  0.2161E-02
      7.866  0.3525E-01  0.1068E-01  0.1139E-01  0.6865E-02  0.3390E-02  0.1495E-01  0.1242E-02  0.3243E-02  0.1439E-02
      7.964  0.1736E-01  0.4777E-02  0.4795E-02  0.3603E-02  0.2234E-02  0.6026E-02  0.3332E-03  0.2218E-02  0.9528E-03
      8.062  0.2390E-01  0.5543E-02  0.6264E-02  0.1038E-01  0.7776E-02  0.1629E-02  0.1273E-02  0.6979E-02  0.3329E-02
      8.160  0.6285E-01  0.1734E-01  0.3166E-01  0.2986E-01  0.2421E-01  0.7171E-02  0.4509E-02  0.1573E-01  0.7620E-02
      8.258  0.8227E-01  0.2729E-01  0.7731E-01  0.4204E-01  0.3554E-01  0.1947E-01  0.7465E-02  0.1808E-01  0.8003E-02
      8.356  0.4483E-01  0.1283E-01  0.4851E-01  0.1851E-01  0.1569E-01  0.1222E-01  0.4186E-02  0.7885E-02  0.2836E-02
      8.454  0.5967E-01  0.6750E-02  0.2208E-01  0.9118E-02  0.7529E-02  0.2454E-02  0.4116E-02  0.2259E-02  0.8120E-03
      8.552  0.8953E-01  0.2044E-01  0.3221E-01  0.3696E-01  0.2319E-01  0.1821E-02  0.6052E-02  0.6239E-02  0.5042E-02
      8.650  0.1166E+00  0.2504E-01  0.4847E-01  0.5426E-01  0.2942E-01  0.6902E-02  0.9202E-02  0.1165E-01  0.1027E-01
      8.748  0.2077E+00  0.1789E-01  0.7098E-01  0.3626E-01  0.2181E-01  0.1693E-01  0.2274E-01  0.1233E-01  0.9262E-02
      8.846  0.2195E+00  0.2303E-01  0.6419E-01  0.6199E-01  0.3552E-01  0.1687E-01  0.3590E-01  0.1509E-01  0.1160E-01
      8.944  0.1425E+00  0.2103E-01  0.3811E-01  0.5608E-01  0.3282E-01  0.1155E-01  0.3067E-01  0.1170E-01  0.8668E-02
      9.042  0.7899E-01  0.9301E-02  0.3266E-01  0.1749E-01  0.1173E-01  0.1138E-01  0.1782E-01  0.4347E-02  0.2956E-02
      9.140  0.4606E-01  0.1235E-01  0.7500E-01  0.1906E-01  0.9591E-02  0.3117E-01  0.6708E-02  0.5083E-02  0.5253E-02
      9.238  0.7488E-01  0.2402E-01  0.7446E-01  0.2673E-01  0.1023E-01  0.3788E-01  0.1159E-01  0.1540E-01  0.3567E-02
      9.337  0.8078E-01  0.2900E-01  0.5770E-01  0.3047E-01  0.7740E-02  0.2941E-01  0.2447E-01  0.1813E-01  0.8046E-03
      9.435  0.1122E+00  0.4219E-01  0.6316E-01  0.5267E-01  0.1825E-01  0.2651E-01  0.2989E-01  0.1545E-01  0.1363E-02
      9.533  0.9182E-01  0.3350E-01  0.4289E-01  0.4662E-01  0.1603E-01  0.1799E-01  0.1997E-01  0.7663E-02  0.1142E-02
      9.631  0.2859E-01  0.9257E-02  0.1284E-01  0.1267E-01  0.4237E-02  0.4236E-02  0.4699E-02  0.1298E-02  0.1864E-03