    1    1    1    1
  0.1987675E+02  0.3040559E-09  0.3040559E-09  0.3040559E-09  0.5000000E-15
   1.0000000000000000E-004
  CAR 
 Au, FCC                                 
   11   60    9

  0.6250000E-01  0.6250000E-01  0.6250000E-01  0.3906250E-02
   1       -4.3296
   2       -0.1368
   3       -0.0681
   4       -0.0681
   5        1.0347
   6        1.0347
   7       19.2336
   8       21.0955
   9       22.1496

  0.1875000E+00  0.6250000E-01  0.6250000E-01  0.1171875E-01
   1       -3.7234
   2       -0.2901
   3        0.0911
   4        0.1097
   5        0.8859
   6        1.1268
   7       18.0983
   8       19.5285
   9       21.4656

  0.3125000E+00  0.6250000E-01  0.6250000E-01  0.1171875E-01
   1       -2.5822
   2       -0.1703
   3        0.1276
   4        0.1538
   5        1.0820
   6        1.5322
   7       13.3749
   8       19.1738
   9       20.8683

  0.4375000E+00  0.6250000E-01  0.6250000E-01  0.1171875E-01
   1       -2.1066
   2       -0.0941
   3       -0.0132
   4        1.2208
   5        1.6594
   6        2.4909
   7        8.7546
   8       18.5675
   9       19.6068

 -0.4375000E+00  0.6250000E-01  0.6250000E-01  0.1171875E-01
   1       -2.0907
   2       -0.1704
   3       -0.0589
   4        1.6033
   5        1.9716
   6        3.9004
   7        6.3872
   8       18.4598
   9       19.5800

 -0.3125000E+00  0.6250000E-01  0.6250000E-01  0.1171875E-01
   1       -2.1681
   2       -0.0564
   3        0.0630
   4        0.6347
   5        1.7492
   6        1.8534
   7       10.2190
   8       19.0387
   9       19.9835

 -0.1875000E+00  0.6250000E-01  0.6250000E-01  0.1171875E-01
   1       -2.9550
   2       -0.3267
   3        0.1523
   4        0.1875
   5        1.0110
   6        1.2897
   7       14.9951
   8       19.8532
   9       20.8556

 -0.6250000E-01  0.6250000E-01  0.6250000E-01  0.1171875E-01
   1       -4.0185
   2       -0.2557
   3        0.0451
   4        0.0493
   5        0.9017
   6        1.1053
   7       19.2537
   8       20.0294
   9       21.4772

  0.1875000E+00  0.1875000E+00  0.6250000E-01  0.1171875E-01
   1       -3.4243
   2       -0.4877
   3        0.2606
   4        0.2787
   5        0.7134
   6        1.2380
   7       18.3816
   8       19.9140
   9       20.1541

  0.3125000E+00  0.1875000E+00  0.6250000E-01  0.2343750E-01
   1       -2.4211
   2       -0.6929
   3        0.1200
   4        0.5569
   5        0.9715
   6        1.6108
   7       15.2944
   8       17.6358
   9       20.3693

  0.4375000E+00  0.1875000E+00  0.6250000E-01  0.2343750E-01
   1       -1.7009
   2       -0.2591
   3       -0.1372
   4        0.4512
   5        1.7271
   6        2.7642
   7       10.5716
   8       17.0088
   9       18.2775

 -0.4375000E+00  0.1875000E+00  0.6250000E-01  0.2343750E-01
   1       -1.6497
   2       -0.4048
   3        0.2931
   4        0.6822
   5        1.9236
   6        5.2823
   7        6.5504
   8       16.5145
   9       17.5163

 -0.3125000E+00  0.1875000E+00  0.6250000E-01  0.2343750E-01
   1       -1.6176
   2       -0.3130
   3        0.2346
   4        0.4262
   5        1.5840
   6        3.5446
   7        9.2061
   8       15.8927
   9       18.7211

 -0.1875000E+00  0.1875000E+00  0.6250000E-01  0.2343750E-01
   1       -2.0409
   2       -0.5560
   3        0.0022
   4        0.5210
   5        0.8965
   6        2.0877
   7       13.6558
   8       16.3036
   9       20.4628

 -0.6250000E-01  0.1875000E+00  0.6250000E-01  0.2343750E-01
   1       -3.1621
   2       -0.4524
   3        0.1915
   4        0.2770
   5        0.7933
   6        1.3173
   7       16.6867
   8       18.8097
   9       21.2486

  0.3125000E+00  0.3125000E+00  0.6250000E-01  0.1171875E-01
   1       -1.9355
   2       -1.0755
   3        0.4482
   4        0.9961
   5        1.3278
   6        1.6174
   7       15.5794
   8       16.8744
   9       17.5989

  0.4375000E+00  0.3125000E+00  0.6250000E-01  0.2343750E-01
   1       -1.5167
   2       -1.1804
   3        0.4353
   4        1.2940
   5        1.7770
   6        2.9157
   7       12.4204
   8       14.7793
   9       15.6160

 -0.4375000E+00  0.3125000E+00  0.6250000E-01  0.2343750E-01
   1       -1.3622
   2       -0.7983
   3        0.2519
   4        1.0412
   5        1.9837
   6        5.6172
   7        8.5558
   8       13.0579
   9       15.5164

 -0.3125000E+00  0.3125000E+00  0.6250000E-01  0.2343750E-01
   1       -1.0746
   2       -0.5046
   3       -0.0800
   4        0.8510
   5        1.6167
   6        5.4495
   7        9.3304
   8       11.6613
   9       16.9822

 -0.1875000E+00  0.3125000E+00  0.6250000E-01  0.2343750E-01
   1       -1.2120
   2       -0.4498
   3       -0.2520
   4        0.6744
   5        1.2271
   6        3.4903
   7       11.0859
   8       13.7452
   9       18.8122

 -0.6250000E-01  0.3125000E+00  0.6250000E-01  0.2343750E-01
   1       -2.1257
   2       -0.1428
   3        0.0231
   4        0.2419
   5        1.3279
   6        1.9861
   7       11.8989
   8       18.1766
   9       19.9636

  0.4375000E+00  0.4375000E+00  0.6250000E-01  0.1171875E-01
   1       -1.7729
   2       -1.5310
   3        1.6719
   4        1.7107
   5        2.0179
   6        3.5584
   7       11.1542
   8       13.8567
   9       14.3691

 -0.4375000E+00  0.4375000E+00  0.6250000E-01  0.2343750E-01
   1       -1.6824
   2       -1.4616
   3        1.3530
   4        1.6906
   5        2.1515
   6        5.9920
   7        8.7779
   8       12.3931
   9       13.7409

 -0.3125000E+00  0.4375000E+00  0.6250000E-01  0.2343750E-01
   1       -1.3793
   2       -0.9067
   3        0.4811
   4        1.2291
   5        1.9532
   6        7.0896
   7        8.2315
   8       10.9739
   9       15.1222

 -0.1875000E+00  0.4375000E+00  0.6250000E-01  0.2343750E-01
   1       -1.3171
   2       -0.5396
   3        0.2942
   4        0.5839
   5        1.8011
   6        5.8182
   7        7.2082
   8       14.0901
   9       17.1510

 -0.6250000E-01  0.4375000E+00  0.6250000E-01  0.2343750E-01
   1       -1.9293
   2       -0.2306
   3        0.0796
   4        1.0388
   5        1.8750
   6        3.6805
   7        7.5259
   8       17.9853
   9       18.6553

 -0.4375000E+00 -0.4375000E+00  0.6250000E-01  0.1171875E-01
   1       -1.8582
   2       -1.6333
   3        1.8604
   4        1.9823
   5        2.1664
   6        5.2128
   7        8.9399
   8       13.2211
   9       13.7882

 -0.3125000E+00 -0.4375000E+00  0.6250000E-01  0.2343750E-01
   1       -1.5943
   2       -1.3632
   3        0.9701
   4        1.6039
   5        2.0019
   6        4.3153
   7       10.6961
   8       13.2358
   9       14.3142

 -0.1875000E+00 -0.4375000E+00  0.6250000E-01  0.2343750E-01
   1       -1.4342
   2       -0.5693
   3       -0.0095
   4        0.7429
   5        1.9401
   6        4.0266
   7        9.4247
   8       15.4160
   9       16.3796

 -0.3125000E+00 -0.3125000E+00  0.6250000E-01  0.1171875E-01
   1       -1.7030
   2       -1.3377
   3        1.0662
   4        1.3963
   5        1.8212
   6        2.1522
   7       13.6452
   8       15.1906
   9       15.4420

 -0.1875000E+00 -0.3125000E+00  0.6250000E-01  0.2343750E-01
   1       -1.7448
   2       -0.9482
   3        0.0743
   4        0.9070
   5        1.4079
   6        2.0523
   7       13.8914
   8       16.2442
   9       17.9345

 -0.1875000E+00 -0.1875000E+00  0.6250000E-01  0.1171875E-01
   1       -2.6379
   2       -0.7778
   3        0.3254
   4        0.6044
   5        0.8267
   6        1.4159
   7       17.0817
   8       18.5135
   9       19.9608

  0.1875000E+00  0.1875000E+00  0.1875000E+00  0.3906250E-02
   1       -3.4557
   2       -0.2612
   3        0.1098
   4        0.1098
   5        1.0403
   6        1.0403
   7       16.5254
   8       19.9699
   9       22.4144

  0.3125000E+00  0.1875000E+00  0.1875000E+00  0.1171875E-01
   1       -2.6723
   2       -0.4580
   3        0.1486
   4        0.3480
   5        0.7493
   6        1.6249
   7       15.0969
   8       17.5810
   9       21.6075

  0.4375000E+00  0.1875000E+00  0.1875000E+00  0.1171875E-01
   1       -1.6037
   2       -0.4522
   3       -0.0441
   4        0.4876
   5        0.9420
   6        2.7014
   7       12.2525
   8       14.9818
   9       20.4398

 -0.4375000E+00  0.1875000E+00  0.1875000E+00  0.1171875E-01
   1       -1.4932
   2       -0.3966
   3        0.3719
   4        0.4853
   5        1.6317
   6        4.5351
   7        8.0831
   8       14.8960
   9       19.2786

 -0.3125000E+00  0.1875000E+00  0.1875000E+00  0.1171875E-01
   1       -1.5811
   2       -0.4246
   3        0.3336
   4        0.4363
   5        2.0070
   6        4.5641
   7        7.8156
   8       16.0288
   9       17.7156

 -0.1875000E+00  0.1875000E+00  0.1875000E+00  0.1171875E-01
   1       -1.7418
   2       -0.6655
   3       -0.0363
   4        0.5998
   5        1.8246
   6        2.1455
   7       12.1749
   8       17.5711
   9       17.9919

  0.3125000E+00  0.3125000E+00  0.1875000E+00  0.1171875E-01
   1       -2.3130
   2       -0.4789
   3        0.0527
   4        0.3507
   5        1.3586
   6        1.5703
   7       13.5481
   8       19.1457
   9       19.6489

  0.4375000E+00  0.3125000E+00  0.1875000E+00  0.2343750E-01
   1       -1.4476
   2       -0.6943
   3       -0.2328
   4        0.8187
   5        1.2793
   6        2.7388
   7       12.3489
   8       15.0236
   9       18.2756

 -0.4375000E+00  0.3125000E+00  0.1875000E+00  0.2343750E-01
   1       -0.9105
   2       -0.6167
   3       -0.3993
   4        0.9467
   5        1.5908
   6        4.5866
   7       10.1478
   8       12.6575
   9       16.4043

 -0.3125000E+00  0.3125000E+00  0.1875000E+00  0.2343750E-01
   1       -1.0898
   2       -0.6953
   3       -0.0003
   4        0.8640
   5        1.8964
   6        6.3582
   7        7.6311
   8       13.2526
   9       15.1423

 -0.1875000E+00  0.3125000E+00  0.1875000E+00  0.2343750E-01
   1       -1.2083
   2       -0.8634
   3       -0.1564
   4        1.1615
   5        1.6555
   6        3.7535
   7       11.1653
   8       13.8017
   9       15.9071

  0.4375000E+00  0.4375000E+00  0.1875000E+00  0.1171875E-01
   1       -1.5151
   2       -0.9073
   3        0.2512
   4        0.9117
   5        2.0010
   6        3.3233
   7       10.8922
   8       15.3468
   9       16.2747

 -0.4375000E+00  0.4375000E+00  0.1875000E+00  0.2343750E-01
   1       -1.2800
   2       -1.0440
   3        0.2436
   4        1.3646
   5        1.9485
   6        5.1990
   7       10.0446
   8       12.5611
   9       14.0857

 -0.3125000E+00  0.4375000E+00  0.1875000E+00  0.2343750E-01
   1       -1.0506
   2       -0.7051
   3       -0.1218
   4        1.0436
   5        2.1445
   6        7.4209
   7        9.1164
   8       10.6327
   9       12.9710

 -0.1875000E+00  0.4375000E+00  0.1875000E+00  0.2343750E-01
   1       -0.9154
   2       -0.7116
   3       -0.2991
   4        1.0690
   5        1.9234
   6        6.0068
   7        9.4572
   8       11.6921
   9       14.2361

 -0.4375000E+00 -0.4375000E+00  0.1875000E+00  0.1171875E-01
   1       -1.5980
   2       -1.2385
   3        1.0552
   4        1.4880
   5        2.0338
   6        6.5830
   7        8.4382
   8       11.4287
   9       14.8709

 -0.3125000E+00 -0.4375000E+00  0.1875000E+00  0.2343750E-01
   1       -1.3728
   2       -1.1354
   3        0.5837
   4        1.3584
   5        2.1461
   6        6.9332
   7        8.6933
   8       11.5259
   9       13.3013

 -0.3125000E+00 -0.3125000E+00  0.1875000E+00  0.1171875E-01
   1       -1.5397
   2       -1.1235
   3        0.7300
   4        1.2380
   5        2.0651
   6        4.8533
   7        9.7085
   8       12.9714
   9       15.3516

  0.3125000E+00  0.3125000E+00  0.3125000E+00  0.3906250E-02
   1       -2.4103
   2        0.0487
   3        0.0487
   4        0.3624
   5        1.4398
   6        1.4398
   7       11.7114
   8       19.3528
   9       21.5492

  0.4375000E+00  0.3125000E+00  0.3125000E+00  0.1171875E-01
   1       -1.8889
   2       -0.1530
   3        0.1953
   4        0.3312
   5        1.3149
   6        2.6269
   7       10.4480
   8       16.9797
   9       19.8560

 -0.4375000E+00  0.3125000E+00  0.3125000E+00  0.1171875E-01
   1       -1.1210
   2       -0.4057
   3       -0.0818
   4        0.6550
   5        1.3503
   6        4.3608
   7       10.0971
   8       12.5813
   9       19.2067

 -0.3125000E+00  0.3125000E+00  0.3125000E+00  0.1171875E-01
   1       -1.2833
   2       -0.6192
   3        0.2340
   4        1.0156
   5        1.7439
   6        6.3928
   7        8.5922
   8       11.0597
   9       16.7740

  0.4375000E+00  0.4375000E+00  0.3125000E+00  0.1171875E-01
   1       -1.8766
   2       -0.2243
   3        0.1976
   4        0.4921
   5        1.9517
   6        3.0158
   7        8.9102
   8       18.3542
   9       18.6876

 -0.4375000E+00  0.4375000E+00  0.3125000E+00  0.2343750E-01
   1       -1.3291
   2       -0.5345
   3        0.1293
   4        0.6283
   5        1.8120
   6        4.8573
   7        8.1984
   8       14.8608
   9       16.5808

 -0.3125000E+00  0.4375000E+00  0.3125000E+00  0.2343750E-01
   1       -1.0381
   2       -0.6610
   3       -0.0955
   4        0.9987
   5        1.9228
   6        6.6893
   7        8.8412
   8       11.0491
   9       14.6925

 -0.4375000E+00 -0.4375000E+00  0.3125000E+00  0.1171875E-01
   1       -1.3646
   2       -0.5736
   3        0.2523
   4        0.7403
   5        1.9123
   6        6.2677
   7        7.1251
   8       13.4848
   9       17.0821

  0.4375000E+00  0.4375000E+00  0.4375000E+00  0.3906250E-02
   1       -2.1778
   2       -0.1014
   3       -0.1014
   4        1.8957
   5        1.8957
   6        2.7075
   7        7.3571
   8       18.5690
   9       20.3091

 -0.4375000E+00  0.4375000E+00  0.4375000E+00  0.1171875E-01
   1       -1.8527
   2       -0.2854
   3        0.1076
   4        1.0828
   5        1.8731
   6        4.6989
   7        6.4884
   8       17.1832
   9       19.1487
