       N       E                     dE             d eps       ncg     rms          rms(c)
DAV:   1     0.453562686680E+02    0.45356E+02   -0.46627E+03  1288   0.798E+02

DAV:   2    -0.266272838207E+01   -0.48019E+02   -0.43451E+02  1089   0.206E+02

DAV:   3    -0.338770994218E+01   -0.72498E+00   -0.72440E+00  1345   0.314E+01

DAV:   4    -0.338959963170E+01   -0.18897E-02   -0.18896E-02  1257   0.144E+00

DAV:   5    -0.338961355214E+01   -0.13920E-04   -0.13921E-04  1267   0.120E-01    0.277E+00
RMM:   6    -0.315901961434E+01    0.23059E+00   -0.50019E-01  1086   0.949E+00    0.655E-01
RMM:   7    -0.314873674413E+01    0.10283E-01   -0.19009E-02  1127   0.140E+00    0.307E-01
RMM:   8    -0.314634170344E+01    0.23950E-02   -0.11956E-03  1141   0.624E-01    0.168E-02
RMM:   9    -0.314635907180E+01   -0.17368E-04   -0.19811E-05   684   0.600E-02

   1 F= -.31463591E+01 E0= -.31454782E+01  d E =-.176166E-02

