PROCAR lm decomposed
# of k-points:   60         # of bands:   9         # of ions:   1

 k-point    1 :    0.06250000 0.06250000 0.06250000     weight = 0.00390625

band   1 # energy   -4.32961929 # occ.  2.00000000

ion      s     py     pz     px    dxy    dyz    dz2    dxz    dx2    tot
  1  0.534  0.001  0.001  0.001  0.000  0.000  0.000  0.000  0.000  0.538

band   2 # energy   -0.13684391 # occ.  2.00000000

ion      s     py     pz     px    dxy    dyz    dz2    dxz    dx2    tot
  1  0.000  0.000  0.000  0.000  0.304  0.304  0.000  0.304  0.000  0.912

band   3 # energy   -0.06811423 # occ.  2.00000000

ion      s     py     pz     px    dxy    dyz    dz2    dxz    dx2    tot
  1  0.000  0.000  0.000  0.000  0.459  0.000  0.001  0.456  0.000  0.916

band   4 # energy   -0.06811393 # occ.  2.00000000

ion      s     py     pz     px    dxy    dyz    dz2    dxz    dx2    tot
  1  0.000  0.000  0.000  0.000  0.151  0.610  0.000  0.154  0.001  0.916

band   5 # energy    1.03470092 # occ.  2.00000000

ion      s     py     pz     px    dxy    dyz    dz2    dxz    dx2    tot
  1  0.000  0.000  0.000  0.000  0.000  0.001  0.227  0.000  0.724  0.952

band   6 # energy    1.03470101 # occ.  2.00000000

ion      s     py     pz     px    dxy    dyz    dz2    dxz    dx2    tot
  1  0.000  0.000  0.000  0.000  0.001  0.000  0.724  0.001  0.227  0.952

band   7 # energy   19.23363451 # occ.  0.00000000

ion      s     py     pz     px    dxy    dyz    dz2    dxz    dx2    tot
  1  0.000  0.001  0.001  0.001  0.008  0.008  0.000  0.008  0.000  0.026

band   8 # energy   21.09547154 # occ.  0.00000000

ion      s     py     pz     px    dxy    dyz    dz2    dxz    dx2    tot
  1  0.024  0.080  0.080  0.081  0.008  0.008  0.000  0.008  0.000  0.290

band   9 # energy   22.14964063 # occ.  0.00000000

ion      s     py     pz     px    dxy    dyz    dz2    dxz    dx2    tot
  1  0.000  0.130  0.141  0.000  0.006  0.000  0.004  0.005  0.001  0.287


 k-point    2 :    0.18750000 0.06250000 0.06250000     weight = 0.01171875

band   1 # energy   -3.72335374 # occ.  2.00000000

ion      s     py     pz     px    dxy    dyz    dz2    dxz    dx2    tot
  1  0.507  0.012  0.012  0.001  0.001  0.006  0.000  0.001  0.001  0.541

band   2 # energy   -0.29006352 # occ.  2.00000000

ion      s     py     pz     px    dxy    dyz    dz2    dxz    dx2    tot
  1  0.001  0.001  0.001  0.004  0.433  0.024  0.000  0.433  0.000  0.896

band   3 # energy    0.09113873 # occ.  2.00000000

ion      s     py     pz     px    dxy    dyz    dz2    dxz    dx2    tot
  1  0.000  0.000  0.000  0.000  0.452  0.000  0.012  0.452  0.004  0.920

band   4 # energy    0.10974506 # occ.  2.00000000

ion      s     py     pz     px    dxy    dyz    dz2    dxz    dx2    tot
  1  0.001  0.002  0.002  0.000  0.012  0.814  0.018  0.012  0.054  0.916

band   5 # energy    0.88593816 # occ.  2.00000000

ion      s     py     pz     px    dxy    dyz    dz2    dxz    dx2    tot
  1  0.000  0.000  0.000  0.000  0.008  0.000  0.694  0.008  0.231  0.943

band   6 # energy    1.12677876 # occ.  2.00000000

ion      s     py     pz     px    dxy    dyz    dz2    dxz    dx2    tot
  1  0.001  0.000  0.000  0.000  0.001  0.070  0.219  0.001  0.657  0.951

band   7 # energy   18.09825216 # occ.  0.00000000

ion      s     py     pz     px    dxy    dyz    dz2    dxz    dx2    tot
  1  0.063  0.088  0.088  0.064  0.035  0.048  0.001  0.035  0.002  0.424

band   8 # energy   19.52854202 # occ.  0.00000000

ion      s     py     pz     px    dxy    dyz    dz2    dxz    dx2    tot
  1  0.016  0.026  0.026  0.038  0.046  0.006  0.001  0.046  0.003  0.207

band   9 # energy   21.46561060 # occ.  0.00000000

ion      s     py     pz     px    dxy    dyz    dz2    dxz    dx2    tot
  1  0.000  0.013  0.013  0.253  0.010  0.019  0.001  0.010  0.002  0.322


 k-point    3 :    0.31250000 0.06250000 0.06250000     weight = 0.01171875

band   1 # energy   -2.58218652 # occ.  2.00000000

ion      s     py     pz     px    dxy    dyz    dz2    dxz    dx2    tot
  1  0.391  0.019  0.019  0.004  0.046  0.072  0.000  0.046  0.001  0.600

band   2 # energy   -0.17034795 # occ.  2.00000000

ion      s     py     pz     px    dxy    dyz    dz2    dxz    dx2    tot
  1  0.042  0.011  0.011  0.019  0.371  0.001  0.001  0.371  0.004  0.831

band   3 # energy    0.12756775 # occ.  2.00000000

ion      s     py     pz     px    dxy    dyz    dz2    dxz    dx2    tot
  1  0.009  0.006  0.006  0.001  0.002  0.492  0.094  0.002  0.283  0.895

band   4 # energy    0.15375084 # occ.  2.00000000

ion      s     py     pz     px    dxy    dyz    dz2    dxz    dx2    tot
  1  0.000  0.000  0.000  0.000  0.282  0.000  0.266  0.282  0.089  0.918

band   5 # energy    1.08195063 # occ.  2.00000000

ion      s     py     pz     px    dxy    dyz    dz2    dxz    dx2    tot
  1  0.000  0.001  0.001  0.000  0.183  0.000  0.432  0.183  0.144  0.943

band   6 # energy    1.53219305 # occ.  2.00000000

ion      s     py     pz     px    dxy    dyz    dz2    dxz    dx2    tot
  1  0.012  0.003  0.003  0.000  0.013  0.347  0.139  0.013  0.417  0.947

band   7 # energy   13.37494946 # occ.  0.00000000

ion      s     py     pz     px    dxy    dyz    dz2    dxz    dx2    tot
  1  0.150  0.092  0.092  0.094  0.052  0.052  0.001  0.052  0.002  0.585

band   8 # energy   19.17380262 # occ.  0.00000000

ion      s     py     pz     px    dxy    dyz    dz2    dxz    dx2    tot
  1  0.010  0.013  0.013  0.123  0.061  0.005  0.003  0.061  0.010  0.299

band   9 # energy   20.86828165 # occ.  0.00000000

ion      s     py     pz     px    dxy    dyz    dz2    dxz    dx2    tot
  1  0.006  0.075  0.075  0.152  0.005  0.042  0.000  0.005  0.000  0.359


 k-point    4 :    0.43750000 0.06250000 0.06250000     weight = 0.01171875

band   1 # energy   -2.10657456 # occ.  2.00000000

ion      s     py     pz     px    dxy    dyz    dz2    dxz    dx2    tot
  1  0.195  0.005  0.005  0.000  0.173  0.185  0.000  0.173  0.000  0.737

band   2 # energy   -0.09411498 # occ.  2.00000000

ion      s     py     pz     px    dxy    dyz    dz2    dxz    dx2    tot
  1  0.000  0.000  0.000  0.001  0.066  0.277  0.124  0.066  0.371  0.905

band   3 # energy   -0.01319534 # occ.  2.00000000

ion      s     py     pz     px    dxy    dyz    dz2    dxz    dx2    tot
  1  0.000  0.000  0.000  0.000  0.191  0.000  0.396  0.191  0.132  0.910

band   4 # energy    1.22076260 # occ.  2.00000000

ion      s     py     pz     px    dxy    dyz    dz2    dxz    dx2    tot
  1  0.062  0.035  0.035  0.037  0.166  0.057  0.054  0.166  0.163  0.775

band   5 # energy    1.65944375 # occ.  2.00000000

ion      s     py     pz     px    dxy    dyz    dz2    dxz    dx2    tot
  1  0.000  0.000  0.000  0.000  0.281  0.000  0.299  0.281  0.100  0.961

band   6 # energy    2.49087590 # occ.  2.00000000

ion      s     py     pz     px    dxy    dyz    dz2    dxz    dx2    tot
  1  0.097  0.039  0.039  0.025  0.000  0.385  0.054  0.000  0.163  0.802

band   7 # energy    8.75461958 # occ.  0.00000000

ion      s     py     pz     px    dxy    dyz    dz2    dxz    dx2    tot
  1  0.267  0.062  0.062  0.076  0.076  0.055  0.001  0.076  0.003  0.677

band   8 # energy   18.56749694 # occ.  0.00000000

ion      s     py     pz     px    dxy    dyz    dz2    dxz    dx2    tot
  1  0.005  0.004  0.004  0.103  0.025  0.004  0.005  0.025  0.015  0.190

band   9 # energy   19.60678374 # occ.  0.00000000

ion      s     py     pz     px    dxy    dyz    dz2    dxz    dx2    tot
  1  0.013  0.084  0.085  0.196  0.011  0.003  0.000  0.011  0.000  0.402


 k-point    5 :   -0.43750000 0.06250000 0.06250000     weight = 0.01171875

band   1 # energy   -2.09070009 # occ.  2.00000000

ion      s     py     pz     px    dxy    dyz    dz2    dxz    dx2    tot
  1  0.156  0.000  0.000  0.003  0.195  0.214  0.000  0.195  0.000  0.763

band   2 # energy   -0.17035086 # occ.  2.00000000

ion      s     py     pz     px    dxy    dyz    dz2    dxz    dx2    tot
  1  0.000  0.000  0.000  0.000  0.066  0.222  0.137  0.066  0.410  0.902

band   3 # energy   -0.05891710 # occ.  2.00000000

ion      s     py     pz     px    dxy    dyz    dz2    dxz    dx2    tot
  1  0.000  0.000  0.000  0.000  0.185  0.000  0.403  0.185  0.134  0.908

band   4 # energy    1.60326851 # occ.  2.00000000

ion      s     py     pz     px    dxy    dyz    dz2    dxz    dx2    tot
  1  0.002  0.017  0.017  0.015  0.075  0.378  0.079  0.075  0.237  0.894

band   5 # energy    1.97164949 # occ.  2.00000000

ion      s     py     pz     px    dxy    dyz    dz2    dxz    dx2    tot
  1  0.000  0.000  0.000  0.000  0.290  0.000  0.295  0.290  0.098  0.973

band   6 # energy    3.90039153 # occ.  0.11880045

ion      s     py     pz     px    dxy    dyz    dz2    dxz    dx2    tot
  1  0.031  0.109  0.109  0.123  0.042  0.012  0.016  0.042  0.047  0.531

band   7 # energy    6.38716949 # occ.  0.00000000

ion      s     py     pz     px    dxy    dyz    dz2    dxz    dx2    tot
  1  0.436  0.014  0.014  0.006  0.104  0.128  0.000  0.104  0.001  0.808

band   8 # energy   18.45976536 # occ.  0.00000000

ion      s     py     pz     px    dxy    dyz    dz2    dxz    dx2    tot
  1  0.000  0.001  0.000  0.034  0.002  0.007  0.005  0.002  0.016  0.067

band   9 # energy   19.57999868 # occ.  0.00000000

ion      s     py     pz     px    dxy    dyz    dz2    dxz    dx2    tot
  1  0.018  0.069  0.093  0.280  0.008  0.010  0.002  0.009  0.008  0.499


 k-point    6 :   -0.31250000 0.06250000 0.06250000     weight = 0.01171875

band   1 # energy   -2.16814639 # occ.  2.00000000

ion      s     py     pz     px    dxy    dyz    dz2    dxz    dx2    tot
  1  0.242  0.003  0.003  0.014  0.142  0.155  0.001  0.142  0.002  0.704

band   2 # energy   -0.05643875 # occ.  2.00000000

ion      s     py     pz     px    dxy    dyz    dz2    dxz    dx2    tot
  1  0.001  0.000  0.000  0.000  0.083  0.245  0.124  0.083  0.372  0.908

band   3 # energy    0.06303492 # occ.  2.00000000

ion      s     py     pz     px    dxy    dyz    dz2    dxz    dx2    tot
  1  0.000  0.001  0.001  0.000  0.227  0.000  0.343  0.227  0.114  0.913

band   4 # energy    0.63474058 # occ.  2.00000000

ion      s     py     pz     px    dxy    dyz    dz2    dxz    dx2    tot
  1  0.089  0.034  0.034  0.032  0.011  0.404  0.034  0.011  0.102  0.751

band   5 # energy    1.74921068 # occ.  2.00000000

ion      s     py     pz     px    dxy    dyz    dz2    dxz    dx2    tot
  1  0.000  0.000  0.000  0.000  0.242  0.000  0.360  0.242  0.120  0.966

band   6 # energy    1.85336697 # occ.  2.00000000

ion      s     py     pz     px    dxy    dyz    dz2    dxz    dx2    tot
  1  0.063  0.012  0.012  0.027  0.197  0.073  0.072  0.197  0.216  0.870

band   7 # energy   10.21903977 # occ.  0.00000000

ion      s     py     pz     px    dxy    dyz    dz2    dxz    dx2    tot
  1  0.222  0.084  0.084  0.071  0.056  0.069  0.001  0.056  0.002  0.644

band   8 # energy   19.03873552 # occ.  0.00000000

ion      s     py     pz     px    dxy    dyz    dz2    dxz    dx2    tot
  1  0.001  0.007  0.007  0.004  0.002  0.031  0.004  0.002  0.012  0.068

band   9 # energy   19.98348204 # occ.  0.00000000

ion      s     py     pz     px    dxy    dyz    dz2    dxz    dx2    tot
  1  0.000  0.235  0.233  0.000  0.037  0.000  0.009  0.036  0.003  0.552


 k-point    7 :   -0.18750000 0.06250000 0.06250000     weight = 0.01171875

band   1 # energy   -2.95496459 # occ.  2.00000000

ion      s     py     pz     px    dxy    dyz    dz2    dxz    dx2    tot
  1  0.449  0.008  0.008  0.027  0.026  0.017  0.001  0.026  0.003  0.564

band   2 # energy   -0.32673386 # occ.  2.00000000

ion      s     py     pz     px    dxy    dyz    dz2    dxz    dx2    tot
  1  0.019  0.008  0.008  0.006  0.089  0.642  0.000  0.089  0.000  0.861

band   3 # energy    0.15226523 # occ.  2.00000000

ion      s     py     pz     px    dxy    dyz    dz2    dxz    dx2    tot
  1  0.001  0.001  0.001  0.001  0.224  0.155  0.076  0.224  0.228  0.912

band   4 # energy    0.18752701 # occ.  2.00000000

ion      s     py     pz     px    dxy    dyz    dz2    dxz    dx2    tot
  1  0.000  0.001  0.001  0.000  0.351  0.000  0.161  0.351  0.054  0.919

band   5 # energy    1.01095282 # occ.  2.00000000

ion      s     py     pz     px    dxy    dyz    dz2    dxz    dx2    tot
  1  0.008  0.000  0.000  0.004  0.109  0.081  0.156  0.109  0.467  0.934

band   6 # energy    1.28973705 # occ.  2.00000000

ion      s     py     pz     px    dxy    dyz    dz2    dxz    dx2    tot
  1  0.000  0.000  0.000  0.000  0.111  0.000  0.548  0.111  0.183  0.953

band   7 # energy   14.99510011 # occ.  0.00000000

ion      s     py     pz     px    dxy    dyz    dz2    dxz    dx2    tot
  1  0.118  0.097  0.097  0.087  0.050  0.048  0.000  0.050  0.001  0.548

band   8 # energy   19.85319237 # occ.  0.00000000

ion      s     py     pz     px    dxy    dyz    dz2    dxz    dx2    tot
  1  0.008  0.005  0.005  0.004  0.009  0.075  0.002  0.009  0.006  0.123

band   9 # energy   20.85558730 # occ.  0.00000000

ion      s     py     pz     px    dxy    dyz    dz2    dxz    dx2    tot
  1  0.000  0.209  0.209  0.000  0.066  0.000  0.009  0.066  0.003  0.561


 k-point    8 :   -0.06250000 0.06250000 0.06250000     weight = 0.01171875

band   1 # energy   -4.01849189 # occ.  2.00000000

ion      s     py     pz     px    dxy    dyz    dz2    dxz    dx2    tot
  1  0.521  0.001  0.001  0.013  0.001  0.000  0.000  0.001  0.001  0.539

band   2 # energy   -0.25571542 # occ.  2.00000000

ion      s     py     pz     px    dxy    dyz    dz2    dxz    dx2    tot
  1  0.000  0.001  0.001  0.000  0.046  0.810  0.000  0.046  0.000  0.905

band   3 # energy    0.04512613 # occ.  2.00000000

ion      s     py     pz     px    dxy    dyz    dz2    dxz    dx2    tot
  1  0.000  0.001  0.001  0.000  0.406  0.096  0.002  0.406  0.005  0.917

band   4 # energy    0.04930544 # occ.  2.00000000

ion      s     py     pz     px    dxy    dyz    dz2    dxz    dx2    tot
  1  0.000  0.001  0.001  0.000  0.453  0.000  0.007  0.453  0.002  0.917

band   5 # energy    0.90173687 # occ.  2.00000000

ion      s     py     pz     px    dxy    dyz    dz2    dxz    dx2    tot
  1  0.001  0.000  0.000  0.000  0.003  0.001  0.234  0.003  0.702  0.944

band   6 # energy    1.10532729 # occ.  2.00000000

ion      s     py     pz     px    dxy    dyz    dz2    dxz    dx2    tot
  1  0.000  0.000  0.000  0.000  0.005  0.000  0.708  0.005  0.236  0.954

band   7 # energy   19.25366911 # occ.  0.00000000

ion      s     py     pz     px    dxy    dyz    dz2    dxz    dx2    tot
  1  0.011  0.030  0.030  0.020  0.021  0.058  0.000  0.021  0.001  0.192

band   8 # energy   20.02937914 # occ.  0.00000000

ion      s     py     pz     px    dxy    dyz    dz2    dxz    dx2    tot
  1  0.041  0.040  0.040  0.083  0.008  0.004  0.001  0.008  0.004  0.231

band   9 # energy   21.47720032 # occ.  0.00000000

ion      s     py     pz     px    dxy    dyz    dz2    dxz    dx2    tot
  1  0.000  0.168  0.160  0.000  0.040  0.000  0.002  0.039  0.001  0.410


 k-point    9 :    0.18750000 0.18750000 0.06250000     weight = 0.01171875

band   1 # energy   -3.42427799 # occ.  2.00000000

ion      s     py     pz     px    dxy    dyz    dz2    dxz    dx2    tot
  1  0.492  0.001  0.033  0.001  0.000  0.002  0.009  0.002  0.000  0.542

band   2 # energy   -0.48767914 # occ.  2.00000000

ion      s     py     pz     px    dxy    dyz    dz2    dxz    dx2    tot
  1  0.000  0.001  0.000  0.001  0.862  0.014  0.000  0.014  0.000  0.892

band   3 # energy    0.26061511 # occ.  2.00000000

ion      s     py     pz     px    dxy    dyz    dz2    dxz    dx2    tot
  1  0.000  0.002  0.000  0.002  0.029  0.397  0.093  0.397  0.000  0.919

band   4 # energy    0.27866299 # occ.  2.00000000

ion      s     py     pz     px    dxy    dyz    dz2    dxz    dx2    tot
  1  0.000  0.002  0.000  0.002  0.000  0.444  0.000  0.444  0.028  0.920

band   5 # energy    0.71338483 # occ.  2.00000000

ion      s     py     pz     px    dxy    dyz    dz2    dxz    dx2    tot
  1  0.007  0.000  0.002  0.000  0.003  0.044  0.826  0.044  0.000  0.927

band   6 # energy    1.23802278 # occ.  2.00000000

ion      s     py     pz     px    dxy    dyz    dz2    dxz    dx2    tot
  1  0.000  0.000  0.000  0.000  0.000  0.014  0.000  0.014  0.927  0.956

band   7 # energy   18.38160555 # occ.  0.00000000

ion      s     py     pz     px    dxy    dyz    dz2    dxz    dx2    tot
  1  0.061  0.096  0.067  0.097  0.032  0.041  0.010  0.041  0.000  0.445

band   8 # energy   19.91397730 # occ.  0.00000000

ion      s     py     pz     px    dxy    dyz    dz2    dxz    dx2    tot
  1  0.020  0.000  0.025  0.000  0.114  0.001  0.012  0.001  0.000  0.172

band   9 # energy   20.15413022 # occ.  0.00000000

ion      s     py     pz     px    dxy    dyz    dz2    dxz    dx2    tot
  1  0.000  0.191  0.000  0.193  0.000  0.065  0.000  0.065  0.002  0.516


 k-point   10 :    0.31250000 0.18750000 0.06250000     weight = 0.02343750

band   1 # energy   -2.42113860 # occ.  2.00000000

ion      s     py     pz     px    dxy    dyz    dz2    dxz    dx2    tot
  1  0.412  0.008  0.053  0.001  0.006  0.038  0.046  0.006  0.000  0.570

band   2 # energy   -0.69290770 # occ.  2.00000000

ion      s     py     pz     px    dxy    dyz    dz2    dxz    dx2    tot
  1  0.004  0.001  0.001  0.007  0.797  0.002  0.002  0.057  0.000  0.871

band   3 # energy    0.12004880 # occ.  2.00000000

ion      s     py     pz     px    dxy    dyz    dz2    dxz    dx2    tot
  1  0.003  0.003  0.000  0.000  0.011  0.333  0.501  0.017  0.036  0.904

band   4 # energy    0.55694944 # occ.  2.00000000

ion      s     py     pz     px    dxy    dyz    dz2    dxz    dx2    tot
  1  0.002  0.001  0.001  0.004  0.042  0.103  0.034  0.603  0.137  0.924

band   5 # energy    0.97152664 # occ.  2.00000000

ion      s     py     pz     px    dxy    dyz    dz2    dxz    dx2    tot
  1  0.023  0.002  0.009  0.002  0.024  0.138  0.272  0.227  0.218  0.915

band   6 # energy    1.61080848 # occ.  2.00000000

ion      s     py     pz     px    dxy    dyz    dz2    dxz    dx2    tot
  1  0.015  0.003  0.004  0.000  0.000  0.307  0.055  0.004  0.562  0.950

band   7 # energy   15.29437535 # occ.  0.00000000

ion      s     py     pz     px    dxy    dyz    dz2    dxz    dx2    tot
  1  0.130  0.144  0.089  0.071  0.027  0.054  0.007  0.027  0.003  0.554

band   8 # energy   17.63582764 # occ.  0.00000000

ion      s     py     pz     px    dxy    dyz    dz2    dxz    dx2    tot
  1  0.016  0.055  0.015  0.272  0.073  0.017  0.003  0.090  0.004  0.544

band   9 # energy   20.36932589 # occ.  0.00000000

ion      s     py     pz     px    dxy    dyz    dz2    dxz    dx2    tot
  1  0.017  0.008  0.118  0.007  0.006  0.000  0.154  0.001  0.000  0.311


 k-point   11 :    0.43750000 0.18750000 0.06250000     weight = 0.02343750

band   1 # energy   -1.70090403 # occ.  2.00000000

ion      s     py     pz     px    dxy    dyz    dz2    dxz    dx2    tot
  1  0.192  0.003  0.028  0.000  0.223  0.139  0.048  0.090  0.000  0.723

band   2 # energy   -0.25912098 # occ.  2.00000000

ion      s     py     pz     px    dxy    dyz    dz2    dxz    dx2    tot
  1  0.006  0.014  0.003  0.008  0.034  0.090  0.626  0.044  0.025  0.849

band   3 # energy   -0.13724963 # occ.  2.00000000

ion      s     py     pz     px    dxy    dyz    dz2    dxz    dx2    tot
  1  0.055  0.006  0.020  0.013  0.519  0.183  0.009  0.001  0.025  0.831

band   4 # energy    0.45123857 # occ.  2.00000000

ion      s     py     pz     px    dxy    dyz    dz2    dxz    dx2    tot
  1  0.005  0.003  0.004  0.001  0.053  0.070  0.029  0.315  0.434  0.914

band   5 # energy    1.72707500 # occ.  2.00000000

ion      s     py     pz     px    dxy    dyz    dz2    dxz    dx2    tot
  1  0.006  0.001  0.006  0.003  0.023  0.058  0.046  0.425  0.383  0.951

band   6 # energy    2.76422626 # occ.  2.00000000

ion      s     py     pz     px    dxy    dyz    dz2    dxz    dx2    tot
  1  0.125  0.017  0.045  0.009  0.007  0.388  0.141  0.038  0.074  0.842

band   7 # energy   10.57155010 # occ.  0.00000000

ion      s     py     pz     px    dxy    dyz    dz2    dxz    dx2    tot
  1  0.214  0.094  0.071  0.098  0.065  0.031  0.007  0.041  0.004  0.625

band   8 # energy   17.00876012 # occ.  0.00000000

ion      s     py     pz     px    dxy    dyz    dz2    dxz    dx2    tot
  1  0.033  0.074  0.040  0.277  0.052  0.008  0.000  0.054  0.023  0.561

band   9 # energy   18.27753188 # occ.  0.00000000

ion      s     py     pz     px    dxy    dyz    dz2    dxz    dx2    tot
  1  0.028  0.028  0.180  0.002  0.000  0.019  0.144  0.002  0.001  0.404


 k-point   12 :   -0.43750000 0.18750000 0.06250000     weight = 0.02343750

band   1 # energy   -1.64974170 # occ.  2.00000000

ion      s     py     pz     px    dxy    dyz    dz2    dxz    dx2    tot
  1  0.120  0.000  0.010  0.005  0.298  0.199  0.009  0.136  0.001  0.779

band   2 # energy   -0.40481063 # occ.  2.00000000

ion      s     py     pz     px    dxy    dyz    dz2    dxz    dx2    tot
  1  0.000  0.006  0.000  0.001  0.097  0.144  0.546  0.015  0.065  0.874

band   3 # energy    0.29314116 # occ.  2.00000000

ion      s     py     pz     px    dxy    dyz    dz2    dxz    dx2    tot
  1  0.000  0.000  0.000  0.004  0.002  0.079  0.079  0.245  0.504  0.913

band   4 # energy    0.68217340 # occ.  2.00000000

ion      s     py     pz     px    dxy    dyz    dz2    dxz    dx2    tot
  1  0.004  0.024  0.027  0.022  0.362  0.182  0.147  0.029  0.033  0.831

band   5 # energy    1.92361741 # occ.  2.00000000

ion      s     py     pz     px    dxy    dyz    dz2    dxz    dx2    tot
  1  0.001  0.000  0.000  0.000  0.033  0.172  0.029  0.423  0.311  0.970

band   6 # energy    5.28225510 # occ.  0.00000000

ion      s     py     pz     px    dxy    dyz    dz2    dxz    dx2    tot
  1  0.104  0.070  0.118  0.067  0.006  0.134  0.095  0.042  0.009  0.645

band   7 # energy    6.55043292 # occ.  0.00000000

ion      s     py     pz     px    dxy    dyz    dz2    dxz    dx2    tot
  1  0.379  0.033  0.014  0.053  0.143  0.041  0.009  0.066  0.005  0.742

band   8 # energy   16.51450351 # occ.  0.00000000

ion      s     py     pz     px    dxy    dyz    dz2    dxz    dx2    tot
  1  0.061  0.014  0.252  0.099  0.006  0.029  0.062  0.033  0.005  0.561

band   9 # energy   17.51631231 # occ.  0.00000000

ion      s     py     pz     px    dxy    dyz    dz2    dxz    dx2    tot
  1  0.006  0.106  0.002  0.180  0.033  0.009  0.047  0.006  0.049  0.439


 k-point   13 :   -0.31250000 0.18750000 0.06250000     weight = 0.02343750

band   1 # energy   -1.61758209 # occ.  2.00000000

ion      s     py     pz     px    dxy    dyz    dz2    dxz    dx2    tot
  1  0.156  0.005  0.003  0.016  0.241  0.202  0.000  0.123  0.006  0.753

band   2 # energy   -0.31302939 # occ.  2.00000000

ion      s     py     pz     px    dxy    dyz    dz2    dxz    dx2    tot
  1  0.000  0.003  0.001  0.000  0.219  0.123  0.445  0.007  0.084  0.884

band   3 # energy    0.23460728 # occ.  2.00000000

ion      s     py     pz     px    dxy    dyz    dz2    dxz    dx2    tot
  1  0.017  0.014  0.019  0.007  0.074  0.074  0.010  0.226  0.411  0.852

band   4 # energy    0.42624480 # occ.  2.00000000

ion      s     py     pz     px    dxy    dyz    dz2    dxz    dx2    tot
  1  0.024  0.014  0.008  0.023  0.011  0.336  0.237  0.062  0.137  0.852

band   5 # energy    1.58400039 # occ.  2.00000000

ion      s     py     pz     px    dxy    dyz    dz2    dxz    dx2    tot
  1  0.001  0.000  0.002  0.004  0.029  0.123  0.061  0.463  0.269  0.952

band   6 # energy    3.54456172 # occ.  1.99948411

ion      s     py     pz     px    dxy    dyz    dz2    dxz    dx2    tot
  1  0.171  0.031  0.014  0.051  0.359  0.000  0.153  0.011  0.010  0.801

band   7 # energy    9.20613736 # occ.  0.00000000

ion      s     py     pz     px    dxy    dyz    dz2    dxz    dx2    tot
  1  0.238  0.072  0.099  0.062  0.022  0.076  0.027  0.055  0.000  0.650

band   8 # energy   15.89265500 # occ.  0.00000000

ion      s     py     pz     px    dxy    dyz    dz2    dxz    dx2    tot
  1  0.047  0.048  0.265  0.045  0.002  0.063  0.038  0.053  0.000  0.561

band   9 # energy   18.72105350 # occ.  0.00000000

ion      s     py     pz     px    dxy    dyz    dz2    dxz    dx2    tot
  1  0.019  0.022  0.005  0.184  0.027  0.000  0.039  0.001  0.069  0.366


 k-point   14 :   -0.18750000 0.18750000 0.06250000     weight = 0.02343750

band   1 # energy   -2.04093133 # occ.  2.00000000

ion      s     py     pz     px    dxy    dyz    dz2    dxz    dx2    tot
  1  0.365  0.020  0.000  0.043  0.120  0.018  0.009  0.013  0.012  0.601

band   2 # energy   -0.55598247 # occ.  2.00000000

ion      s     py     pz     px    dxy    dyz    dz2    dxz    dx2    tot
  1  0.011  0.002  0.016  0.003  0.002  0.636  0.000  0.184  0.001  0.857

band   3 # energy    0.00217996 # occ.  2.00000000

ion      s     py     pz     px    dxy    dyz    dz2    dxz    dx2    tot
  1  0.002  0.007  0.000  0.002  0.312  0.002  0.424  0.002  0.139  0.891

band   4 # energy    0.52098363 # occ.  2.00000000

ion      s     py     pz     px    dxy    dyz    dz2    dxz    dx2    tot
  1  0.003  0.001  0.001  0.002  0.032  0.121  0.056  0.365  0.341  0.921

band   5 # energy    0.89651009 # occ.  2.00000000

ion      s     py     pz     px    dxy    dyz    dz2    dxz    dx2    tot
  1  0.007  0.000  0.001  0.005  0.011  0.102  0.037  0.336  0.428  0.927

band   6 # energy    2.08768920 # occ.  2.00000000

ion      s     py     pz     px    dxy    dyz    dz2    dxz    dx2    tot
  1  0.052  0.008  0.000  0.012  0.447  0.001  0.409  0.000  0.000  0.929

band   7 # energy   13.65582180 # occ.  0.00000000

ion      s     py     pz     px    dxy    dyz    dz2    dxz    dx2    tot
  1  0.173  0.125  0.058  0.102  0.047  0.027  0.020  0.025  0.000  0.576

band   8 # energy   16.30361160 # occ.  0.00000000

ion      s     py     pz     px    dxy    dyz    dz2    dxz    dx2    tot
  1  0.022  0.030  0.287  0.020  0.009  0.101  0.009  0.097  0.000  0.575

band   9 # energy   20.46278452 # occ.  0.00000000

ion      s     py     pz     px    dxy    dyz    dz2    dxz    dx2    tot
  1  0.020  0.003  0.005  0.132  0.002  0.001  0.044  0.000  0.058  0.266


 k-point   15 :   -0.06250000 0.18750000 0.06250000     weight = 0.02343750

band   1 # energy   -3.16208471 # occ.  2.00000000

ion      s     py     pz     px    dxy    dyz    dz2    dxz    dx2    tot
  1  0.476  0.010  0.001  0.031  0.019  0.002  0.003  0.003  0.003  0.548

band   2 # energy   -0.45242878 # occ.  2.00000000

ion      s     py     pz     px    dxy    dyz    dz2    dxz    dx2    tot
  1  0.002  0.001  0.006  0.001  0.007  0.719  0.000  0.148  0.000  0.885

band   3 # energy    0.19146554 # occ.  2.00000000

ion      s     py     pz     px    dxy    dyz    dz2    dxz    dx2    tot
  1  0.001  0.004  0.000  0.001  0.626  0.019  0.201  0.009  0.051  0.912

band   4 # energy    0.27700093 # occ.  2.00000000

ion      s     py     pz     px    dxy    dyz    dz2    dxz    dx2    tot
  1  0.000  0.000  0.002  0.000  0.030  0.136  0.009  0.692  0.053  0.922

band   5 # energy    0.79334125 # occ.  2.00000000

ion      s     py     pz     px    dxy    dyz    dz2    dxz    dx2    tot
  1  0.005  0.000  0.000  0.002  0.061  0.018  0.010  0.051  0.783  0.931

band   6 # energy    1.31729949 # occ.  2.00000000

ion      s     py     pz     px    dxy    dyz    dz2    dxz    dx2    tot
  1  0.004  0.001  0.000  0.001  0.173  0.000  0.724  0.005  0.043  0.952

band   7 # energy   16.68674831 # occ.  0.00000000

ion      s     py     pz     px    dxy    dyz    dz2    dxz    dx2    tot
  1  0.098  0.119  0.064  0.091  0.057  0.030  0.007  0.030  0.001  0.498

band   8 # energy   18.80974718 # occ.  0.00000000

ion      s     py     pz     px    dxy    dyz    dz2    dxz    dx2    tot
  1  0.014  0.033  0.175  0.017  0.012  0.090  0.006  0.080  0.001  0.429

band   9 # energy   21.24860956 # occ.  0.00000000

ion      s     py     pz     px    dxy    dyz    dz2    dxz    dx2    tot
  1  0.000  0.048  0.129  0.001  0.022  0.021  0.000  0.012  0.006  0.239


 k-point   16 :    0.31250000 0.31250000 0.06250000     weight = 0.01171875

band   1 # energy   -1.93552443 # occ.  2.00000000

ion      s     py     pz     px    dxy    dyz    dz2    dxz    dx2    tot
  1  0.293  0.001  0.057  0.001  0.003  0.004  0.263  0.004  0.000  0.626

band   2 # energy   -1.07551683 # occ.  2.00000000

ion      s     py     pz     px    dxy    dyz    dz2    dxz    dx2    tot
  1  0.001  0.001  0.000  0.001  0.855  0.002  0.002  0.002  0.000  0.865

band   3 # energy    0.44824605 # occ.  2.00000000

ion      s     py     pz     px    dxy    dyz    dz2    dxz    dx2    tot
  1  0.083  0.001  0.034  0.001  0.003  0.122  0.474  0.122  0.000  0.841

band   4 # energy    0.99611361 # occ.  2.00000000

ion      s     py     pz     px    dxy    dyz    dz2    dxz    dx2    tot
  1  0.000  0.004  0.000  0.004  0.000  0.395  0.000  0.395  0.137  0.935

band   5 # energy    1.32779778 # occ.  2.00000000

ion      s     py     pz     px    dxy    dyz    dz2    dxz    dx2    tot
  1  0.050  0.004  0.021  0.004  0.004  0.334  0.143  0.334  0.000  0.895

band   6 # energy    1.61739954 # occ.  2.00000000

ion      s     py     pz     px    dxy    dyz    dz2    dxz    dx2    tot
  1  0.000  0.000  0.000  0.000  0.000  0.069  0.000  0.069  0.826  0.965

band   7 # energy   15.57940253 # occ.  0.00000000

ion      s     py     pz     px    dxy    dyz    dz2    dxz    dx2    tot
  1  0.124  0.139  0.099  0.139  0.015  0.034  0.000  0.034  0.000  0.584

band   8 # energy   16.87436070 # occ.  0.00000000
