----- GAMESS execution script 'rungms' -----
This job is running on host dftfe.crc.nd.edu
under operating system Linux at Thu Feb 26 00:14:14 EST 2015
Available scratch disk space (Kbyte units) at beginning of the job is
Filesystem     1K-blocks     Used Available Use% Mounted on
/dev/sda2      147771864 22811384 117454048  17% /
GAMESS temporary binary files will be written to /tmp
GAMESS supplementary output files will be written to /tmp
Copying input file gamess.inp to your run's scratch directory...

 Distributed Data Interface kickoff program.
 Initiating 1 compute processes on 1 nodes to run the following command:
 /opt/crc/gamess/2012R1/gamess/gamess.00.x gamess 

          ******************************************************
          *         GAMESS VERSION =  1 MAY 2012 (R1)          *
          *             FROM IOWA STATE UNIVERSITY             *
          * M.W.SCHMIDT, K.K.BALDRIDGE, J.A.BOATZ, S.T.ELBERT, *
          *   M.S.GORDON, J.H.JENSEN, S.KOSEKI, N.MATSUNAGA,   *
          *          K.A.NGUYEN, S.J.SU, T.L.WINDUS,           *
          *       TOGETHER WITH M.DUPUIS, J.A.MONTGOMERY       *
          *         J.COMPUT.CHEM.  14, 1347-1363(1993)        *
          **************** 64 BIT LINUX VERSION ****************

  SINCE 1993, STUDENTS AND POSTDOCS WORKING AT IOWA STATE UNIVERSITY
  AND ALSO IN THEIR VARIOUS JOBS AFTER LEAVING ISU HAVE MADE IMPORTANT
  CONTRIBUTIONS TO THE CODE:
     IVANA ADAMOVIC, CHRISTINE AIKENS, YURI ALEXEEV, POOJA ARORA,
     ANDREY ASADCHEV, ROB BELL, PRADIPTA BANDYOPADHYAY, JONATHAN BENTZ,
     BRETT BODE, GALINA CHABAN, WEI CHEN, CHEOL HO CHOI, PAUL DAY,
     ALBERT DEFUSCO, TIM DUDLEY, DMITRI FEDOROV, GRAHAM FLETCHER,
     MARK FREITAG, KURT GLAESEMANN, DAN KEMP, GRANT MERRILL,
     NORIYUKI MINEZAWA, JONATHAN MULLIN, TAKESHI NAGATA,
     SEAN NEDD, HEATHER NETZLOFF, BOSILJKA NJEGIC, RYAN OLSON, MIKE PAK,
     JIM SHOEMAKER, LYUDMILA SLIPCHENKO, SAROM SOK, JIE SONG,
     TETSUYA TAKETSUGU, SIMON WEBB, SOOHAENG YOO, FEDERICO ZAHARIEV

  ADDITIONAL CODE HAS BEEN PROVIDED BY COLLABORATORS IN OTHER GROUPS:
     IOWA STATE UNIVERSITY:
          JOE IVANIC, LAIMUTIS BYTAUTAS, KLAUS RUEDENBERG
     UNIVERSITY OF TOKYO: KIMIHIKO HIRAO, TAKAHITO NAKAJIMA,
          TAKAO TSUNEDA, MUNEAKI KAMIYA, SUSUMU YANAGISAWA,
          KIYOSHI YAGI, MAHITO CHIBA, SEIKEN TOKURA, NAOAKI KAWAKAMI
     UNIVERSITY OF AARHUS: FRANK JENSEN
     UNIVERSITY OF IOWA: VISVALDAS KAIRYS, HUI LI
     NATIONAL INST. OF STANDARDS AND TECHNOLOGY: WALT STEVENS, DAVID GARMER
     UNIVERSITY OF PISA: BENEDETTA MENNUCCI, JACOPO TOMASI
     UNIVERSITY OF MEMPHIS: HENRY KURTZ, PRAKASHAN KORAMBATH
     UNIVERSITY OF ALBERTA: TOBY ZENG, MARIUSZ KLOBUKOWSKI
     UNIVERSITY OF NEW ENGLAND: MARK SPACKMAN
     MIE UNIVERSITY: HIROAKI UMEDA
     MICHIGAN STATE UNIVERSITY:
          KAROL KOWALSKI, MARTA WLOCH, JEFFREY GOUR, JESSE LUTZ, PIOTR PIECUCH
     UNIVERSITY OF SILESIA: MONIKA MUSIAL, STANISLAW KUCHARSKI
     FACULTES UNIVERSITAIRES NOTRE-DAME DE LA PAIX:
          OLIVIER QUINET, BENOIT CHAMPAGNE
     UNIVERSITY OF CALIFORNIA - SANTA BARBARA: BERNARD KIRTMAN
     INSTITUTE FOR MOLECULAR SCIENCE:
          KAZUYA ISHIMURA, MICHIO KATOUDA, AND SHIGERU NAGASE
     UNIVERSITY OF NOTRE DAME: DAN CHIPMAN
     KYUSHU UNIVERSITY:
          HARUYUKI NAKANO,
          FENG LONG GU, JACEK KORCHOWIEC, MARCIN MAKOWSKI, AND YURIKO AOKI,
          HIROTOSHI MORI AND EISAKU MIYOSHI
     PENNSYLVANIA STATE UNIVERSITY:
          TZVETELIN IORDANOV, CHET SWALINA, JONATHAN SKONE,
          SHARON HAMMES-SCHIFFER
     WASEDA UNIVERSITY:
          MASATO KOBAYASHI, TOMOKO AKAMA, TSUGUKI TOUMA,
          TAKESHI YOSHIKAWA, YASUHIRO IKABATA, HIROMI NAKAI
     UNIVERSITY OF NEBRASKA:
          PEIFENG SU, DEJUN SI, NANDUN THELLAMUREGE, YALI WANG, HUI LI
     UNIVERSITY OF ZURICH:
          ROBERTO PEVERATI, KIM BALDRIDGE
     N. COPERNICUS UNIVERSITY AND JACKSON STATE UNIVERSITY:
          MARIA BARYSZ

 EXECUTION OF GAMESS BEGUN Thu Feb 26 00:14:14 2015

            ECHO OF THE FIRST FEW INPUT CARDS -
 INPUT CARD> $BASIS GBASIS=PC1 $END                                                         
 INPUT CARD> $CONTRL COORD=ZMT ISPHER=1 RUNTYP=ENERGY DFTTYP=PBE $END                       
 INPUT CARD>                                                                                
 INPUT CARD> $DATA                                                                          
 INPUT CARD>Title                                                                           
 INPUT CARD>Cnv 2                                                                           
 INPUT CARD>                                                                                
 INPUT CARD>S                                                                               
 INPUT CARD>O 1 1.30                                                                        
 INPUT CARD>O 1 1.30 2 120.0                                                                
 INPUT CARD> $END                                                                           
    1000000 WORDS OF MEMORY AVAILABLE

     BASIS OPTIONS
     -------------
     GBASIS=PC1          IGAUSS=       0      POLAR=NONE    
     NDFUNC=       0     NFFUNC=       0     DIFFSP=       F
     NPFUNC=       0      DIFFS=       F     BASNAM=        


     RUN TITLE
     ---------
 Title                                                                           

 THE POINT GROUP OF THE MOLECULE IS CNV     
 THE ORDER OF THE PRINCIPAL AXIS IS     2

 YOUR FULLY SUBSTITUTED Z-MATRIX IS
 S   
 O      1   1.3000000
 O      1   1.3000000  2  120.0000

 THE MOMENTS OF INERTIA ARE (AMU-ANGSTROM**2)
 IXX=     6.756   IYY=    40.547   IZZ=    47.303

 ATOM      ATOMIC                      COORDINATES (BOHR)
           CHARGE         X                   Y                   Z
 S          16.0     0.0000000000        0.0000000000       -0.6143313812
 O           8.0    -2.1275159250        0.0000000000        0.6139905108
 O           8.0     2.1275159250        0.0000000000        0.6139905108

          INTERNUCLEAR DISTANCES (ANGS.)
          ------------------------------

                1 S          2 O          3 O     

   1 S       0.0000000    1.3000000 *  1.3000000 *
   2 O       1.3000000 *  0.0000000    2.2516660 *
   3 O       1.3000000 *  2.2516660 *  0.0000000  

  * ... LESS THAN  3.000


     ATOMIC BASIS SET
     ----------------
 THE CONTRACTED PRIMITIVE FUNCTIONS HAVE BEEN UNNORMALIZED
 THE CONTRACTED BASIS FUNCTIONS ARE NOW NORMALIZED TO UNITY

  SHELL TYPE  PRIMITIVE        EXPONENT          CONTRACTION COEFFICIENT(S)

 S         

      1   S       1         55510.0000000    0.000587229760
      1   S       2          8326.7000000    0.004532413947
      1   S       3          1895.6000000    0.023265261648
      1   S       4           536.7700000    0.089696133027
      1   S       5           174.6700000    0.254098332277
      1   S       6            62.5780000    0.438665087637
      1   S       7            23.5730000    0.314547135094
      1   S       8             5.8908000    0.032727897102

      2   S       9          8326.7000000   -0.000019755715
      2   S      10          1895.6000000   -0.000043822381
      2   S      11           536.7700000   -0.001730264906
      2   S      12           174.6700000   -0.009381263460
      2   S      13            62.5780000   -0.064050766303
      2   S      14            23.5730000   -0.082478179196
      2   S      15             5.8908000    0.478342956889
      2   S      16             2.1852000    0.626896670208

      3   S      17          1895.6000000    0.000016227260
      3   S      18           536.7700000    0.000191135619
      3   S      19           174.6700000    0.001952069674
      3   S      20            62.5780000    0.010578701087
      3   S      21            23.5730000    0.022164934551
      3   S      22             5.8908000   -0.184968323118
      3   S      23             2.1852000   -0.480920750976
      3   S      24             0.4528200    1.243822243872

      4   S      25             0.1620200    1.000000000000

      5   P      26           395.4500000    0.004642761329
      5   P      27            92.8340000    0.036023396489
      5   P      28            29.2660000    0.149058869978
      5   P      29            10.5950000    0.360033266263
      5   P      30             4.0272000    0.455756476221
      5   P      31             1.5484000    0.206167664178

      6   P      32            92.8340000    0.000169901442
      6   P      33            29.2660000   -0.002541839934
      6   P      34            10.5950000   -0.007867614595
      6   P      35             4.0272000   -0.037231009184
      6   P      36             1.5484000    0.161417246830
      6   P      37             0.4613400    0.902230419976

      7   P      38             0.1313100    1.000000000000

      8   D      39             0.5500000    1.000000000000

 O         

     15   S      40          2306.7000000    0.005424388755
     15   S      41           347.1500000    0.040474749465
     15   S      42            78.8900000    0.180219634554
     15   S      43            21.8760000    0.462370311787
     15   S      44             6.6646000    0.454888396263

     16   S      45           347.1500000   -0.000655003786
     16   S      46            78.8900000   -0.005362052952
     16   S      47            21.8760000   -0.074902158894
     16   S      48             6.6646000   -0.181442579655
     16   S      49             1.0669000    1.102006874042

     17   S      50             0.3070000    1.000000000000

     18   P      51            17.0220000    0.068979967443
     18   P      52             3.6838000    0.351985516325
     18   P      53             0.9923400    0.724036547822

     19   P      54             0.2448700    1.000000000000

     20   D      55             1.0000000    1.000000000000

 TOTAL NUMBER OF BASIS SET SHELLS             =   20
 NUMBER OF CARTESIAN GAUSSIAN BASIS FUNCTIONS =   49
 NOTE: THIS RUN WILL RESTRICT THE MO VARIATION SPACE TO SPHERICAL HARMONICS.
 THE NUMBER OF ORBITALS KEPT IN THE VARIATIONAL SPACE WILL BE PRINTED LATER.
 NUMBER OF ELECTRONS                          =   32
 CHARGE OF MOLECULE                           =    0
 SPIN MULTIPLICITY                            =    1
 NUMBER OF OCCUPIED ORBITALS (ALPHA)          =   16
 NUMBER OF OCCUPIED ORBITALS (BETA )          =   16
 TOTAL NUMBER OF ATOMS                        =    3
 THE NUCLEAR REPULSION ENERGY IS      119.2482276558

     LEBEDEV GRID-BASED DFT OPTIONS
     ------------------------------
     DFTTYP=PBE     
     NRAD  =      96     NLEB  =     302
     NRAD0 =      24     NLEB0 =     110
     SWOFF =    5.00E-03 (PURE SCF -> DFT)
     SWITCH=    3.00E-04 (COARSE -> TIGHT GRID)
     THRESH=    0.00E+00 GTHRE=    1.00E+00

 GRIMME'S EMPIRICAL DISPERSION CORRECTION= F

     $CONTRL OPTIONS
     ---------------
 SCFTYP=RHF          RUNTYP=ENERGY       EXETYP=RUN     
 MPLEVL=       0     CITYP =NONE         CCTYP =NONE         VBTYP =NONE    
 DFTTYP=PBE          TDDFT =NONE    
 MULT  =       1     ICHARG=       0     NZVAR =       0     COORD =ZMT     
 PP    =NONE         RELWFN=NONE         LOCAL =NONE         NUMGRD=       F
 ISPHER=       1     NOSYM =       0     MAXIT =      30     UNITS =ANGS    
 PLTORB=       F     MOLPLT=       F     AIMPAC=       F     FRIEND=        
 NPRINT=       7     IREST =       0     GEOM  =INPUT   
 NORMF =       0     NORMP =       0     ITOL  =      20     ICUT  =       9
 INTTYP=BEST         GRDTYP=BEST         QMTTOL= 1.0E-06

     $SYSTEM OPTIONS
     ---------------
  REPLICATED MEMORY=     1000000 WORDS (ON EVERY NODE).
 DISTRIBUTED MEMDDI=           0 MILLION WORDS IN AGGREGATE,
 MEMDDI DISTRIBUTED OVER   1 PROCESSORS IS           0 WORDS/PROCESSOR.
 TOTAL MEMORY REQUESTED ON EACH PROCESSOR=     1000000 WORDS.
 TIMLIM=      525600.00 MINUTES, OR     365.0 DAYS.
 PARALL= F  BALTYP=  DLB     KDIAG=    0  COREFL= F
 MXSEQ2=     300 MXSEQ3=     150

          ----------------
          PROPERTIES INPUT
          ----------------

     MOMENTS            FIELD           POTENTIAL          DENSITY
 IEMOM =       1   IEFLD =       0   IEPOT =       0   IEDEN =       0
 WHERE =COMASS     WHERE =NUCLEI     WHERE =NUCLEI     WHERE =NUCLEI  
 OUTPUT=BOTH       OUTPUT=BOTH       OUTPUT=BOTH       OUTPUT=BOTH    
 IEMINT=       0   IEFINT=       0                     IEDINT=       0
                                                       MORB  =       0
          EXTRAPOLATION IN EFFECT
          DIIS IN EFFECT
 ORBITAL PRINTING OPTION: NPREO=     1    49     2     1

     -------------------------------
     INTEGRAL TRANSFORMATION OPTIONS
     -------------------------------
     NWORD  =            0
     CUTOFF = 1.0E-09     MPTRAN =       0
     DIRTRF =       F     AOINTS =DUP     

          ----------------------
          INTEGRAL INPUT OPTIONS
          ----------------------
 NOPK  =       1 NORDER=       0 SCHWRZ=       F

   --- ENCODED Z MATRIX ---
 COORD  TYPE   I   J   K   L   M   N
    1      1    3   1
    2      1    2   1
    3      2    2   1   3

 THE DETERMINANT OF THE G MATRIX IS 10**(    -4)

 THE DETERMINANT OF THE G MATRIX IS 10**(    -4)
 * * * WARNING * * *
 YOUR B MATRIX HAS A SMALL DETERMINANT.
 THIS SUGGESTS YOU MAY HAVE BADLY CHOSEN COORDINATES.

     ------------------------------------------
     THE POINT GROUP IS CNV, NAXIS= 2, ORDER= 4
     ------------------------------------------

 -- VARIATIONAL SPACE WILL BE RESTRICTED TO PURE SPHERICAL HARMONICS ONLY --
 AFTER EXCLUDING CONTAMINANT COMBINATIONS FROM THE CARTESIAN GAUSSIAN BASIS
 SET, THE NUMBER OF SPHERICAL HARMONICS KEPT IN THE VARIATION SPACE IS   46

     DIMENSIONS OF THE SYMMETRY SUBSPACES ARE
 A1  =   19     A2  =    5     B1  =   14     B2  =    8

 ..... DONE SETTING UP THE RUN .....
 STEP CPU TIME =     0.01 TOTAL CPU TIME =        0.0 (    0.0 MIN)
 TOTAL WALL CLOCK TIME=        0.0 SECONDS, CPU UTILIZATION IS  50.00%

          ********************
          1 ELECTRON INTEGRALS
          ********************
 ...... END OF ONE-ELECTRON INTEGRALS ......
 STEP CPU TIME =     0.00 TOTAL CPU TIME =        0.0 (    0.0 MIN)
 TOTAL WALL CLOCK TIME=        0.0 SECONDS, CPU UTILIZATION IS  50.00%

          -------------
          GUESS OPTIONS
          -------------
          GUESS =HUCKEL            NORB  =       0          NORDER=       0
          MIX   =       F          PRTMO =       F          PUNMO =       F
          TOLZ  = 1.0E-08          TOLE  = 1.0E-05
          SYMDEN=       F          PURIFY=       F

 INITIAL GUESS ORBITALS GENERATED BY HUCKEL   ROUTINE.
 HUCKEL GUESS REQUIRES     21583 WORDS.

 STATISTICS FOR GENERATION OF SYMMETRY ORBITAL -Q- MATRIX
 NUMBER OF CARTESIAN ATOMIC ORBITALS=         49
 NUMBER OF SPHERICAL CONTAMINANTS DROPPED=     3
 NUMBER OF LINEARLY DEPENDENT MOS DROPPED=     0
 TOTAL NUMBER OF MOS IN VARIATION SPACE=      46

 SYMMETRIES FOR INITIAL GUESS ORBITALS FOLLOW.   BOTH SET(S).
    16 ORBITALS ARE OCCUPIED (    7 CORE ORBITALS).
     8=?A1      9=?B1     10=?A1     11=B2      12=?A1     13=?B1     14=A2  
    15=?B1     16=?A1     17=B2      18=?B1     19=?A1     20=A1      21=A1  
    22=A1      23=A1      24=A1      25=A1      26=A1  
 ...... END OF INITIAL ORBITAL SELECTION ......
 STEP CPU TIME =     0.01 TOTAL CPU TIME =        0.0 (    0.0 MIN)
 TOTAL WALL CLOCK TIME=        0.0 SECONDS, CPU UTILIZATION IS  66.67%

                    ----------------------
                    AO INTEGRAL TECHNOLOGY
                    ----------------------
     S,P,L SHELL ROTATED AXIS INTEGRALS, REPROGRAMMED BY
        KAZUYA ISHIMURA (IMS) AND JOSE SIERRA (SYNSTAR).
     S,P,D,L SHELL ROTATED AXIS INTEGRALS PROGRAMMED BY
        KAZUYA ISHIMURA (INSTITUTE FOR MOLECULAR SCIENCE).
     S,P,D,F,G SHELL TO TOTAL QUARTET ANGULAR MOMENTUM SUM 5,
        ERIC PROGRAM BY GRAHAM FLETCHER (ELORET AND NASA ADVANCED
        SUPERCOMPUTING DIVISION, AMES RESEARCH CENTER).
     S,P,D,F,G,L SHELL GENERAL RYS QUADRATURE PROGRAMMED BY
        MICHEL DUPUIS (PACIFIC NORTHWEST NATIONAL LABORATORY).

          --------------------
          2 ELECTRON INTEGRALS
          --------------------

 THE -PK- OPTION IS OFF, THE INTEGRALS ARE NOT IN SUPERMATRIX FORM.
 STORING   15000 INTEGRALS/RECORD ON DISK, USING 12 BYTES/INTEGRAL.
 TWO ELECTRON INTEGRAL EVALUATION REQUIRES   90606 WORDS OF MEMORY.
 II,JST,KST,LST =  1  1  1  1 NREC =         1 INTLOC =    1
 II,JST,KST,LST =  2  1  1  1 NREC =         1 INTLOC =    2
 II,JST,KST,LST =  3  1  1  1 NREC =         1 INTLOC =    7
 II,JST,KST,LST =  4  1  1  1 NREC =         1 INTLOC =   22
 II,JST,KST,LST =  5  1  1  1 NREC =         1 INTLOC =   56
 II,JST,KST,LST =  6  1  1  1 NREC =         1 INTLOC =  125
 II,JST,KST,LST =  7  1  1  1 NREC =         1 INTLOC =  329
 II,JST,KST,LST =  8  1  1  1 NREC =         1 INTLOC =  776
 II,JST,KST,LST =  9  1  1  1 NREC =         1 INTLOC = 2864
 II,JST,KST,LST = 10  1  1  1 NREC =         1 INTLOC = 2864
 II,JST,KST,LST = 11  1  1  1 NREC =         1 INTLOC = 2864
 II,JST,KST,LST = 12  1  1  1 NREC =         1 INTLOC = 2864
 II,JST,KST,LST = 13  1  1  1 NREC =         1 INTLOC = 2864
 II,JST,KST,LST = 14  1  1  1 NREC =         1 INTLOC = 2864
 II,JST,KST,LST = 15  1  1  1 NREC =         1 INTLOC = 2864
 II,JST,KST,LST = 16  1  1  1 NREC =         1 INTLOC = 5132
 II,JST,KST,LST = 17  1  1  1 NREC =         1 INTLOC = 8438
 II,JST,KST,LST = 18  1  1  1 NREC =         1 INTLOC =12904
 II,JST,KST,LST = 19  1  1  1 NREC =         3 INTLOC = 1098
 II,JST,KST,LST = 20  1  1  1 NREC =         5 INTLOC = 2461
 TOTAL NUMBER OF NONZERO TWO-ELECTRON INTEGRALS =              180922
         13 INTEGRAL RECORDS WERE STORED ON DISK FILE  8.
  ...... END OF TWO-ELECTRON INTEGRALS .....
 STEP CPU TIME =     0.16 TOTAL CPU TIME =        0.2 (    0.0 MIN)
 TOTAL WALL CLOCK TIME=        0.2 SECONDS, CPU UTILIZATION IS  94.74%

          --------------------------
               R-PBE SCF CALCULATION
          --------------------------

     NUCLEAR ENERGY =       119.2482276558
     MAXIT =   30     NPUNCH=    2
     EXTRAP=T  DAMP=F  SHIFT=F  RSTRCT=F  DIIS=T  DEM=F  SOSCF=F
         DENSITY MATRIX CONVERGENCE THRESHOLD=  1.00E-05
     COARSE -> FINE DFT GRID SWITCH THRESHOLD=  3.00E-04 (SWITCH IN $DFT)
                   HF -> DFT SWITCH THRESHOLD=  5.00E-03 (SWOFF IN $DFT)
     MEMORY REQUIRED FOR RHF ITERS=    183108 WORDS.

 DFT CODE IS SWITCHING FROM THE FINE GRID NRAD= 96,  NLEB=  302
                      TO THE COARSE GRID NRAD0= 24, NLEB0=  110

     EXCHANGE FUNCTIONAL   =PBE       
     CORRELATION FUNCTIONAL=PBE       
     DFT THRESHOLD         =.460E-07
     GRID CHANGE THRESHOLD =.300E-03
 FOR AN EULER-MACLAURIN QUADRATURE USING  96 RADIAL POINTS:
 SMALLEST GAUSSIAN PRIMITIVE EXPONENT=        0.1313100000 OF TYPE -P-
 ON ATOM NUMBER   1 HAS RADIAL NORMALIZATION=  1.000000
  LARGEST GAUSSIAN PRIMITIVE EXPONENT=    55510.0000000000 OF TYPE -S-
 ON ATOM NUMBER   1 HAS RADIAL NORMALIZATION=  0.999999
 DFT IS SWITCHED OFF, PERFORMING PURE SCF UNTIL SWOFF THRESHOLD IS REACHED.

 ITER EX DEM     TOTAL ENERGY        E CHANGE  DENSITY CHANGE    DIIS ERROR
   1  0  0     -545.9431869814  -545.9431869814   0.317140704   1.352733235
          * * *   INITIATING DIIS PROCEDURE   * * *
   2  1  0     -546.9418843286    -0.9986973472   0.462504684   0.187232734
   3  2  0     -547.0284059679    -0.0865216393   0.075837734   0.136499414
   4  3  0     -547.0669088480    -0.0385028801   0.047250414   0.015551022
   5  4  0     -547.0680198075    -0.0011109594   0.025469952   0.004791998
   6  5  0     -547.0681668657    -0.0001470583   0.006260096   0.001254873
   7  6  0     -547.0681817308    -0.0000148650   0.000249218   0.000176001
 CONVERGED TO SWOFF, SO DFT CALCULATION IS NOW SWITCHED ON.
 DFT CODE IS SWITCHING BACK TO THE FINE GRID
          * * *   INITIATING DIIS PROCEDURE   * * *
   8  7  0     -548.1320286066    -1.0638468758   0.160334238   0.095240906
   9  8  0     -548.1487208327    -0.0166922261   0.116275254   0.050755575
  10  9  0     -548.1466966816     0.0020241510   0.047668225   0.063650498
  11 10  0     -548.1567932935    -0.0100966119   0.013752104   0.009831589
  12 11  0     -548.1569772751    -0.0001839816   0.000388992   0.000720997
  13 12  0     -548.1569780041    -0.0000007290   0.000247107   0.000056716
  14 13  0     -548.1569780177    -0.0000000136   0.000023626   0.000008763
  15 14  0     -548.1569780180    -0.0000000003   0.000000729   0.000001745
  16 15  0     -548.1569780180     0.0000000000   0.000000333   0.000000043

          -----------------
          DENSITY CONVERGED
          -----------------
     TIME TO FORM FOCK OPERATORS=       4.6 SECONDS (       0.3 SEC/ITER)
     TIME TO SOLVE SCF EQUATIONS=       0.0 SECONDS (       0.0 SEC/ITER)

 FINAL R-PBE ENERGY IS     -548.1569780180 AFTER  16 ITERATIONS
 DFT EXCHANGE + CORRELATION ENERGY =       -42.8290206622
 TOTAL ELECTRON NUMBER             =        31.9999990263

          ------------
          EIGENVECTORS
          ------------

                      1          2          3          4          5
                  -88.1802   -18.7754   -18.7754    -7.8190    -5.8400
                     A1         B1         A1         A1         B1  
    1  S  1  S    1.002986   0.000000  -0.000069  -0.273906   0.000000
    2  S  1  S   -0.010209   0.000000   0.000193   1.039472   0.000000
    3  S  1  S    0.002007   0.000000  -0.000592   0.042653   0.000000
    4  S  1  S   -0.000473   0.000000   0.012554  -0.009424   0.000000
    5  S  1  X    0.000000  -0.000322   0.000000   0.000000   0.995624
    6  S  1  Y    0.000000   0.000000   0.000000   0.000000   0.000000
    7  S  1  Z    0.000050   0.000000   0.000001   0.013502   0.000000
    8  S  1  X    0.000000  -0.000077   0.000000   0.000000   0.011666
    9  S  1  Y    0.000000   0.000000   0.000000   0.000000   0.000000
   10  S  1  Z    0.000226   0.000000   0.001164   0.002646   0.000000
   11  S  1  X    0.000000  -0.005248   0.000000   0.000000  -0.000166
   12  S  1  Y    0.000000   0.000000   0.000000   0.000000   0.000000
   13  S  1  Z    0.000030   0.000000   0.004917  -0.000291   0.000000
   14  S  1 XX    0.000203   0.000000  -0.000398   0.001860   0.000000
   15  S  1 YY   -0.000142   0.000000  -0.000192  -0.001131   0.000000
   16  S  1 ZZ   -0.000061   0.000000   0.000589  -0.000729   0.000000
   17  S  1 XY    0.000000   0.000000   0.000000   0.000000   0.000000
   18  S  1 XZ    0.000000   0.001319   0.000000   0.000000   0.002199
   19  S  1 YZ    0.000000   0.000000   0.000000   0.000000   0.000000
   20  O  2  S    0.000015   0.703202   0.703265  -0.000509   0.001155
   21  O  2  S    0.000015   0.026389   0.026662  -0.000009  -0.001258
   22  O  2  S   -0.000316  -0.012429  -0.015268  -0.001461   0.000612
   23  O  2  X   -0.000108   0.001472   0.001116  -0.000046  -0.001653
   24  O  2  Y    0.000000   0.000000   0.000000   0.000000   0.000000
   25  O  2  Z    0.000065  -0.000849  -0.000531   0.000048   0.001197
   26  O  2  X   -0.000242  -0.001860  -0.003955  -0.001843   0.000449
   27  O  2  Y    0.000000   0.000000   0.000000   0.000000   0.000000
   28  O  2  Z    0.000172   0.001996   0.000944   0.001422  -0.000099
   29  O  2 XX   -0.000073   0.000140  -0.000291   0.000354  -0.000484
   30  O  2 YY    0.000075   0.000081   0.000039  -0.000163   0.000636
   31  O  2 ZZ   -0.000002  -0.000221   0.000252  -0.000192  -0.000152
   32  O  2 XY    0.000000   0.000000   0.000000   0.000000   0.000000
   33  O  2 XZ    0.000117  -0.000012   0.000072  -0.000221   0.001051
   34  O  2 YZ    0.000000   0.000000   0.000000   0.000000   0.000000
   35  O  3  S    0.000015  -0.703202   0.703265  -0.000509  -0.001155
   36  O  3  S    0.000015  -0.026389   0.026662  -0.000009   0.001258
   37  O  3  S   -0.000316   0.012429  -0.015268  -0.001461  -0.000612
   38  O  3  X    0.000108   0.001472  -0.001116   0.000046  -0.001653
   39  O  3  Y    0.000000   0.000000   0.000000   0.000000   0.000000
   40  O  3  Z    0.000065   0.000849  -0.000531   0.000048  -0.001197
   41  O  3  X    0.000242  -0.001860   0.003955   0.001843   0.000449
   42  O  3  Y    0.000000   0.000000   0.000000   0.000000   0.000000
   43  O  3  Z    0.000172  -0.001996   0.000944   0.001422   0.000099
   44  O  3 XX   -0.000073  -0.000140  -0.000291   0.000354   0.000484
   45  O  3 YY    0.000075  -0.000081   0.000039  -0.000163  -0.000636
   46  O  3 ZZ   -0.000002   0.000221   0.000252  -0.000192   0.000152
   47  O  3 XY    0.000000   0.000000   0.000000   0.000000   0.000000
   48  O  3 XZ   -0.000117  -0.000012  -0.000072   0.000221   0.001051
   49  O  3 YZ    0.000000   0.000000   0.000000   0.000000   0.000000

                      6          7          8          9         10
                   -5.8373    -5.8307    -1.1394    -1.0254    -0.5419
                     B2         A1         A1         B1         A1  
    1  S  1  S    0.000000   0.003990   0.056653   0.000000   0.058543
    2  S  1  S    0.000000  -0.015054  -0.166525   0.000000  -0.157290
    3  S  1  S    0.000000   0.000581   0.317638   0.000000   0.380470
    4  S  1  S    0.000000  -0.000569   0.094220   0.000000   0.315305
    5  S  1  X    0.000000   0.000000   0.000000  -0.171520   0.000000
    6  S  1  Y    0.996552   0.000000   0.000000   0.000000   0.000000
    7  S  1  Z    0.000000   0.996324  -0.081315   0.000000   0.080982
    8  S  1  X    0.000000   0.000000   0.000000   0.313769   0.000000
    9  S  1  Y    0.009927   0.000000   0.000000   0.000000   0.000000
   10  S  1  Z    0.000000   0.009808   0.139432   0.000000  -0.171984
   11  S  1  X    0.000000   0.000000   0.000000   0.017299   0.000000
   12  S  1  Y   -0.000440   0.000000   0.000000   0.000000   0.000000
   13  S  1  Z    0.000000  -0.000377  -0.010390   0.000000  -0.110527
   14  S  1 XX    0.000000  -0.000595   0.050670   0.000000   0.006240
   15  S  1 YY    0.000000  -0.000670  -0.040177   0.000000   0.024172
   16  S  1 ZZ    0.000000   0.001265  -0.010493   0.000000  -0.030412
   17  S  1 XY    0.000000   0.000000   0.000000   0.000000   0.000000
   18  S  1 XZ    0.000000   0.000000   0.000000   0.097176   0.000000
   19  S  1 YZ    0.000997   0.000000   0.000000   0.000000   0.000000
   20  O  2  S    0.000000  -0.000659  -0.122290   0.144708   0.093402
   21  O  2  S    0.000000   0.000813   0.236226  -0.281994  -0.190379
   22  O  2  S    0.000000   0.000371   0.239082  -0.285629  -0.325337
   23  O  2  X    0.000000   0.001348   0.129710  -0.111695   0.127137
   24  O  2  Y    0.000296   0.000000   0.000000   0.000000   0.000000
   25  O  2  Z    0.000000  -0.000510  -0.063388   0.075488  -0.180347
   26  O  2  X    0.000000  -0.000060   0.037794  -0.019745   0.062811
   27  O  2  Y   -0.000129   0.000000   0.000000   0.000000   0.000000
   28  O  2  Z    0.000000  -0.000232  -0.013525   0.018104  -0.084497
   29  O  2 XX    0.000000   0.000613   0.013350  -0.005074   0.001542
   30  O  2 YY    0.000000  -0.000337  -0.007408   0.005659  -0.006172
   31  O  2 ZZ    0.000000  -0.000276  -0.005942  -0.000585   0.004630
   32  O  2 XY    0.000260   0.000000   0.000000   0.000000   0.000000
   33  O  2 XZ    0.000000  -0.000506  -0.012487   0.011866  -0.012532
   34  O  2 YZ   -0.000209   0.000000   0.000000   0.000000   0.000000
   35  O  3  S    0.000000  -0.000659  -0.122290  -0.144708   0.093402
   36  O  3  S    0.000000   0.000813   0.236226   0.281994  -0.190379
   37  O  3  S    0.000000   0.000371   0.239082   0.285629  -0.325337
   38  O  3  X    0.000000  -0.001348  -0.129710  -0.111695  -0.127137
   39  O  3  Y    0.000296   0.000000   0.000000   0.000000   0.000000
   40  O  3  Z    0.000000  -0.000510  -0.063388  -0.075488  -0.180347
   41  O  3  X    0.000000   0.000060  -0.037794  -0.019745  -0.062811
   42  O  3  Y   -0.000129   0.000000   0.000000   0.000000   0.000000
   43  O  3  Z    0.000000  -0.000232  -0.013525  -0.018104  -0.084497
   44  O  3 XX    0.000000   0.000613   0.013350   0.005074   0.001542
   45  O  3 YY    0.000000  -0.000337  -0.007408  -0.005659  -0.006172
   46  O  3 ZZ    0.000000  -0.000276  -0.005942   0.000585   0.004630
   47  O  3 XY   -0.000260   0.000000   0.000000   0.000000   0.000000
   48  O  3 XZ    0.000000   0.000506   0.012487   0.011866   0.012532
   49  O  3 YZ   -0.000209   0.000000   0.000000   0.000000   0.000000

                     11         12         13         14         15
                   -0.4930    -0.4719    -0.4383    -0.3579    -0.3241
                     B2         A1         B1         A2         B1  
    1  S  1  S    0.000000   0.004128   0.000000   0.000000   0.000000
    2  S  1  S    0.000000   0.007782   0.000000   0.000000   0.000000
    3  S  1  S    0.000000   0.050545   0.000000   0.000000   0.000000
    4  S  1  S    0.000000  -0.152015   0.000000   0.000000   0.000000
    5  S  1  X    0.000000   0.000000  -0.159821   0.000000  -0.004829
    6  S  1  Y   -0.204381   0.000000   0.000000   0.000000   0.000000
    7  S  1  Z    0.000000  -0.171441   0.000000   0.000000   0.000000
    8  S  1  X    0.000000   0.000000   0.364956   0.000000   0.005100
    9  S  1  Y    0.465324   0.000000   0.000000   0.000000   0.000000
   10  S  1  Z    0.000000   0.386087   0.000000   0.000000   0.000000
   11  S  1  X    0.000000   0.000000   0.007259   0.000000   0.114088
   12  S  1  Y    0.187827   0.000000   0.000000   0.000000   0.000000
   13  S  1  Z    0.000000   0.107188   0.000000   0.000000   0.000000
   14  S  1 XX    0.000000  -0.087664   0.000000   0.000000   0.000000
   15  S  1 YY    0.000000  -0.004402   0.000000   0.000000   0.000000
   16  S  1 ZZ    0.000000   0.092066   0.000000   0.000000   0.000000
   17  S  1 XY    0.000000   0.000000   0.000000  -0.161517   0.000000
   18  S  1 XZ    0.000000   0.000000   0.029388   0.000000  -0.147713
   19  S  1 YZ    0.067229   0.000000   0.000000   0.000000   0.000000
   20  O  2  S    0.000000   0.047213  -0.069465   0.000000  -0.000721
   21  O  2  S    0.000000  -0.095950   0.141352   0.000000  -0.002622
   22  O  2  S    0.000000  -0.160634   0.280248   0.000000   0.011753
   23  O  2  X    0.000000   0.308273  -0.270119   0.000000   0.355420
   24  O  2  Y    0.321861   0.000000   0.000000   0.460359   0.000000
   25  O  2  Z    0.000000   0.165694   0.280312   0.000000   0.313104
   26  O  2  X    0.000000   0.180833  -0.134380   0.000000   0.220277
   27  O  2  Y    0.175495   0.000000   0.000000   0.311415   0.000000
   28  O  2  Z    0.000000   0.092448   0.158524   0.000000   0.219065
   29  O  2 XX    0.000000   0.022412  -0.004838   0.000000   0.023728
   30  O  2 YY    0.000000  -0.006794   0.010892   0.000000  -0.001782
   31  O  2 ZZ    0.000000  -0.015619  -0.006054   0.000000  -0.021946
   32  O  2 XY    0.024473   0.000000   0.000000   0.021319   0.000000
   33  O  2 XZ    0.000000   0.002026   0.018855   0.000000   0.009766
   34  O  2 YZ   -0.013232   0.000000   0.000000  -0.012693   0.000000
   35  O  3  S    0.000000   0.047213   0.069465   0.000000   0.000721
   36  O  3  S    0.000000  -0.095950  -0.141352   0.000000   0.002622
   37  O  3  S    0.000000  -0.160634  -0.280248   0.000000  -0.011753
   38  O  3  X    0.000000  -0.308273  -0.270119   0.000000   0.355420
   39  O  3  Y    0.321861   0.000000   0.000000  -0.460359   0.000000
   40  O  3  Z    0.000000   0.165694  -0.280312   0.000000  -0.313104
   41  O  3  X    0.000000  -0.180833  -0.134380   0.000000   0.220277
   42  O  3  Y    0.175495   0.000000   0.000000  -0.311415   0.000000
   43  O  3  Z    0.000000   0.092448  -0.158524   0.000000  -0.219065
   44  O  3 XX    0.000000   0.022412   0.004838   0.000000  -0.023728
   45  O  3 YY    0.000000  -0.006794  -0.010892   0.000000   0.001782
   46  O  3 ZZ    0.000000  -0.015619   0.006054   0.000000   0.021946
   47  O  3 XY   -0.024473   0.000000   0.000000   0.021319   0.000000
   48  O  3 XZ    0.000000  -0.002026   0.018855   0.000000   0.009766
   49  O  3 YZ   -0.013232   0.000000   0.000000   0.012693   0.000000

                     16         17         18         19         20
                   -0.2713    -0.1063     0.0895     0.1123     0.3378
                     A1         B2         A1         B1         B2  
    1  S  1  S    0.021570   0.000000   0.011652   0.000000   0.000000
    2  S  1  S   -0.116803   0.000000  -0.149198   0.000000   0.000000
    3  S  1  S    0.072921   0.000000  -0.059548   0.000000   0.000000
    4  S  1  S    0.727545   0.000000   1.449802   0.000000   0.000000
    5  S  1  X    0.000000   0.000000   0.000000  -0.103506   0.000000
    6  S  1  Y    0.000000  -0.207807   0.000000   0.000000   0.288073
    7  S  1  Z    0.137010   0.000000  -0.103632   0.000000   0.000000
    8  S  1  X    0.000000   0.000000   0.000000   0.273302   0.000000
    9  S  1  Y    0.000000   0.538505   0.000000   0.000000  -1.100685
   10  S  1  Z   -0.314808   0.000000   0.298168   0.000000   0.000000
   11  S  1  X    0.000000   0.000000   0.000000   1.476980   0.000000
   12  S  1  Y    0.000000   0.630119   0.000000   0.000000   1.218213
   13  S  1  Z   -0.133247   0.000000   1.161445   0.000000   0.000000
   14  S  1 XX   -0.175922   0.000000  -0.147255   0.000000   0.000000
   15  S  1 YY    0.076828   0.000000   0.266064   0.000000   0.000000
   16  S  1 ZZ    0.099095   0.000000  -0.118808   0.000000   0.000000
   17  S  1 XY    0.000000   0.000000   0.000000   0.000000   0.000000
   18  S  1 XZ    0.000000   0.000000   0.000000  -0.213724   0.000000
   19  S  1 YZ    0.000000  -0.103663   0.000000   0.000000  -0.173171
   20  O  2  S    0.012328   0.000000   0.064241  -0.059340   0.000000
   21  O  2  S   -0.023566   0.000000  -0.098278   0.080558   0.000000
   22  O  2  S   -0.097164   0.000000  -0.767071   0.767154   0.000000
   23  O  2  X   -0.088618   0.000000  -0.244395  -0.020547   0.000000
   24  O  2  Y    0.000000  -0.370312   0.000000   0.000000   0.004857
   25  O  2  Z    0.376412   0.000000  -0.075345  -0.244559   0.000000
   26  O  2  X   -0.062131   0.000000  -0.432491   0.018781   0.000000
   27  O  2  Y    0.000000  -0.376167   0.000000   0.000000  -0.067970
   28  O  2  Z    0.284803   0.000000  -0.098309  -0.315380   0.000000
   29  O  2 XX   -0.003649   0.000000  -0.009408   0.004178   0.000000
   30  O  2 YY    0.006105   0.000000   0.015906  -0.001191   0.000000
   31  O  2 ZZ   -0.002456   0.000000  -0.006498  -0.002987   0.000000
   32  O  2 XY    0.000000  -0.004521   0.000000   0.000000  -0.036214
   33  O  2 XZ    0.013886   0.000000   0.006617  -0.007954   0.000000
   34  O  2 YZ    0.000000  -0.001251   0.000000   0.000000   0.013579
   35  O  3  S    0.012328   0.000000   0.064241   0.059340   0.000000
   36  O  3  S   -0.023566   0.000000  -0.098278  -0.080558   0.000000
   37  O  3  S   -0.097164   0.000000  -0.767071  -0.767154   0.000000
   38  O  3  X    0.088618   0.000000   0.244395  -0.020547   0.000000
   39  O  3  Y    0.000000  -0.370312   0.000000   0.000000   0.004857
   40  O  3  Z    0.376412   0.000000  -0.075345   0.244559   0.000000
   41  O  3  X    0.062131   0.000000   0.432491   0.018781   0.000000
   42  O  3  Y    0.000000  -0.376167   0.000000   0.000000  -0.067970
   43  O  3  Z    0.284803   0.000000  -0.098309   0.315380   0.000000
   44  O  3 XX   -0.003649   0.000000  -0.009408  -0.004178   0.000000
   45  O  3 YY    0.006105   0.000000   0.015906   0.001191   0.000000
   46  O  3 ZZ   -0.002456   0.000000  -0.006498   0.002987   0.000000
   47  O  3 XY    0.000000   0.004521   0.000000   0.000000   0.036214
   48  O  3 XZ   -0.013886   0.000000  -0.006617  -0.007954   0.000000
   49  O  3 YZ    0.000000  -0.001251   0.000000   0.000000   0.013579

                     21         22         23         24         25
                    0.3733     0.4493     0.4670     0.5673     0.5961
                     A1         A1         B1         B2         A1  
    1  S  1  S    0.038034  -0.100323   0.000000   0.000000   0.041780
    2  S  1  S    0.124503  -0.305480   0.000000   0.000000   0.133780
    3  S  1  S    0.572556  -1.464713   0.000000   0.000000   0.633729
    4  S  1  S   -0.505348   2.579431   0.000000   0.000000   0.617356
    5  S  1  X    0.000000   0.000000   0.223809   0.000000   0.000000
    6  S  1  Y    0.000000   0.000000   0.000000   0.040431   0.000000
    7  S  1  Z    0.279415   0.042700   0.000000   0.000000  -0.072539
    8  S  1  X    0.000000   0.000000  -0.689397   0.000000   0.000000
    9  S  1  Y    0.000000   0.000000   0.000000  -0.184365   0.000000
   10  S  1  Z   -1.038199  -0.056805   0.000000   0.000000   0.365232
   11  S  1  X    0.000000   0.000000   1.288351   0.000000   0.000000
   12  S  1  Y    0.000000   0.000000   0.000000   0.306153   0.000000
   13  S  1  Z    1.058865   0.498650   0.000000   0.000000   0.300373
   14  S  1 XX    0.290441   0.414227   0.000000   0.000000  -0.022458
   15  S  1 YY   -0.174808  -0.331581   0.000000   0.000000  -0.715535
   16  S  1 ZZ   -0.115633  -0.082646   0.000000   0.000000   0.737993
   17  S  1 XY    0.000000   0.000000   0.000000   0.000000   0.000000
   18  S  1 XZ    0.000000   0.000000   0.648034   0.000000   0.000000
   19  S  1 YZ    0.000000   0.000000   0.000000   0.942405   0.000000
   20  O  2  S   -0.002432   0.022562  -0.016819   0.000000   0.044017
   21  O  2  S    0.060475   0.006869  -0.042686   0.000000  -0.108682
   22  O  2  S   -0.182732  -0.788257   0.702714   0.000000  -0.483450
   23  O  2  X    0.108377   0.263130  -0.227535   0.000000  -0.049582
   24  O  2  Y    0.000000   0.000000   0.000000  -0.288297   0.000000
   25  O  2  Z    0.002591  -0.154587   0.180072   0.000000  -0.225851
   26  O  2  X   -0.007191  -0.336612   0.304998   0.000000  -0.618641
   27  O  2  Y    0.000000   0.000000   0.000000  -0.009637   0.000000
   28  O  2  Z    0.009172   0.253440  -0.105679   0.000000   0.271463
   29  O  2 XX   -0.031917  -0.050554   0.016677   0.000000   0.035326
   30  O  2 YY    0.001877   0.031310  -0.035677   0.000000  -0.032533
   31  O  2 ZZ    0.030039   0.019244   0.018999   0.000000  -0.002793
   32  O  2 XY    0.000000   0.000000   0.000000   0.036699   0.000000
   33  O  2 XZ   -0.011167   0.048617  -0.055154   0.000000   0.032651
   34  O  2 YZ    0.000000   0.000000   0.000000   0.032444   0.000000
   35  O  3  S   -0.002432   0.022562   0.016819   0.000000   0.044017
   36  O  3  S    0.060475   0.006869   0.042686   0.000000  -0.108682
   37  O  3  S   -0.182732  -0.788257  -0.702714   0.000000  -0.483450
   38  O  3  X   -0.108377  -0.263130  -0.227535   0.000000   0.049582
   39  O  3  Y    0.000000   0.000000   0.000000  -0.288297   0.000000
   40  O  3  Z    0.002591  -0.154587  -0.180072   0.000000  -0.225851
   41  O  3  X    0.007191   0.336612   0.304998   0.000000   0.618641
   42  O  3  Y    0.000000   0.000000   0.000000  -0.009637   0.000000
   43  O  3  Z    0.009172   0.253440   0.105679   0.000000   0.271463
   44  O  3 XX   -0.031917  -0.050554  -0.016677   0.000000   0.035326
   45  O  3 YY    0.001877   0.031310   0.035677   0.000000  -0.032533
   46  O  3 ZZ    0.030039   0.019244  -0.018999   0.000000  -0.002793
   47  O  3 XY    0.000000   0.000000   0.000000  -0.036699   0.000000
   48  O  3 XZ    0.011167  -0.048617  -0.055154   0.000000  -0.032651
   49  O  3 YZ    0.000000   0.000000   0.000000   0.032444   0.000000

                     26         27         28         29         30
                    0.6387     0.6472     0.6518     0.7539     0.7740
                     A2         A1         B1         A2         A1  
    1  S  1  S    0.000000  -0.044760   0.000000   0.000000   0.022450
    2  S  1  S    0.000000  -0.236684   0.000000   0.000000   0.122456
    3  S  1  S    0.000000  -0.798069   0.000000   0.000000   0.402547
    4  S  1  S    0.000000  -0.637503   0.000000   0.000000  -0.202356
    5  S  1  X    0.000000   0.000000  -0.219882   0.000000   0.000000
    6  S  1  Y    0.000000   0.000000   0.000000   0.000000   0.000000
    7  S  1  Z    0.000000   0.090607   0.000000   0.000000  -0.056022
    8  S  1  X    0.000000   0.000000   1.191465   0.000000   0.000000
    9  S  1  Y    0.000000   0.000000   0.000000   0.000000   0.000000
   10  S  1  Z    0.000000  -0.548233   0.000000   0.000000   0.225261
   11  S  1  X    0.000000   0.000000  -0.082416   0.000000   0.000000
   12  S  1  Y    0.000000   0.000000   0.000000   0.000000   0.000000
   13  S  1  Z    0.000000   0.040001   0.000000   0.000000  -0.857251
   14  S  1 XX    0.000000  -0.367581   0.000000   0.000000   0.316973
   15  S  1 YY    0.000000  -0.103634   0.000000   0.000000   0.153640
   16  S  1 ZZ    0.000000   0.471215   0.000000   0.000000  -0.470613
   17  S  1 XY    1.004521   0.000000   0.000000   0.269634   0.000000
   18  S  1 XZ    0.000000   0.000000   0.232299   0.000000   0.000000
   19  S  1 YZ    0.000000   0.000000   0.000000   0.000000   0.000000
   20  O  2  S    0.000000  -0.038076  -0.055524   0.000000   0.001046
   21  O  2  S    0.000000   0.003642   0.111341   0.000000   0.040540
   22  O  2  S    0.000000   0.538683   0.528299   0.000000   0.037300
   23  O  2  X    0.000000  -0.378034  -0.138311   0.000000  -0.265782
   24  O  2  Y    0.292507   0.000000   0.000000  -0.597337   0.000000
   25  O  2  Z    0.000000  -0.161420   0.198265   0.000000  -0.440928
   26  O  2  X    0.000000   0.892106   0.965752   0.000000   0.256597
   27  O  2  Y    0.147926   0.000000   0.000000   0.841465   0.000000
   28  O  2  Z    0.000000  -0.352390  -0.668085   0.000000   0.930874
   29  O  2 XX    0.000000   0.007369  -0.000011   0.000000  -0.007433
   30  O  2 YY    0.000000  -0.011000   0.011730   0.000000  -0.008272
   31  O  2 ZZ    0.000000   0.003631  -0.011718   0.000000   0.015705
   32  O  2 XY   -0.033818   0.000000   0.000000  -0.033518   0.000000
   33  O  2 XZ    0.000000   0.033307   0.020220   0.000000  -0.030656
   34  O  2 YZ    0.054137   0.000000   0.000000   0.014709   0.000000
   35  O  3  S    0.000000  -0.038076   0.055524   0.000000   0.001046
   36  O  3  S    0.000000   0.003642  -0.111341   0.000000   0.040540
   37  O  3  S    0.000000   0.538683  -0.528299   0.000000   0.037300
   38  O  3  X    0.000000   0.378034  -0.138311   0.000000   0.265782
   39  O  3  Y   -0.292507   0.000000   0.000000   0.597337   0.000000
   40  O  3  Z    0.000000  -0.161420  -0.198265   0.000000  -0.440928
   41  O  3  X    0.000000  -0.892106   0.965752   0.000000  -0.256597
   42  O  3  Y   -0.147926   0.000000   0.000000  -0.841465   0.000000
   43  O  3  Z    0.000000  -0.352390   0.668085   0.000000   0.930874
   44  O  3 XX    0.000000   0.007369   0.000011   0.000000  -0.007433
   45  O  3 YY    0.000000  -0.011000  -0.011730   0.000000  -0.008272
   46  O  3 ZZ    0.000000   0.003631   0.011718   0.000000   0.015705
   47  O  3 XY   -0.033818   0.000000   0.000000  -0.033518   0.000000
   48  O  3 XZ    0.000000  -0.033307   0.020220   0.000000   0.030656
   49  O  3 YZ   -0.054137   0.000000   0.000000  -0.014709   0.000000

                     31         32         33         34         35
                    0.8437     0.8762     1.1641     1.3617     1.6539
                     B2         B1         A1         B1         B1  
    1  S  1  S    0.000000   0.000000   0.015760   0.000000   0.000000
    2  S  1  S    0.000000   0.000000  -0.171133   0.000000   0.000000
    3  S  1  S    0.000000   0.000000  -0.031670   0.000000   0.000000
    4  S  1  S    0.000000   0.000000   0.718296   0.000000   0.000000
    5  S  1  X    0.000000  -0.074196   0.000000  -0.200421   0.031537
    6  S  1  Y   -0.032567   0.000000   0.000000   0.000000   0.000000
    7  S  1  Z    0.000000   0.000000  -0.132591   0.000000   0.000000
    8  S  1  X    0.000000   0.333461   0.000000   0.771424   0.177346
    9  S  1  Y    0.082414   0.000000   0.000000   0.000000   0.000000
   10  S  1  Z    0.000000   0.000000   0.482042   0.000000   0.000000
   11  S  1  X    0.000000  -0.644932   0.000000   0.790907   1.099677
   12  S  1  Y   -0.912327   0.000000   0.000000   0.000000   0.000000
   13  S  1  Z    0.000000   0.000000   0.104883   0.000000   0.000000
   14  S  1 XX    0.000000   0.000000   0.980736   0.000000   0.000000
   15  S  1 YY    0.000000   0.000000  -0.726215   0.000000   0.000000
   16  S  1 ZZ    0.000000   0.000000  -0.254522   0.000000   0.000000
   17  S  1 XY    0.000000   0.000000   0.000000   0.000000   0.000000
   18  S  1 XZ    0.000000   0.164191   0.000000   1.030835  -0.083431
   19  S  1 YZ   -0.345426   0.000000   0.000000   0.000000   0.000000
   20  O  2  S    0.000000  -0.001309   0.035225  -0.032247   0.010215
   21  O  2  S    0.000000  -0.038907  -0.293992  -0.053136  -1.270627
   22  O  2  S    0.000000  -0.027028  -0.386609   1.057375   1.943409
   23  O  2  X    0.000000  -0.250162  -0.451144   0.646875  -0.084036
   24  O  2  Y   -0.581878   0.000000   0.000000   0.000000   0.000000
   25  O  2  Z    0.000000  -0.558712   0.422183  -0.199328   0.083621
   26  O  2  X    0.000000   0.655691   0.091236  -0.093750   0.330791
   27  O  2  Y    1.036052   0.000000   0.000000   0.000000   0.000000
   28  O  2  Z    0.000000   0.715870  -0.063257  -0.139661  -0.420425
   29  O  2 XX    0.000000  -0.058626  -0.028043  -0.080810  -0.046366
   30  O  2 YY    0.000000   0.026385  -0.060886  -0.029182   0.152953
   31  O  2 ZZ    0.000000   0.032241   0.088929   0.109992  -0.106587
   32  O  2 XY   -0.041560   0.000000   0.000000   0.000000   0.000000
   33  O  2 XZ    0.000000  -0.016341  -0.007031   0.082627   0.100059
   34  O  2 YZ    0.014992   0.000000   0.000000   0.000000   0.000000
   35  O  3  S    0.000000   0.001309   0.035225   0.032247  -0.010215
   36  O  3  S    0.000000   0.038907  -0.293992   0.053136   1.270627
   37  O  3  S    0.000000   0.027028  -0.386609  -1.057375  -1.943409
   38  O  3  X    0.000000  -0.250162   0.451144   0.646875  -0.084036
   39  O  3  Y   -0.581878   0.000000   0.000000   0.000000   0.000000
   40  O  3  Z    0.000000   0.558712   0.422183   0.199328  -0.083621
   41  O  3  X    0.000000   0.655691  -0.091236  -0.093750   0.330791
   42  O  3  Y    1.036052   0.000000   0.000000   0.000000   0.000000
   43  O  3  Z    0.000000  -0.715870  -0.063257   0.139661   0.420425
   44  O  3 XX    0.000000   0.058626  -0.028043   0.080810   0.046366
   45  O  3 YY    0.000000  -0.026385  -0.060886   0.029182  -0.152953
   46  O  3 ZZ    0.000000  -0.032241   0.088929  -0.109992   0.106587
   47  O  3 XY    0.041560   0.000000   0.000000   0.000000   0.000000
   48  O  3 XZ    0.000000  -0.016341   0.007031   0.082627   0.100059
   49  O  3 YZ    0.014992   0.000000   0.000000   0.000000   0.000000

                     36         37         38         39         40
                    1.7300     2.0359     2.0581     2.0683     2.1023
                     A1         A2         B2         B1         A1  
    1  S  1  S   -0.012112   0.000000   0.000000   0.000000   0.000554
    2  S  1  S   -0.119885   0.000000   0.000000   0.000000  -0.027032
    3  S  1  S   -0.268692   0.000000   0.000000   0.000000  -0.029879
    4  S  1  S    2.755310   0.000000   0.000000   0.000000  -0.076396
    5  S  1  X    0.000000   0.000000   0.000000  -0.023905   0.000000
    6  S  1  Y    0.000000   0.000000  -0.030120   0.000000   0.000000
    7  S  1  Z   -0.035885   0.000000   0.000000   0.000000  -0.007336
    8  S  1  X    0.000000   0.000000   0.000000   0.024926   0.000000
    9  S  1  Y    0.000000   0.000000   0.129591   0.000000   0.000000
   10  S  1  Z    0.331353   0.000000   0.000000   0.000000   0.000413
   11  S  1  X    0.000000   0.000000   0.000000   0.028553   0.000000
   12  S  1  Y    0.000000   0.000000   0.016604   0.000000   0.000000
   13  S  1  Z    1.055021   0.000000   0.000000   0.000000  -0.036975
   14  S  1 XX    0.262151   0.000000   0.000000   0.000000   0.123322
   15  S  1 YY   -0.314342   0.000000   0.000000   0.000000  -0.234035
   16  S  1 ZZ    0.052191   0.000000   0.000000   0.000000   0.110713
   17  S  1 XY    0.000000   0.041913   0.000000   0.000000   0.000000
   18  S  1 XZ    0.000000   0.000000   0.000000   0.055045   0.000000
   19  S  1 YZ    0.000000   0.000000  -0.073843   0.000000   0.000000
   20  O  2  S    0.011180   0.000000   0.000000  -0.002928   0.002769
   21  O  2  S    1.253068   0.000000   0.000000   0.147820  -0.141505
   22  O  2  S   -2.540708   0.000000   0.000000  -0.136615   0.129457
   23  O  2  X   -0.077934   0.000000   0.000000   0.100475  -0.071079
   24  O  2  Y    0.000000  -0.027327   0.035830   0.000000   0.000000
   25  O  2  Z    0.097569   0.000000   0.000000   0.018561   0.025639
   26  O  2  X   -0.691058   0.000000   0.000000  -0.149668   0.079295
   27  O  2  Y    0.000000   0.046449  -0.055992   0.000000   0.000000
   28  O  2  Z    0.107026   0.000000   0.000000  -0.032107  -0.015777
   29  O  2 XX    0.156059   0.000000   0.000000  -0.341388  -0.143151
   30  O  2 YY   -0.060558   0.000000   0.000000   0.588754   0.607645
   31  O  2 ZZ   -0.095501   0.000000   0.000000  -0.247366  -0.464494
   32  O  2 XY    0.000000   0.504654   0.132676   0.000000   0.000000
   33  O  2 XZ   -0.124433   0.000000   0.000000  -0.380830  -0.310586
   34  O  2 YZ    0.000000   0.497066   0.697409   0.000000   0.000000
   35  O  3  S    0.011180   0.000000   0.000000   0.002928   0.002769
   36  O  3  S    1.253068   0.000000   0.000000  -0.147820  -0.141505
   37  O  3  S   -2.540708   0.000000   0.000000   0.136615   0.129457
   38  O  3  X    0.077934   0.000000   0.000000   0.100475   0.071079
   39  O  3  Y    0.000000   0.027327   0.035830   0.000000   0.000000
   40  O  3  Z    0.097569   0.000000   0.000000  -0.018561   0.025639
   41  O  3  X    0.691058   0.000000   0.000000  -0.149668  -0.079295
   42  O  3  Y    0.000000  -0.046449  -0.055992   0.000000   0.000000
   43  O  3  Z    0.107026   0.000000   0.000000   0.032107  -0.015777
   44  O  3 XX    0.156059   0.000000   0.000000   0.341388  -0.143151
   45  O  3 YY   -0.060558   0.000000   0.000000  -0.588754   0.607645
   46  O  3 ZZ   -0.095501   0.000000   0.000000   0.247366  -0.464494
   47  O  3 XY    0.000000   0.504654  -0.132676   0.000000   0.000000
   48  O  3 XZ    0.124433   0.000000   0.000000  -0.380830   0.310586
   49  O  3 YZ    0.000000  -0.497066   0.697409   0.000000   0.000000

                     41         42         43         44         45
                    2.2237     2.3617     2.4429     2.6835     2.8956
                     B1         B2         A2         A1         A1  
    1  S  1  S    0.000000   0.000000   0.000000  -0.000379  -0.066949
    2  S  1  S    0.000000   0.000000   0.000000  -0.018448  -0.303569
    3  S  1  S    0.000000   0.000000   0.000000  -0.037786  -1.261139
    4  S  1  S    0.000000   0.000000   0.000000  -0.356190  -1.509968
    5  S  1  X   -0.015534   0.000000   0.000000   0.000000   0.000000
    6  S  1  Y    0.000000   0.090595   0.000000   0.000000   0.000000
    7  S  1  Z    0.000000   0.000000   0.000000   0.086539   0.108096
    8  S  1  X    0.151141   0.000000   0.000000   0.000000   0.000000
    9  S  1  Y    0.000000  -0.387654   0.000000   0.000000   0.000000
   10  S  1  Z    0.000000   0.000000   0.000000  -0.428003  -0.946092
   11  S  1  X    0.101112   0.000000   0.000000   0.000000   0.000000
   12  S  1  Y    0.000000  -0.174170   0.000000   0.000000   0.000000
   13  S  1  Z    0.000000   0.000000   0.000000  -0.336168  -0.283748
   14  S  1 XX    0.000000   0.000000   0.000000   0.632458  -0.688507
   15  S  1 YY    0.000000   0.000000   0.000000   0.018842   0.497385
   16  S  1 ZZ    0.000000   0.000000   0.000000  -0.651299   0.191122
   17  S  1 XY    0.000000   0.000000   0.678810   0.000000   0.000000
   18  S  1 XZ   -0.501641   0.000000   0.000000   0.000000   0.000000
   19  S  1 YZ    0.000000  -0.421884   0.000000   0.000000   0.000000
   20  O  2  S    0.001403   0.000000   0.000000  -0.006574  -0.044521
   21  O  2  S   -0.257333   0.000000   0.000000  -0.249519  -0.591120
   22  O  2  S    0.210748   0.000000   0.000000   0.405681   1.821823
   23  O  2  X   -0.082161   0.000000   0.000000  -0.035998   0.166513
   24  O  2  Y    0.000000  -0.049065  -0.003956   0.000000   0.000000
   25  O  2  Z    0.121583   0.000000   0.000000   0.050922  -0.114435
   26  O  2  X   -0.019461   0.000000   0.000000   0.276389   0.819972
   27  O  2  Y    0.000000   0.261328   0.236765   0.000000   0.000000
   28  O  2  Z   -0.232296   0.000000   0.000000   0.220033  -0.494783
   29  O  2 XX   -0.465925   0.000000   0.000000   0.656265   0.485162
   30  O  2 YY   -0.196488   0.000000   0.000000  -0.045554  -0.469996
   31  O  2 ZZ    0.662412   0.000000   0.000000  -0.610711  -0.015166
   32  O  2 XY    0.000000   0.754414   0.573015   0.000000   0.000000
   33  O  2 XZ   -0.270639   0.000000   0.000000   0.380490  -0.709933
   34  O  2 YZ    0.000000  -0.160476  -0.551782   0.000000   0.000000
   35  O  3  S   -0.001403   0.000000   0.000000  -0.006574  -0.044521
   36  O  3  S    0.257333   0.000000   0.000000  -0.249519  -0.591120
   37  O  3  S   -0.210748   0.000000   0.000000   0.405681   1.821823
   38  O  3  X   -0.082161   0.000000   0.000000   0.035998  -0.166513
   39  O  3  Y    0.000000  -0.049065   0.003956   0.000000   0.000000
   40  O  3  Z   -0.121583   0.000000   0.000000   0.050922  -0.114435
   41  O  3  X   -0.019461   0.000000   0.000000  -0.276389  -0.819972
   42  O  3  Y    0.000000   0.261328  -0.236765   0.000000   0.000000
   43  O  3  Z    0.232296   0.000000   0.000000   0.220033  -0.494783
   44  O  3 XX    0.465925   0.000000   0.000000   0.656265   0.485162
   45  O  3 YY    0.196488   0.000000   0.000000  -0.045554  -0.469996
   46  O  3 ZZ   -0.662412   0.000000   0.000000  -0.610711  -0.015166
   47  O  3 XY    0.000000  -0.754414   0.573015   0.000000   0.000000
   48  O  3 XZ   -0.270639   0.000000   0.000000  -0.380490   0.709933
   49  O  3 YZ    0.000000  -0.160476   0.551782   0.000000   0.000000

                     46
                    2.9675
                     B1  
    1  S  1  S    0.000000
    2  S  1  S    0.000000
    3  S  1  S    0.000000
    4  S  1  S    0.000000
    5  S  1  X   -0.225046
    6  S  1  Y    0.000000
    7  S  1  Z    0.000000
    8  S  1  X    1.795698
    9  S  1  Y    0.000000
   10  S  1  Z    0.000000
   11  S  1  X    0.425518
   12  S  1  Y    0.000000
   13  S  1  Z    0.000000
   14  S  1 XX    0.000000
   15  S  1 YY    0.000000
   16  S  1 ZZ    0.000000
   17  S  1 XY    0.000000
   18  S  1 XZ    0.837807
   19  S  1 YZ    0.000000
   20  O  2  S   -0.044462
   21  O  2  S   -0.464845
   22  O  2  S    1.704507
   23  O  2  X    0.257581
   24  O  2  Y    0.000000
   25  O  2  Z   -0.135895
   26  O  2  X    0.820084
   27  O  2  Y    0.000000
   28  O  2  Z   -0.458805
   29  O  2 XX    0.608217
   30  O  2 YY   -0.422050
   31  O  2 ZZ   -0.186168
   32  O  2 XY    0.000000
   33  O  2 XZ   -0.694209
   34  O  2 YZ    0.000000
   35  O  3  S    0.044462
   36  O  3  S    0.464845
   37  O  3  S   -1.704507
   38  O  3  X    0.257581
   39  O  3  Y    0.000000
   40  O  3  Z    0.135895
   41  O  3  X    0.820084
   42  O  3  Y    0.000000
   43  O  3  Z    0.458805
   44  O  3 XX   -0.608217
   45  O  3 YY    0.422050
   46  O  3 ZZ    0.186168
   47  O  3 XY    0.000000
   48  O  3 XZ   -0.694209
   49  O  3 YZ    0.000000
 ...... END OF RHF CALCULATION ......
 STEP CPU TIME =     4.66 TOTAL CPU TIME =        4.8 (    0.1 MIN)
 TOTAL WALL CLOCK TIME=        4.8 SECONDS, CPU UTILIZATION IS  99.79%

     ---------------------------------------------------------------------
     PROPERTIES FOR THE PBE      DFT FUNCTIONAL (RHF  TYPE) DENSITY MATRIX
     ---------------------------------------------------------------------

          -----------------
          ENERGY COMPONENTS
          -----------------

         WAVEFUNCTION NORMALIZATION =       1.0000000000

                ONE ELECTRON ENERGY =    -992.1693268378
                TWO ELECTRON ENERGY =     324.7641211641
           NUCLEAR REPULSION ENERGY =     119.2482276558
                                      ------------------
                       TOTAL ENERGY =    -548.1569780180

 ELECTRON-ELECTRON POTENTIAL ENERGY =     324.7641211641
  NUCLEUS-ELECTRON POTENTIAL ENERGY =   -1541.2758805785
   NUCLEUS-NUCLEUS POTENTIAL ENERGY =     119.2482276558
                                      ------------------
             TOTAL POTENTIAL ENERGY =   -1097.2635317586
               TOTAL KINETIC ENERGY =     549.1065537407
                 VIRIAL RATIO (V/T) =       1.9982706895

          ---------------------------------------
          MULLIKEN AND LOWDIN POPULATION ANALYSES
          ---------------------------------------

     ATOMIC MULLIKEN POPULATION IN EACH MOLECULAR ORBITAL

                      1          2          3          4          5

                  2.000000   2.000000   2.000000   2.000000   2.000000

    1             2.000057   0.000876   0.002325   2.002711   1.999402
    2            -0.000029   0.999562   0.998837  -0.001356   0.000299
    3            -0.000029   0.999562   0.998837  -0.001356   0.000299

                      6          7          8          9         10

                  2.000000   2.000000   2.000000   2.000000   2.000000

    1             1.999981   1.999658   0.716071   0.532975   0.860107
    2             0.000010   0.000171   0.641964   0.733512   0.569947
    3             0.000010   0.000171   0.641964   0.733512   0.569947

                     11         12         13         14         15

                  2.000000   2.000000   2.000000   2.000000   2.000000

    1             0.943847   0.619419   0.276864   0.166937   0.195405
    2             0.528076   0.690291   0.861568   0.916532   0.902298
    3             0.528076   0.690291   0.861568   0.916532   0.902298

                     16

                  2.000000

    1             1.023582
    2             0.488209
    3             0.488209

               ----- POPULATIONS IN EACH AO -----
                             MULLIKEN      LOWDIN
              1  S  1  S      2.00026     1.99574
              2  S  1  S      2.01051     1.94423
              3  S  1  S      0.90543     0.53424
              4  S  1  S      0.92272     0.56489
              5  S  1  X      1.99670     1.95714
              6  S  1  Y      1.99587     1.95422
              7  S  1  Z      1.99720     1.96415
              8  S  1  X      0.71385     0.61508
              9  S  1  Y      0.64868     0.59017
             10  S  1  Z      0.86017     0.82809
             11  S  1  X      0.09464     0.24865
             12  S  1  Y      0.27236     0.34058
             13  S  1  Z      0.23787     0.38328
             14  S  1 XX      0.12099     0.34721
             15  S  1 YY      0.16878     0.24757
             16  S  1 ZZ      0.16694     0.30724
             17  S  1 XY      0.20034     0.20777
             18  S  1 XZ      0.02693     0.24101
             19  S  1 YZ      0.00000     0.02664
             20  O  2  S      1.99789     1.98004
             21  O  2  S      0.81399     0.62158
             22  O  2  S      0.95888     0.51815
             23  O  2  X      1.01437     0.97330
             24  O  2  Y      0.89035     0.84341
             25  O  2  Z      1.08010     1.04942
             26  O  2  X      0.43913     0.54036
             27  O  2  Y      0.54321     0.58226
             28  O  2  Z      0.56065     0.62589
             29  O  2 XX      0.00556     0.20528
             30  O  2 YY      0.00651     0.18990
             31  O  2 ZZ      0.00830     0.19016
             32  O  2 XY      0.00820     0.01118
             33  O  2 XZ      0.00276     0.01666
             34  O  2 YZ      0.00000     0.00345
             35  O  3  S      1.99789     1.98004
             36  O  3  S      0.81399     0.62158
             37  O  3  S      0.95888     0.51815
             38  O  3  X      1.01437     0.97330
             39  O  3  Y      0.89035     0.84341
             40  O  3  Z      1.08010     1.04942
             41  O  3  X      0.43913     0.54036
             42  O  3  Y      0.54321     0.58226
             43  O  3  Z      0.56065     0.62589
             44  O  3 XX      0.00556     0.20528
             45  O  3 YY      0.00651     0.18990
             46  O  3 ZZ      0.00830     0.19016
             47  O  3 XY      0.00820     0.01118
             48  O  3 XZ      0.00276     0.01666
             49  O  3 YZ      0.00000     0.00345

          ----- MULLIKEN ATOMIC OVERLAP POPULATIONS -----
          (OFF-DIAGONAL ELEMENTS NEED TO BE MULTIPLIED BY 2)

             1           2           3

    1   14.5396440
    2    0.4002866   7.9756784
    3    0.4002866  -0.0460736   7.9756784

          TOTAL MULLIKEN AND LOWDIN ATOMIC POPULATIONS
       ATOM         MULL.POP.    CHARGE          LOW.POP.     CHARGE
    1 S            15.340217    0.659783        15.297908    0.702092
    2 O             8.329891   -0.329891         8.351046   -0.351046
    3 O             8.329891   -0.329891         8.351046   -0.351046

          MULLIKEN SPHERICAL HARMONIC POPULATIONS
       ATOM           S       P       D      F      G      H      I    TOTAL
    1 S             5.84    8.82    0.68   0.00   0.00   0.00   0.00   15.34
    2 O             3.77    4.53    0.03   0.00   0.00   0.00   0.00    8.33
    3 O             3.77    4.53    0.03   0.00   0.00   0.00   0.00    8.33

          -------------------------------
          BOND ORDER AND VALENCE ANALYSIS     BOND ORDER THRESHOLD=0.050
          -------------------------------

                   BOND                       BOND                       BOND
  ATOM PAIR DIST  ORDER      ATOM PAIR DIST  ORDER      ATOM PAIR DIST  ORDER
    1   2  1.300  1.991        1   3  1.300  1.991        2   3  2.252  0.148

                       TOTAL       BONDED        FREE
      ATOM            VALENCE     VALENCE     VALENCE
    1 S                 3.981       3.981       0.000
    2 O                 2.138       2.138       0.000
    3 O                 2.138       2.138       0.000

          ---------------------
          ELECTROSTATIC MOMENTS
          ---------------------

 POINT   1           X           Y           Z (BOHR)    CHARGE
                 0.000000    0.000000    0.000000        0.00 (A.U.)
         DX          DY          DZ         /D/  (DEBYE)
     0.000000    0.000000   -1.233579    1.233579
 ...... END OF PROPERTY EVALUATION ......
 STEP CPU TIME =     0.01 TOTAL CPU TIME =        4.8 (    0.1 MIN)
 TOTAL WALL CLOCK TIME=        4.8 SECONDS, CPU UTILIZATION IS 100.00%
               580000  WORDS OF DYNAMIC MEMORY USED
 EXECUTION OF GAMESS TERMINATED NORMALLY Thu Feb 26 00:14:19 2015
 DDI: 263624 bytes (0.3 MB / 0 MWords) used by master data server.

 ----------------------------------------
 CPU timing information for all processes
 ========================================
 0: 4.831 + 0.29 = 4.861
 ----------------------------------------
 ddikick.x: exited gracefully.
----- accounting info -----
Files used on the master node dftfe.crc.nd.edu were:
-rw-r--r-- 1 pmehta1 campus   37475 Feb 26 00:14 /tmp/gamess.dat
-rw-r--r-- 1 pmehta1 campus     142 Feb 26 00:14 /tmp/gamess.F05
-rw-r--r-- 1 pmehta1 campus 2340312 Feb 26 00:14 /tmp/gamess.F08
-rw-r--r-- 1 pmehta1 campus 1220440 Feb 26 00:14 /tmp/gamess.F10
Thu Feb 26 00:14:22 EST 2015
0.249u 0.168s 0:08.27 4.8%	0+0k 0+104io 0pf+0w
