   4   4   1   0
  0.1507431E+02  0.3979991E-09  0.3979991E-09  0.3806565E-09  0.3500000E-15
   1.0000000000000000E-004
  CAR 
 Au, FCC                                 
     14.10087531     -5.59636996  301      4.46826431      1.00000000
     -5.596  0.0000E+00  0.0000E+00  0.0000E+00  0.0000E+00  0.0000E+00  0.0000E+00  0.0000E+00  0.0000E+00  0.0000E+00
     -5.531  0.0000E+00  0.0000E+00  0.0000E+00  0.0000E+00  0.0000E+00  0.0000E+00  0.0000E+00  0.0000E+00  0.0000E+00
     -5.465  0.0000E+00  0.0000E+00  0.0000E+00  0.0000E+00  0.0000E+00  0.0000E+00  0.0000E+00  0.0000E+00  0.0000E+00
     -5.399  0.0000E+00  0.0000E+00  0.0000E+00  0.0000E+00  0.0000E+00  0.0000E+00  0.0000E+00  0.0000E+00  0.0000E+00
     -5.334  0.0000E+00  0.0000E+00  0.0000E+00  0.0000E+00  0.0000E+00  0.0000E+00  0.0000E+00  0.0000E+00  0.0000E+00
     -5.268  0.0000E+00  0.0000E+00  0.0000E+00  0.0000E+00  0.0000E+00  0.0000E+00  0.0000E+00  0.0000E+00  0.0000E+00
     -5.202  0.0000E+00  0.0000E+00  0.0000E+00  0.0000E+00  0.0000E+00  0.0000E+00  0.0000E+00  0.0000E+00  0.0000E+00
     -5.137  0.2278E-14  0.1363E-16  0.8674E-17  0.1363E-16  0.3024E-17  0.5400E-18  0.3264E-16  0.5400E-18  0.4482E-26
     -5.071  0.2024E-11  0.1211E-13  0.7706E-14  0.1211E-13  0.2686E-14  0.4797E-15  0.2900E-13  0.4797E-15  0.3981E-23
     -5.005  0.7715E-09  0.4617E-11  0.2938E-11  0.4617E-11  0.1024E-11  0.1829E-12  0.1106E-10  0.1829E-12  0.1518E-20
     -4.940  0.1267E-06  0.7584E-09  0.4826E-09  0.7584E-09  0.1683E-09  0.3004E-10  0.1816E-08  0.3004E-10  0.2494E-18
     -4.874  0.9018E-05  0.5396E-07  0.3434E-07  0.5396E-07  0.1197E-07  0.2137E-08  0.1292E-06  0.2137E-08  0.1774E-16
     -4.808  0.2797E-03  0.1674E-05  0.1065E-05  0.1674E-05  0.3713E-06  0.6629E-07  0.4007E-05  0.6629E-07  0.5502E-15
     -4.743  0.3809E-02  0.2279E-04  0.1450E-04  0.2279E-04  0.5057E-05  0.9029E-06  0.5458E-04  0.9029E-06  0.7494E-14
     -4.677  0.2296E-01  0.1374E-03  0.8743E-04  0.1374E-03  0.3048E-04  0.5443E-05  0.3290E-03  0.5443E-05  0.4517E-13
     -4.612  0.6170E-01  0.3692E-03  0.2349E-03  0.3692E-03  0.8190E-04  0.1462E-04  0.8840E-03  0.1462E-04  0.1214E-12
     -4.546  0.7423E-01  0.4442E-03  0.2827E-03  0.4442E-03  0.9854E-04  0.1759E-04  0.1064E-02  0.1759E-04  0.1460E-12
     -4.480  0.4003E-01  0.2395E-03  0.1524E-03  0.2395E-03  0.5314E-04  0.9488E-05  0.5736E-03  0.9488E-05  0.8004E-13
     -4.415  0.9646E-02  0.5772E-04  0.3673E-04  0.5772E-04  0.1281E-04  0.2286E-05  0.1382E-03  0.2286E-05  0.7029E-12
     -4.349  0.1033E-02  0.6179E-05  0.3937E-05  0.6181E-05  0.1371E-05  0.2451E-06  0.1481E-04  0.2452E-06  0.1566E-09
     -4.283  0.6598E-04  0.3922E-06  0.5612E-06  0.5646E-06  0.1446E-06  0.4056E-07  0.1671E-05  0.4889E-07  0.1550E-07
     -4.218  0.5411E-03  0.3085E-05  0.1085E-04  0.1050E-04  0.2954E-05  0.8423E-06  0.2777E-04  0.1201E-05  0.6667E-06
     -4.152  0.7670E-02  0.4252E-04  0.1389E-03  0.1822E-03  0.4964E-04  0.1086E-04  0.3493E-03  0.1762E-04  0.1256E-04
     -4.086  0.5011E-01  0.2691E-03  0.7983E-03  0.1430E-02  0.3800E-03  0.6308E-04  0.1959E-02  0.1192E-03  0.1044E-03
     -4.021  0.1520E+00  0.7894E-03  0.2083E-02  0.5079E-02  0.1325E-02  0.1668E-03  0.4940E-02  0.3742E-03  0.3856E-03
     -3.955  0.2147E+00  0.1080E-02  0.2492E-02  0.8167E-02  0.2103E-02  0.2031E-03  0.5646E-02  0.5458E-03  0.6371E-03
     -3.889  0.1411E+00  0.6887E-03  0.1377E-02  0.5938E-02  0.1514E-02  0.1146E-03  0.2939E-02  0.3684E-03  0.4718E-03
     -3.824  0.4279E-01  0.2037E-03  0.3525E-03  0.1944E-02  0.4925E-03  0.3006E-04  0.6987E-03  0.1142E-03  0.1564E-03
     -3.758  0.5927E-02  0.2774E-04  0.4179E-04  0.2846E-03  0.7213E-04  0.3667E-05  0.7594E-04  0.1609E-04  0.2309E-04
     -3.692  0.4969E-03  0.5685E-05  0.3501E-05  0.2386E-04  0.1938E-04  0.7583E-06  0.5183E-05  0.2163E-05  0.1637E-05
     -3.627  0.2491E-02  0.6979E-04  0.2980E-04  0.1096E-03  0.2609E-03  0.1065E-04  0.3791E-04  0.2727E-04  0.3690E-05
     -3.561  0.2236E-01  0.5439E-03  0.3322E-03  0.1027E-02  0.2070E-02  0.9452E-04  0.4520E-03  0.2983E-03  0.4478E-04
     -3.495  0.9457E-01  0.1914E-02  0.1697E-02  0.4543E-02  0.7474E-02  0.3931E-03  0.2417E-02  0.1502E-02  0.2436E-03
     -3.430  0.1889E+00  0.3076E-02  0.3953E-02  0.9456E-02  0.1246E-01  0.7720E-03  0.5813E-02  0.3462E-02  0.5911E-03
     -3.364  0.1784E+00  0.2287E-02  0.4196E-02  0.9221E-02  0.9699E-02  0.7172E-03  0.6503E-02  0.3641E-02  0.6425E-03
     -3.298  0.8558E-01  0.8371E-03  0.2124E-02  0.4215E-02  0.3608E-02  0.3242E-03  0.5586E-02  0.1748E-02  0.3129E-03
     -3.233  0.5100E-01  0.3613E-03  0.1002E-02  0.1096E-02  0.9036E-03  0.1275E-03  0.1275E-01  0.4373E-03  0.6808E-04
     -3.167  0.7729E-01  0.5524E-03  0.1291E-02  0.6240E-03  0.1004E-02  0.2024E-03  0.2575E-01  0.2324E-03  0.6923E-05
     -3.101  0.8273E-01  0.8791E-03  0.1494E-02  0.9087E-03  0.3507E-02  0.6412E-03  0.2484E-01  0.6448E-03  0.1419E-04
     -3.036  0.7400E-01  0.1620E-02  0.1692E-02  0.2080E-02  0.1048E-01  0.1828E-02  0.1209E-01  0.1869E-02  0.2403E-03
     -2.970  0.9160E-01  0.2251E-02  0.2036E-02  0.5753E-02  0.1657E-01  0.2755E-02  0.4766E-02  0.3065E-02  0.1832E-02
     -2.904  0.1223E+00  0.1645E-02  0.1680E-02  0.1353E-01  0.1419E-01  0.1976E-02  0.2556E-02  0.3031E-02  0.6217E-02
     -2.839  0.1331E+00  0.6914E-03  0.1031E-02  0.1873E-01  0.8689E-02  0.7477E-03  0.1501E-02  0.2352E-02  0.9436E-02
     -2.773  0.8631E-01  0.2313E-03  0.5575E-03  0.1268E-01  0.4492E-02  0.2141E-03  0.1637E-02  0.1378E-02  0.6442E-02
     -2.707  0.5187E-01  0.1526E-03  0.6962E-03  0.5553E-02  0.4963E-02  0.1960E-03  0.8057E-02  0.1157E-02  0.2192E-02
     -2.642  0.1144E+00  0.5333E-03  0.2117E-02  0.8217E-02  0.1999E-01  0.7258E-03  0.2884E-01  0.3170E-02  0.1511E-02
     -2.576  0.2232E+00  0.1380E-02  0.3666E-02  0.1682E-01  0.5157E-01  0.1717E-02  0.4734E-01  0.6162E-02  0.3378E-02
     -2.510  0.2384E+00  0.1852E-02  0.3635E-02  0.2034E-01  0.6906E-01  0.2487E-02  0.3631E-01  0.8355E-02  0.5461E-02
     -2.445  0.1936E+00  0.1629E-02  0.4354E-02  0.2005E-01  0.6182E-01  0.3854E-02  0.1941E-01  0.1490E-01  0.8085E-02
     -2.379  0.2006E+00  0.1656E-02  0.6577E-02  0.2261E-01  0.6921E-01  0.7753E-02  0.1935E-01  0.2599E-01  0.1163E-01
     -2.313  0.1975E+00  0.1703E-02  0.6592E-02  0.2095E-01  0.8933E-01  0.1332E-01  0.1853E-01  0.3087E-01  0.1777E-01
     -2.248  0.1474E+00  0.1375E-02  0.4436E-02  0.1442E-01  0.9074E-01  0.1567E-01  0.9987E-02  0.2698E-01  0.5181E-01
     -2.182  0.9174E-01  0.1243E-02  0.2181E-02  0.7586E-02  0.7957E-01  0.1471E-01  0.3848E-02  0.1998E-01  0.1206E+00
     -2.117  0.8179E-01  0.1723E-02  0.1134E-02  0.3595E-02  0.1105E+00  0.3465E-01  0.3797E-02  0.3648E-01  0.1471E+00
     -2.051  0.1063E+00  0.2214E-02  0.1858E-02  0.3434E-02  0.1667E+00  0.9492E-01  0.9114E-02  0.9818E-01  0.1330E+00
     -1.985  0.1142E+00  0.1845E-02  0.3459E-02  0.5370E-02  0.1838E+00  0.1422E+00  0.1778E-01  0.1523E+00  0.1615E+00
     -1.920  0.1063E+00  0.1048E-02  0.4114E-02  0.8755E-02  0.1801E+00  0.1188E+00  0.2559E-01  0.1357E+00  0.2065E+00
     -1.854  0.1021E+00  0.8832E-03  0.3578E-02  0.1749E-01  0.1974E+00  0.8403E-01  0.2932E-01  0.1092E+00  0.3320E+00
     -1.788  0.1302E+00  0.1494E-02  0.5393E-02  0.3304E-01  0.2853E+00  0.1096E+00  0.3452E-01  0.1668E+00  0.5100E+00
     -1.723  0.1940E+00  0.2764E-02  0.1033E-01  0.4184E-01  0.4849E+00  0.1723E+00  0.4967E-01  0.2758E+00  0.5186E+00
     -1.657  0.2459E+00  0.4707E-02  0.1352E-01  0.3922E-01  0.7122E+00  0.2482E+00  0.8197E-01  0.3709E+00  0.4306E+00
     -1.591  0.2385E+00  0.5974E-02  0.1421E-01  0.3909E-01  0.7559E+00  0.3334E+00  0.1431E+00  0.4522E+00  0.3645E+00
     -1.526  0.1927E+00  0.7268E-02  0.1585E-01  0.4384E-01  0.6479E+00  0.3392E+00  0.2155E+00  0.4518E+00  0.3615E+00
     -1.460  0.1243E+00  0.1043E-01  0.1804E-01  0.3751E-01  0.6460E+00  0.2442E+00  0.2609E+00  0.3669E+00  0.4527E+00
     -1.394  0.5262E-01  0.1257E-01  0.2273E-01  0.2201E-01  0.7412E+00  0.1533E+00  0.3099E+00  0.3346E+00  0.4601E+00
     -1.329  0.1936E-01  0.1151E-01  0.2975E-01  0.1069E-01  0.7332E+00  0.1254E+00  0.3214E+00  0.3433E+00  0.2693E+00
     -1.263  0.1730E-01  0.9161E-02  0.3299E-01  0.6043E-02  0.5608E+00  0.1202E+00  0.2814E+00  0.2996E+00  0.8816E-01
     -1.197  0.4056E-01  0.8288E-02  0.3685E-01  0.9400E-02  0.4108E+00  0.1324E+00  0.3296E+00  0.3199E+00  0.4849E-01
     -1.132  0.9360E-01  0.1175E-01  0.4096E-01  0.1854E-01  0.4956E+00  0.2355E+00  0.4245E+00  0.4884E+00  0.7733E-01
     -1.066  0.1304E+00  0.1766E-01  0.3567E-01  0.2433E-01  0.6793E+00  0.4793E+00  0.4912E+00  0.7165E+00  0.1281E+00
     -1.000  0.1004E+00  0.1980E-01  0.2336E-01  0.2058E-01  0.6562E+00  0.7508E+00  0.5132E+00  0.9151E+00  0.2395E+00
     -0.935  0.4879E-01  0.1807E-01  0.1290E-01  0.1299E-01  0.5122E+00  0.8206E+00  0.4398E+00  0.9262E+00  0.3133E+00
     -0.869  0.3037E-01  0.1433E-01  0.7713E-02  0.1079E-01  0.3956E+00  0.6271E+00  0.3343E+00  0.6924E+00  0.2648E+00
     -0.803  0.4374E-01  0.8217E-02  0.4986E-02  0.1701E-01  0.2289E+00  0.3617E+00  0.2887E+00  0.4052E+00  0.2906E+00
     -0.738  0.8081E-01  0.5944E-02  0.5205E-02  0.2433E-01  0.1277E+00  0.3411E+00  0.4725E+00  0.3463E+00  0.3844E+00
     -0.672  0.1018E+00  0.9960E-02  0.7286E-02  0.2353E-01  0.1698E+00  0.6162E+00  0.7238E+00  0.4968E+00  0.3372E+00
     -0.606  0.7512E-01  0.1580E-01  0.6963E-02  0.1906E-01  0.2605E+00  0.7904E+00  0.7475E+00  0.5510E+00  0.2250E+00
     -0.541  0.4455E-01  0.2339E-01  0.4889E-02  0.1977E-01  0.3680E+00  0.5974E+00  0.7103E+00  0.4093E+00  0.2161E+00
     -0.475  0.4282E-01  0.3635E-01  0.4137E-02  0.2699E-01  0.5711E+00  0.3084E+00  0.6838E+00  0.2286E+00  0.2681E+00
     -0.409  0.5503E-01  0.4268E-01  0.4633E-02  0.3110E-01  0.6696E+00  0.2257E+00  0.5031E+00  0.1305E+00  0.3840E+00
     -0.344  0.6693E-01  0.3239E-01  0.6363E-02  0.2415E-01  0.4637E+00  0.4229E+00  0.3150E+00  0.1765E+00  0.5660E+00
     -0.278  0.8114E-01  0.1976E-01  0.1007E-01  0.1497E-01  0.2388E+00  0.7250E+00  0.3457E+00  0.3853E+00  0.5424E+00
     -0.212  0.1079E+00  0.1772E-01  0.1492E-01  0.1410E-01  0.2044E+00  0.8803E+00  0.6205E+00  0.6147E+00  0.3010E+00
     -0.147  0.1424E+00  0.2734E-01  0.1805E-01  0.2220E-01  0.3098E+00  0.8271E+00  0.9676E+00  0.6451E+00  0.1775E+00
     -0.081  0.1371E+00  0.3527E-01  0.1468E-01  0.2631E-01  0.3913E+00  0.5665E+00  0.9458E+00  0.4493E+00  0.2082E+00
     -0.015  0.7744E-01  0.3250E-01  0.6885E-02  0.1867E-01  0.3769E+00  0.2631E+00  0.5253E+00  0.2000E+00  0.2417E+00
      0.050  0.3090E-01  0.3486E-01  0.2600E-02  0.1269E-01  0.4737E+00  0.1939E+00  0.2527E+00  0.8306E-01  0.3187E+00
      0.116  0.2382E-01  0.4117E-01  0.3086E-02  0.1883E-01  0.5878E+00  0.3675E+00  0.2376E+00  0.1270E+00  0.4453E+00
      0.181  0.2943E-01  0.3536E-01  0.6623E-02  0.2703E-01  0.4849E+00  0.6593E+00  0.2520E+00  0.3676E+00  0.4407E+00
      0.247  0.2963E-01  0.2124E-01  0.1306E-01  0.2364E-01  0.2691E+00  0.9969E+00  0.2379E+00  0.7653E+00  0.3620E+00
      0.313  0.3423E-01  0.1130E-01  0.1650E-01  0.1535E-01  0.1097E+00  0.9965E+00  0.2820E+00  0.8955E+00  0.3578E+00
      0.378  0.6459E-01  0.1141E-01  0.1219E-01  0.1364E-01  0.5331E-01  0.6076E+00  0.5037E+00  0.5841E+00  0.3917E+00
      0.444  0.9680E-01  0.1542E-01  0.7077E-02  0.1658E-01  0.5312E-01  0.3359E+00  0.7851E+00  0.2588E+00  0.4042E+00
      0.510  0.9518E-01  0.1309E-01  0.6444E-02  0.1395E-01  0.5957E-01  0.3091E+00  0.8656E+00  0.2022E+00  0.3969E+00
      0.575  0.8682E-01  0.9204E-02  0.9553E-02  0.9406E-02  0.6925E-01  0.5385E+00  0.8419E+00  0.4601E+00  0.4975E+00
      0.641  0.9151E-01  0.9451E-02  0.1341E-01  0.9428E-02  0.8073E-01  0.9031E+00  0.8033E+00  0.8803E+00  0.7484E+00
      0.707  0.8469E-01  0.9627E-02  0.1386E-01  0.9448E-02  0.7603E-01  0.9858E+00  0.6561E+00  0.1036E+01  0.8334E+00
      0.772  0.6753E-01  0.1408E-01  0.1213E-01  0.1181E-01  0.1013E+00  0.8069E+00  0.4417E+00  0.8813E+00  0.8050E+00
      0.838  0.6752E-01  0.3074E-01  0.1122E-01  0.2473E-01  0.2238E+00  0.6301E+00  0.3360E+00  0.7101E+00  0.8081E+00
      0.904  0.7518E-01  0.4597E-01  0.9739E-02  0.4218E-01  0.3491E+00  0.5047E+00  0.3482E+00  0.5892E+00  0.6880E+00
      0.969  0.7330E-01  0.4580E-01  0.5995E-02  0.5108E-01  0.3669E+00  0.3881E+00  0.3336E+00  0.4402E+00  0.4999E+00
      1.035  0.6435E-01  0.4120E-01  0.2828E-02  0.4966E-01  0.3393E+00  0.2269E+00  0.2447E+00  0.2438E+00  0.3983E+00
      1.101  0.5756E-01  0.3616E-01  0.3844E-02  0.4430E-01  0.2821E+00  0.1067E+00  0.1806E+00  0.1172E+00  0.5157E+00
      1.166  0.5198E-01  0.3110E-01  0.7695E-02  0.3477E-01  0.2528E+00  0.1027E+00  0.1634E+00  0.1188E+00  0.7471E+00
      1.232  0.4295E-01  0.3535E-01  0.8630E-02  0.2923E-01  0.3002E+00  0.1437E+00  0.1375E+00  0.1579E+00  0.8342E+00
      1.298  0.3018E-01  0.3835E-01  0.5676E-02  0.3150E-01  0.2539E+00  0.1271E+00  0.9137E-01  0.1382E+00  0.7983E+00
      1.363  0.1888E-01  0.3055E-01  0.5803E-02  0.3010E-01  0.1226E+00  0.6104E-01  0.6525E-01  0.8134E-01  0.6276E+00
      1.429  0.1650E-01  0.2313E-01  0.1396E-01  0.2620E-01  0.5878E-01  0.2136E-01  0.7771E-01  0.6834E-01  0.3447E+00
      1.495  0.2005E-01  0.2511E-01  0.2156E-01  0.3053E-01  0.6058E-01  0.1563E-01  0.9438E-01  0.7899E-01  0.1668E+00
      1.560  0.1863E-01  0.2854E-01  0.1908E-01  0.3561E-01  0.6433E-01  0.1648E-01  0.8125E-01  0.6098E-01  0.1516E+00
      1.626  0.1130E-01  0.2578E-01  0.2252E-01  0.3173E-01  0.4702E-01  0.2085E-01  0.9990E-01  0.4865E-01  0.3017E+00
      1.692  0.9736E-02  0.2717E-01  0.4357E-01  0.3470E-01  0.5262E-01  0.2866E-01  0.2141E+00  0.5898E-01  0.4869E+00
      1.757  0.1715E-01  0.3509E-01  0.6125E-01  0.4778E-01  0.1075E+00  0.3737E-01  0.3119E+00  0.6081E-01  0.4212E+00
      1.823  0.2131E-01  0.4033E-01  0.6327E-01  0.5245E-01  0.1699E+00  0.6212E-01  0.2555E+00  0.5724E-01  0.1871E+00
      1.889  0.1621E-01  0.3711E-01  0.6201E-01  0.4245E-01  0.1978E+00  0.9637E-01  0.1348E+00  0.6188E-01  0.6165E-01
      1.954  0.1216E-01  0.3128E-01  0.6269E-01  0.3188E-01  0.1846E+00  0.1048E+00  0.8949E-01  0.7009E-01  0.5189E-01
      2.020  0.1381E-01  0.2674E-01  0.6518E-01  0.2580E-01  0.1503E+00  0.9308E-01  0.1228E+00  0.7148E-01  0.6846E-01
      2.086  0.1462E-01  0.2089E-01  0.6209E-01  0.1986E-01  0.1157E+00  0.8235E-01  0.1641E+00  0.6377E-01  0.7802E-01
      2.151  0.1324E-01  0.1385E-01  0.4894E-01  0.1484E-01  0.8252E-01  0.7756E-01  0.1940E+00  0.5921E-01  0.8481E-01
      2.217  0.1534E-01  0.9820E-02  0.4054E-01  0.1686E-01  0.6855E-01  0.7152E-01  0.2363E+00  0.6272E-01  0.9004E-01
      2.283  0.1828E-01  0.1043E-01  0.3823E-01  0.2413E-01  0.9522E-01  0.5501E-01  0.2447E+00  0.6967E-01  0.8416E-01
      2.348  0.1504E-01  0.1450E-01  0.3064E-01  0.2568E-01  0.1920E+00  0.4226E-01  0.2350E+00  0.6935E-01  0.7984E-01
      2.414  0.8760E-02  0.1909E-01  0.2052E-01  0.2282E-01  0.2971E+00  0.4583E-01  0.2892E+00  0.6147E-01  0.9106E-01
      2.480  0.6316E-02  0.1712E-01  0.1488E-01  0.1824E-01  0.3011E+00  0.6423E-01  0.3379E+00  0.5928E-01  0.1129E+00
      2.545  0.1010E-01  0.1202E-01  0.1502E-01  0.1465E-01  0.3143E+00  0.1003E+00  0.3425E+00  0.8095E-01  0.1420E+00
      2.611  0.1906E-01  0.1162E-01  0.2284E-01  0.1747E-01  0.3937E+00  0.1382E+00  0.3367E+00  0.1246E+00  0.1727E+00
      2.676  0.2355E-01  0.1209E-01  0.2735E-01  0.1922E-01  0.4169E+00  0.1534E+00  0.3237E+00  0.1497E+00  0.1828E+00
      2.742  0.2048E-01  0.9399E-02  0.1975E-01  0.1498E-01  0.4636E+00  0.2264E+00  0.3613E+00  0.1712E+00  0.1914E+00
      2.808  0.1607E-01  0.7163E-02  0.1169E-01  0.1028E-01  0.5837E+00  0.4248E+00  0.3835E+00  0.2214E+00  0.2287E+00
      2.873  0.1016E-01  0.5645E-02  0.7555E-02  0.6104E-02  0.5893E+00  0.5555E+00  0.3049E+00  0.2539E+00  0.2637E+00
      2.939  0.4855E-02  0.3418E-02  0.3808E-02  0.2755E-02  0.3895E+00  0.4966E+00  0.1820E+00  0.2277E+00  0.2388E+00
      3.005  0.4097E-02  0.2426E-02  0.1829E-02  0.1935E-02  0.1812E+00  0.4518E+00  0.8569E-01  0.1696E+00  0.1517E+00
      3.070  0.8570E-02  0.3239E-02  0.2442E-02  0.3645E-02  0.9863E-01  0.4406E+00  0.4584E-01  0.1218E+00  0.7410E-01
      3.136  0.1684E-01  0.4314E-02  0.3971E-02  0.7234E-02  0.7429E-01  0.2765E+00  0.4260E-01  0.8535E-01  0.4545E-01
      3.202  0.2874E-01  0.5270E-02  0.4548E-02  0.1245E-01  0.7714E-01  0.8701E-01  0.5524E-01  0.6163E-01  0.4270E-01
      3.267  0.4327E-01  0.5397E-02  0.5804E-02  0.1781E-01  0.8703E-01  0.1391E-01  0.6683E-01  0.7070E-01  0.5456E-01
      3.333  0.5176E-01  0.3917E-02  0.1111E-01  0.1964E-01  0.5791E-01  0.2863E-02  0.5623E-01  0.1132E+00  0.7582E-01
      3.399  0.4890E-01  0.3475E-02  0.1711E-01  0.1902E-01  0.2891E-01  0.3313E-02  0.3817E-01  0.1333E+00  0.7298E-01
      3.464  0.4387E-01  0.5081E-02  0.1640E-01  0.2304E-01  0.3137E-01  0.5365E-02  0.2641E-01  0.1061E+00  0.5292E-01
      3.530  0.4453E-01  0.5647E-02  0.1271E-01  0.3334E-01  0.3920E-01  0.9387E-02  0.2175E-01  0.6985E-01  0.3697E-01
      3.596  0.4615E-01  0.4447E-02  0.1253E-01  0.4067E-01  0.3677E-01  0.1416E-01  0.2311E-01  0.5189E-01  0.2569E-01
      3.661  0.3256E-01  0.2652E-02  0.9886E-02  0.2952E-01  0.2324E-01  0.1215E-01  0.1784E-01  0.3370E-01  0.1450E-01
      3.727  0.1171E-01  0.1376E-02  0.3977E-02  0.1091E-01  0.7887E-02  0.4959E-02  0.6899E-02  0.1215E-01  0.4876E-02
      3.793  0.2150E-02  0.2874E-02  0.1066E-02  0.4406E-02  0.1259E-02  0.1065E-02  0.1446E-02  0.2204E-02  0.1490E-02
      3.858  0.2073E-02  0.7531E-02  0.3195E-02  0.7640E-02  0.9258E-04  0.1325E-02  0.2211E-02  0.1406E-02  0.2220E-02
      3.924  0.7858E-02  0.1192E-01  0.1276E-01  0.1193E-01  0.1275E-04  0.4959E-02  0.8606E-02  0.4968E-02  0.4152E-02
      3.990  0.1455E-01  0.1533E-01  0.2320E-01  0.1541E-01  0.2345E-04  0.9112E-02  0.1566E-01  0.9294E-02  0.7039E-02
      4.055  0.1515E-01  0.1528E-01  0.1912E-01  0.1631E-01  0.9664E-04  0.7682E-02  0.1302E-01  0.9879E-02  0.1011E-01
      4.121  0.2366E-01  0.9107E-02  0.8325E-02  0.1484E-01  0.6408E-03  0.3095E-02  0.6156E-02  0.1537E-01  0.1846E-01
      4.187  0.5183E-01  0.7302E-02  0.5793E-02  0.2272E-01  0.2819E-02  0.1207E-02  0.4366E-02  0.3502E-01  0.4092E-01
      4.252  0.7084E-01  0.1859E-01  0.1010E-01  0.4064E-01  0.7003E-02  0.1954E-02  0.4901E-02  0.5394E-01  0.6338E-01
      4.318  0.6111E-01  0.3594E-01  0.2253E-01  0.5444E-01  0.1098E-01  0.3952E-02  0.1074E-01  0.6544E-01  0.6499E-01
      4.384  0.5319E-01  0.4122E-01  0.5834E-01  0.5178E-01  0.2337E-01  0.8558E-02  0.3662E-01  0.1038E+00  0.4844E-01
      4.449  0.7222E-01  0.3557E-01  0.9736E-01  0.4176E-01  0.7242E-01  0.1491E-01  0.7888E-01  0.1523E+00  0.3542E-01
      4.515  0.9115E-01  0.2804E-01  0.8232E-01  0.3265E-01  0.1455E+00  0.1486E-01  0.1031E+00  0.1218E+00  0.2866E-01
      4.581  0.8081E-01  0.1631E-01  0.3575E-01  0.2512E-01  0.1480E+00  0.7953E-02  0.8227E-01  0.5415E-01  0.2010E-01
      4.646  0.6196E-01  0.5787E-02  0.9800E-02  0.3028E-01  0.7521E-01  0.2365E-02  0.3742E-01  0.3575E-01  0.1851E-01
      4.712  0.5295E-01  0.1869E-02  0.3368E-02  0.3664E-01  0.2648E-01  0.5079E-03  0.1183E-01  0.4004E-01  0.2032E-01
      4.778  0.3908E-01  0.1576E-02  0.1656E-02  0.2386E-01  0.2530E-01  0.4368E-03  0.9075E-02  0.2551E-01  0.1262E-01
      4.843  0.3545E-01  0.2800E-02  0.8478E-03  0.9190E-02  0.5354E-01  0.1004E-02  0.1792E-01  0.8241E-02  0.3607E-02
      4.909  0.3627E-01  0.3382E-02  0.1475E-02  0.4230E-02  0.6638E-01  0.1336E-02  0.2262E-01  0.3192E-02  0.4934E-03
      4.974  0.2503E-01  0.1994E-02  0.7874E-02  0.2305E-02  0.3787E-01  0.1397E-02  0.1744E-01  0.9071E-02  0.3002E-03
      5.040  0.2381E-01  0.7643E-03  0.2747E-01  0.1722E-02  0.9706E-02  0.2643E-02  0.2084E-01  0.3015E-01  0.9904E-03
      5.106  0.3083E-01  0.4987E-03  0.4421E-01  0.2042E-02  0.1143E-02  0.3990E-02  0.2882E-01  0.4837E-01  0.1598E-02
      5.171  0.2193E-01  0.3533E-03  0.3197E-01  0.1470E-02  0.1064E-03  0.2883E-02  0.2061E-01  0.3498E-01  0.1185E-02
      5.237  0.7484E-02  0.6384E-03  0.1040E-01  0.9997E-03  0.4641E-03  0.1144E-02  0.6802E-02  0.1153E-01  0.8848E-03
      5.303  0.5014E-02  0.4177E-02  0.1954E-02  0.4229E-02  0.4534E-02  0.1941E-02  0.2354E-02  0.3439E-02  0.3936E-02
      5.368  0.1833E-01  0.1491E-01  0.2139E-02  0.1491E-01  0.2101E-01  0.6914E-02  0.6628E-02  0.7009E-02  0.1316E-01
      5.434  0.4175E-01  0.2801E-01  0.4180E-02  0.2801E-01  0.4998E-01  0.1233E-01  0.1639E-01  0.1233E-01  0.2024E-01
      5.500  0.5799E-01  0.4067E-01  0.4779E-02  0.4067E-01  0.7531E-01  0.1150E-01  0.2719E-01  0.1154E-01  0.1553E-01
      5.565  0.5921E-01  0.5647E-01  0.6780E-02  0.5653E-01  0.8503E-01  0.7923E-02  0.3527E-01  0.8587E-02  0.9058E-02
      5.631  0.4494E-01  0.5405E-01  0.1732E-01  0.5453E-01  0.6977E-01  0.6188E-02  0.3671E-01  0.1199E-01  0.7161E-02
      5.697  0.3254E-01  0.3403E-01  0.4190E-01  0.3608E-01  0.3938E-01  0.8491E-02  0.3422E-01  0.3180E-01  0.8883E-02
      5.762  0.3631E-01  0.2065E-01  0.6742E-01  0.2656E-01  0.1445E-01  0.1339E-01  0.3133E-01  0.6249E-01  0.1319E-01
      5.828  0.5916E-01  0.1302E-01  0.6667E-01  0.3048E-01  0.6801E-02  0.1153E-01  0.2405E-01  0.8871E-01  0.1749E-01
      5.894  0.1072E+00  0.1167E-01  0.5145E-01  0.4762E-01  0.2094E-01  0.5070E-02  0.1851E-01  0.1101E+00  0.2605E-01
      5.959  0.1330E+00  0.2213E-01  0.3282E-01  0.5319E-01  0.5613E-01  0.2460E-02  0.2348E-01  0.8962E-01  0.3046E-01
      6.025  0.9656E-01  0.2866E-01  0.1284E-01  0.3146E-01  0.7407E-01  0.2304E-02  0.2616E-01  0.3676E-01  0.2107E-01
      6.091  0.4083E-01  0.1762E-01  0.3658E-02  0.9890E-02  0.4539E-01  0.1462E-02  0.1553E-01  0.7120E-02  0.8427E-02
      6.156  0.1048E-01  0.4919E-02  0.8360E-02  0.1750E-02  0.1265E-01  0.1072E-02  0.5108E-02  0.1308E-02  0.1870E-02
      6.222  0.5942E-02  0.7112E-03  0.2993E-01  0.2649E-03  0.2154E-02  0.2859E-02  0.3798E-02  0.2896E-02  0.2186E-03
      6.288  0.1429E-01  0.8406E-03  0.5263E-01  0.7017E-03  0.4355E-02  0.6626E-02  0.6617E-02  0.7682E-02  0.1886E-03
      6.353  0.3445E-01  0.4863E-02  0.5457E-01  0.3529E-02  0.1603E-01  0.1173E-01  0.1217E-01  0.2000E-01  0.1735E-02
      6.419  0.6353E-01  0.1833E-01  0.5856E-01  0.1167E-01  0.3595E-01  0.1679E-01  0.2822E-01  0.4529E-01  0.7958E-02
      6.485  0.7549E-01  0.3858E-01  0.6545E-01  0.2414E-01  0.5068E-01  0.1799E-01  0.4441E-01  0.6147E-01  0.1898E-01
      6.550  0.5033E-01  0.4791E-01  0.4452E-01  0.3413E-01  0.3996E-01  0.1356E-01  0.3482E-01  0.4298E-01  0.2822E-01
      6.616  0.1792E-01  0.4053E-01  0.1773E-01  0.3472E-01  0.1588E-01  0.7347E-02  0.1460E-01  0.1743E-01  0.2832E-01
      6.682  0.1031E-01  0.2771E-01  0.1937E-01  0.2620E-01  0.5758E-02  0.4518E-02  0.1356E-01  0.1345E-01  0.1711E-01
      6.747  0.2575E-01  0.3176E-01  0.4229E-01  0.2577E-01  0.1274E-01  0.6947E-02  0.2964E-01  0.2581E-01  0.7171E-02
      6.813  0.4401E-01  0.5916E-01  0.4657E-01  0.2994E-01  0.3313E-01  0.1111E-01  0.3603E-01  0.3015E-01  0.5713E-02
      6.879  0.4258E-01  0.8444E-01  0.2327E-01  0.2258E-01  0.5297E-01  0.1126E-01  0.2331E-01  0.1740E-01  0.7799E-02
      6.944  0.2455E-01  0.7578E-01  0.5316E-02  0.1761E-01  0.4470E-01  0.9237E-02  0.9608E-02  0.7580E-02  0.8573E-02
      7.010  0.8076E-02  0.4830E-01  0.5793E-03  0.2386E-01  0.1806E-01  0.8917E-02  0.2702E-02  0.7491E-02  0.7957E-02
      7.076  0.1365E-02  0.2667E-01  0.3443E-04  0.2209E-01  0.3338E-02  0.7127E-02  0.4392E-03  0.6828E-02  0.5828E-02
      7.141  0.1303E-03  0.1001E-01  0.2230E-05  0.9631E-02  0.2919E-03  0.3007E-02  0.3870E-04  0.2981E-02  0.2393E-02
      7.207  0.6079E-03  0.2080E-02  0.2588E-04  0.1982E-02  0.4420E-03  0.5922E-03  0.9829E-04  0.5851E-03  0.4859E-03
      7.272  0.7575E-02  0.2227E-02  0.3694E-03  0.1277E-02  0.5140E-02  0.1428E-03  0.1091E-02  0.8229E-04  0.3065E-03
      7.338  0.4293E-01  0.1027E-01  0.2808E-02  0.5560E-02  0.2747E-01  0.4980E-03  0.5499E-02  0.4148E-03  0.1325E-02
      7.404  0.1114E+00  0.2281E-01  0.1376E-01  0.1240E-01  0.6651E-01  0.1403E-02  0.1303E-01  0.3480E-02  0.2936E-02
      7.469  0.1357E+00  0.2276E-01  0.4525E-01  0.1257E-01  0.7332E-01  0.2672E-02  0.1682E-01  0.1521E-01  0.2929E-02
      7.535  0.8350E-01  0.1024E-01  0.8364E-01  0.6017E-02  0.3686E-01  0.3765E-02  0.1550E-01  0.3104E-01  0.1331E-02
      7.601  0.3057E-01  0.2113E-02  0.7520E-01  0.1569E-02  0.8428E-02  0.3126E-02  0.1053E-01  0.2876E-01  0.2926E-03
      7.666  0.8110E-02  0.2454E-03  0.3147E-01  0.4777E-03  0.8979E-03  0.1277E-02  0.4043E-02  0.1280E-01  0.8169E-04
      7.732  0.6078E-02  0.5606E-03  0.9994E-02  0.1831E-02  0.5914E-03  0.4571E-03  0.8265E-03  0.1007E-01  0.4479E-03
      7.798  0.2517E-01  0.5482E-02  0.1783E-01  0.7793E-02  0.5440E-02  0.2274E-02  0.7016E-03  0.3243E-01  0.2202E-02
      7.863  0.6971E-01  0.2723E-01  0.3297E-01  0.1672E-01  0.2505E-01  0.1093E-01  0.2782E-02  0.6129E-01  0.6198E-02
      7.929  0.1160E+00  0.6356E-01  0.3640E-01  0.2038E-01  0.5393E-01  0.2485E-01  0.7476E-02  0.6216E-01  0.1059E-01
      7.995  0.1378E+00  0.6895E-01  0.4448E-01  0.1860E-01  0.5727E-01  0.2696E-01  0.1294E-01  0.5615E-01  0.1056E-01
      8.060  0.1366E+00  0.3628E-01  0.5580E-01  0.1545E-01  0.3644E-01  0.1564E-01  0.1395E-01  0.5680E-01  0.6040E-02
      8.126  0.1048E+00  0.1411E-01  0.3932E-01  0.1029E-01  0.2249E-01  0.7881E-02  0.8584E-02  0.3779E-01  0.2796E-02
      8.192  0.9810E-01  0.2063E-01  0.1378E-01  0.1020E-01  0.2994E-01  0.1079E-01  0.4550E-02  0.1930E-01  0.3784E-02
      8.257  0.1591E+00  0.4429E-01  0.5396E-02  0.2039E-01  0.5529E-01  0.2145E-01  0.6184E-02  0.2103E-01  0.6941E-02
      8.323  0.2092E+00  0.6333E-01  0.1062E-01  0.2811E-01  0.7734E-01  0.3023E-01  0.9310E-02  0.2807E-01  0.8762E-02
      8.389  0.1993E+00  0.7320E-01  0.2463E-01  0.2276E-01  0.8860E-01  0.3244E-01  0.1152E-01  0.2962E-01  0.1046E-01
      8.454  0.1364E+00  0.6451E-01  0.4214E-01  0.1193E-01  0.7254E-01  0.2699E-01  0.1237E-01  0.2426E-01  0.1009E-01
      8.520  0.6091E-01  0.3269E-01  0.4670E-01  0.4326E-02  0.3346E-01  0.1731E-01  0.9858E-02  0.1619E-01  0.5346E-02
      8.586  0.2488E-01  0.8963E-02  0.3136E-01  0.2320E-02  0.8642E-02  0.8578E-02  0.5301E-02  0.1139E-01  0.1551E-02
      8.651  0.3892E-01  0.6791E-02  0.2467E-01  0.8282E-02  0.5297E-02  0.6029E-02  0.3466E-02  0.2001E-01  0.1691E-02
      8.717  0.7122E-01  0.1859E-01  0.3415E-01  0.2310E-01  0.8869E-02  0.1001E-01  0.4529E-02  0.3768E-01  0.4884E-02
      8.783  0.6273E-01  0.2641E-01  0.2935E-01  0.3043E-01  0.7808E-02  0.1126E-01  0.3876E-02  0.3573E-01  0.6931E-02
      8.848  0.2484E-01  0.1688E-01  0.1161E-01  0.1847E-01  0.3092E-02  0.6131E-02  0.1532E-02  0.1583E-01  0.4423E-02
      8.914  0.4430E-02  0.4829E-02  0.2116E-02  0.5111E-02  0.5475E-03  0.1574E-02  0.2802E-03  0.3324E-02  0.1265E-02
      8.980  0.1166E-02  0.6640E-03  0.1415E-02  0.6903E-03  0.7254E-04  0.3840E-03  0.2048E-03  0.1238E-02  0.1757E-03
      9.045  0.7073E-02  0.6531E-03  0.1044E-01  0.6777E-03  0.3786E-03  0.2103E-02  0.1546E-02  0.8076E-02  0.1660E-03
      9.111  0.2828E-01  0.3961E-02  0.3867E-01  0.3757E-02  0.2699E-02  0.9904E-02  0.5910E-02  0.3183E-01  0.7976E-03
      9.177  0.5692E-01  0.1469E-01  0.6468E-01  0.1121E-01  0.1120E-01  0.2197E-01  0.1085E-01  0.5706E-01  0.2435E-02
      9.242  0.6760E-01  0.3573E-01  0.5044E-01  0.1798E-01  0.2770E-01  0.2624E-01  0.1128E-01  0.4694E-01  0.6011E-02
      9.308  0.6371E-01  0.5794E-01  0.2352E-01  0.1695E-01  0.4212E-01  0.2398E-01  0.9442E-02  0.1847E-01  0.1102E-01
      9.374  0.7012E-01  0.6647E-01  0.2154E-01  0.1146E-01  0.4311E-01  0.2400E-01  0.8088E-02  0.4956E-02  0.1329E-01
      9.439  0.8745E-01  0.7045E-01  0.3289E-01  0.8395E-02  0.3816E-01  0.2781E-01  0.7266E-02  0.3155E-02  0.1349E-01
      9.505  0.7352E-01  0.6055E-01  0.2824E-01  0.6598E-02  0.2845E-01  0.2514E-01  0.5452E-02  0.2893E-02  0.1115E-01
      9.571  0.3905E-01  0.3159E-01  0.1160E-01  0.5185E-02  0.1622E-01  0.1389E-01  0.2678E-02  0.2899E-02  0.5459E-02
      9.636  0.4176E-01  0.2042E-01  0.3579E-02  0.9753E-02  0.1974E-01  0.1131E-01  0.2065E-02  0.6910E-02  0.2456E-02
      9.702  0.6676E-01  0.2604E-01  0.4281E-02  0.1675E-01  0.3069E-01  0.1571E-01  0.2941E-02  0.1343E-01  0.2485E-02
      9.767  0.7005E-01  0.2138E-01  0.1276E-01  0.1701E-01  0.2406E-01  0.1245E-01  0.2966E-02  0.2122E-01  0.1909E-02
      9.833  0.7571E-01  0.1264E-01  0.3929E-01  0.1705E-01  0.9559E-02  0.6241E-02  0.4874E-02  0.3904E-01  0.1032E-02
      9.899  0.8849E-01  0.1736E-01  0.7964E-01  0.1994E-01  0.8302E-02  0.6879E-02  0.1225E-01  0.5511E-01  0.2294E-02
      9.964  0.7927E-01  0.3506E-01  0.9418E-01  0.2151E-01  0.1983E-01  0.9313E-02  0.1839E-01  0.4753E-01  0.6081E-02
     10.030  0.5503E-01  0.4632E-01  0.6059E-01  0.2380E-01  0.2658E-01  0.7892E-02  0.1428E-01  0.2561E-01  0.7796E-02
     10.096  0.3583E-01  0.4082E-01  0.2103E-01  0.2745E-01  0.2130E-01  0.6814E-02  0.6487E-02  0.1150E-01  0.4823E-02
     10.161  0.2882E-01  0.2852E-01  0.5463E-02  0.2511E-01  0.1531E-01  0.6396E-02  0.2788E-02  0.7059E-02  0.1629E-02
     10.227  0.2368E-01  0.1404E-01  0.6285E-02  0.1366E-01  0.9033E-02  0.5066E-02  0.1436E-02  0.5114E-02  0.3573E-03
     10.293  0.3570E-01  0.5558E-02  0.2219E-01  0.5542E-02  0.4456E-02  0.7617E-02  0.9769E-03  0.7624E-02  0.5056E-04
     10.358  0.6737E-01  0.4388E-02  0.4567E-01  0.4391E-02  0.4906E-02  0.1262E-01  0.1524E-02  0.1263E-01  0.3857E-05
     10.424  0.7420E-01  0.3767E-02  0.4489E-01  0.3766E-02  0.5209E-02  0.1088E-01  0.2884E-02  0.1089E-01  0.1485E-05
     10.490  0.6681E-01  0.3161E-02  0.2091E-01  0.3038E-02  0.2834E-02  0.4576E-02  0.8025E-02  0.4590E-02  0.4150E-04
     10.555  0.8886E-01  0.6124E-02  0.6518E-02  0.4436E-02  0.1836E-02  0.2209E-02  0.1702E-01  0.2444E-02  0.5634E-03
     10.621  0.1046E+00  0.1742E-01  0.1289E-01  0.7091E-02  0.6565E-02  0.7429E-02  0.1929E-01  0.9325E-02  0.3431E-02