    4    4   10    1
  0.1507431E+02  0.3979991E-09  0.3979991E-09  0.3806565E-09  0.3500000E-15
   1.0000000000000000E-004
  CAR 
 Au, FCC                                 
   44   18   26

  0.8333333E-01  0.8333333E-01  0.8333333E-01  0.3703704E-01
   1       -4.5964
   2       -2.1719
   3       -1.7714
   4       -1.5474
   5       -1.0585
   6       -0.9714
   7       -0.6740
   8        0.5614
   9        0.7042
  10        1.6391
  11        1.7918
  12        2.4026
  13        2.4116
  14        2.7524
  15        2.7833
  16        2.8041
  17        2.8068
  18        2.8591
  19        3.0369
  20        3.0393
  21        3.0458
  22        5.5494
  23        5.5679
  24        6.2625
  25       10.5563
  26       11.7096

  0.2500000E+00  0.8333333E-01  0.8333333E-01  0.7407407E-01
   1       -3.9795
   2       -1.8275
   3       -1.4720
   4       -1.1850
   5       -0.9386
   6       -0.7019
   7       -0.6828
   8        0.2511
   9        0.6674
  10        1.2195
  11        1.3164
  12        1.8991
  13        2.2616
  14        2.2710
  15        2.4526
  16        2.5387
  17        2.6484
  18        2.6542
  19        2.9087
  20        3.0275
  21        3.0581
  22        3.5784
  23        6.8733
  24        7.5291
  25       11.0932
  26       11.4196

  0.4166667E+00  0.8333333E-01  0.8333333E-01  0.7407407E-01
   1       -2.8703
   2       -1.7851
   3       -0.9177
   4       -0.7211
   5       -0.6181
   6       -0.6152
   7       -0.2323
   8       -0.1833
   9        0.0640
  10        0.3073
  11        0.7775
  12        1.0959
  13        2.0739
  14        2.1582
  15        2.3055
  16        2.3416
  17        2.4411
  18        2.5847
  19        2.6293
  20        2.7517
  21        3.0311
  22        3.0454
  23        8.4099
  24        9.1519
  25        9.9831
  26       10.7072

  0.2500000E+00  0.2500000E+00  0.8333333E-01  0.3703704E-01
   1       -3.4615
   2       -1.4438
   3       -1.3771
   4       -0.9787
   5       -0.7204
   6       -0.6936
   7       -0.2615
   8       -0.1471
   9        0.1705
  10        0.9069
  11        1.1712
  12        1.8755
  13        1.9490
  14        2.0432
  15        2.4276
  16        2.5017
  17        2.5172
  18        2.5330
  19        2.8587
  20        2.8894
  21        2.8915
  22        4.4968
  23        4.8631
  24        8.4863
  25        9.2244
  26       13.1009

  0.4166667E+00  0.2500000E+00  0.8333333E-01  0.7407407E-01
   1       -2.5465
   2       -1.5237
   3       -1.0341
   4       -0.9044
   5       -0.5470
   6       -0.5455
   7       -0.4859
   8       -0.1425
   9        0.2916
  10        0.7657
  11        0.8866
  12        1.3423
  13        1.8997
  14        2.0115
  15        2.1628
  16        2.2337
  17        2.4068
  18        2.5845
  19        2.7603
  20        2.8018
  21        2.8083
  22        3.2362
  23        5.9868
  24        7.4032
  25        9.9266
  26       11.5384

  0.4166667E+00  0.4166667E+00  0.8333333E-01  0.3703704E-01
   1       -2.1051
   2       -1.6713
   3       -1.0638
   4       -1.0134
   5       -0.6259
   6       -0.5132
   7       -0.0628
   8        0.4221
   9        0.6369
  10        0.8744
  11        1.0784
  12        1.2403
  13        1.7036
  14        1.7820
  15        1.9297
  16        1.9675
  17        2.3496
  18        2.4320
  19        2.5735
  20        2.5964
  21        3.2248
  22        3.8700
  23        4.5239
  24        5.5290
  25       11.1357
  26       12.5262

  0.8333333E-01  0.8333333E-01  0.2500000E+00  0.3703704E-01
   1       -4.0127
   2       -1.9905
   3       -1.6890
   4       -1.3775
   5       -1.0397
   6       -0.9227
   7       -0.1312
   8        0.6305
   9        0.7998
  10        1.6944
  11        1.7001
  12        1.9028
  13        2.1045
  14        2.1686
  15        2.4068
  16        2.4520
  17        2.6230
  18        2.7143
  19        2.8675
  20        2.9112
  21        2.9787
  22        3.9728
  23        6.7942
  24        7.0081
  25       10.9588
  26       10.9922

  0.2500000E+00  0.8333333E-01  0.2500000E+00  0.7407407E-01
   1       -3.4228
   2       -1.6625
   3       -1.3960
   4       -1.0414
   5       -1.0001
   6       -0.6671
   7       -0.1644
   8        0.2457
   9        0.6413
  10        1.0338
  11        1.2516
  12        1.7595
  13        1.8618
  14        2.0379
  15        2.2228
  16        2.4189
  17        2.5703
  18        2.5778
  19        2.7661
  20        2.8768
  21        2.9102
  22        4.6755
  23        5.0793
  24        7.9360
  25        9.8458
  26       12.0855

  0.4166667E+00  0.8333333E-01  0.2500000E+00  0.7407407E-01
   1       -2.3990
   2       -1.5404
   3       -0.9054
   4       -0.7223
   5       -0.4601
   6       -0.3453
   7       -0.2582
   8       -0.1521
   9        0.0629
  10        0.2207
  11        0.6443
  12        0.9661
  13        2.0157
  14        2.1088
  15        2.1984
  16        2.3435
  17        2.4156
  18        2.5823
  19        2.7678
  20        2.8086
  21        2.8250
  22        3.3226
  23        6.4572
  24        8.0269
  25        9.3040
  26       10.8107

  0.2500000E+00  0.2500000E+00  0.2500000E+00  0.3703704E-01
   1       -3.0009
   2       -1.4998
   3       -1.3740
   4       -0.9719
   5       -0.4974
   6       -0.3463
   7       -0.1518
   8       -0.1071
   9        0.1352
  10        0.7910
  11        1.1606
  12        1.7950
  13        1.8418
  14        1.9218
  15        2.0316
  16        2.3502
  17        2.4536
  18        2.4881
  19        2.9092
  20        2.9679
  21        2.9897
  22        5.4023
  23        5.4233
  24        5.7535
  25       10.1325
  26       10.3728

  0.4166667E+00  0.2500000E+00  0.2500000E+00  0.7407407E-01
   1       -2.2801
   2       -1.5995
   3       -1.2910
   4       -1.0606
   5       -0.3662
   6       -0.2439
   7       -0.1234
   8        0.1595
   9        0.2665
  10        0.6338
  11        0.8508
  12        1.5218
  13        1.8432
  14        1.9545
  15        2.0378
  16        2.1277
  17        2.5982
  18        2.6828
  19        2.8316
  20        2.9024
  21        2.9083
  22        3.4621
  23        6.4765
  24        6.7546
  25        8.3493
  26        8.7069

  0.4166667E+00  0.4166667E+00  0.2500000E+00  0.3703704E-01
   1       -2.0506
   2       -1.6499
   3       -1.6467
   4       -1.5551
   5       -0.1634
   6       -0.1002
   7        0.1133
   8        0.4817
   9        0.7607
  10        0.9704
  11        1.2626
  12        1.6754
  13        1.8099
  14        1.9170
  15        1.9334
  16        1.9540
  17        2.6016
  18        2.7823
  19        2.8288
  20        2.8379
  21        3.0670
  22        4.0098
  23        4.5180
  24        5.6321
  25        8.3892
  26        9.4265

  0.8333333E-01  0.8333333E-01  0.4166667E+00  0.3703704E-01
   1       -3.1713
   2       -1.7798
   3       -1.5953
   4       -1.1890
   5       -1.0348
   6       -0.8630
   7        0.7091
   8        0.7755
   9        0.9356
  10        1.1836
  11        1.4313
  12        1.6259
  13        1.6479
  14        1.6948
  15        1.7655
  16        2.3151
  17        2.4974
  18        2.5316
  19        2.6373
  20        2.7423
  21        2.8139
  22        2.9694
  23        8.2821
  24        8.7461
  25       10.0905
  26       10.3363

  0.2500000E+00  0.8333333E-01  0.4166667E+00  0.7407407E-01
   1       -2.6015
   2       -1.4261
   3       -1.3062
   4       -1.1543
   5       -1.0907
   6       -0.6318
   7        0.4316
   8        0.6477
   9        0.6568
  10        0.8812
  11        1.1400
  12        1.4557
  13        1.5274
  14        1.7077
  15        1.8751
  16        2.3737
  17        2.4728
  18        2.5740
  19        2.6043
  20        2.7614
  21        2.8484
  22        3.3910
  23        5.9088
  24        7.8462
  25        9.4461
  26       11.0332

  0.4166667E+00  0.8333333E-01  0.4166667E+00  0.7407407E-01
   1       -1.7151
   2       -1.3737
   3       -1.1593
   4       -0.7879
   5       -0.4264
   6       -0.2972
   7       -0.1022
   8        0.1097
   9        0.3931
  10        0.5685
  11        0.6217
  12        0.9357
  13        1.6704
  14        1.7300
  15        2.1587
  16        2.3200
  17        2.3482
  18        2.4144
  19        2.5334
  20        2.6514
  21        3.3033
  22        4.1903
  23        4.4356
  24        5.8800
  25       10.7007
  26       12.2433

  0.2500000E+00  0.2500000E+00  0.4166667E+00  0.3703704E-01
   1       -2.3809
   2       -1.5660
   3       -1.5015
   4       -0.9691
   5       -0.4435
   6       -0.2473
   7       -0.1139
   8        0.3940
   9        0.6791
  10        0.8008
  11        0.9734
  12        1.4711
  13        1.7022
  14        1.8561
  15        1.8794
  16        2.3066
  17        2.5882
  18        2.6961
  19        2.7252
  20        2.8986
  21        2.9197
  22        3.5891
  23        6.3776
  24        6.5821
  25        8.0536
  26        9.1738

  0.4166667E+00  0.2500000E+00  0.4166667E+00  0.7407407E-01
   1       -1.9545
   2       -1.7613
   3       -1.6338
   4       -1.1070
   5       -0.3210
   6        0.2342
   7        0.2666
   8        0.4640
   9        0.5334
  10        0.6029
  11        0.8497
  12        1.7819
  13        1.7975
  14        1.8753
  15        2.0635
  16        2.1223
  17        2.5824
  18        2.6663
  19        2.8333
  20        2.8476
  21        3.1446
  22        4.2734
  23        4.4210
  24        5.7413
  25        8.2420
  26        9.6822

  0.4166667E+00  0.4166667E+00  0.4166667E+00  0.3703704E-01
   1       -2.0425
   2       -2.0066
   3       -1.8705
   4       -1.6565
   5        0.0773
   6        0.3597
   7        0.3980
   8        0.4319
   9        0.6167
  10        0.7537
  11        1.8935
  12        1.9678
  13        2.0220
  14        2.2896
  15        2.4049
  16        2.6485
  17        2.8072
  18        2.8476
  19        2.8733
  20        2.9318
  21        2.9722
  22        4.3223
  23        4.4155
  24        4.4506
  25        7.4251
  26        7.9153
