       N       E                     dE             d eps       ncg     rms          rms(c)
DAV:   1     0.311308711007E+03    0.31131E+03   -0.17016E+04   952   0.162E+03

DAV:   2     0.702042850559E+01   -0.30429E+03   -0.29294E+03   966   0.391E+02

DAV:   3    -0.153729543256E+02   -0.22393E+02   -0.21798E+02  1014   0.127E+02

DAV:   4    -0.158654713128E+02   -0.49252E+00   -0.49014E+00  1014   0.183E+01

DAV:   5    -0.158721890205E+02   -0.67177E-02   -0.67168E-02  1030   0.188E+00    0.911E+00
RMM:   6    -0.148180372915E+02    0.10542E+01   -0.14672E+01   936   0.423E+01    0.506E+00
RMM:   7    -0.141514470806E+02    0.66659E+00   -0.41908E+00   936   0.198E+01    0.248E+00
RMM:   8    -0.140385512856E+02    0.11290E+00   -0.17040E-01   936   0.421E+00    0.492E-01
RMM:   9    -0.140268708392E+02    0.11680E-01   -0.11580E-02   937   0.125E+00    0.347E-01
RMM:  10    -0.140241819308E+02    0.26889E-02   -0.70780E-03   936   0.744E-01    0.420E-02
RMM:  11    -0.140241775281E+02    0.44028E-05   -0.14409E-04   532   0.101E-01

   1 F= -.14024178E+02 E0= -.14016387E+02  d E =-.140242E+02
       N       E                     dE             d eps       ncg     rms          rms(c)
DAV:   1    -0.140306054031E+02   -0.14031E+02   -0.10477E-01   996   0.409E+00    0.556E-01
RMM:   2    -0.140265351531E+02    0.40703E-02   -0.42186E-02   936   0.219E+00    0.287E-01
RMM:   3    -0.140248993644E+02    0.16358E-02   -0.13667E-02   936   0.113E+00    0.208E-01
RMM:   4    -0.140242298875E+02    0.66948E-03   -0.68305E-04   741   0.270E-01    0.707E-02
RMM:   5    -0.140241302076E+02    0.99680E-04   -0.14827E-04   513   0.782E-02

   2 F= -.14024130E+02 E0= -.14016030E+02  d E =0.473204E-04

