 vasp.4.6.26 15Dec04 complex 
 executed on             LinuxPgi date 2009.11.30  23:37:00
 serial version


--------------------------------------------------------------------------------------------------------


 INCAR:
 POTCAR:   PAW_GGA Au 18Jul2000                   
 POTCAR:   PAW_GGA Cu 05Jan2001                   
 POTCAR:   PAW_GGA Au 18Jul2000                   
  local pseudopotential read in
  partial core-charges read in
  atomic valenz-charges read in
  non local Contribution for L=                        2  read in
    real space projection operators read in
  non local Contribution for L=                        2  read in
    real space projection operators read in
  non local Contribution for L=                        0  read in
    real space projection operators read in
  non local Contribution for L=                        0  read in
    real space projection operators read in
  non local Contribution for L=                        1  read in
    real space projection operators read in
  non local Contribution for L=                        1  read in
    real space projection operators read in
    PAW grid and wavefunctions read in

   number of l-projection  operators is LMAX  =                        6
   number of lm-projection operators is LMMAX =                       18

 POTCAR:   PAW_GGA Cu 05Jan2001                   
  local pseudopotential read in
  partial core-charges read in
  atomic valenz-charges read in
  non local Contribution for L=                        2  read in
    real space projection operators read in
  non local Contribution for L=                        2  read in
    real space projection operators read in
  non local Contribution for L=                        0  read in
    real space projection operators read in
  non local Contribution for L=                        0  read in
    real space projection operators read in
  non local Contribution for L=                        1  read in
    real space projection operators read in
  non local Contribution for L=                        1  read in
    real space projection operators read in
    PAW grid and wavefunctions read in

   number of l-projection  operators is LMAX  =                        6
   number of lm-projection operators is LMMAX =                       18

 PAW_GGA Au 18Jul2000                   :
 energy of atom  1       EATOM= -927.0928
 kinetic energy error for atom=    0.0152 (will be added to EATOM!!)
 PAW_GGA Cu 05Jan2001                   :
 energy of atom  2       EATOM=-1393.0707
 kinetic energy error for atom=    0.0259 (will be added to EATOM!!)

 EXHCAR: internal setup
 exchange correlation table for  LEXCH =        7
   RHO(1)=    0.500       N(1)  =     2000
   RHO(2)=  100.500       N(2)  =     4000

 POSCAR: Pure FCC metal                          
  positions in direct lattice
  velocities in cartesian coordinates



--------------------------------------------------------------------------------------------------------


 ion  position               nearest neighbor table
   1  0.000  0.000  0.000-   3 2.75   4 2.75   3 2.75   4 2.75   4 2.75   4 2.75   3 2.75   3 2.75
                             2 2.81   2 2.81   2 2.81   2 2.81
   2  0.500  0.500  0.000-   3 2.75   4 2.75   3 2.75   4 2.75   3 2.75   3 2.75   4 2.75   4 2.75
                             1 2.81   1 2.81   1 2.81   1 2.81
   3  0.500  0.000  0.500-   1 2.75   2 2.75   1 2.75   2 2.75   2 2.75   2 2.75   1 2.75   1 2.75
                             4 2.81   4 2.81   4 2.81   4 2.81
   4  0.000  0.500  0.500-   1 2.75   2 2.75   1 2.75   2 2.75   1 2.75   1 2.75   2 2.75   2 2.75
                             3 2.81   3 2.81   3 2.81   3 2.81

  LATTYP: Found a simple tetragonal cell.
 ALAT       =     3.9799906182
 C/A-ratio  =     0.9564255741
  
  Lattice vectors:
  
 A1 = (   3.9799906182,   0.0000000000,   0.0000000000)
 A2 = (   0.0000000000,   3.9799906182,   0.0000000000)
 A3 = (   0.0000000000,   0.0000000000,   3.8065648119)
 Subroutine PRICEL returns following result:
 
  LATTYP: Found a simple tetragonal cell.
 ALAT       =     2.8142783552
 C/A-ratio  =     1.3525900183
  
  Lattice vectors:
  
 A1 = (   1.9899953091,  -1.9899953091,   0.0000000000)
 A2 = (  -1.9899953091,  -1.9899953091,   0.0000000000)
 A3 = (   0.0000000000,   0.0000000000,  -3.8065648119)
 
   2 primitive cells build up your supercell.
 

Analysis of symmetry for initial positions (statically):

 Routine SETGRP: Setting up the symmetry group for a 
 simple tetragonal supercell.


 Subroutine GETGRP returns: Found 16 space group operations
 (whereof 16 operations were pure point group operations)
 out of a pool of 16 trial point group operations.


The static configuration has the point symmetry D_4h.

Analysis of symmetry for dynamics (positions and initial velocities):

 Subroutine DYNSYM returns: Found 16 space group operations
 (whereof 16 operations were pure point group operations)
 out of a pool of 16 trial space group operations
 (whereof 16 operations were pure point group operations)
 and found also     2 'primitive' translations


The dynamic configuration has the point symmetry D_4h.


 KPOINTS: 6x6x6 title card                        

Automatic generation of k-mesh.
 
 Subroutine IBZKPT returns following result:
 ===========================================
 
 Found     18 irreducible k-points:
 
 Following reciprocal coordinates:
            Coordinates               Weight
  0.083333  0.083333  0.083333      8.000000
  0.250000  0.083333  0.083333     16.000000
  0.416667  0.083333  0.083333     16.000000
  0.250000  0.250000  0.083333      8.000000
  0.416667  0.250000  0.083333     16.000000
  0.416667  0.416667  0.083333      8.000000
  0.083333  0.083333  0.250000      8.000000
  0.250000  0.083333  0.250000     16.000000
  0.416667  0.083333  0.250000     16.000000
  0.250000  0.250000  0.250000      8.000000
  0.416667  0.250000  0.250000     16.000000
  0.416667  0.416667  0.250000      8.000000
  0.083333  0.083333  0.416667      8.000000
  0.250000  0.083333  0.416667     16.000000
  0.416667  0.083333  0.416667     16.000000
  0.250000  0.250000  0.416667      8.000000
  0.416667  0.250000  0.416667     16.000000
  0.416667  0.416667  0.416667      8.000000
 
 Following cartesian coordinates:
            Coordinates               Weight
  0.087437  0.087437  0.091421      8.000000
  0.262312  0.087437  0.091421     16.000000
  0.437187  0.087437  0.091421     16.000000
  0.262312  0.262312  0.091421      8.000000
  0.437187  0.262312  0.091421     16.000000
  0.437187  0.437187  0.091421      8.000000
  0.087437  0.087437  0.274263      8.000000
  0.262312  0.087437  0.274263     16.000000
  0.437187  0.087437  0.274263     16.000000
  0.262312  0.262312  0.274263      8.000000
  0.437187  0.262312  0.274263     16.000000
  0.437187  0.437187  0.274263      8.000000
  0.087437  0.087437  0.457105      8.000000
  0.262312  0.087437  0.457105     16.000000
  0.437187  0.087437  0.457105     16.000000
  0.262312  0.262312  0.457105      8.000000
  0.437187  0.262312  0.457105     16.000000
  0.437187  0.437187  0.457105      8.000000
 


--------------------------------------------------------------------------------------------------------




 Dimension of arrays:
   k-Points           NKPTS =     18   number of bands    NBANDS=     26
   number of dos      NEDOS =    301   number of ions     NIONS =      4
   non local maximal  LDIM  =      6   non local SUM 2l+1 LMDIM =     18
   total plane-waves  NPLWV =   5832
   max r-space proj   IRMAX =      1   max aug-charges    IRDMAX=   6114
   dimension x,y,z NGX =    18 NGY =   18 NGZ =   18
   dimension x,y,z NGXF=    36 NGYF=   36 NGZF=   36
   support grid    NGXF=    36 NGYF=   36 NGZF=   36
   ions per type =               2   2
 NGX,Y,Z   is equivalent  to a cutoff of   7.52,  7.52,  7.86 a.u.
 NGXF,Y,Z  is equivalent  to a cutoff of  15.04, 15.04, 15.72 a.u.


 I would recommend the setting:
   dimension x,y,z NGX =    18 NGY =   18 NGZ =   17
 SYSTEM =  Au, FCC                                 
 POSCAR =  Pure FCC metal                          

 Startparameter for this run:
   NWRITE =      1    write-flag & timer
   PREC   = normal    medium, high low
   ISTART =      0    job   : 0-new  1-cont  2-samecut
   ICHARG =      2    charge: 1-file 2-atom 10-const
   ISPIN  =      1    spin polarized calculation?
   LNONCOLLINEAR =      F non collinear calculations
   LSORBIT =      F    spin-orbit coupling
   INIWAV =      1    electr: 0-lowe 1-rand  2-diag
   LASPH  =      F    aspherical Exc in radial PAW
   METAGGA=      F    non-selfconsistent MetaGGA calc.

 Electronic Relaxation 1
   ENCUT  =  350.0 eV  25.72 Ry    5.07 a.u.   6.07  6.07  5.81*2*pi/ulx,y,z
   ENINI  =  350.0     initial cutoff
   ENAUG  =  516.5 eV  augmentation charge cutoff
   NELM   =     60;   NELMIN=  2; NELMDL= -5     # of ELM steps 
   EDIFF  = 0.1E-03   stopping-criterion for ELM
   LREAL  =      F    real-space projection
   LCOMPAT=      F    compatible to vasp.4.4
   LREAL_COMPAT= F    compatible to vasp.4.5.1-3
   GGA_COMPAT  = T    GGA compatible to vasp.4.4-vasp.4.6
   LMAXPAW     = -100 max onsite density
   LMAXMIX     =    2 max onsite mixed and CHGCAR
   VOSKOWN=      0    Vosko Wilk Nusair interpolation
   ROPT   =    0.00000   0.00000
 Ionic relaxation
   EDIFFG = 0.1E-02   stopping-criterion for IOM
   NSW    =     10    number of steps for IOM
   NBLOCK =      1;   KBLOCK =     10    inner block; outer block 
   IBRION =      1    ionic relax: 0-MD 1-quasi-New 2-CG
   NFREE  =      5    steps in history (QN), initial steepest desc. (CG)
   ISIF   =      3    stress and relaxation
   IWAVPR =     11    prediction:  0-non 1-charg 2-wave 3-comb
   ISYM   =      2    0-nonsym 1-usesym 2-fastsym
   LCORR  =      T    Harris-Foulkes like correction to forces

   POTIM  =   0.35    time-step for ionic-motion
   TEIN   =    0.0    initial temperature
   TEBEG  =    0.0;   TEEND  =   0.0 temperature during run
   SMASS  =  -3.00    Nose mass-parameter (am)
   estimated Nose-frequenzy (Omega)   =  0.10E-29 period in steps =****** mass=  -0.362E-27a.u.
   NPACO  =    256;   APACO  = 16.0  distance and # of slots for P.C.
   PSTRESS=    0.0 pullay stress

  Mass of Ions in am
   POMASS = 196.97 63.55
  Ionic Valenz
   ZVAL   =  11.00 11.00
  Atomic Wigner-Seitz radii
   RWIGS  =  -1.00 -1.00
   NELECT =      44.0000    total number of electrons
   NUPDOWN=      -1.0000    fix difference up-down

 DOS related values:
   EMIN   =  10.00;   EMAX   =-10.00  energy-range for DOS
   ISMEAR =     0;   SIGMA  =   0.10  broadening in eV -4-tet -1-fermi 0-gaus

 Electronic relaxation 2 (details)
   IALGO  =     68    algorithm
   LDIAG  =      T    sub-space diagonalisation
   IMIX   =      4    mixing-type and parameters
     AMIX     =   0.40;   BMIX     =  1.00
     AMIX_MAG =   1.60;   BMIX_MAG =  1.00
     AMIN     =   0.10
     WC   =   100.;   INIMIX=   1;  MIXPRE=   1

 Intra band minimization:
   WEIMIN = 0.0010     energy-eigenvalue tresh-hold
   EBREAK =  0.96E-06  absolut break condition
   DEPER  =   0.30     relativ break condition  

   TIME   =   0.10     timestep for ELM

  volume/ion in A,a.u.               =      15.07       101.73
  Fermi-wavevector in a.u.,eV,Ry     =   1.473873 29.555942  2.172300

 Second variation
   LSECVAR=     F    do a second variation

 Write flags
   LWAVE  =      F    write WAVECAR
   LCHARG =      T    write CHGCAR
   LVTOT  =      F    write LOCPOT, local potential
   LELF   =      F    write electronic localiz. function (ELF)
   LORBIT =     11    0 simple, 1 ext, 2 COOP (PROOUT)


 Dipole corrections
   IDIPOL =      0    1-x, 2-y, 3-z
   LDIPOL =      F    correct potential



--------------------------------------------------------------------------------------------------------


 quasi-Newton-method for relaxation of ions
 charge density will be updated during run
 non-spin polarized calculation
 RMM-DIIS sequential band-by-band and
  variant of blocked Davidson during initial phase
 performe sub-space diagonalisation
    before iterative eigenvector-optimisation
 modified Broyden-mixing scheme, WC =      100.0
 initial mixing is a Kerker type mixing with AMIX =  0.4000 and BMIX =      1.0000
 Hartree-type preconditioning will be used
 using additional bands                         4
 reciprocal scheme for non local part
 use partial core corrections
 calculate Harris-corrections to forces 
   (improved forces if not selfconsistent)
 use gradient corrections 
 use of overlap-Matrix (Vanderbilt PP)
 Gauss-broadening in eV      SIGMA  =   0.10


--------------------------------------------------------------------------------------------------------


  energy-cutoff  :      350.00
  volume of cell :       60.30
      direct lattice vectors                 reciprocal lattice vectors
     3.979990618  0.000000000  0.000000000     0.251256874  0.000000000  0.000000000
     0.000000000  3.979990618  0.000000000     0.000000000  0.251256874  0.000000000
     0.000000000  0.000000000  3.806564812     0.000000000  0.000000000  0.262704052

  length of vectors
     3.979990618  3.979990618  3.806564812     0.251256874  0.251256874  0.262704052



 k-points in units of 2pi/SCALE and weight: 6x6x6 title card                        
   0.08743739  0.08743739  0.09142101       0.037
   0.26231218  0.08743739  0.09142101       0.074
   0.43718696  0.08743739  0.09142101       0.074
   0.26231218  0.26231218  0.09142101       0.037
   0.43718696  0.26231218  0.09142101       0.074
   0.43718696  0.43718696  0.09142101       0.037
   0.08743739  0.08743739  0.27426303       0.037
   0.26231218  0.08743739  0.27426303       0.074
   0.43718696  0.08743739  0.27426303       0.074
   0.26231218  0.26231218  0.27426303       0.037
   0.43718696  0.26231218  0.27426303       0.074
   0.43718696  0.43718696  0.27426303       0.037
   0.08743739  0.08743739  0.45710505       0.037
   0.26231218  0.08743739  0.45710505       0.074
   0.43718696  0.08743739  0.45710505       0.074
   0.26231218  0.26231218  0.45710505       0.037
   0.43718696  0.26231218  0.45710505       0.074
   0.43718696  0.43718696  0.45710505       0.037

 k-points in reciprocal lattice and weights: 6x6x6 title card                        
   0.08333333  0.08333333  0.08333333       0.037
   0.25000000  0.08333333  0.08333333       0.074
   0.41666667  0.08333333  0.08333333       0.074
   0.25000000  0.25000000  0.08333333       0.037
   0.41666667  0.25000000  0.08333333       0.074
   0.41666667  0.41666667  0.08333333       0.037
   0.08333333  0.08333333  0.25000000       0.037
   0.25000000  0.08333333  0.25000000       0.074
   0.41666667  0.08333333  0.25000000       0.074
   0.25000000  0.25000000  0.25000000       0.037
   0.41666667  0.25000000  0.25000000       0.074
   0.41666667  0.41666667  0.25000000       0.037
   0.08333333  0.08333333  0.41666667       0.037
   0.25000000  0.08333333  0.41666667       0.074
   0.41666667  0.08333333  0.41666667       0.074
   0.25000000  0.25000000  0.41666667       0.037
   0.41666667  0.25000000  0.41666667       0.074
   0.41666667  0.41666667  0.41666667       0.037

 position of ions in fractional coordinates (direct lattice) 
   0.00000000  0.00000000  0.00000000
   0.50000000  0.50000000  0.00000000
   0.50000000  0.00000000  0.50000000
   0.00000000  0.50000000  0.50000000

 position of ions in cartesian coordinates  (Angst):
   0.00000000  0.00000000  0.00000000
   1.98999531  1.98999531  0.00000000
   1.98999531  0.00000000  1.90328241
   0.00000000  1.98999531  1.90328241



--------------------------------------------------------------------------------------------------------


 k-point  1 :  0.08330.08330.0833  plane waves:    901
 k-point  2 :  0.25000.08330.0833  plane waves:    896
 k-point  3 :  0.41670.08330.0833  plane waves:    889
 k-point  4 :  0.25000.25000.0833  plane waves:    890
 k-point  5 :  0.41670.25000.0833  plane waves:    899
 k-point  6 :  0.41670.41670.0833  plane waves:    902
 k-point  7 :  0.08330.08330.2500  plane waves:    896
 k-point  8 :  0.25000.08330.2500  plane waves:    893
 k-point  9 :  0.41670.08330.2500  plane waves:    895
 k-point 10 :  0.25000.25000.2500  plane waves:    900
 k-point 11 :  0.41670.25000.2500  plane waves:    901
 k-point 12 :  0.41670.41670.2500  plane waves:    894
 k-point 13 :  0.08330.08330.4167  plane waves:    890
 k-point 14 :  0.25000.08330.4167  plane waves:    891
 k-point 15 :  0.41670.08330.4167  plane waves:    895
 k-point 16 :  0.25000.25000.4167  plane waves:    900
 k-point 17 :  0.41670.25000.4167  plane waves:    903
 k-point 18 :  0.41670.41670.4167  plane waves:    910

 maximum number of plane-waves:    910
 maximal index in each direction: 
   IXMAX=  5   IYMAX=  5   IZMAX=  5
   IXMIN= -6   IYMIN= -6   IZMIN= -6

 WARNING: wrap around error must be expected set NGX to  24
 WARNING: wrap around error must be expected set NGY to  24
 WARNING: wrap around error must be expected set NGZ to  24
 For storing wavefunctions    6.72 MBYTES are necessary
 For predicting wavefunctions    1.28 MBYTES are necessary
Broyden mixing: mesh for mixing (old mesh)
   NGX = 13   NGY = 13   NGZ = 11
  (NGX  = 36   NGY  = 36   NGZ  = 36)
 gives a total of   1859 points
 initial charge density was supplied:
 charge density of overlapping atoms calculated
 number of electron   44.0000000 magnetization 
 keeping initial charge density in first step


--------------------------------------------------------------------------------------------------------


 Maximum index for augmentation-charges                      5747 (set IRDMAX)


--------------------------------------------------------------------------------------------------------


 First call to EWALD:  gamma=   0.452
 Maximum number of real-space cells 3x 3x 3
 Maximum number of reciprocal cells 3x 3x 3



----------------------------------------- Iteration    1(   1)  ---------------------------------------


      LOOP:  VPU time    3.33: CPU time    2.98

 eigenvalue-minimisations  :   952
 total energy-change (2. order) : 0.3113087E+03  (-0.1701605E+04)
 number of electron   44.0000000 magnetization 
 augmentation part    44.0000000 magnetization 

 Free energy of the ion-electron system (eV)
  ---------------------------------------------------
  alpha Z        PSCENC =       416.72597188
  Ewald energy   TEWEN  =     -4074.32233101
  -1/2 Hartree   DENC   =      -965.47583778
  -V(xc)+E(xc)   XCENC  =       117.37167641
  PAW double counting   =      3661.18944825    -3904.11182591
  entropy T*S    EENTRO =        -0.01032681
  eigenvalues    EBANDS =       419.69704000
  atomic energy  EATOM  =      4640.24489596
  ---------------------------------------------------
  free energy    TOTEN  =       311.30871101 eV

  energy without entropy =      311.31903781  energy(sigma->0) =      311.31387441


--------------------------------------------------------------------------------------------------------




----------------------------------------- Iteration    1(   2)  ---------------------------------------


      LOOP:  VPU time    3.30: CPU time    2.86

 eigenvalue-minimisations  :   966
 total energy-change (2. order) :-0.3042883E+03  (-0.2929428E+03)
 number of electron   44.0000000 magnetization 
 augmentation part    44.0000000 magnetization 

 Free energy of the ion-electron system (eV)
  ---------------------------------------------------
  alpha Z        PSCENC =       416.72597188
  Ewald energy   TEWEN  =     -4074.32233101
  -1/2 Hartree   DENC   =      -965.47583778
  -V(xc)+E(xc)   XCENC  =       117.37167641
  PAW double counting   =      3661.18944825    -3904.11182591
  entropy T*S    EENTRO =        -0.01027892
  eigenvalues    EBANDS =       115.40870962
  atomic energy  EATOM  =      4640.24489596
  ---------------------------------------------------
  free energy    TOTEN  =         7.02042851 eV

  energy without entropy =        7.03070743  energy(sigma->0) =        7.02556797


--------------------------------------------------------------------------------------------------------




----------------------------------------- Iteration    1(   3)  ---------------------------------------


      LOOP:  VPU time    3.38: CPU time    2.94

 eigenvalue-minimisations  :  1014
 total energy-change (2. order) :-0.2239338E+02  (-0.2179843E+02)
 number of electron   44.0000000 magnetization 
 augmentation part    44.0000000 magnetization 

 Free energy of the ion-electron system (eV)
  ---------------------------------------------------
  alpha Z        PSCENC =       416.72597188
  Ewald energy   TEWEN  =     -4074.32233101
  -1/2 Hartree   DENC   =      -965.47583778
  -V(xc)+E(xc)   XCENC  =       117.37167641
  PAW double counting   =      3661.18944825    -3904.11182591
  entropy T*S    EENTRO =        -0.01621470
  eigenvalues    EBANDS =        93.02126257
  atomic energy  EATOM  =      4640.24489596
  ---------------------------------------------------
  free energy    TOTEN  =       -15.37295433 eV

  energy without entropy =      -15.35673962  energy(sigma->0) =      -15.36484697


--------------------------------------------------------------------------------------------------------




----------------------------------------- Iteration    1(   4)  ---------------------------------------


      LOOP:  VPU time    3.21: CPU time    2.81

 eigenvalue-minimisations  :  1014
 total energy-change (2. order) :-0.4925170E+00  (-0.4901368E+00)
 number of electron   44.0000000 magnetization 
 augmentation part    44.0000000 magnetization 

 Free energy of the ion-electron system (eV)
  ---------------------------------------------------
  alpha Z        PSCENC =       416.72597188
  Ewald energy   TEWEN  =     -4074.32233101
  -1/2 Hartree   DENC   =      -965.47583778
  -V(xc)+E(xc)   XCENC  =       117.37167641
  PAW double counting   =      3661.18944825    -3904.11182591
  entropy T*S    EENTRO =        -0.01463796
  eigenvalues    EBANDS =        92.52716883
  atomic energy  EATOM  =      4640.24489596
  ---------------------------------------------------
  free energy    TOTEN  =       -15.86547131 eV

  energy without entropy =      -15.85083336  energy(sigma->0) =      -15.85815233


--------------------------------------------------------------------------------------------------------




----------------------------------------- Iteration    1(   5)  ---------------------------------------


      LOOP:  VPU time    3.46: CPU time    3.04

 eigenvalue-minimisations  :  1030
 total energy-change (2. order) :-0.6717708E-02  (-0.6716827E-02)
 number of electron   44.0000232 magnetization 
 augmentation part    21.2823798 magnetization 

 Broyden mixing:
  rms(total) = 0.91125E+00    rms(broyden)= 0.91116E+00
  rms(prec ) = 0.21691E+01
  weight for this iteration     100.00

 Free energy of the ion-electron system (eV)
  ---------------------------------------------------
  alpha Z        PSCENC =       416.72597188
  Ewald energy   TEWEN  =     -4074.32233101
  -1/2 Hartree   DENC   =      -965.47583778
  -V(xc)+E(xc)   XCENC  =       117.37167641
  PAW double counting   =      3661.18944825    -3904.11182591
  entropy T*S    EENTRO =        -0.01463104
  eigenvalues    EBANDS =        92.52044421
  atomic energy  EATOM  =      4640.24489596
  ---------------------------------------------------
  free energy    TOTEN  =       -15.87218902 eV

  energy without entropy =      -15.85755798  energy(sigma->0) =      -15.86487350


--------------------------------------------------------------------------------------------------------




----------------------------------------- Iteration    1(   6)  ---------------------------------------


      LOOP:  VPU time    3.23: CPU time    3.15

 eigenvalue-minimisations  :   936
 total energy-change (2. order) : 0.1054152E+01  (-0.1467156E+01)
 number of electron   44.0000256 magnetization 
 augmentation part    22.8124870 magnetization 

 Broyden mixing:
  rms(total) = 0.50635E+00    rms(broyden)= 0.50620E+00
  rms(prec ) = 0.12512E+01
  weight for this iteration     100.00

 eigenvalues of (default mixing * dielectric matrix)
  average eigenvalue GAMMA=   0.6885
  0.6885

 Free energy of the ion-electron system (eV)
  ---------------------------------------------------
  alpha Z        PSCENC =       416.72597188
  Ewald energy   TEWEN  =     -4074.32233101
  -1/2 Hartree   DENC   =      -906.76271749
  -V(xc)+E(xc)   XCENC  =       114.53865608
  PAW double counting   =      3603.71836264    -3837.11407958
  entropy T*S    EENTRO =        -0.00889670
  eigenvalues    EBANDS =        28.16210093
  atomic energy  EATOM  =      4640.24489596
  ---------------------------------------------------
  free energy    TOTEN  =       -14.81803729 eV

  energy without entropy =      -14.80914059  energy(sigma->0) =      -14.81358894


--------------------------------------------------------------------------------------------------------




----------------------------------------- Iteration    1(   7)  ---------------------------------------


      LOOP:  VPU time    3.32: CPU time    3.27

 eigenvalue-minimisations  :   936
 total energy-change (2. order) : 0.6665902E+00  (-0.4190777E+00)
 number of electron   44.0000241 magnetization 
 augmentation part    22.2546494 magnetization 

 Broyden mixing:
  rms(total) = 0.24774E+00    rms(broyden)= 0.24764E+00
  rms(prec ) = 0.63325E+00
  weight for this iteration     100.00

 eigenvalues of (default mixing * dielectric matrix)
  average eigenvalue GAMMA=   0.8071
  0.4839  1.1302

 Free energy of the ion-electron system (eV)
  ---------------------------------------------------
  alpha Z        PSCENC =       416.72597188
  Ewald energy   TEWEN  =     -4074.32233101
  -1/2 Hartree   DENC   =      -917.80204370
  -V(xc)+E(xc)   XCENC  =       115.05878069
  PAW double counting   =      3641.93689613    -3888.22462604
  entropy T*S    EENTRO =        -0.01479795
  eigenvalues    EBANDS =        52.24580696
  atomic energy  EATOM  =      4640.24489596
  ---------------------------------------------------
  free energy    TOTEN  =       -14.15144708 eV

  energy without entropy =      -14.13664913  energy(sigma->0) =      -14.14404811


--------------------------------------------------------------------------------------------------------




----------------------------------------- Iteration    1(   8)  ---------------------------------------


      LOOP:  VPU time    3.30: CPU time    3.30

 eigenvalue-minimisations  :   936
 total energy-change (2. order) : 0.1128958E+00  (-0.1704039E-01)
 number of electron   44.0000245 magnetization 
 augmentation part    22.4570834 magnetization 

 Broyden mixing:
  rms(total) = 0.49240E-01    rms(broyden)= 0.49204E-01
  rms(prec ) = 0.96079E-01
  weight for this iteration     100.00

 eigenvalues of (default mixing * dielectric matrix)
  average eigenvalue GAMMA=   1.1798
  0.4693  1.0157  2.0544

 Free energy of the ion-electron system (eV)
  ---------------------------------------------------
  alpha Z        PSCENC =       416.72597188
  Ewald energy   TEWEN  =     -4074.32233101
  -1/2 Hartree   DENC   =      -909.86146379
  -V(xc)+E(xc)   XCENC  =       114.70350714
  PAW double counting   =      3652.48205631    -3899.59415607
  entropy T*S    EENTRO =        -0.01491902
  eigenvalues    EBANDS =        45.59788731
  atomic energy  EATOM  =      4640.24489596
  ---------------------------------------------------
  free energy    TOTEN  =       -14.03855129 eV

  energy without entropy =      -14.02363227  energy(sigma->0) =      -14.03109178


--------------------------------------------------------------------------------------------------------




----------------------------------------- Iteration    1(   9)  ---------------------------------------


      LOOP:  VPU time    3.28: CPU time    3.18

 eigenvalue-minimisations  :   937
 total energy-change (2. order) : 0.1168045E-01  (-0.1157999E-02)
 number of electron   44.0000245 magnetization 
 augmentation part    22.4305474 magnetization 

 Broyden mixing:
  rms(total) = 0.34710E-01    rms(broyden)= 0.34710E-01
  rms(prec ) = 0.86470E-01
  weight for this iteration     100.00

 eigenvalues of (default mixing * dielectric matrix)
  average eigenvalue GAMMA=   1.2331
  2.4439  0.4596  1.0144  1.0144

 Free energy of the ion-electron system (eV)
  ---------------------------------------------------
  alpha Z        PSCENC =       416.72597188
  Ewald energy   TEWEN  =     -4074.32233101
  -1/2 Hartree   DENC   =      -906.79085844
  -V(xc)+E(xc)   XCENC  =       114.56784344
  PAW double counting   =      3675.41232006    -3925.97343207
  entropy T*S    EENTRO =        -0.01634497
  eigenvalues    EBANDS =        46.12506430
  atomic energy  EATOM  =      4640.24489596
  ---------------------------------------------------
  free energy    TOTEN  =       -14.02687084 eV

  energy without entropy =      -14.01052587  energy(sigma->0) =      -14.01869835


--------------------------------------------------------------------------------------------------------




----------------------------------------- Iteration    1(  10)  ---------------------------------------


      LOOP:  VPU time    3.33: CPU time    3.25

 eigenvalue-minimisations  :   936
 total energy-change (2. order) : 0.2688908E-02  (-0.7077977E-03)
 number of electron   44.0000245 magnetization 
 augmentation part    22.4605851 magnetization 

 Broyden mixing:
  rms(total) = 0.42018E-02    rms(broyden)= 0.41849E-02
  rms(prec ) = 0.11143E-01
  weight for this iteration     100.00

 eigenvalues of (default mixing * dielectric matrix)
  average eigenvalue GAMMA=   1.3999
  0.4590  2.4349  2.1448  1.0123  0.9486

 Free energy of the ion-electron system (eV)
  ---------------------------------------------------
  alpha Z        PSCENC =       416.72597188
  Ewald energy   TEWEN  =     -4074.32233101
  -1/2 Hartree   DENC   =      -904.83611708
  -V(xc)+E(xc)   XCENC  =       114.47916698
  PAW double counting   =      3683.45185918    -3934.65868646
  entropy T*S    EENTRO =        -0.01540305
  eigenvalues    EBANDS =        44.90646166
  atomic energy  EATOM  =      4640.24489596
  ---------------------------------------------------
  free energy    TOTEN  =       -14.02418193 eV

  energy without entropy =      -14.00877888  energy(sigma->0) =      -14.01648041


--------------------------------------------------------------------------------------------------------




----------------------------------------- Iteration    1(  11)  ---------------------------------------


      LOOP:  VPU time    2.15: CPU time    2.12

 eigenvalue-minimisations  :   532
 total energy-change (2. order) : 0.4402777E-05  (-0.1440892E-04)
 number of electron   44.0000245 magnetization 
 augmentation part    22.4605851 magnetization 

 Free energy of the ion-electron system (eV)
  ---------------------------------------------------
  alpha Z        PSCENC =       416.72597188
  Ewald energy   TEWEN  =     -4074.32233101
  -1/2 Hartree   DENC   =      -904.94441019
  -V(xc)+E(xc)   XCENC  =       114.48259212
  PAW double counting   =      3685.17639839    -3936.33527975
  entropy T*S    EENTRO =        -0.01558176
  eigenvalues    EBANDS =        44.96356684
  atomic energy  EATOM  =      4640.24489596
  ---------------------------------------------------
  free energy    TOTEN  =       -14.02417753 eV

  energy without entropy =      -14.00859577  energy(sigma->0) =      -14.01638665


--------------------------------------------------------------------------------------------------------




 average (electrostatic) potential at core
  the test charge radii are     1.2098  1.0053
  (the norm of the test charge is              1.0000)
       1 -46.9735       2 -46.9735       3 -38.9104       4 -38.9104



 E-fermi :   4.5001     XC(G=0): -12.5145     alpha+bet : -9.5433
   add alpha+bet to get absolut eigen values

 k-point   1 :       0.0833    0.0833    0.0833
  band No.  band energies     occupation 
      1      -4.5916      2.00000
      2      -2.1668      2.00000
      3      -1.7655      2.00000
      4      -1.5392      2.00000
      5      -1.0479      2.00000
      6      -0.9601      2.00000
      7      -0.6585      2.00000
      8       0.5828      2.00000
      9       0.7268      2.00000
     10       1.6681      2.00000
     11       1.8114      2.00000
     12       2.4338      2.00000
     13       2.4351      2.00000
     14       2.7813      2.00000
     15       2.8103      2.00000
     16       2.8303      2.00000
     17       2.8344      2.00000
     18       2.8865      2.00000
     19       3.0652      2.00000
     20       3.0690      2.00000
     21       3.0748      2.00000
     22       5.5857      0.00000
     23       5.6015      0.00000
     24       6.2812      0.00000
     25      10.6184      0.00000
     26      11.7807      0.00000

 k-point   2 :       0.2500    0.0833    0.0833
  band No.  band energies     occupation 
      1      -3.9727      2.00000
      2      -1.8201      2.00000
      3      -1.4640      2.00000
      4      -1.1747      2.00000
      5      -0.9275      2.00000
      6      -0.6865      2.00000
      7      -0.6700      2.00000
      8       0.2699      2.00000
      9       0.6892      2.00000
     10       1.2435      2.00000
     11       1.3429      2.00000
     12       1.9196      2.00000
     13       2.2843      2.00000
     14       2.2968      2.00000
     15       2.4770      2.00000
     16       2.5656      2.00000
     17       2.6748      2.00000
     18       2.6807      2.00000
     19       2.9374      2.00000
     20       3.0563      2.00000
     21       3.0864      2.00000
     22       3.6094      2.00000
     23       6.9149      0.00000
     24       7.5548      0.00000
     25      11.1502      0.00000
     26      11.4704      0.00000

 k-point   3 :       0.4167    0.0833    0.0833
  band No.  band energies     occupation 
      1      -2.8601      2.00000
      2      -1.7735      2.00000
      3      -0.9060      2.00000
      4      -0.7072      2.00000
      5      -0.6051      2.00000
      6      -0.6016      2.00000
      7      -0.2173      2.00000
      8      -0.1677      2.00000
      9       0.0813      2.00000
     10       0.3256      2.00000
     11       0.7999      2.00000
     12       1.1194      2.00000
     13       2.0961      2.00000
     14       2.1813      2.00000
     15       2.3302      2.00000
     16       2.3659      2.00000
     17       2.4664      2.00000
     18       2.6107      2.00000
     19       2.6554      2.00000
     20       2.7791      2.00000
     21       3.0597      2.00000
     22       3.0737      2.00000
     23       8.4572      0.00000
     24       9.1856      0.00000
     25      10.0324      0.00000
     26      10.7471      0.00000

 k-point   4 :       0.2500    0.2500    0.0833
  band No.  band energies     occupation 
      1      -3.4535      2.00000
      2      -1.4344      2.00000
      3      -1.3683      2.00000
      4      -0.9683      2.00000
      5      -0.7044      2.00000
      6      -0.6802      2.00000
      7      -0.2464      2.00000
      8      -0.1317      2.00000
      9       0.1885      2.00000
     10       0.9308      2.00000
     11       1.1966      2.00000
     12       1.8960      2.00000
     13       1.9720      2.00000
     14       2.0642      2.00000
     15       2.4533      2.00000
     16       2.5277      2.00000
     17       2.5428      2.00000
     18       2.5582      2.00000
     19       2.8873      2.00000
     20       2.9175      2.00000
     21       2.9190      2.00000
     22       4.5311      0.66148
     23       4.9047      0.00000
     24       8.5157      0.00000
     25       9.2736      0.00000
     26      13.1732      0.00000

 k-point   5 :       0.4167    0.2500    0.0833
  band No.  band energies     occupation 
      1      -2.5366      2.00000
      2      -1.5113      2.00000
      3      -1.0230      2.00000
      4      -0.8932      2.00000
      5      -0.5324      2.00000
      6      -0.5323      2.00000
      7      -0.4720      2.00000
      8      -0.1263      2.00000
      9       0.3099      2.00000
     10       0.7880      2.00000
     11       0.9090      2.00000
     12       1.3645      2.00000
     13       1.9211      2.00000
     14       2.0339      2.00000
     15       2.1865      2.00000
     16       2.2583      2.00000
     17       2.4322      2.00000
     18       2.6109      2.00000
     19       2.7877      2.00000
     20       2.8293      2.00000
     21       2.8359      2.00000
     22       3.2675      2.00000
     23       6.0302      0.00000
     24       7.4496      0.00000
     25       9.9600      0.00000
     26      11.5757      0.00000

 k-point   6 :       0.4167    0.4167    0.0833
  band No.  band energies     occupation 
      1      -2.0959      2.00000
      2      -1.6611      2.00000
      3      -1.0537      2.00000
      4      -1.0027      2.00000
      5      -0.6120      2.00000
      6      -0.4978      2.00000
      7      -0.0463      2.00000
      8       0.4404      2.00000
      9       0.6586      2.00000
     10       0.8962      2.00000
     11       1.0990      2.00000
     12       1.2664      2.00000
     13       1.7233      2.00000
     14       1.8025      2.00000
     15       1.9519      2.00000
     16       1.9908      2.00000
     17       2.3747      2.00000
     18       2.4579      2.00000
     19       2.5995      2.00000
     20       2.6227      2.00000
     21       3.2560      2.00000
     22       3.9029      2.00000
     23       4.5664      0.34875
     24       5.5718      0.00000
     25      11.1716      0.00000
     26      12.5689      0.00000

 k-point   7 :       0.0833    0.0833    0.2500
  band No.  band energies     occupation 
      1      -4.0080      2.00000
      2      -1.9852      2.00000
      3      -1.6831      2.00000
      4      -1.3688      2.00000
      5      -1.0280      2.00000
      6      -0.9103      2.00000
      7      -0.1147      2.00000
      8       0.6524      2.00000
      9       0.8234      2.00000
     10       1.7199      2.00000
     11       1.7236      2.00000
     12       1.9275      2.00000
     13       2.1281      2.00000
     14       2.1902      2.00000
     15       2.4340      2.00000
     16       2.4756      2.00000
     17       2.6499      2.00000
     18       2.7404      2.00000
     19       2.9009      2.00000
     20       2.9396      2.00000
     21       3.0073      2.00000
     22       3.9953      2.00000
     23       6.8338      0.00000
     24       7.0451      0.00000
     25      11.0204      0.00000
     26      11.0444      0.00000

 k-point   8 :       0.2500    0.0833    0.2500
  band No.  band energies     occupation 
      1      -3.4160      2.00000
      2      -1.6547      2.00000
      3      -1.3879      2.00000
      4      -1.0309      2.00000
      5      -0.9886      2.00000
      6      -0.6533      2.00000
      7      -0.1480      2.00000
      8       0.2644      2.00000
      9       0.6634      2.00000
     10       1.0564      2.00000
     11       1.2771      2.00000
     12       1.7827      2.00000
     13       1.8826      2.00000
     14       2.0596      2.00000
     15       2.2477      2.00000
     16       2.4434      2.00000
     17       2.5966      2.00000
     18       2.6035      2.00000
     19       2.7954      2.00000
     20       2.9046      2.00000
     21       2.9381      2.00000
     22       4.7091      0.00313
     23       5.1066      0.00000
     24       7.9795      0.00000
     25       9.8861      0.00000
     26      12.1447      0.00000

 k-point   9 :       0.4167    0.0833    0.2500
  band No.  band energies     occupation 
      1      -2.3889      2.00000
      2      -1.5292      2.00000
      3      -0.8939      2.00000
      4      -0.7100      2.00000
      5      -0.4464      2.00000
      6      -0.3294      2.00000
      7      -0.2427      2.00000
      8      -0.1362      2.00000
      9       0.0802      2.00000
     10       0.2394      2.00000
     11       0.6662      2.00000
     12       0.9885      2.00000
     13       2.0373      2.00000
     14       2.1317      2.00000
     15       2.2214      2.00000
     16       2.3675      2.00000
     17       2.4402      2.00000
     18       2.6085      2.00000
     19       2.7953      2.00000
     20       2.8360      2.00000
     21       2.8524      2.00000
     22       3.3516      2.00000
     23       6.4881      0.00000
     24       8.0611      0.00000
     25       9.3527      0.00000
     26      10.8632      0.00000

 k-point  10 :       0.2500    0.2500    0.2500
  band No.  band energies     occupation 
      1      -2.9934      2.00000
      2      -1.4900      2.00000
      3      -1.3648      2.00000
      4      -0.9614      2.00000
      5      -0.4839      2.00000
      6      -0.3311      2.00000
      7      -0.1344      2.00000
      8      -0.0915      2.00000
      9       0.1532      2.00000
     10       0.8149      2.00000
     11       1.1861      2.00000
     12       1.8152      2.00000
     13       1.8644      2.00000
     14       1.9424      2.00000
     15       2.0544      2.00000
     16       2.3742      2.00000
     17       2.4785      2.00000
     18       2.5140      2.00000
     19       2.9400      2.00000
     20       2.9962      2.00000
     21       3.0179      2.00000
     22       5.4373      0.00000
     23       5.4637      0.00000
     24       5.7820      0.00000
     25      10.1872      0.00000
     26      10.4147      0.00000

 k-point  11 :       0.4167    0.2500    0.2500
  band No.  band energies     occupation 
      1      -2.2711      2.00000
      2      -1.5891      2.00000
      3      -1.2809      2.00000
      4      -1.0491      2.00000
      5      -0.3518      2.00000
      6      -0.2289      2.00000
      7      -0.1073      2.00000
      8       0.1765      2.00000
      9       0.2862      2.00000
     10       0.6561      2.00000
     11       0.8733      2.00000
     12       1.5445      2.00000
     13       1.8638      2.00000
     14       1.9764      2.00000
     15       2.0599      2.00000
     16       2.1504      2.00000
     17       2.6242      2.00000
     18       2.7099      2.00000
     19       2.8610      2.00000
     20       2.9301      2.00000
     21       2.9362      2.00000
     22       3.4922      2.00000
     23       6.5165      0.00000
     24       6.7849      0.00000
     25       8.3975      0.00000
     26       8.7456      0.00000

 k-point  12 :       0.4167    0.4167    0.2500
  band No.  band energies     occupation 
      1      -2.0423      2.00000
      2      -1.6405      2.00000
      3      -1.6377      2.00000
      4      -1.5460      2.00000
      5      -0.1478      2.00000
      6      -0.0841      2.00000
      7       0.1313      2.00000
      8       0.5028      2.00000
      9       0.7841      2.00000
     10       0.9955      2.00000
     11       1.2825      2.00000
     12       1.6960      2.00000
     13       1.8303      2.00000
     14       1.9386      2.00000
     15       1.9546      2.00000
     16       1.9759      2.00000
     17       2.6277      2.00000
     18       2.8105      2.00000
     19       2.8560      2.00000
     20       2.8651      2.00000
     21       3.0969      2.00000
     22       4.0407      2.00000
     23       4.5565      0.42487
     24       5.6688      0.00000
     25       8.4290      0.00000
     26       9.4668      0.00000

 k-point  13 :       0.0833    0.0833    0.4167
  band No.  band energies     occupation 
      1      -3.1674      2.00000
      2      -1.7743      2.00000
      3      -1.5894      2.00000
      4      -1.1787      2.00000
      5      -1.0219      2.00000
      6      -0.8491      2.00000
      7       0.7297      2.00000
      8       0.7942      2.00000
      9       0.9608      2.00000
     10       1.2017      2.00000
     11       1.4523      2.00000
     12       1.6461      2.00000
     13       1.6692      2.00000
     14       1.7235      2.00000
     15       1.7892      2.00000
     16       2.3381      2.00000
     17       2.5239      2.00000
     18       2.5561      2.00000
     19       2.6626      2.00000
     20       2.7698      2.00000
     21       2.8481      2.00000
     22       2.9980      2.00000
     23       8.3267      0.00000
     24       8.7871      0.00000
     25      10.1373      0.00000
     26      10.3799      0.00000

 k-point  14 :       0.2500    0.0833    0.4167
  band No.  band energies     occupation 
      1      -2.5953      2.00000
      2      -1.4177      2.00000
      3      -1.2968      2.00000
      4      -1.1426      2.00000
      5      -1.0804      2.00000
      6      -0.6166      2.00000
      7       0.4500      2.00000
      8       0.6654      2.00000
      9       0.6778      2.00000
     10       0.9027      2.00000
     11       1.1641      2.00000
     12       1.4767      2.00000
     13       1.5486      2.00000
     14       1.7301      2.00000
     15       1.8968      2.00000
     16       2.3984      2.00000
     17       2.4973      2.00000
     18       2.6031      2.00000
     19       2.6302      2.00000
     20       2.7888      2.00000
     21       2.8760      2.00000
     22       3.4195      2.00000
     23       5.9452      0.00000
     24       7.8836      0.00000
     25       9.4929      0.00000
     26      11.0821      0.00000

 k-point  15 :       0.4167    0.0833    0.4167
  band No.  band energies     occupation 
      1      -1.7050      2.00000
      2      -1.3620      2.00000
      3      -1.1481      2.00000
      4      -0.7765      2.00000
      5      -0.4132      2.00000
      6      -0.2801      2.00000
      7      -0.0858      2.00000
      8       0.1289      2.00000
      9       0.4106      2.00000
     10       0.5855      2.00000
     11       0.6424      2.00000
     12       0.9580      2.00000
     13       1.6906      2.00000
     14       1.7507      2.00000
     15       2.1816      2.00000
     16       2.3435      2.00000
     17       2.3726      2.00000
     18       2.4400      2.00000
     19       2.5590      2.00000
     20       2.6777      2.00000
     21       3.3325      2.00000
     22       4.2214      1.99992
     23       4.4664      1.36700
     24       5.9130      0.00000
     25      10.7520      0.00000
     26      12.3183      0.00000

 k-point  16 :       0.2500    0.2500    0.4167
  band No.  band energies     occupation 
      1      -2.3746      2.00000
      2      -1.5556      2.00000
      3      -1.4912      2.00000
      4      -0.9587      2.00000
      5      -0.4305      2.00000
      6      -0.2308      2.00000
      7      -0.0964      2.00000
      8       0.4098      2.00000
      9       0.6975      2.00000
     10       0.8252      2.00000
     11       0.9980      2.00000
     12       1.4897      2.00000
     13       1.7223      2.00000
     14       1.8782      2.00000
     15       1.9000      2.00000
     16       2.3298      2.00000
     17       2.6142      2.00000
     18       2.7230      2.00000
     19       2.7558      2.00000
     20       2.9265      2.00000
     21       2.9475      2.00000
     22       3.6169      2.00000
     23       6.4160      0.00000
     24       6.6172      0.00000
     25       8.0965      0.00000
     26       9.2180      0.00000

 k-point  17 :       0.4167    0.2500    0.4167
  band No.  band energies     occupation 
      1      -1.9461      2.00000
      2      -1.7515      2.00000
      3      -1.6245      2.00000
      4      -1.0958      2.00000
      5      -0.3061      2.00000
      6       0.2550      2.00000
      7       0.2846      2.00000
      8       0.4805      2.00000
      9       0.5502      2.00000
     10       0.6260      2.00000
     11       0.8706      2.00000
     12       1.8050      2.00000
     13       1.8174      2.00000
     14       1.8960      2.00000
     15       2.0852      2.00000
     16       2.1443      2.00000
     17       2.6087      2.00000
     18       2.6952      2.00000
     19       2.8604      2.00000
     20       2.8753      2.00000
     21       3.1728      2.00000
     22       4.3041      1.99443
     23       4.4499      1.52243
     24       5.7718      0.00000
     25       8.2902      0.00000
     26       9.8416      0.00000

 k-point  18 :       0.4167    0.4167    0.4167
  band No.  band energies     occupation 
      1      -2.0342      2.00000
      2      -1.9980      2.00000
      3      -1.8630      2.00000
      4      -1.6481      2.00000
      5       0.0957      2.00000
      6       0.3805      2.00000
      7       0.4135      2.00000
      8       0.4479      2.00000
      9       0.6402      2.00000
     10       0.7783      2.00000
     11       1.9138      2.00000
     12       1.9886      2.00000
     13       2.0462      2.00000
     14       2.3131      2.00000
     15       2.4283      2.00000
     16       2.6705      2.00000
     17       2.8355      2.00000
     18       2.8778      2.00000
     19       2.9004      2.00000
     20       2.9600      2.00000
     21       2.9998      2.00000
     22       4.3489      1.96752
     23       4.4415      1.59327
     24       4.4794      1.23031
     25       7.4712      0.00000
     26       7.9632      0.00000


--------------------------------------------------------------------------------------------------------


 soft charge-density along one line, spin component                        1
         0         1         2         3         4         5         6         7         8         9
x    21.5394    0.0000    1.3536    0.0000   -0.5864    0.0000    0.0899    0.0000    0.0101    0.0000
y    21.5394    0.0000    0.0000    0.0000    0.0000    0.0000    0.0000    0.0036    0.0599   -0.9056
z    21.5394    0.0430    0.0000    0.0000    0.0000    0.0000    0.0000    0.0000    0.0000    0.0000
 total charge-density along one line
x    44.0000    0.0000   15.2752    0.0000    2.1816    0.0000    0.0688    0.0000    0.0164    0.0000
x    -0.0008    0.0000    0.0001    0.0000   -0.0001    0.0000    0.0001    0.0000   -0.0002
y    44.0000    0.0000   15.2752    0.0000    2.1816    0.0000    0.0688    0.0000    0.0164    0.0000
y    -0.0008    0.0000    0.0001    0.0000   -0.0001    0.0000    0.0001    0.0000   -0.0002
z    44.0000   -2.8119   14.1093   -3.8842    1.7192   -0.3363    0.0341    0.0342    0.0184   -0.0084
z    -0.0035    0.0019    0.0015   -0.0003   -0.0010    0.0000    0.0007    0.0000   -0.0006

 pseudopotential strength for first ion, spin component: 
                        1
-10.405   0.000   0.000   0.000   0.000  -0.014   0.000   0.000
  0.000 -10.385   0.000   0.000   0.000   0.000  -0.016   0.000
  0.000   0.000 -10.371   0.000   0.000   0.000   0.000  -0.018
  0.000   0.000   0.000 -10.385   0.000   0.000   0.000   0.000
  0.000   0.000   0.000   0.000 -10.375   0.000   0.000   0.000
 -0.014   0.000   0.000   0.000   0.000   0.273   0.000   0.000
  0.000  -0.016   0.000   0.000   0.000   0.000   0.273   0.000
  0.000   0.000  -0.018   0.000   0.000   0.000   0.000   0.273
  0.000   0.000   0.000  -0.016   0.000   0.000   0.000   0.000
  0.000   0.000   0.000   0.000  -0.017   0.000   0.000   0.000
  0.000   0.000  -0.006   0.000   0.000   0.000   0.000   0.000
  0.000   0.000   0.000   0.000   0.000   0.000   0.000   0.000
  0.000   0.000   0.000   0.000   0.000   0.000   0.000   0.000
  0.000   0.000   0.000   0.000   0.000   0.000   0.000   0.000
  0.000   0.000   0.000   0.000   0.000   0.000   0.000   0.000
  0.000   0.000   0.000   0.000   0.000   0.000   0.000   0.000
  0.000   0.000   0.000   0.000   0.000   0.000   0.000   0.000
  0.000   0.000   0.000   0.000   0.000   0.000   0.000   0.000
 total augmentation occupancy for first ion, spin component: 
                        1
  1.859  -0.019  -0.021  -0.008  -0.009  -0.009   0.019  -0.008   0.006   0.013   0.073   0.006   0.000   0.000   0.000   0.000
 -0.019   1.937  -0.010  -0.014  -0.005   0.020  -0.056   0.016   0.016  -0.005   0.041   0.004   0.000   0.000   0.000   0.000
 -0.021  -0.010   1.928   0.000  -0.035  -0.008   0.016  -0.087   0.009   0.042   0.045   0.011   0.000   0.000   0.000   0.000
 -0.008  -0.014   0.000   1.867   0.002   0.006   0.016   0.009  -0.008   0.015   0.017  -0.015   0.000   0.000   0.000   0.000
 -0.009  -0.005  -0.035   0.002   1.957   0.013  -0.005   0.042   0.015  -0.101   0.087   0.073   0.000   0.000   0.000   0.000
 -0.009   0.020  -0.008   0.006   0.013   0.229  -0.016   0.045  -0.006  -0.014  -0.016   0.043   0.000   0.000   0.000   0.000
  0.019  -0.056   0.016   0.016  -0.005  -0.016   0.155  -0.020  -0.011   0.017  -0.011   0.017   0.000   0.000   0.000   0.000
 -0.008   0.016  -0.087   0.009   0.042   0.045  -0.020   0.164  -0.019   0.007  -0.051   0.030   0.000   0.000   0.000   0.000
  0.006   0.016   0.009  -0.008   0.015  -0.006  -0.011  -0.019   0.174  -0.033   0.027   0.035   0.000   0.000   0.000   0.000
  0.013  -0.005   0.042   0.015  -0.101  -0.014   0.017   0.007  -0.033   0.173  -0.131   0.003   0.000   0.000   0.000   0.000
  0.073   0.041   0.045   0.017   0.087  -0.016  -0.011  -0.051   0.027  -0.131   1.222  -0.348   0.000   0.000   0.000   0.000
  0.006   0.004   0.011  -0.015   0.073   0.043   0.017   0.030   0.035   0.003  -0.348   0.210   0.000   0.000   0.000   0.000
  0.000   0.000   0.000   0.000   0.000   0.000   0.000   0.000   0.000   0.000   0.000   0.000   0.162   0.009  -0.006  -0.010
  0.000   0.000   0.000   0.000   0.000   0.000   0.000   0.000   0.000   0.000   0.000   0.000   0.009   0.171  -0.010  -0.001
  0.000   0.000   0.000   0.000   0.000   0.000   0.000   0.000   0.000   0.000   0.000   0.000  -0.006  -0.010   0.230  -0.002
  0.000   0.000   0.000   0.000   0.000   0.000   0.000   0.000   0.000   0.000   0.000   0.000  -0.010  -0.001  -0.002   0.001
  0.000   0.000   0.000   0.000   0.000   0.000   0.000   0.000   0.000   0.000   0.000   0.000  -0.001  -0.010   0.000   0.000
  0.000   0.000   0.000   0.000   0.000   0.000   0.000   0.000   0.000   0.000   0.000   0.000  -0.002   0.000  -0.015   0.000


------------------------ aborting loop because EDIFF is reached ----------------------------------------





 total charge     

# of ion     s       p       d       tot
----------------------------------------
  1        0.602   0.411   8.673   9.686
  2        0.602   0.411   8.673   9.686
  3        0.374   0.296   9.238   9.909
  4        0.374   0.296   9.238   9.909
------------------------------------------------
tot        1.952   1.416  35.822  39.190



--------------------------------------------------------------------------------------------------------




--------------------------------------------------------------------------------------------------------



  FREE ENERGIE OF THE ION-ELECTRON SYSTEM (eV)
  ---------------------------------------------------
  free  energy   TOTEN  =       -14.024178 eV

  energy  without entropy=      -14.008596  energy(sigma->0) =      -14.016387


  FORCE on cell =-STRESS in cart. coord.  units (eV/reduce length):
  Direction    X        Y        Z        XY       YZ       ZX
  --------------------------------------------------------------------------------------
  Alpha Z    416.73    416.73    416.73
  Ewald    -1359.86  -1359.86  -1354.60      0.00      0.00      0.00
  Hartree    301.31    301.31    302.48      0.00      0.00      0.00
  E(xc)     -225.35   -225.35   -225.45      0.00      0.00      0.00
  Local      379.42    379.42    370.59      0.00      0.00      0.00
  n-local   -165.16   -174.96   -168.69      2.55      2.70      0.98
  augment    197.03    197.03    197.16      0.00      0.00      0.00
  Kinetic    464.36    457.53    461.82     -2.22     -1.54     -3.41
  -------------------------------------------------------------------------------------
  Total        0.16      0.16      0.03      0.00      0.00      0.00
  in kB        4.32      4.32      0.89      0.00      0.00      0.00
  external pressure =        3.18 kB  Pullay stress =        0.00 kB


 VOLUME and BASIS-vectors are now :
 -----------------------------------------------------------------------------
  energy-cutoff  :      350.00
  volume of cell :       60.30
      direct lattice vectors                 reciprocal lattice vectors
     3.979990618  0.000000000  0.000000000     0.251256874  0.000000000  0.000000000
     0.000000000  3.979990618  0.000000000     0.000000000  0.251256874  0.000000000
     0.000000000  0.000000000  3.806564812     0.000000000  0.000000000  0.262704052

  length of vectors
     3.979990618  3.979990618  3.806564812     0.251256874  0.251256874  0.262704052


 FORCES acting on ions
    electron-ion (+dipol)            ewald-force                    non-local-force                 convergence-correction
 -----------------------------------------------------------------------------------------------
   -.120E-12 -.233E-13 -.225E-13   -.166E-14 0.358E-14 0.143E-14   0.000E+00 0.000E+00 0.000E+00   0.156E-13 -.228E-14 -.167E-13
   0.136E-12 0.214E-12 -.215E-13   0.441E-14 0.624E-14 0.151E-14   0.000E+00 0.000E+00 0.000E+00   0.497E-13 0.959E-14 -.203E-13
   0.493E-12 0.320E-13 0.708E-12   0.862E-14 -.368E-14 0.977E-16   0.000E+00 0.000E+00 0.000E+00   0.105E-12 0.239E-13 0.318E-13
   -.248E-12 0.755E-12 0.710E-12   -.662E-14 -.102E-14 0.181E-15   0.000E+00 0.000E+00 0.000E+00   0.355E-13 0.120E-13 0.121E-13
 -----------------------------------------------------------------------------------------------
   0.260E-12 0.978E-12 0.137E-11   0.475E-14 0.511E-14 0.322E-14   0.000E+00 0.000E+00 0.000E+00   0.206E-12 0.432E-13 0.687E-14


 POSITION                                       TOTAL-FORCE (eV/Angst)
 -----------------------------------------------------------------------------------
      0.00000      0.00000      0.00000         0.000000      0.000000      0.000000
      1.99000      1.99000      0.00000         0.000000      0.000000      0.000000
      1.99000      0.00000      1.90328         0.000000      0.000000      0.000000
      0.00000      1.99000      1.90328         0.000000      0.000000      0.000000
 -----------------------------------------------------------------------------------
    total drift:                                0.000000      0.000000      0.000000


--------------------------------------------------------------------------------------------------------


 Quasi-Newton relaxation of ions (Broydens 2nd method)
  g(Force)  = 0.189E-60   g(Stress)= 0.457E-03

 Reset! Starting new Quasi-Newton update for ions 


--------------------------------------------------------------------------------------------------------


     LOOP+:  VPU time   38.98: CPU time   36.12


----------------------------------------- Iteration    2(   1)  ---------------------------------------


      LOOP:  VPU time    3.43: CPU time    3.09

 eigenvalue-minimisations  :   996
 total energy-change (2. order) :-0.1403061E+02  (-0.1047719E-01)
 number of electron   44.0000208 magnetization 
 augmentation part    22.5257433 magnetization 

  free energy =  -0.140306054031E+02  energy without entropy=  -0.140145277533E+02


--------------------------------------------------------------------------------------------------------




----------------------------------------- Iteration    2(   2)  ---------------------------------------


      LOOP:  VPU time    3.24: CPU time    3.11

 eigenvalue-minimisations  :   936
 total energy-change (2. order) : 0.4070250E-02  (-0.4218609E-02)
 number of electron   44.0000207 magnetization 
 augmentation part    22.4364824 magnetization 

 eigenvalues of (default mixing * dielectric matrix)
  average eigenvalue GAMMA=   0.7120
  0.7120

  free energy =  -0.140265351531E+02  energy without entropy=  -0.140096316725E+02


--------------------------------------------------------------------------------------------------------




----------------------------------------- Iteration    2(   3)  ---------------------------------------


      LOOP:  VPU time    3.27: CPU time    3.26

 eigenvalue-minimisations  :   936
 total energy-change (2. order) : 0.1635789E-02  (-0.1366656E-02)
 number of electron   44.0000208 magnetization 
 augmentation part    22.4739515 magnetization 

 eigenvalues of (default mixing * dielectric matrix)
  average eigenvalue GAMMA=   0.7513
  0.3928  1.1098

  free energy =  -0.140248993644E+02  energy without entropy=  -0.140094450217E+02


--------------------------------------------------------------------------------------------------------




----------------------------------------- Iteration    2(   4)  ---------------------------------------


      LOOP:  VPU time    2.84: CPU time    2.83

 eigenvalue-minimisations  :   741
 total energy-change (2. order) : 0.6694770E-03  (-0.6830500E-04)
 number of electron   44.0000208 magnetization 
 augmentation part    22.4635063 magnetization 

 eigenvalues of (default mixing * dielectric matrix)
  average eigenvalue GAMMA=   1.2736
  0.4323  1.0165  2.3719

  free energy =  -0.140242298875E+02  energy without entropy=  -0.140082455756E+02


--------------------------------------------------------------------------------------------------------




----------------------------------------- Iteration    2(   5)  ---------------------------------------


      LOOP:  VPU time    2.19: CPU time    2.11

 eigenvalue-minimisations  :   513
 total energy-change (2. order) : 0.9967982E-04  (-0.1482653E-04)
 number of electron   44.0000208 magnetization 
 augmentation part    22.4635063 magnetization 

  free energy =  -0.140241302076E+02  energy without entropy=  -0.140079288870E+02


--------------------------------------------------------------------------------------------------------




 average (electrostatic) potential at core
  the test charge radii are     1.2098  1.0053
  (the norm of the test charge is              1.0000)
       1 -46.9933       2 -46.9933       3 -38.9357       4 -38.9357



 E-fermi :   4.4683     XC(G=0): -12.4967     alpha+bet : -9.5144
   add alpha+bet to get absolut eigen values

 k-point   1 :       0.0833    0.0833    0.0833
  band No.  band energies     occupation 
      1      -4.5964      2.00000
      2      -2.1719      2.00000
      3      -1.7714      2.00000
      4      -1.5474      2.00000
      5      -1.0585      2.00000
      6      -0.9714      2.00000
      7      -0.6740      2.00000
      8       0.5614      2.00000
      9       0.7042      2.00000
     10       1.6391      2.00000
     11       1.7918      2.00000
     12       2.4026      2.00000
     13       2.4116      2.00000
     14       2.7524      2.00000
     15       2.7833      2.00000
     16       2.8041      2.00000
     17       2.8068      2.00000
     18       2.8591      2.00000
     19       3.0369      2.00000
     20       3.0393      2.00000
     21       3.0458      2.00000
     22       5.5494      0.00000
     23       5.5679      0.00000
     24       6.2625      0.00000
     25      10.5563      0.00000
     26      11.7096      0.00000

 k-point   2 :       0.2500    0.0833    0.0833
  band No.  band energies     occupation 
      1      -3.9795      2.00000
      2      -1.8275      2.00000
      3      -1.4720      2.00000
      4      -1.1850      2.00000
      5      -0.9386      2.00000
      6      -0.7019      2.00000
      7      -0.6828      2.00000
      8       0.2511      2.00000
      9       0.6674      2.00000
     10       1.2195      2.00000
     11       1.3164      2.00000
     12       1.8991      2.00000
     13       2.2616      2.00000
     14       2.2710      2.00000
     15       2.4526      2.00000
     16       2.5387      2.00000
     17       2.6484      2.00000
     18       2.6542      2.00000
     19       2.9087      2.00000
     20       3.0275      2.00000
     21       3.0581      2.00000
     22       3.5784      2.00000
     23       6.8733      0.00000
     24       7.5291      0.00000
     25      11.0932      0.00000
     26      11.4196      0.00000

 k-point   3 :       0.4167    0.0833    0.0833
  band No.  band energies     occupation 
      1      -2.8703      2.00000
      2      -1.7851      2.00000
      3      -0.9177      2.00000
      4      -0.7211      2.00000
      5      -0.6181      2.00000
      6      -0.6152      2.00000
      7      -0.2323      2.00000
      8      -0.1833      2.00000
      9       0.0640      2.00000
     10       0.3073      2.00000
     11       0.7775      2.00000
     12       1.0959      2.00000
     13       2.0739      2.00000
     14       2.1582      2.00000
     15       2.3055      2.00000
     16       2.3416      2.00000
     17       2.4411      2.00000
     18       2.5847      2.00000
     19       2.6293      2.00000
     20       2.7517      2.00000
     21       3.0311      2.00000
     22       3.0454      2.00000
     23       8.4099      0.00000
     24       9.1519      0.00000
     25       9.9831      0.00000
     26      10.7072      0.00000

 k-point   4 :       0.2500    0.2500    0.0833
  band No.  band energies     occupation 
      1      -3.4615      2.00000
      2      -1.4438      2.00000
      3      -1.3771      2.00000
      4      -0.9787      2.00000
      5      -0.7204      2.00000
      6      -0.6936      2.00000
      7      -0.2615      2.00000
      8      -0.1471      2.00000
      9       0.1705      2.00000
     10       0.9069      2.00000
     11       1.1712      2.00000
     12       1.8755      2.00000
     13       1.9490      2.00000
     14       2.0432      2.00000
     15       2.4276      2.00000
     16       2.5017      2.00000
     17       2.5172      2.00000
     18       2.5330      2.00000
     19       2.8587      2.00000
     20       2.8894      2.00000
     21       2.8915      2.00000
     22       4.4968      0.68689
     23       4.8631      0.00000
     24       8.4863      0.00000
     25       9.2244      0.00000
     26      13.1009      0.00000

 k-point   5 :       0.4167    0.2500    0.0833
  band No.  band energies     occupation 
      1      -2.5465      2.00000
      2      -1.5237      2.00000
      3      -1.0341      2.00000
      4      -0.9044      2.00000
      5      -0.5470      2.00000
      6      -0.5455      2.00000
      7      -0.4859      2.00000
      8      -0.1425      2.00000
      9       0.2916      2.00000
     10       0.7657      2.00000
     11       0.8866      2.00000
     12       1.3423      2.00000
     13       1.8997      2.00000
     14       2.0115      2.00000
     15       2.1628      2.00000
     16       2.2337      2.00000
     17       2.4068      2.00000
     18       2.5845      2.00000
     19       2.7603      2.00000
     20       2.8018      2.00000
     21       2.8083      2.00000
     22       3.2362      2.00000
     23       5.9868      0.00000
     24       7.4032      0.00000
     25       9.9266      0.00000
     26      11.5384      0.00000

 k-point   6 :       0.4167    0.4167    0.0833
  band No.  band energies     occupation 
      1      -2.1051      2.00000
      2      -1.6713      2.00000
      3      -1.0638      2.00000
      4      -1.0134      2.00000
      5      -0.6259      2.00000
      6      -0.5132      2.00000
      7      -0.0628      2.00000
      8       0.4221      2.00000
      9       0.6369      2.00000
     10       0.8744      2.00000
     11       1.0784      2.00000
     12       1.2403      2.00000
     13       1.7036      2.00000
     14       1.7820      2.00000
     15       1.9297      2.00000
     16       1.9675      2.00000
     17       2.3496      2.00000
     18       2.4320      2.00000
     19       2.5735      2.00000
     20       2.5964      2.00000
     21       3.2248      2.00000
     22       3.8700      2.00000
     23       4.5239      0.43128
     24       5.5290      0.00000
     25      11.1357      0.00000
     26      12.5262      0.00000

 k-point   7 :       0.0833    0.0833    0.2500
  band No.  band energies     occupation 
      1      -4.0127      2.00000
      2      -1.9905      2.00000
      3      -1.6890      2.00000
      4      -1.3775      2.00000
      5      -1.0397      2.00000
      6      -0.9227      2.00000
      7      -0.1312      2.00000
      8       0.6305      2.00000
      9       0.7998      2.00000
     10       1.6944      2.00000
     11       1.7001      2.00000
     12       1.9028      2.00000
     13       2.1045      2.00000
     14       2.1686      2.00000
     15       2.4068      2.00000
     16       2.4520      2.00000
     17       2.6230      2.00000
     18       2.7143      2.00000
     19       2.8675      2.00000
     20       2.9112      2.00000
     21       2.9787      2.00000
     22       3.9728      2.00000
     23       6.7942      0.00000
     24       7.0081      0.00000
     25      10.9588      0.00000
     26      10.9922      0.00000

 k-point   8 :       0.2500    0.0833    0.2500
  band No.  band energies     occupation 
      1      -3.4228      2.00000
      2      -1.6625      2.00000
      3      -1.3960      2.00000
      4      -1.0414      2.00000
      5      -1.0001      2.00000
      6      -0.6671      2.00000
      7      -0.1644      2.00000
      8       0.2457      2.00000
      9       0.6413      2.00000
     10       1.0338      2.00000
     11       1.2516      2.00000
     12       1.7595      2.00000
     13       1.8618      2.00000
     14       2.0379      2.00000
     15       2.2228      2.00000
     16       2.4189      2.00000
     17       2.5703      2.00000
     18       2.5778      2.00000
     19       2.7661      2.00000
     20       2.8768      2.00000
     21       2.9102      2.00000
     22       4.6755      0.00339
     23       5.0793      0.00000
     24       7.9360      0.00000
     25       9.8458      0.00000
     26      12.0855      0.00000

 k-point   9 :       0.4167    0.0833    0.2500
  band No.  band energies     occupation 
      1      -2.3990      2.00000
      2      -1.5404      2.00000
      3      -0.9054      2.00000
      4      -0.7223      2.00000
      5      -0.4601      2.00000
      6      -0.3453      2.00000
      7      -0.2582      2.00000
      8      -0.1521      2.00000
      9       0.0629      2.00000
     10       0.2207      2.00000
     11       0.6443      2.00000
     12       0.9661      2.00000
     13       2.0157      2.00000
     14       2.1088      2.00000
     15       2.1984      2.00000
     16       2.3435      2.00000
     17       2.4156      2.00000
     18       2.5823      2.00000
     19       2.7678      2.00000
     20       2.8086      2.00000
     21       2.8250      2.00000
     22       3.3226      2.00000
     23       6.4572      0.00000
     24       8.0269      0.00000
     25       9.3040      0.00000
     26      10.8107      0.00000

 k-point  10 :       0.2500    0.2500    0.2500
  band No.  band energies     occupation 
      1      -3.0009      2.00000
      2      -1.4998      2.00000
      3      -1.3740      2.00000
      4      -0.9719      2.00000
      5      -0.4974      2.00000
      6      -0.3463      2.00000
      7      -0.1518      2.00000
      8      -0.1071      2.00000
      9       0.1352      2.00000
     10       0.7910      2.00000
     11       1.1606      2.00000
     12       1.7950      2.00000
     13       1.8418      2.00000
     14       1.9218      2.00000
     15       2.0316      2.00000
     16       2.3502      2.00000
     17       2.4536      2.00000
     18       2.4881      2.00000
     19       2.9092      2.00000
     20       2.9679      2.00000
     21       2.9897      2.00000
     22       5.4023      0.00000
     23       5.4233      0.00000
     24       5.7535      0.00000
     25      10.1325      0.00000
     26      10.3728      0.00000

 k-point  11 :       0.4167    0.2500    0.2500
  band No.  band energies     occupation 
      1      -2.2801      2.00000
      2      -1.5995      2.00000
      3      -1.2910      2.00000
      4      -1.0606      2.00000
      5      -0.3662      2.00000
      6      -0.2439      2.00000
      7      -0.1234      2.00000
      8       0.1595      2.00000
      9       0.2665      2.00000
     10       0.6338      2.00000
     11       0.8508      2.00000
     12       1.5218      2.00000
     13       1.8432      2.00000
     14       1.9545      2.00000
     15       2.0378      2.00000
     16       2.1277      2.00000
     17       2.5982      2.00000
     18       2.6828      2.00000
     19       2.8316      2.00000
     20       2.9024      2.00000
     21       2.9083      2.00000
     22       3.4621      2.00000
     23       6.4765      0.00000
     24       6.7546      0.00000
     25       8.3493      0.00000
     26       8.7069      0.00000

 k-point  12 :       0.4167    0.4167    0.2500
  band No.  band energies     occupation 
      1      -2.0506      2.00000
      2      -1.6499      2.00000
      3      -1.6467      2.00000
      4      -1.5551      2.00000
      5      -0.1634      2.00000
      6      -0.1002      2.00000
      7       0.1133      2.00000
      8       0.4817      2.00000
      9       0.7607      2.00000
     10       0.9704      2.00000
     11       1.2626      2.00000
     12       1.6754      2.00000
     13       1.8099      2.00000
     14       1.9170      2.00000
     15       1.9334      2.00000
     16       1.9540      2.00000
     17       2.6016      2.00000
     18       2.7823      2.00000
     19       2.8288      2.00000
     20       2.8379      2.00000
     21       3.0670      2.00000
     22       4.0098      2.00000
     23       4.5180      0.48199
     24       5.6321      0.00000
     25       8.3892      0.00000
     26       9.4265      0.00000

 k-point  13 :       0.0833    0.0833    0.4167
  band No.  band energies     occupation 
      1      -3.1713      2.00000
      2      -1.7798      2.00000
      3      -1.5953      2.00000
      4      -1.1890      2.00000
      5      -1.0348      2.00000
      6      -0.8630      2.00000
      7       0.7091      2.00000
      8       0.7755      2.00000
      9       0.9356      2.00000
     10       1.1836      2.00000
     11       1.4313      2.00000
     12       1.6259      2.00000
     13       1.6479      2.00000
     14       1.6948      2.00000
     15       1.7655      2.00000
     16       2.3151      2.00000
     17       2.4974      2.00000
     18       2.5316      2.00000
     19       2.6373      2.00000
     20       2.7423      2.00000
     21       2.8139      2.00000
     22       2.9694      2.00000
     23       8.2821      0.00000
     24       8.7461      0.00000
     25      10.0905      0.00000
     26      10.3363      0.00000

 k-point  14 :       0.2500    0.0833    0.4167
  band No.  band energies     occupation 
      1      -2.6015      2.00000
      2      -1.4261      2.00000
      3      -1.3062      2.00000
      4      -1.1543      2.00000
      5      -1.0907      2.00000
      6      -0.6318      2.00000
      7       0.4316      2.00000
      8       0.6477      2.00000
      9       0.6568      2.00000
     10       0.8812      2.00000
     11       1.1400      2.00000
     12       1.4557      2.00000
     13       1.5274      2.00000
     14       1.7077      2.00000
     15       1.8751      2.00000
     16       2.3737      2.00000
     17       2.4728      2.00000
     18       2.5740      2.00000
     19       2.6043      2.00000
     20       2.7614      2.00000
     21       2.8484      2.00000
     22       3.3910      2.00000
     23       5.9088      0.00000
     24       7.8462      0.00000
     25       9.4461      0.00000
     26      11.0332      0.00000

 k-point  15 :       0.4167    0.0833    0.4167
  band No.  band energies     occupation 
      1      -1.7151      2.00000
      2      -1.3737      2.00000
      3      -1.1593      2.00000
      4      -0.7879      2.00000
      5      -0.4264      2.00000
      6      -0.2972      2.00000
      7      -0.1022      2.00000
      8       0.1097      2.00000
      9       0.3931      2.00000
     10       0.5685      2.00000
     11       0.6217      2.00000
     12       0.9357      2.00000
     13       1.6704      2.00000
     14       1.7300      2.00000
     15       2.1587      2.00000
     16       2.3200      2.00000
     17       2.3482      2.00000
     18       2.4144      2.00000
     19       2.5334      2.00000
     20       2.6514      2.00000
     21       3.3033      2.00000
     22       4.1903      1.99992
     23       4.4356      1.35551
     24       5.8800      0.00000
     25      10.7007      0.00000
     26      12.2433      0.00000

 k-point  16 :       0.2500    0.2500    0.4167
  band No.  band energies     occupation 
      1      -2.3809      2.00000
      2      -1.5660      2.00000
      3      -1.5015      2.00000
      4      -0.9691      2.00000
      5      -0.4435      2.00000
      6      -0.2473      2.00000
      7      -0.1139      2.00000
      8       0.3940      2.00000
      9       0.6791      2.00000
     10       0.8008      2.00000
     11       0.9734      2.00000
     12       1.4711      2.00000
     13       1.7022      2.00000
     14       1.8561      2.00000
     15       1.8794      2.00000
     16       2.3066      2.00000
     17       2.5882      2.00000
     18       2.6961      2.00000
     19       2.7252      2.00000
     20       2.8986      2.00000
     21       2.9197      2.00000
     22       3.5891      2.00000
     23       6.3776      0.00000
     24       6.5821      0.00000
     25       8.0536      0.00000
     26       9.1738      0.00000

 k-point  17 :       0.4167    0.2500    0.4167
  band No.  band energies     occupation 
      1      -1.9545      2.00000
      2      -1.7613      2.00000
      3      -1.6338      2.00000
      4      -1.1070      2.00000
      5      -0.3210      2.00000
      6       0.2342      2.00000
      7       0.2666      2.00000
      8       0.4640      2.00000
      9       0.5334      2.00000
     10       0.6029      2.00000
     11       0.8497      2.00000
     12       1.7819      2.00000
     13       1.7975      2.00000
     14       1.8753      2.00000
     15       2.0635      2.00000
     16       2.1223      2.00000
     17       2.5824      2.00000
     18       2.6663      2.00000
     19       2.8333      2.00000
     20       2.8476      2.00000
     21       3.1446      2.00000
     22       4.2734      1.99414
     23       4.4210      1.49577
     24       5.7413      0.00000
     25       8.2420      0.00000
     26       9.6822      0.00000

 k-point  18 :       0.4167    0.4167    0.4167
  band No.  band energies     occupation 
      1      -2.0425      2.00000
      2      -2.0066      2.00000
      3      -1.8705      2.00000
      4      -1.6565      2.00000
      5       0.0773      2.00000
      6       0.3597      2.00000
      7       0.3980      2.00000
      8       0.4319      2.00000
      9       0.6167      2.00000
     10       0.7537      2.00000
     11       1.8935      2.00000
     12       1.9678      2.00000
     13       2.0220      2.00000
     14       2.2896      2.00000
     15       2.4049      2.00000
     16       2.6485      2.00000
     17       2.8072      2.00000
     18       2.8476      2.00000
     19       2.8733      2.00000
     20       2.9318      2.00000
     21       2.9722      2.00000
     22       4.3223      1.96099
     23       4.4155      1.54416
     24       4.4506      1.19726
     25       7.4251      0.00000
     26       7.9153      0.00000


--------------------------------------------------------------------------------------------------------


 soft charge-density along one line, spin component                        1
         0         1         2         3         4         5         6         7         8         9
x    21.5365    0.0000    1.3694    0.0000   -0.5906    0.0000    0.0899    0.0000    0.0103    0.0000
y    21.5365    0.0000    0.0000    0.0000    0.0000    0.0000    0.0000    0.0037    0.0594   -0.9022
z    21.5365    0.0433    0.0000    0.0000    0.0000    0.0000    0.0000    0.0000    0.0000    0.0000
 total charge-density along one line
x    44.0000    0.0000   15.3113    0.0000    2.1955    0.0000    0.0702    0.0000    0.0163    0.0000
x    -0.0007    0.0000    0.0000    0.0000    0.0000    0.0000    0.0001    0.0000   -0.0001
y    44.0000    0.0000   15.3113    0.0000    2.1955    0.0000    0.0702    0.0000    0.0163    0.0000
y    -0.0007    0.0000    0.0000    0.0000    0.0000    0.0000    0.0001    0.0000   -0.0001
z    44.0000   -2.8094   14.1190   -3.8852    1.7222   -0.3372    0.0342    0.0344    0.0184   -0.0084
z    -0.0035    0.0019    0.0015   -0.0003   -0.0010    0.0000    0.0007    0.0000   -0.0006

 pseudopotential strength for first ion, spin component: 
                        1
-10.413   0.000   0.000   0.000   0.000  -0.013   0.000   0.000
  0.000 -10.395   0.000   0.000   0.000   0.000  -0.015   0.000
  0.000   0.000 -10.380   0.000   0.000   0.000   0.000  -0.017
  0.000   0.000   0.000 -10.395   0.000   0.000   0.000   0.000
  0.000   0.000   0.000   0.000 -10.384   0.000   0.000   0.000
 -0.013   0.000   0.000   0.000   0.000   0.272   0.000   0.000
  0.000  -0.015   0.000   0.000   0.000   0.000   0.273   0.000
  0.000   0.000  -0.017   0.000   0.000   0.000   0.000   0.273
  0.000   0.000   0.000  -0.015   0.000   0.000   0.000   0.000
  0.000   0.000   0.000   0.000  -0.016   0.000   0.000   0.000
  0.000   0.000  -0.006   0.000   0.000   0.000   0.000   0.000
  0.000   0.000   0.000   0.000   0.000   0.000   0.000   0.000
  0.000   0.000   0.000   0.000   0.000   0.000   0.000   0.000
  0.000   0.000   0.000   0.000   0.000   0.000   0.000   0.000
  0.000   0.000   0.000   0.000   0.000   0.000   0.000   0.000
  0.000   0.000   0.000   0.000   0.000   0.000   0.000   0.000
  0.000   0.000   0.000   0.000   0.000   0.000   0.000   0.000
  0.000   0.000   0.000   0.000   0.000   0.000   0.000   0.000
 total augmentation occupancy for first ion, spin component: 
                        1
  1.860  -0.019  -0.020  -0.008  -0.009  -0.011   0.019  -0.009   0.006   0.013   0.072   0.005   0.000   0.000   0.000   0.000
 -0.019   1.937  -0.009  -0.014  -0.005   0.020  -0.057   0.016   0.016  -0.005   0.041   0.004   0.000   0.000   0.000   0.000
 -0.020  -0.009   1.928   0.000  -0.034  -0.009   0.016  -0.088   0.009   0.042   0.045   0.011   0.000   0.000   0.000   0.000
 -0.008  -0.014   0.000   1.867   0.002   0.006   0.016   0.009  -0.008   0.015   0.017  -0.015   0.000   0.000   0.000   0.000
 -0.009  -0.005  -0.034   0.002   1.957   0.013  -0.005   0.042   0.015  -0.101   0.087   0.072   0.000   0.000   0.000   0.000
 -0.011   0.020  -0.009   0.006   0.013   0.228  -0.016   0.045  -0.006  -0.014  -0.014   0.044   0.000   0.000   0.000   0.000
  0.019  -0.057   0.016   0.016  -0.005  -0.016   0.153  -0.020  -0.011   0.017  -0.011   0.017   0.000   0.000   0.000   0.000
 -0.009   0.016  -0.088   0.009   0.042   0.045  -0.020   0.163  -0.019   0.007  -0.050   0.030   0.000   0.000   0.000   0.000
  0.006   0.016   0.009  -0.008   0.015  -0.006  -0.011  -0.019   0.173  -0.032   0.026   0.035   0.000   0.000   0.000   0.000
  0.013  -0.005   0.042   0.015  -0.101  -0.014   0.017   0.007  -0.032   0.172  -0.130   0.003   0.000   0.000   0.000   0.000
  0.072   0.041   0.045   0.017   0.087  -0.014  -0.011  -0.050   0.026  -0.130   1.221  -0.347   0.000   0.000   0.000   0.000
  0.005   0.004   0.011  -0.015   0.072   0.044   0.017   0.030   0.035   0.003  -0.347   0.209   0.000   0.000   0.000   0.000
  0.000   0.000   0.000   0.000   0.000   0.000   0.000   0.000   0.000   0.000   0.000   0.000   0.161   0.009  -0.006  -0.010
  0.000   0.000   0.000   0.000   0.000   0.000   0.000   0.000   0.000   0.000   0.000   0.000   0.009   0.169  -0.009  -0.001
  0.000   0.000   0.000   0.000   0.000   0.000   0.000   0.000   0.000   0.000   0.000   0.000  -0.006  -0.009   0.228  -0.002
  0.000   0.000   0.000   0.000   0.000   0.000   0.000   0.000   0.000   0.000   0.000   0.000  -0.010  -0.001  -0.002   0.001
  0.000   0.000   0.000   0.000   0.000   0.000   0.000   0.000   0.000   0.000   0.000   0.000  -0.001  -0.010   0.000   0.000
  0.000   0.000   0.000   0.000   0.000   0.000   0.000   0.000   0.000   0.000   0.000   0.000  -0.002   0.000  -0.015   0.000


------------------------ aborting loop because EDIFF is reached ----------------------------------------





 total charge     

# of ion     s       p       d       tot
----------------------------------------
  1        0.601   0.408   8.673   9.683
  2        0.601   0.408   8.673   9.683
  3        0.373   0.295   9.237   9.905
  4        0.373   0.295   9.237   9.905
------------------------------------------------
tot        1.948   1.406  35.821  39.176



--------------------------------------------------------------------------------------------------------


 d Force = 0.0000000E+00[ 0.000E+00, 0.000E+00]  d Energy =-0.4732040E-04 0.473E-04
 d Force = 0.0000000E+00[ 0.000E+00, 0.000E+00]  d Ewald  =-0.4115616E+01 0.412E+01


--------------------------------------------------------------------------------------------------------



  FREE ENERGIE OF THE ION-ELECTRON SYSTEM (eV)
  ---------------------------------------------------
  free  energy   TOTEN  =       -14.024130 eV

  energy  without entropy=      -14.007929  energy(sigma->0) =      -14.016030


  FORCE on cell =-STRESS in cart. coord.  units (eV/reduce length):
  Direction    X        Y        Z        XY       YZ       ZX
  --------------------------------------------------------------------------------------
  Alpha Z    415.47    415.47    415.47
  Ewald    -1358.51  -1358.51  -1353.19      0.00      0.00      0.00
  Hartree    301.93    301.93    303.13      0.00      0.00      0.00
  E(xc)     -225.32   -225.32   -225.43      0.00      0.00      0.00
  Local      378.72    378.72    369.91      0.00      0.00      0.00
  n-local   -165.40   -175.15   -168.94      2.50      2.71      1.00
  augment    197.02    197.02    197.14      0.00      0.00      0.00
  Kinetic    464.31    457.50    461.74     -2.26     -1.52     -3.37
  -------------------------------------------------------------------------------------
  Total       -0.06     -0.06     -0.18      0.00      0.00      0.00
  in kB       -1.54     -1.54     -4.84      0.00      0.00      0.00
  external pressure =       -2.64 kB  Pullay stress =        0.00 kB


 VOLUME and BASIS-vectors are now :
 -----------------------------------------------------------------------------
  energy-cutoff  :      350.00
  volume of cell :       60.48
      direct lattice vectors                 reciprocal lattice vectors
     3.985458477  0.000000000  0.000000000     0.250912161  0.000000000  0.000000000
     0.000000000  3.985458477  0.000000000     0.000000000  0.250912161  0.000000000
     0.000000000  0.000000000  3.807643438     0.000000000  0.000000000  0.262629633

  length of vectors
     3.985458477  3.985458477  3.807643438     0.250912161  0.250912161  0.262629633


 FORCES acting on ions
    electron-ion (+dipol)            ewald-force                    non-local-force                 convergence-correction
 -----------------------------------------------------------------------------------------------
   -.131E-12 -.110E-13 -.151E-13   0.549E-14 -.229E-14 -.105E-14   0.000E+00 0.000E+00 0.000E+00   0.749E-14 -.167E-13 -.482E-13
   0.119E-12 0.224E-12 -.156E-13   0.474E-14 -.159E-14 -.108E-14   0.000E+00 0.000E+00 0.000E+00   0.469E-13 -.322E-14 -.510E-13
   0.455E-12 0.397E-13 0.777E-12   0.530E-14 0.204E-14 0.310E-14   0.000E+00 0.000E+00 0.000E+00   0.865E-13 -.115E-13 -.283E-13
   -.282E-12 0.738E-12 0.777E-12   -.168E-13 0.274E-14 0.306E-14   -.132E-22 0.000E+00 0.000E+00   0.686E-13 -.333E-14 -.319E-13
 -----------------------------------------------------------------------------------------------
   0.161E-12 0.991E-12 0.152E-11   -.124E-14 0.903E-15 0.402E-14   -.132E-22 0.000E+00 0.000E+00   0.209E-12 -.348E-13 -.159E-12


 POSITION                                       TOTAL-FORCE (eV/Angst)
 -----------------------------------------------------------------------------------
      0.00000      0.00000      0.00000         0.000000      0.000000      0.000000
      1.99273      1.99273      0.00000         0.000000      0.000000      0.000000
      1.99273      0.00000      1.90382         0.000000      0.000000      0.000000
      0.00000      1.99273      1.90382         0.000000      0.000000      0.000000
 -----------------------------------------------------------------------------------
    total drift:                                0.000000      0.000000      0.000000


--------------------------------------------------------------------------------------------------------


 Quasi-Newton relaxation of ions (Broydens 2nd method)
  g(Force)  = 0.341E-60   g(Stress)= 0.339E-03

 retain information from N=  1 steps
 eigenvalues of (default step * inverse Hessian matrix)
  average eigenvalue of G=   0.5594
 eigenvalue spectrum of G is  0.5594


--------------------------------------------------------------------------------------------------------


  
 reached required accuracy - stopping structural energy minimisation
     LOOP+:  VPU time   18.24: CPU time   17.32



 total charge     

# of ion     s       p       d       tot
----------------------------------------
  1        0.601   0.408   8.673   9.683
  2        0.601   0.408   8.673   9.683
  3        0.373   0.295   9.237   9.905
  4        0.373   0.295   9.237   9.905
------------------------------------------------
tot        1.948   1.406  35.821  39.176

  
  
 General timing and accounting informations for this job:
 ========================================================
  
                  Total CPU time used (sec):       58.757
                            User time (sec):       52.750
                          System time (sec):        6.007
                         Elapsed time (sec):       54.946
  
                   Maximum memory used (kb):           0.
                   Average memory used (kb):           0.
  
                          Minor page faults:       435270
                          Major page faults:            0
                 Voluntary context switches:      1080902
