PROCAR lm decomposed
# of k-points:   18         # of bands:  26         # of ions:   4

 k-point    1 :    0.08333333 0.08333333 0.08333333     weight = 0.03703704

band   1 # energy   -4.59636996 # occ.  2.00000000

ion      s     py     pz     px    dxy    dyz    dz2    dxz    dx2    tot
  1  0.189  0.001  0.001  0.001  0.000  0.000  0.003  0.000  0.000  0.196
  2  0.189  0.001  0.001  0.001  0.000  0.000  0.003  0.000  0.000  0.196
  3  0.098  0.001  0.001  0.001  0.000  0.000  0.001  0.000  0.000  0.101
  4  0.098  0.001  0.001  0.001  0.000  0.000  0.001  0.000  0.000  0.101
tot  0.575  0.003  0.004  0.003  0.001  0.000  0.007  0.000  0.000  0.593

band   2 # energy   -2.17191089 # occ.  2.00000000

ion      s     py     pz     px    dxy    dyz    dz2    dxz    dx2    tot
  1  0.000  0.001  0.000  0.001  0.000  0.000  0.000  0.000  0.345  0.347
  2  0.000  0.001  0.000  0.001  0.000  0.000  0.000  0.000  0.345  0.347
  3  0.023  0.000  0.001  0.000  0.000  0.000  0.030  0.000  0.000  0.055
  4  0.023  0.000  0.001  0.000  0.000  0.000  0.030  0.000  0.000  0.055
tot  0.047  0.002  0.002  0.002  0.000  0.001  0.061  0.001  0.690  0.804

band   3 # energy   -1.77143790 # occ.  2.00000000

ion      s     py     pz     px    dxy    dyz    dz2    dxz    dx2    tot
  1  0.000  0.001  0.000  0.001  0.406  0.000  0.012  0.000  0.000  0.419
  2  0.000  0.001  0.000  0.001  0.406  0.000  0.012  0.000  0.000  0.419
  3  0.001  0.000  0.000  0.000  0.022  0.000  0.002  0.000  0.000  0.025
  4  0.001  0.000  0.000  0.000  0.022  0.000  0.002  0.000  0.000  0.025
tot  0.002  0.001  0.000  0.001  0.857  0.000  0.027  0.000  0.000  0.889

band   4 # energy   -1.54737725 # occ.  2.00000000

ion      s     py     pz     px    dxy    dyz    dz2    dxz    dx2    tot
  1  0.003  0.000  0.001  0.000  0.014  0.000  0.321  0.000  0.000  0.340
  2  0.003  0.000  0.001  0.000  0.014  0.000  0.321  0.000  0.000  0.340
  3  0.014  0.000  0.000  0.000  0.001  0.000  0.051  0.000  0.000  0.068
  4  0.014  0.000  0.000  0.000  0.001  0.000  0.051  0.000  0.000  0.068
tot  0.035  0.002  0.002  0.002  0.030  0.000  0.744  0.000  0.000  0.816

band   5 # energy   -1.05851643 # occ.  2.00000000

ion      s     py     pz     px    dxy    dyz    dz2    dxz    dx2    tot
  1  0.000  0.000  0.000  0.000  0.000  0.173  0.000  0.173  0.001  0.346
  2  0.000  0.000  0.000  0.000  0.000  0.173  0.000  0.173  0.001  0.346
  3  0.000  0.001  0.001  0.001  0.000  0.046  0.000  0.046  0.000  0.094
  4  0.000  0.001  0.001  0.001  0.000  0.046  0.000  0.046  0.000  0.094
tot  0.000  0.001  0.002  0.001  0.000  0.437  0.000  0.437  0.001  0.881

band   6 # energy   -0.97135588 # occ.  2.00000000

ion      s     py     pz     px    dxy    dyz    dz2    dxz    dx2    tot
  1  0.000  0.000  0.001  0.000  0.000  0.170  0.000  0.170  0.000  0.341
  2  0.000  0.000  0.001  0.000  0.000  0.170  0.000  0.170  0.000  0.341
  3  0.000  0.001  0.000  0.001  0.000  0.050  0.000  0.050  0.000  0.101
  4  0.000  0.001  0.000  0.001  0.000  0.050  0.000  0.050  0.000  0.101
tot  0.000  0.001  0.001  0.001  0.000  0.440  0.000  0.440  0.000  0.884

band   7 # energy   -0.67404511 # occ.  2.00000000

ion      s     py     pz     px    dxy    dyz    dz2    dxz    dx2    tot
  1  0.036  0.000  0.001  0.000  0.000  0.000  0.222  0.000  0.000  0.259
  2  0.036  0.000  0.001  0.000  0.000  0.000  0.222  0.000  0.000  0.259
  3  0.000  0.001  0.000  0.001  0.000  0.000  0.000  0.000  0.145  0.148
  4  0.000  0.001  0.000  0.001  0.000  0.000  0.000  0.000  0.145  0.148
tot  0.071  0.003  0.001  0.003  0.000  0.000  0.445  0.000  0.291  0.814

band   8 # energy    0.56135760 # occ.  2.00000000

ion      s     py     pz     px    dxy    dyz    dz2    dxz    dx2    tot
  1  0.000  0.000  0.000  0.000  0.000  0.186  0.000  0.186  0.000  0.373
  2  0.000  0.000  0.000  0.000  0.000  0.186  0.000  0.186  0.000  0.373
  3  0.000  0.000  0.002  0.000  0.001  0.045  0.000  0.045  0.000  0.094
  4  0.000  0.000  0.002  0.000  0.001  0.045  0.000  0.045  0.000  0.094
tot  0.000  0.000  0.005  0.000  0.002  0.463  0.001  0.463  0.000  0.935

band   9 # energy    0.70419849 # occ.  2.00000000

ion      s     py     pz     px    dxy    dyz    dz2    dxz    dx2    tot
  1  0.000  0.000  0.000  0.000  0.000  0.182  0.000  0.182  0.001  0.364
  2  0.000  0.000  0.000  0.000  0.000  0.182  0.000  0.182  0.001  0.364
  3  0.000  0.000  0.000  0.000  0.000  0.053  0.000  0.053  0.001  0.108
  4  0.000  0.000  0.000  0.000  0.000  0.053  0.000  0.053  0.001  0.108
tot  0.000  0.000  0.000  0.000  0.000  0.470  0.000  0.470  0.003  0.944

band  10 # energy    1.63905695 # occ.  2.00000000

ion      s     py     pz     px    dxy    dyz    dz2    dxz    dx2    tot
  1  0.000  0.000  0.000  0.000  0.000  0.001  0.000  0.001  0.419  0.421
  2  0.000  0.000  0.000  0.000  0.000  0.001  0.000  0.001  0.419  0.421
  3  0.000  0.000  0.000  0.000  0.000  0.000  0.000  0.000  0.062  0.063
  4  0.000  0.000  0.000  0.000  0.000  0.000  0.000  0.000  0.062  0.063
tot  0.000  0.000  0.000  0.000  0.000  0.002  0.000  0.002  0.963  0.967

band  11 # energy    1.79182652 # occ.  2.00000000

ion      s     py     pz     px    dxy    dyz    dz2    dxz    dx2    tot
  1  0.000  0.000  0.000  0.000  0.029  0.000  0.000  0.000  0.000  0.030
  2  0.000  0.000  0.000  0.000  0.029  0.000  0.000  0.000  0.000  0.030
  3  0.000  0.000  0.000  0.000  0.439  0.000  0.001  0.000  0.000  0.441
  4  0.000  0.000  0.000  0.000  0.439  0.000  0.001  0.000  0.000  0.441
tot  0.000  0.000  0.000  0.000  0.935  0.002  0.003  0.002  0.000  0.942

band  12 # energy    2.40262044 # occ.  2.00000000

ion      s     py     pz     px    dxy    dyz    dz2    dxz    dx2    tot
  1  0.004  0.010  0.000  0.010  0.357  0.005  0.019  0.005  0.000  0.410
  2  0.004  0.010  0.000  0.010  0.357  0.005  0.019  0.005  0.000  0.410
  3  0.000  0.004  0.000  0.004  0.000  0.019  0.000  0.019  0.005  0.053
  4  0.000  0.004  0.000  0.004  0.000  0.019  0.000  0.019  0.005  0.053
tot  0.008  0.030  0.000  0.030  0.713  0.049  0.038  0.049  0.011  0.926

band  13 # energy    2.41158376 # occ.  2.00000000

ion      s     py     pz     px    dxy    dyz    dz2    dxz    dx2    tot
  1  0.000  0.000  0.000  0.000  0.000  0.000  0.079  0.000  0.000  0.080
  2  0.000  0.000  0.000  0.000  0.000  0.000  0.079  0.000  0.000  0.080
  3  0.000  0.000  0.000  0.000  0.001  0.000  0.404  0.000  0.000  0.405
  4  0.000  0.000  0.000  0.000  0.001  0.000  0.404  0.000  0.000  0.405
tot  0.001  0.000  0.000  0.000  0.003  0.000  0.965  0.000  0.000  0.970

band  14 # energy    2.75237193 # occ.  2.00000000

ion      s     py     pz     px    dxy    dyz    dz2    dxz    dx2    tot
  1  0.000  0.000  0.001  0.000  0.004  0.004  0.174  0.004  0.000  0.188
  2  0.000  0.000  0.001  0.000  0.004  0.004  0.174  0.004  0.000  0.188
  3  0.000  0.001  0.000  0.001  0.000  0.017  0.000  0.017  0.266  0.301
  4  0.000  0.001  0.000  0.001  0.000  0.017  0.000  0.017  0.266  0.301
tot  0.000  0.002  0.001  0.002  0.009  0.042  0.349  0.042  0.531  0.978

band  15 # energy    2.78327131 # occ.  2.00000000

ion      s     py     pz     px    dxy    dyz    dz2    dxz    dx2    tot
  1  0.000  0.005  0.000  0.005  0.000  0.017  0.000  0.017  0.001  0.045
  2  0.000  0.005  0.000  0.005  0.000  0.017  0.000  0.017  0.001  0.045
  3  0.002  0.004  0.000  0.004  0.255  0.081  0.000  0.081  0.000  0.428
  4  0.002  0.004  0.000  0.004  0.255  0.081  0.000  0.081  0.000  0.428
tot  0.003  0.019  0.000  0.019  0.510  0.196  0.000  0.196  0.002  0.945

band  16 # energy    2.80407803 # occ.  2.00000000

ion      s     py     pz     px    dxy    dyz    dz2    dxz    dx2    tot
  1  0.001  0.000  0.008  0.000  0.000  0.041  0.000  0.041  0.000  0.091
  2  0.001  0.000  0.008  0.000  0.000  0.041  0.000  0.041  0.000  0.091
  3  0.001  0.000  0.006  0.000  0.000  0.190  0.001  0.190  0.000  0.387
  4  0.001  0.000  0.006  0.000  0.000  0.190  0.001  0.190  0.000  0.387
tot  0.003  0.000  0.028  0.000  0.001  0.460  0.003  0.460  0.000  0.956

band  17 # energy    2.80678235 # occ.  2.00000000

ion      s     py     pz     px    dxy    dyz    dz2    dxz    dx2    tot
  1  0.000  0.000  0.000  0.000  0.000  0.003  0.000  0.003  0.055  0.062
  2  0.000  0.000  0.000  0.000  0.000  0.003  0.000  0.003  0.055  0.062
  3  0.000  0.000  0.000  0.000  0.000  0.017  0.000  0.017  0.394  0.428
  4  0.000  0.000  0.000  0.000  0.000  0.017  0.000  0.017  0.394  0.428
tot  0.000  0.001  0.000  0.001  0.000  0.041  0.000  0.041  0.898  0.982

band  18 # energy    2.85907431 # occ.  2.00000000

ion      s     py     pz     px    dxy    dyz    dz2    dxz    dx2    tot
  1  0.000  0.000  0.000  0.000  0.000  0.002  0.000  0.002  0.037  0.041
  2  0.000  0.000  0.000  0.000  0.000  0.002  0.000  0.002  0.037  0.041
  3  0.000  0.000  0.000  0.000  0.021  0.006  0.416  0.006  0.000  0.451
  4  0.000  0.000  0.000  0.000  0.021  0.006  0.416  0.006  0.000  0.451
tot  0.000  0.000  0.000  0.000  0.043  0.016  0.832  0.016  0.075  0.983

band  19 # energy    3.03687079 # occ.  2.00000000

ion      s     py     pz     px    dxy    dyz    dz2    dxz    dx2    tot
  1  0.000  0.000  0.000  0.000  0.000  0.027  0.000  0.027  0.003  0.058
  2  0.000  0.000  0.000  0.000  0.000  0.027  0.000  0.027  0.003  0.058
  3  0.000  0.000  0.000  0.000  0.202  0.099  0.035  0.099  0.000  0.436
  4  0.000  0.000  0.000  0.000  0.202  0.099  0.035  0.099  0.000  0.436
tot  0.000  0.001  0.000  0.001  0.405  0.252  0.070  0.252  0.005  0.987

band  20 # energy    3.03929569 # occ.  2.00000000

ion      s     py     pz     px    dxy    dyz    dz2    dxz    dx2    tot
  1  0.000  0.000  0.000  0.000  0.086  0.042  0.015  0.042  0.000  0.185
  2  0.000  0.000  0.000  0.000  0.086  0.042  0.015  0.042  0.000  0.185
  3  0.000  0.001  0.000  0.001  0.000  0.147  0.000  0.147  0.013  0.307
  4  0.000  0.001  0.000  0.001  0.000  0.147  0.000  0.147  0.013  0.307
tot  0.001  0.002  0.000  0.002  0.171  0.377  0.030  0.377  0.027  0.985

band  21 # energy    3.04576223 # occ.  2.00000000

ion      s     py     pz     px    dxy    dyz    dz2    dxz    dx2    tot
  1  0.000  0.000  0.000  0.000  0.000  0.052  0.000  0.052  0.010  0.114
  2  0.000  0.000  0.000  0.000  0.000  0.052  0.000  0.052  0.010  0.114
  3  0.000  0.000  0.000  0.000  0.000  0.174  0.000  0.174  0.033  0.380
  4  0.000  0.000  0.000  0.000  0.000  0.174  0.000  0.174  0.033  0.380
tot  0.000  0.000  0.000  0.000  0.000  0.451  0.000  0.451  0.085  0.988

band  22 # energy    5.54935652 # occ.  0.00000000

ion      s     py     pz     px    dxy    dyz    dz2    dxz    dx2    tot
  1  0.042  0.047  0.000  0.047  0.044  0.005  0.013  0.005  0.000  0.205
  2  0.042  0.047  0.000  0.047  0.044  0.005  0.013  0.005  0.000  0.205
  3  0.000  0.044  0.000  0.044  0.000  0.009  0.000  0.009  0.017  0.123
  4  0.000  0.044  0.000  0.044  0.000  0.009  0.000  0.009  0.017  0.123
tot  0.085  0.182  0.001  0.182  0.088  0.028  0.027  0.028  0.034  0.656

band  23 # energy    5.56791822 # occ.  0.00000000

ion      s     py     pz     px    dxy    dyz    dz2    dxz    dx2    tot
  1  0.000  0.063  0.000  0.063  0.000  0.006  0.000  0.006  0.013  0.152
  2  0.000  0.063  0.000  0.063  0.000  0.006  0.000  0.006  0.013  0.152
  3  0.025  0.045  0.000  0.045  0.016  0.010  0.001  0.010  0.000  0.152
  4  0.025  0.045  0.000  0.045  0.016  0.010  0.001  0.010  0.000  0.152
tot  0.049  0.217  0.001  0.217  0.032  0.032  0.002  0.032  0.027  0.608

band  24 # energy    6.26252437 # occ.  0.00000000

ion      s     py     pz     px    dxy    dyz    dz2    dxz    dx2    tot
  1  0.015  0.000  0.120  0.000  0.000  0.010  0.013  0.010  0.000  0.168
  2  0.015  0.000  0.120  0.000  0.000  0.010  0.013  0.010  0.000  0.168
  3  0.018  0.000  0.098  0.000  0.000  0.009  0.006  0.009  0.000  0.140
  4  0.018  0.000  0.098  0.000  0.000  0.009  0.006  0.009  0.000  0.140
tot  0.068  0.001  0.435  0.001  0.000  0.038  0.038  0.038  0.000  0.618

band  25 # energy   10.55634715 # occ.  0.00000000

ion      s     py     pz     px    dxy    dyz    dz2    dxz    dx2    tot
  1  0.215  0.010  0.000  0.010  0.000  0.000  0.045  0.000  0.000  0.282
  2  0.215  0.010  0.000  0.010  0.000  0.000  0.045  0.000  0.000  0.282
  3  0.000  0.013  0.000  0.013  0.000  0.000  0.000  0.000  0.069  0.095
  4  0.000  0.013  0.000  0.013  0.000  0.000  0.000  0.000  0.069  0.095
tot  0.429  0.046  0.001  0.046  0.001  0.001  0.091  0.001  0.138  0.754

band  26 # energy   11.70955023 # occ.  0.00000000

ion      s     py     pz     px    dxy    dyz    dz2    dxz    dx2    tot
  1  0.000  0.006  0.000  0.006  0.000  0.000  0.000  0.000  0.090  0.103
  2  0.000  0.006  0.000  0.006  0.000  0.000  0.000  0.000  0.090  0.103
  3  0.245  0.008  0.004  0.008  0.000  0.000  0.012  0.000  0.000  0.278
  4  0.244  0.008  0.004  0.008  0.000  0.000  0.013  0.000  0.000  0.277
tot  0.489  0.029  0.008  0.029  0.000  0.000  0.025  0.000  0.181  0.762


 k-point    2 :    0.25000000 0.08333333 0.08333333     weight = 0.07407407

band   1 # energy   -3.97950960 # occ.  2.00000000

ion      s     py     pz     px    dxy    dyz    dz2    dxz    dx2    tot
  1  0.177  0.001  0.001  0.010  0.002  0.000  0.001  0.001  0.001  0.193
  2  0.177  0.001  0.001  0.010  0.002  0.000  0.001  0.001  0.001  0.193
  3  0.095  0.001  0.001  0.005  0.000  0.000  0.001  0.000  0.000  0.103
  4  0.095  0.001  0.001  0.005  0.000  0.000  0.001  0.000  0.000  0.103
tot  0.544  0.003  0.003  0.030  0.005  0.000  0.003  0.002  0.002  0.592

band   2 # energy   -1.82751126 # occ.  2.00000000

ion      s     py     pz     px    dxy    dyz    dz2    dxz    dx2    tot
  1  0.004  0.001  0.000  0.008  0.000  0.001  0.000  0.003  0.319  0.336
  2  0.004  0.001  0.000  0.008  0.000  0.001  0.000  0.003  0.319  0.336
  3  0.029  0.000  0.001  0.000  0.000  0.000  0.030  0.000  0.001  0.062
  4  0.029  0.000  0.001  0.000  0.000  0.000  0.030  0.000  0.001  0.062
tot  0.066  0.001  0.001  0.018  0.000  0.002  0.060  0.006  0.640  0.795

band   3 # energy   -1.47196742 # occ.  2.00000000

ion      s     py     pz     px    dxy    dyz    dz2    dxz    dx2    tot
  1  0.000  0.004  0.000  0.000  0.323  0.000  0.075  0.000  0.000  0.403
  2  0.000  0.004  0.000  0.000  0.323  0.000  0.075  0.000  0.000  0.403
  3  0.006  0.000  0.000  0.000  0.019  0.000  0.008  0.000  0.000  0.034
  4  0.006  0.000  0.000  0.000  0.019  0.000  0.008  0.000  0.000  0.034
tot  0.012  0.009  0.001  0.001  0.683  0.001  0.167  0.001  0.000  0.874

band   4 # energy   -1.18502535 # occ.  2.00000000

ion      s     py     pz     px    dxy    dyz    dz2    dxz    dx2    tot
  1  0.003  0.003  0.001  0.004  0.085  0.000  0.265  0.001  0.001  0.362
  2  0.003  0.003  0.001  0.004  0.085  0.000  0.265  0.001  0.001  0.362
  3  0.005  0.001  0.000  0.002  0.006  0.000  0.042  0.000  0.000  0.057
  4  0.005  0.001  0.000  0.002  0.006  0.000  0.042  0.000  0.000  0.057
tot  0.015  0.008  0.002  0.013  0.182  0.000  0.613  0.001  0.003  0.837

band   5 # energy   -0.93855237 # occ.  2.00000000

ion      s     py     pz     px    dxy    dyz    dz2    dxz    dx2    tot
  1  0.000  0.000  0.001  0.000  0.000  0.182  0.001  0.168  0.005  0.357
  2  0.000  0.000  0.001  0.000  0.000  0.182  0.001  0.168  0.005  0.357
  3  0.000  0.001  0.005  0.001  0.001  0.044  0.000  0.031  0.000  0.082
  4  0.000  0.001  0.005  0.001  0.001  0.044  0.000  0.031  0.000  0.082
tot  0.001  0.001  0.010  0.002  0.001  0.453  0.003  0.398  0.010  0.879

band   6 # energy   -0.70192764 # occ.  2.00000000

ion      s     py     pz     px    dxy    dyz    dz2    dxz    dx2    tot
  1  0.039  0.000  0.001  0.000  0.001  0.019  0.208  0.007  0.006  0.280
  2  0.039  0.000  0.001  0.000  0.001  0.019  0.208  0.007  0.006  0.280
  3  0.001  0.002  0.000  0.011  0.000  0.004  0.002  0.000  0.097  0.119
  4  0.001  0.002  0.000  0.011  0.000  0.004  0.002  0.000  0.097  0.119
tot  0.080  0.004  0.002  0.023  0.001  0.046  0.420  0.013  0.207  0.797

band   7 # energy   -0.68282827 # occ.  2.00000000

ion      s     py     pz     px    dxy    dyz    dz2    dxz    dx2    tot
  1  0.003  0.000  0.001  0.000  0.000  0.143  0.013  0.174  0.000  0.335
  2  0.003  0.000  0.001  0.000  0.000  0.143  0.013  0.174  0.000  0.335
  3  0.000  0.000  0.001  0.000  0.000  0.048  0.000  0.048  0.010  0.107
  4  0.000  0.000  0.001  0.000  0.000  0.048  0.000  0.048  0.010  0.107
tot  0.007  0.000  0.005  0.000  0.001  0.381  0.027  0.443  0.020  0.884

band   8 # energy    0.25110005 # occ.  2.00000000

ion      s     py     pz     px    dxy    dyz    dz2    dxz    dx2    tot
  1  0.001  0.000  0.001  0.000  0.000  0.249  0.001  0.133  0.000  0.386
  2  0.001  0.000  0.001  0.000  0.000  0.249  0.001  0.133  0.000  0.386
  3  0.000  0.000  0.006  0.000  0.002  0.056  0.000  0.006  0.000  0.072
  4  0.000  0.000  0.006  0.000  0.002  0.056  0.000  0.006  0.000  0.072
tot  0.001  0.001  0.014  0.000  0.005  0.611  0.003  0.280  0.001  0.916

band   9 # energy    0.66739095 # occ.  2.00000000

ion      s     py     pz     px    dxy    dyz    dz2    dxz    dx2    tot
  1  0.000  0.000  0.001  0.000  0.000  0.110  0.001  0.276  0.003  0.392
  2  0.000  0.000  0.001  0.000  0.000  0.110  0.001  0.276  0.003  0.392
  3  0.000  0.000  0.004  0.000  0.000  0.045  0.000  0.022  0.003  0.075
  4  0.000  0.000  0.004  0.000  0.000  0.045  0.000  0.022  0.003  0.075
tot  0.001  0.000  0.011  0.000  0.001  0.309  0.002  0.596  0.013  0.932

band  10 # energy    1.21947538 # occ.  2.00000000

ion      s     py     pz     px    dxy    dyz    dz2    dxz    dx2    tot
  1  0.014  0.023  0.000  0.008  0.327  0.001  0.029  0.001  0.002  0.406
  2  0.014  0.023  0.000  0.008  0.327  0.001  0.029  0.001  0.002  0.406
  3  0.000  0.008  0.000  0.003  0.013  0.006  0.000  0.003  0.000  0.034
  4  0.000  0.008  0.000  0.003  0.013  0.006  0.000  0.003  0.000  0.034
tot  0.028  0.062  0.000  0.022  0.681  0.015  0.058  0.009  0.005  0.880

band  11 # energy    1.31643175 # occ.  2.00000000

ion      s     py     pz     px    dxy    dyz    dz2    dxz    dx2    tot
  1  0.001  0.000  0.000  0.000  0.000  0.001  0.003  0.005  0.425  0.437
  2  0.001  0.000  0.000  0.000  0.000  0.001  0.003  0.005  0.425  0.437
  3  0.000  0.000  0.000  0.001  0.001  0.000  0.006  0.004  0.026  0.039
  4  0.000  0.000  0.000  0.001  0.001  0.000  0.006  0.004  0.026  0.039
tot  0.003  0.000  0.001  0.003  0.001  0.002  0.019  0.019  0.902  0.951

band  12 # energy    1.89912289 # occ.  2.00000000

ion      s     py     pz     px    dxy    dyz    dz2    dxz    dx2    tot
  1  0.000  0.000  0.000  0.000  0.031  0.001  0.001  0.000  0.001  0.035
  2  0.000  0.000  0.000  0.000  0.031  0.001  0.001  0.000  0.001  0.035
  3  0.000  0.001  0.000  0.000  0.419  0.003  0.012  0.001  0.000  0.437
  4  0.000  0.001  0.000  0.000  0.419  0.003  0.012  0.001  0.000  0.437
tot  0.001  0.002  0.000  0.000  0.900  0.008  0.026  0.003  0.003  0.943

band  13 # energy    2.26156050 # occ.  2.00000000

ion      s     py     pz     px    dxy    dyz    dz2    dxz    dx2    tot
  1  0.001  0.000  0.013  0.000  0.000  0.003  0.007  0.010  0.001  0.034
  2  0.001  0.000  0.013  0.000  0.000  0.003  0.007  0.010  0.001  0.034
  3  0.002  0.000  0.006  0.000  0.004  0.018  0.017  0.374  0.012  0.433
  4  0.002  0.000  0.006  0.000  0.004  0.018  0.017  0.374  0.012  0.433
tot  0.005  0.000  0.037  0.000  0.009  0.042  0.047  0.768  0.026  0.934

band  14 # energy    2.27098436 # occ.  2.00000000

ion      s     py     pz     px    dxy    dyz    dz2    dxz    dx2    tot
  1  0.015  0.005  0.000  0.025  0.004  0.000  0.035  0.015  0.020  0.120
  2  0.015  0.005  0.000  0.025  0.004  0.000  0.035  0.015  0.020  0.120
  3  0.013  0.004  0.000  0.013  0.153  0.015  0.001  0.112  0.000  0.311
  4  0.013  0.004  0.000  0.013  0.153  0.015  0.001  0.112  0.000  0.311
tot  0.057  0.018  0.000  0.076  0.314  0.030  0.073  0.253  0.041  0.862

band  15 # energy    2.45258062 # occ.  2.00000000

ion      s     py     pz     px    dxy    dyz    dz2    dxz    dx2    tot
  1  0.000  0.000  0.000  0.000  0.002  0.000  0.063  0.000  0.010  0.076
  2  0.000  0.000  0.000  0.000  0.002  0.000  0.063  0.000  0.010  0.076
  3  0.000  0.000  0.000  0.000  0.010  0.002  0.375  0.020  0.003  0.409
  4  0.000  0.000  0.000  0.000  0.010  0.002  0.375  0.020  0.003  0.409
tot  0.000  0.000  0.001  0.000  0.023  0.005  0.876  0.039  0.025  0.970

band  16 # energy    2.53867432 # occ.  2.00000000

ion      s     py     pz     px    dxy    dyz    dz2    dxz    dx2    tot
  1  0.000  0.000  0.001  0.000  0.002  0.002  0.110  0.011  0.002  0.129
  2  0.000  0.000  0.001  0.000  0.002  0.002  0.110  0.011  0.002  0.129
  3  0.001  0.000  0.000  0.001  0.000  0.006  0.017  0.062  0.267  0.354
  4  0.001  0.000  0.000  0.001  0.000  0.006  0.017  0.062  0.267  0.354
tot  0.002  0.001  0.002  0.002  0.004  0.015  0.254  0.146  0.538  0.966

band  17 # energy    2.64841867 # occ.  2.00000000

ion      s     py     pz     px    dxy    dyz    dz2    dxz    dx2    tot
  1  0.000  0.000  0.001  0.001  0.000  0.003  0.002  0.001  0.028  0.035
  2  0.000  0.000  0.001  0.001  0.000  0.003  0.002  0.001  0.028  0.035
  3  0.000  0.000  0.001  0.000  0.000  0.018  0.000  0.003  0.428  0.450
  4  0.000  0.000  0.001  0.000  0.000  0.018  0.000  0.003  0.428  0.450
tot  0.001  0.000  0.003  0.002  0.000  0.042  0.004  0.009  0.911  0.972

band  18 # energy    2.65422835 # occ.  2.00000000

ion      s     py     pz     px    dxy    dyz    dz2    dxz    dx2    tot
  1  0.000  0.000  0.000  0.000  0.020  0.000  0.000  0.014  0.023  0.058
  2  0.000  0.000  0.000  0.000  0.020  0.000  0.000  0.014  0.023  0.058
  3  0.000  0.001  0.000  0.000  0.130  0.000  0.238  0.058  0.000  0.428
  4  0.000  0.001  0.000  0.000  0.130  0.000  0.238  0.058  0.000  0.428
tot  0.001  0.002  0.001  0.001  0.301  0.001  0.477  0.144  0.045  0.972

band  19 # energy    2.90874307 # occ.  2.00000000

ion      s     py     pz     px    dxy    dyz    dz2    dxz    dx2    tot
  1  0.000  0.000  0.000  0.000  0.028  0.001  0.034  0.020  0.015  0.099
  2  0.000  0.000  0.000  0.000  0.028  0.001  0.034  0.020  0.015  0.099
  3  0.000  0.000  0.000  0.000  0.100  0.006  0.181  0.075  0.032  0.393
  4  0.000  0.000  0.000  0.000  0.100  0.006  0.181  0.075  0.032  0.393
tot  0.001  0.001  0.000  0.001  0.257  0.014  0.429  0.190  0.092  0.984

band  20 # energy    3.02748539 # occ.  2.00000000

ion      s     py     pz     px    dxy    dyz    dz2    dxz    dx2    tot
  1  0.000  0.000  0.000  0.000  0.000  0.099  0.000  0.009  0.003  0.111
  2  0.000  0.000  0.000  0.000  0.000  0.099  0.000  0.009  0.003  0.111
  3  0.000  0.000  0.000  0.000  0.001  0.340  0.000  0.028  0.013  0.382
  4  0.000  0.000  0.000  0.000  0.001  0.340  0.000  0.028  0.013  0.382
tot  0.000  0.001  0.000  0.000  0.002  0.878  0.000  0.074  0.032  0.987

band  21 # energy    3.05812034 # occ.  2.00000000

ion      s     py     pz     px    dxy    dyz    dz2    dxz    dx2    tot
  1  0.000  0.000  0.000  0.000  0.010  0.099  0.002  0.000  0.001  0.112
  2  0.000  0.000  0.000  0.000  0.010  0.099  0.002  0.000  0.001  0.112
  3  0.000  0.000  0.000  0.000  0.026  0.348  0.005  0.001  0.002  0.382
  4  0.000  0.000  0.000  0.000  0.026  0.348  0.005  0.001  0.002  0.382
tot  0.000  0.001  0.000  0.000  0.072  0.894  0.013  0.002  0.005  0.988

band  22 # energy    3.57841387 # occ.  2.00000000

ion      s     py     pz     px    dxy    dyz    dz2    dxz    dx2    tot
  1  0.037  0.002  0.001  0.043  0.032  0.000  0.009  0.030  0.020  0.174
  2  0.037  0.002  0.001  0.043  0.032  0.000  0.009  0.030  0.020  0.174
  3  0.022  0.000  0.001  0.030  0.043  0.001  0.004  0.086  0.045  0.232
  4  0.022  0.000  0.001  0.030  0.043  0.001  0.004  0.086  0.045  0.232
tot  0.120  0.004  0.003  0.144  0.150  0.001  0.027  0.233  0.130  0.813

band  23 # energy    6.87327401 # occ.  0.00000000

ion      s     py     pz     px    dxy    dyz    dz2    dxz    dx2    tot
  1  0.023  0.085  0.000  0.002  0.060  0.006  0.007  0.000  0.008  0.191
  2  0.023  0.085  0.000  0.002  0.060  0.006  0.007  0.000  0.008  0.191
  3  0.021  0.084  0.000  0.000  0.027  0.006  0.001  0.000  0.006  0.146
  4  0.021  0.084  0.000  0.000  0.027  0.006  0.001  0.000  0.006  0.146
tot  0.088  0.338  0.001  0.004  0.173  0.024  0.017  0.000  0.029  0.673

band  24 # energy    7.52911281 # occ.  0.00000000

ion      s     py     pz     px    dxy    dyz    dz2    dxz    dx2    tot
  1  0.020  0.000  0.106  0.001  0.000  0.004  0.014  0.041  0.000  0.185
  2  0.020  0.000  0.106  0.001  0.000  0.004  0.014  0.041  0.000  0.185
  3  0.023  0.000  0.082  0.001  0.000  0.005  0.006  0.031  0.000  0.148
  4  0.023  0.000  0.082  0.001  0.000  0.005  0.006  0.031  0.000  0.148
tot  0.087  0.001  0.376  0.003  0.000  0.018  0.040  0.144  0.000  0.668

band  25 # energy   11.09322165 # occ.  0.00000000

ion      s     py     pz     px    dxy    dyz    dz2    dxz    dx2    tot
  1  0.130  0.018  0.001  0.001  0.002  0.000  0.008  0.005  0.024  0.189
  2  0.130  0.018  0.001  0.001  0.002  0.000  0.008  0.005  0.024  0.189
  3  0.108  0.026  0.002  0.004  0.001  0.000  0.001  0.001  0.029  0.172
  4  0.108  0.026  0.002  0.004  0.001  0.000  0.001  0.001  0.029  0.172
tot  0.477  0.088  0.008  0.009  0.005  0.000  0.018  0.011  0.106  0.721

band  26 # energy   11.41959274 # occ.  0.00000000

ion      s     py     pz     px    dxy    dyz    dz2    dxz    dx2    tot
  1  0.087  0.023  0.010  0.018  0.012  0.000  0.003  0.000  0.003  0.155
  2  0.087  0.023  0.010  0.018  0.012  0.000  0.003  0.000  0.003  0.155
  3  0.102  0.029  0.011  0.019  0.013  0.000  0.001  0.000  0.002  0.176
  4  0.102  0.029  0.011  0.019  0.013  0.000  0.001  0.000  0.002  0.176
tot  0.379  0.102  0.041  0.073  0.050  0.001  0.008  0.000  0.010  0.664


 k-point    3 :    0.41666667 0.08333333 0.08333333     weight = 0.07407407

band   1 # energy   -2.87027391 # occ.  2.00000000

ion      s     py     pz     px    dxy    dyz    dz2    dxz    dx2    tot
  1  0.148  0.000  0.001  0.023  0.007  0.000  0.001  0.002  0.012  0.194
  2  0.148  0.000  0.001  0.023  0.007  0.000  0.001  0.002  0.012  0.194
  3  0.086  0.001  0.001  0.014  0.000  0.000  0.002  0.001  0.003  0.106
  4  0.086  0.001  0.001  0.014  0.000  0.000  0.002  0.001  0.003  0.106
tot  0.468  0.002  0.003  0.073  0.014  0.001  0.005  0.005  0.029  0.600

band   2 # energy   -1.78510584 # occ.  2.00000000

ion      s     py     pz     px    dxy    dyz    dz2    dxz    dx2    tot
  1  0.075  0.000  0.001  0.026  0.005  0.001  0.012  0.007  0.115  0.242
  2  0.075  0.000  0.001  0.026  0.005  0.001  0.012  0.007  0.115  0.242
  3  0.060  0.001  0.000  0.013  0.000  0.000  0.010  0.000  0.012  0.096
  4  0.060  0.001  0.000  0.013  0.000  0.000  0.010  0.000  0.012  0.096
tot  0.270  0.002  0.002  0.077  0.010  0.003  0.045  0.014  0.254  0.678

band   3 # energy   -0.91765886 # occ.  2.00000000

ion      s     py     pz     px    dxy    dyz    dz2    dxz    dx2    tot
  1  0.001  0.005  0.001  0.002  0.170  0.001  0.201  0.003  0.005  0.387
  2  0.001  0.005  0.001  0.002  0.170  0.001  0.201  0.003  0.005  0.387
  3  0.004  0.001  0.000  0.003  0.010  0.000  0.021  0.000  0.004  0.043
  4  0.004  0.001  0.000  0.003  0.010  0.000  0.021  0.000  0.004  0.043
tot  0.009  0.011  0.002  0.010  0.359  0.002  0.444  0.006  0.017  0.860

band   4 # energy   -0.72108320 # occ.  2.00000000

ion      s     py     pz     px    dxy    dyz    dz2    dxz    dx2    tot
  1  0.012  0.000  0.001  0.003  0.000  0.004  0.190  0.006  0.120  0.336
  2  0.012  0.000  0.001  0.003  0.000  0.004  0.190  0.006  0.120  0.336
  3  0.000  0.000  0.001  0.012  0.000  0.001  0.032  0.000  0.028  0.074
  4  0.000  0.000  0.001  0.012  0.000  0.001  0.032  0.000  0.028  0.074
tot  0.024  0.001  0.003  0.030  0.000  0.009  0.444  0.013  0.295  0.820

band   5 # energy   -0.61805695 # occ.  2.00000000

ion      s     py     pz     px    dxy    dyz    dz2    dxz    dx2    tot
  1  0.004  0.000  0.001  0.000  0.001  0.203  0.008  0.148  0.000  0.365
  2  0.004  0.000  0.001  0.000  0.001  0.203  0.008  0.148  0.000  0.365
  3  0.000  0.001  0.007  0.000  0.002  0.044  0.000  0.015  0.004  0.075
  4  0.000  0.001  0.007  0.000  0.002  0.044  0.000  0.015  0.004  0.075
tot  0.008  0.003  0.016  0.001  0.005  0.495  0.017  0.326  0.009  0.880

band   6 # energy   -0.61515421 # occ.  2.00000000

ion      s     py     pz     px    dxy    dyz    dz2    dxz    dx2    tot
  1  0.000  0.011  0.000  0.007  0.208  0.000  0.120  0.000  0.026  0.374
  2  0.000  0.011  0.000  0.007  0.208  0.000  0.120  0.000  0.026  0.374
  3  0.001  0.003  0.000  0.003  0.017  0.000  0.027  0.000  0.002  0.054
  4  0.001  0.003  0.000  0.003  0.017  0.000  0.027  0.000  0.002  0.054
tot  0.002  0.029  0.000  0.020  0.449  0.002  0.295  0.001  0.057  0.854

band   7 # energy   -0.23232708 # occ.  2.00000000

ion      s     py     pz     px    dxy    dyz    dz2    dxz    dx2    tot
  1  0.001  0.000  0.004  0.000  0.005  0.138  0.000  0.203  0.000  0.352
  2  0.001  0.000  0.004  0.000  0.005  0.138  0.000  0.203  0.000  0.352
  3  0.000  0.000  0.004  0.000  0.000  0.054  0.000  0.033  0.002  0.095
  4  0.000  0.000  0.004  0.000  0.000  0.054  0.000  0.033  0.002  0.095
tot  0.003  0.001  0.017  0.000  0.010  0.384  0.000  0.473  0.004  0.893

band   8 # energy   -0.18326336 # occ.  2.00000000

ion      s     py     pz     px    dxy    dyz    dz2    dxz    dx2    tot
  1  0.001  0.000  0.001  0.000  0.003  0.239  0.001  0.136  0.000  0.382
  2  0.001  0.000  0.001  0.000  0.003  0.239  0.001  0.136  0.000  0.382
  3  0.000  0.000  0.008  0.000  0.001  0.054  0.000  0.001  0.001  0.066