<?xml version="1.0" encoding="ISO-8859-1"?>
<modeling>
 <generator>
  <i name="program"" type=""stringvasp</i>
  <i name="version"" type=""string4.6.26 </i>
  <i name="subversion"" type=""string15Dec04 complex  serial</i>
  <i name="platform"" type=""stringLinuxPgi</i>
  <i name="date"" type=""string2009 11 30</i>
  <i name="time"" type=""string23:37:00</i>
 </generator>
 <incar>
  <i type=""string"" nameSYSTEM"" Au, FCC</i>
  <i type=""int"" nameISTART""     0</i>
  <i type=""string"" namePREC""normal ! set fft mesh, cutoffs</i>
  <i type=""string"" nameALGO"" Fast   ! use fast algorithm for electro</i>
  <i type=""int"" nameISPIN""     1</i>
  <i name="EDIFF""      0.00010000</i>
  <i name="EDIFFG""      0.00100000</i>
  <i type=""int"" nameIBRION""     1</i>
  <i type=""int"" nameNFREE""     5</i>
  <i type=""int"" nameNSW""    10</i>
  <i type=""int"" nameISIF""     3</i>
  <i name="ENCUT""    350.00000000</i>
  <i name="POTIM""      0.35000000</i>
  <i type=""int"" nameISMEAR""     0</i>
  <i name="SIGMA""      0.10000000</i>
  <i type=""int"" nameNWRITE""     1</i>
  <i type=""logical"" nameLWAVE"" F  </i>
  <i type=""logical"" nameLCHARG"" T  </i>
  <i type=""logical"" nameLVTOT"" F  </i>
  <i type=""logical"" nameLORBIT"" F  </i>
 </incar>
 <kpoints>
  <generation param="Monkhorst-Pack">
   <v type=""int"" namedivisions""       6       6       6</v>
   <v name="usershift""      0.00000000      0.00000000      0.00000000</v>
   <v name="genvec1""      0.16666667      0.00000000      0.00000000</v>
   <v name="genvec2""      0.00000000      0.16666667      0.00000000</v>
   <v name="genvec3""      0.00000000      0.00000000      0.16666667</v>
   <v name="shift""      0.50000000      0.50000000      0.50000000</v>
  </generation>
  <varray name="kpointlist"">
   <v>       0.08333333      0.08333333      0.08333333</v>
   <v>       0.25000000      0.08333333      0.08333333</v>
   <v>       0.41666667      0.08333333      0.08333333</v>
   <v>       0.25000000      0.25000000      0.08333333</v>
   <v>       0.41666667      0.25000000      0.08333333</v>
   <v>       0.41666667      0.41666667      0.08333333</v>
   <v>       0.08333333      0.08333333      0.25000000</v>
   <v>       0.25000000      0.08333333      0.25000000</v>
   <v>       0.41666667      0.08333333      0.25000000</v>
   <v>       0.25000000      0.25000000      0.25000000</v>
   <v>       0.41666667      0.25000000      0.25000000</v>
   <v>       0.41666667      0.41666667      0.25000000</v>
   <v>       0.08333333      0.08333333      0.41666667</v>
   <v>       0.25000000      0.08333333      0.41666667</v>
   <v>       0.41666667      0.08333333      0.41666667</v>
   <v>       0.25000000      0.25000000      0.41666667</v>
   <v>       0.41666667      0.25000000      0.41666667</v>
   <v>       0.41666667      0.41666667      0.41666667</v>
  </varray>
  <varray name="weights"">
   <v>       0.03703704</v>
   <v>       0.07407407</v>
   <v>       0.07407407</v>
   <v>       0.03703704</v>
   <v>       0.07407407</v>
   <v>       0.03703704</v>
   <v>       0.03703704</v>
   <v>       0.07407407</v>
   <v>       0.07407407</v>
   <v>       0.03703704</v>
   <v>       0.07407407</v>
   <v>       0.03703704</v>
   <v>       0.03703704</v>
   <v>       0.07407407</v>
   <v>       0.07407407</v>
   <v>       0.03703704</v>
   <v>       0.07407407</v>
   <v>       0.03703704</v>
  </varray>
 </kpoints>
 <parameters>
  <separator name="general"">
   <i type=""string"" nameSYSTEM""Au, FCC</i>
   <i type=""logical"" nameLCOMPAT"" F  </i>
  </separator>
  <separator name="electronic"">
   <i type=""string"" namePREC""normal</i>
   <i name="ENMAX""    350.00000000</i>
   <i name="ENAUG""    516.45600000</i>
   <i name="EDIFF""      0.00010000</i>
   <i type=""int"" nameIALGO""    68</i>
   <i type=""int"" nameIWAVPR""    11</i>
   <i type=""int"" nameNBANDS""    26</i>
   <i name="NELECT""     44.00000000</i>
   <separator name="electronic smearing"">
    <i type=""int"" nameISMEAR""     0</i>
    <i name="SIGMA""      0.10000000</i>
   </separator>
   <separator name="electronic projectors"">
    <i type=""logical"" nameLREAL"" F  </i>
    <v name="ROPT""      0.00000000      0.00000000</v>
    <i type=""int"" nameLMAXPAW""  -100</i>
    <i type=""int"" nameLMAXMIX""     2</i>
   </separator>
   <separator name="electronic startup"">
    <i type=""int"" nameISTART""     0</i>
    <i type=""int"" nameICHARG""     2</i>
    <i type=""int"" nameINIWAV""     1</i>
   </separator>
   <separator name="electronic spin"">
    <i type=""int"" nameISPIN""     1</i>
    <i type=""logical"" nameLNONCOLLINEAR"" F  </i>
    <v name="MAGMOM""      1.00000000      1.00000000      1.00000000      1.00000000</v>
    <i name="NUPDOWN""     -1.00000000</i>
    <i type=""logical"" nameLSORBIT"" F  </i>
    <v name="SAXIS""      0.00000000      0.00000000      1.00000000</v>
    <i type=""logical"" nameLSPIRAL"" F  </i>
    <v name="QSPIRAL""      0.00000000      0.00000000      0.00000000</v>
    <i type=""logical"" nameLZEROZ"" F  </i>
   </separator>
   <separator name="electronic exchange-correlation"">
    <i type=""string"" nameGGA""--</i>
    <i type=""int"" nameVOSKOWN""     0</i>
    <i type=""logical"" nameLASPH"" F  </i>
    <i type=""logical"" nameLMETAGGA"" F  </i>
    <i type=""string"" nameGGA2""--</i>
   </separator>
   <separator name="electronic convergence"">
    <i type=""int"" nameNELM""    60</i>
    <i type=""int"" nameNELMDL""    -5</i>
    <i type=""int"" nameNELMIN""     2</i>
    <i name="ENINI""    350.00000000</i>
    <separator name="electronic convergence detail"">
     <i type=""logical"" nameLDIAG"" T  </i>
     <i name="WEIMIN""      0.00100000</i>
     <i name="EBREAK""      0.00000096</i>
     <i name="DEPER""      0.30000000</i>
     <i type=""int"" nameNRMM""     4</i>
     <i name="TIME""      0.10000000</i>
    </separator>
   </separator>
   <separator name="electronic mixer"">
    <i name="AMIX""      0.40000000</i>
    <i name="BMIX""      1.00000000</i>
    <i name="AMIN""      0.10000000</i>
    <i name="AMIX_MAG""      1.60000000</i>
    <i name="BMIX_MAG""      1.00000000</i>
    <separator name="electronic mixer details"">
     <i type=""int"" nameIMIX""     4</i>
     <i type=""int"" nameMAXMIX""   -45</i>
     <i name="WC""    100.00000000</i>
     <i type=""int"" nameINIMIX""     1</i>
     <i type=""int"" nameMIXPRE""     1</i>
     <i type=""int"" nameMREMOVE""     5</i>
    </separator>
   </separator>
   <separator name="electronic dipolcorrection"">
    <i type=""int"" nameIDIPOL""     0</i>
    <i type=""logical"" nameLDIPOL"" F  </i>
    <v name="DIPOL""   -100.00000000</v>
    <i name="EFIELD""      0.00000000</i>
   </separator>
  </separator>
  <separator name="grids"">
   <i type=""int"" nameNGX""    18</i>
   <i type=""int"" nameNGY""    18</i>
   <i type=""int"" nameNGZ""    18</i>
   <i type=""int"" nameNGXF""    36</i>
   <i type=""int"" nameNGYF""    36</i>
   <i type=""int"" nameNGZF""    36</i>
   <i type=""logical"" nameADDGRID"" F  </i>
  </separator>
  <separator name="ionic"">
   <i type=""int"" nameNSW""    10</i>
   <i type=""int"" nameIBRION""     1</i>
   <i type=""int"" nameISIF""     3</i>
   <i name="PSTRESS""      0.00000000</i>
   <i name="EDIFFG""      0.00100000</i>
   <i type=""int"" nameNFREE""     5</i>
   <i name="POTIM""      0.35000000</i>
   <i name="SMASS""     -3.00000000</i>
  </separator>
  <separator name="ionic md"">
   <i name="TEBEG""      0.00010000</i>
   <i name="TEEND""      0.00010000</i>
   <i type=""int"" nameNBLOCK""     1</i>
   <i type=""int"" nameKBLOCK""    10</i>
   <i type=""int"" nameNPACO""   256</i>
   <i name="APACO""     16.00000000</i>
  </separator>
  <separator name="symmetry"">
   <i type=""int"" nameISYM""     2</i>
   <i name="SYMPREC""      0.00001000</i>
  </separator>
  <separator name="dos"">
   <i type=""logical"" nameLORBIT"" F  </i>
   <v name="RWIGS""     -1.00000000     -1.00000000</v>
   <i type=""int"" nameNEDOS""   301</i>
   <i name="EMIN""     10.00000000</i>
   <i name="EMAX""    -10.00000000</i>
  </separator>
  <separator name="writing"">
   <i type=""int"" nameNWRITE""     1</i>
   <i type=""logical"" nameLWAVE"" F  </i>
   <i type=""logical"" nameLCHARG"" T  </i>
   <i type=""logical"" nameLPARD"" F  </i>
   <i type=""logical"" nameLVTOT"" F  </i>
   <i type=""logical"" nameLELF"" F  </i>
   <i type=""logical"" nameLOPTICS"" F  </i>
   <i name="STM""      0.00000000</i>
  </separator>
  <separator name="performance"">
   <i type=""int"" nameNPAR""     1</i>
   <i type=""int"" nameNSIM""     4</i>
   <i type=""int"" nameNBLK""    96</i>
   <i type=""logical"" nameLPLANE"" T  </i>
   <i type=""logical"" nameLCRITICAL_MEM"" F  </i>
   <i type=""logical"" nameLSCALAPACK"" F  </i>
   <i type=""logical"" nameLSCALU"" F  </i>
   <i type=""logical"" nameLASYNC"" F  </i>
  </separator>
  <separator name="miscellaneous"">
   <i type=""int"" nameIDIOT""     3</i>
   <i type=""logical"" nameLMUSIC"" F  </i>
   <v name="POMASS""    196.96600000     63.54600000</v>
   <i type=""logical"" nameLCORR"" T  </i>
  </separator>
  <i type=""logical"" nameLREAL_COMPAT"" F  </i>
  <i type=""logical"" nameGGA_COMPAT"" T  </i>
  <i type=""logical"" nameLBERRY"" F  </i>
  <i type=""int"" nameICORELEVEL""     0</i>
  <i type=""logical"" nameLDAU"" F  </i>
  <i type=""int"" nameI_CONSTRAINED_M""     0</i>
 </parameters>
 <atominfo>
  <atoms>       4</atoms>
  <types>       2</types>
  <array name="atoms"">
   <dimension dim="1">ion</dimension>
   <field type="string">element</field>
   <field type="int">atomtype</field>
   <set>
    <rc><c>Au</c><c>   1</c></rc>
    <rc><c>Au</c><c>   1</c></rc>
    <rc><c>Cu</c><c>   2</c></rc>
    <rc><c>Cu</c><c>   2</c></rc>
   </set>
  </array>
  <array name="atomtypes"">
   <dimension dim="1">type</dimension>
   <field type="int">atomspertype</field>
   <field type="string">element</field>
   <field>mass</field>
   <field>valence</field>
   <field type="string">pseudopotential</field>
   <set>
    <rc><c>   2</c><c>Au</c><c>    196.96600000</c><c>     11.00000000</c><c> PAW_GGA Au 18Jul2000                   </c></rc>
    <rc><c>   2</c><c>Cu</c><c>     63.54600000</c><c>     11.00000000</c><c> PAW_GGA Cu 05Jan2001                   </c></rc>
   </set>
  </array>
 </atominfo>
 <structure name="initialpos"">
  <crystal>
   <varray name="basis"">
    <v>       3.97999062      0.00000000      0.00000000</v>
    <v>       0.00000000      3.97999062      0.00000000</v>
    <v>       0.00000000      0.00000000      3.80656481</v>
   </varray>
   <i name="volume""     60.29722498</i>
   <varray name="rec_basis"">
    <v>       0.25125687      0.00000000      0.00000000</v>
    <v>       0.00000000      0.25125687      0.00000000</v>
    <v>       0.00000000      0.00000000      0.26270405</v>
   </varray>
  </crystal>
  <varray name="positions"">
   <v>       0.00000000      0.00000000      0.00000000</v>
   <v>       0.50000000      0.50000000      0.00000000</v>
   <v>       0.50000000      0.00000000      0.50000000</v>
   <v>       0.00000000      0.50000000      0.50000000</v>
  </varray>
 </structure>
 <calculation>
  <scstep>
   <time name="dav""    3.21    2.85</time>
   <time name="total""    3.33    2.98</time>
   <energy>
    <i name="alphaZ""    416.72597188</i>
    <i name="ewald""  -4074.32233101</i>
    <i name="hartreedc""   -965.47583778</i>
    <i name="XCdc""    117.37167641</i>
    <i name="pawpsdc""   3661.18944825</i>
    <i name="pawaedc""  -3904.11182591</i>
    <i name="eentropy""     -0.01032681</i>
    <i name="bandstr""    419.69704000</i>
    <i name="atom""   4640.24489596</i>
    <i name="e_fr_energy""    311.30871101</i>
    <i name="e_wo_entrp""    311.31903781</i>
    <i name="e_0_energy""    311.31387441</i>
   </energy>
  </scstep>
  <scstep>
   <time name="dav""    3.29    2.85</time>
   <time name="total""    3.30    2.86</time>
   <energy>
    <i name="e_fr_energy""      7.02042851</i>
    <i name="e_wo_entrp""      7.03070743</i>
    <i name="e_0_energy""      7.02556797</i>
   </energy>
  </scstep>
  <scstep>
   <time name="dav""    3.37    2.93</time>
   <time name="total""    3.38    2.94</time>
   <energy>
    <i name="e_fr_energy""    -15.37295433</i>
    <i name="e_wo_entrp""    -15.35673962</i>
    <i name="e_0_energy""    -15.36484697</i>
   </energy>
  </scstep>
  <scstep>
   <time name="dav""    3.20    2.80</time>
   <time name="total""    3.21    2.81</time>
   <energy>
    <i name="e_fr_energy""    -15.86547131</i>
    <i name="e_wo_entrp""    -15.85083336</i>
    <i name="e_0_energy""    -15.85815233</i>
   </energy>
  </scstep>
  <scstep>
   <time name="dav""    3.27    2.84</time>
   <time name="total""    3.46    3.04</time>
   <energy>
    <i name="e_fr_energy""    -15.87218902</i>
    <i name="e_wo_entrp""    -15.85755798</i>
    <i name="e_0_energy""    -15.86487350</i>
   </energy>
  </scstep>
  <scstep>
   <time name="diag""    0.52    0.49</time>
   <time name="diis""    2.35    2.28</time>
   <time name="orth""    0.06    0.06</time>
   <time name="total""    3.23    3.15</time>
   <energy>
    <i name="e_fr_energy""    -14.81803729</i>
    <i name="e_wo_entrp""    -14.80914059</i>
    <i name="e_0_energy""    -14.81358894</i>
   </energy>
  </scstep>
  <scstep>
   <time name="diag""    0.53    0.50</time>
   <time name="diis""    2.41    2.39</time>
   <time name="orth""    0.06    0.06</time>
   <time name="total""    3.32    3.27</time>
   <energy>
    <i name="e_fr_energy""    -14.15144708</i>
    <i name="e_wo_entrp""    -14.13664913</i>
    <i name="e_0_energy""    -14.14404811</i>
   </energy>
  </scstep>
  <scstep>
   <time name="diag""    0.51    0.51</time>
   <time name="diis""    2.42    2.42</time>
   <time name="orth""    0.06    0.06</time>
   <time name="total""    3.30    3.30</time>
   <energy>
    <i name="e_fr_energy""    -14.03855129</i>
    <i name="e_wo_entrp""    -14.02363227</i>
    <i name="e_0_energy""    -14.03109178</i>
   </energy>
  </scstep>
  <scstep>
   <time name="diag""    0.54    0.50</time>
   <time name="diis""    2.36    2.31</time>
   <time name="orth""    0.06    0.05</time>
   <time name="total""    3.28    3.18</time>
   <energy>
    <i name="e_fr_energy""    -14.02687084</i>
    <i name="e_wo_entrp""    -14.01052587</i>
    <i name="e_0_energy""    -14.01869835</i>
   </energy>
  </scstep>
  <scstep>
   <time name="diag""    0.54    0.51</time>
   <time name="diis""    2.41    2.38</time>
   <time name="orth""    0.07    0.05</time>
   <time name="total""    3.33    3.25</time>
   <energy>
    <i name="e_fr_energy""    -14.02418193</i>
    <i name="e_wo_entrp""    -14.00877888</i>
    <i name="e_0_energy""    -14.01648041</i>
   </energy>
  </scstep>
  <scstep>
   <time name="diag""    0.51    0.51</time>
   <time name="diis""    1.45    1.45</time>
   <time name="orth""    0.07    0.05</time>
   <time name="total""    2.15    2.12</time>
   <energy>
    <i name="alphaZ""    416.72597188</i>
    <i name="ewald""  -4074.32233101</i>
    <i name="hartreedc""   -904.94441019</i>
    <i name="XCdc""    114.48259212</i>
    <i name="pawpsdc""   3685.17639839</i>
    <i name="pawaedc""  -3936.33527975</i>
    <i name="eentropy""     -0.01558176</i>
    <i name="bandstr""     44.96356684</i>
    <i name="atom""   4640.24489596</i>
    <i name="e_fr_energy""    -14.02417753</i>
    <i name="e_wo_entrp""    -14.00859577</i>
    <i name="e_0_energy""    -14.01638665</i>
   </energy>
  </scstep>
  <structure>
   <crystal>
    <varray name="basis"">
     <v>       3.97999062      0.00000000      0.00000000</v>
     <v>       0.00000000      3.97999062      0.00000000</v>
     <v>       0.00000000      0.00000000      3.80656481</v>
    </varray>
    <i name="volume""     60.29722498</i>
    <varray name="rec_basis"">
     <v>       0.25125687      0.00000000      0.00000000</v>
     <v>       0.00000000      0.25125687      0.00000000</v>
     <v>       0.00000000      0.00000000      0.26270405</v>
    </varray>
   </crystal>
   <varray name="positions"">
    <v>       0.00000000      0.00000000      0.00000000</v>
    <v>       0.50000000      0.50000000      0.00000000</v>
    <v>       0.50000000      0.00000000      0.50000000</v>
    <v>       0.00000000      0.50000000      0.50000000</v>
   </varray>
  </structure>
  <varray name="forces"">
   <v>       0.00000000      0.00000000      0.00000000</v>
   <v>       0.00000000      0.00000000      0.00000000</v>
   <v>       0.00000000      0.00000000      0.00000000</v>
   <v>       0.00000000      0.00000000      0.00000000</v>
  </varray>
  <varray name="stress"">
   <v>       4.32393583      0.00000000      0.00000000</v>
   <v>       0.00000000      4.32393583      0.00000000</v>
   <v>       0.00000000      0.00000000      0.89182906</v>
  </varray>
  <energy>
   <i name="e_fr_energy""    -14.02417753</i>
   <i name="e_wo_entrp""    -14.01638665</i>
   <i name="e_0_energy""     -0.01558176</i>
  </energy>
 </calculation>
 <calculation>
  <scstep>
   <time name="dav""    3.13    2.79</time>
   <time name="total""    3.43    3.09</time>
   <energy>
    <i name="alphaZ""    415.46557396</i>
    <i name="ewald""  -4070.20671472</i>
    <i name="hartreedc""   -904.13426310</i>
    <i name="XCdc""    114.31302547</i>
    <i name="pawpsdc""   3685.96914930</i>
    <i name="pawaedc""  -3937.08978978</i>
    <i name="eentropy""     -0.01607765</i>
    <i name="bandstr""     41.42359515</i>
    <i name="atom""   4640.24489596</i>
    <i name="e_fr_energy""    -14.03060540</i>
    <i name="e_wo_entrp""    -14.01452775</i>
    <i name="e_0_energy""    -14.02256658</i>
   </energy>
  </scstep>
  <scstep>
   <time name="diag""    0.53    0.50</time>
   <time name="diis""    2.33    2.25</time>
   <time name="orth""    0.07    0.05</time>
   <time name="total""    3.24    3.11</time>
   <energy>
    <i name="e_fr_energy""    -14.02653515</i>
    <i name="e_wo_entrp""    -14.00963167</i>
    <i name="e_0_energy""    -14.01808341</i>
   </energy>
  </scstep>
  <scstep>
   <time name="diag""    0.52    0.51</time>
   <time name="diis""    2.36    2.35</time>
   <time name="orth""    0.07    0.05</time>
   <time name="total""    3.27    3.26</time>
   <energy>
    <i name="e_fr_energy""    -14.02489936</i>
    <i name="e_wo_entrp""    -14.00944502</i>
    <i name="e_0_energy""    -14.01717219</i>
   </energy>
  </scstep>
  <scstep>
   <time name="diag""    0.52    0.51</time>
   <time name="diis""    1.94    1.94</time>
   <time name="orth""    0.06    0.06</time>
   <time name="total""    2.84    2.83</time>
   <energy>
    <i name="e_fr_energy""    -14.02422989</i>
    <i name="e_wo_entrp""    -14.00824558</i>
    <i name="e_0_energy""    -14.01623773</i>
   </energy>
  </scstep>
  <scstep>
   <time name="diag""    0.55    0.52</time>
   <time name="diis""    1.45    1.41</time>
   <time name="orth""    0.07    0.05</time>
   <time name="total""    2.19    2.11</time>
   <energy>
    <i name="alphaZ""    415.46557396</i>
    <i name="ewald""  -4070.20671472</i>
    <i name="hartreedc""   -906.97253144</i>
    <i name="XCdc""    114.45283852</i>
    <i name="pawpsdc""   3684.53092355</i>
    <i name="pawaedc""  -3935.59693159</i>
    <i name="eentropy""     -0.01620132</i>
    <i name="bandstr""     44.07401687</i>
    <i name="atom""   4640.24489596</i>
    <i name="e_fr_energy""    -14.02413021</i>
    <i name="e_wo_entrp""    -14.00792889</i>
    <i name="e_0_energy""    -14.01602955</i>
   </energy>
  </scstep>
  <structure>
   <crystal>
    <varray name="basis"">
     <v>       3.98545848      0.00000000      0.00000000</v>
     <v>       0.00000000      3.98545848      0.00000000</v>
     <v>       0.00000000      0.00000000      3.80764344</v>
    </varray>
    <i name="volume""     60.48014867</i>
    <varray name="rec_basis"">
     <v>       0.25091216      0.00000000      0.00000000</v>
     <v>       0.00000000      0.25091216      0.00000000</v>
     <v>       0.00000000      0.00000000      0.26262963</v>
    </varray>
   </crystal>
   <varray name="positions"">
    <v>       0.00000000      0.00000000      0.00000000</v>
    <v>       0.50000000      0.50000000      0.00000000</v>
    <v>       0.50000000      0.00000000      0.50000000</v>
    <v>       0.00000000      0.50000000      0.50000000</v>
   </varray>
  </structure>
  <varray name="forces"">
   <v>       0.00000000      0.00000000      0.00000000</v>
   <v>       0.00000000      0.00000000      0.00000000</v>
   <v>       0.00000000      0.00000000      0.00000000</v>
   <v>       0.00000000      0.00000000      0.00000000</v>
  </varray>
  <varray name="stress"">
   <v>      -1.53951970      0.00000000      0.00000000</v>
   <v>       0.00000000     -1.53951970      0.00000000</v>
   <v>       0.00000000      0.00000000     -4.83990481</v>
  </varray>
  <energy>
   <i name="e_fr_energy""    -14.02413021</i>
   <i name="e_wo_entrp""    -14.01602955</i>
   <i name="e_0_energy""     -0.01620132</i>
  </energy>
  <eigenvalues>
   <array>
    <dimension dim="1">band</dimension>
    <dimension dim="2">kpoint</dimension>
    <dimension dim="3">spin</dimension>
    <field>eigene</field>
    <field>occ</field>
    <set>
     <set comment="spin 1">
      <set comment="kpoint 1">
       <r>  -4.5964  1.0000</r>
       <r>  -2.1719  1.0000</r>
       <r>  -1.7714  1.0000</r>
       <r>  -1.5474  1.0000</r>
       <r>  -1.0585  1.0000</r>
       <r>  -0.9714  1.0000</r>
       <r>  -0.6740  1.0000</r>
       <r>   0.5614  1.0000</r>
       <r>   0.7042  1.0000</r>
       <r>   1.6391  1.0000</r>
       <r>   1.7918  1.0000</r>
       <r>   2.4026  1.0000</r>
       <r>   2.4116  1.0000</r>
       <r>   2.7524  1.0000</r>
       <r>   2.7833  1.0000</r>
       <r>   2.8041  1.0000</r>
       <r>   2.8068  1.0000</r>
       <r>   2.8591  1.0000</r>
       <r>   3.0369  1.0000</r>
       <r>   3.0393  1.0000</r>
       <r>   3.0458  1.0000</r>
       <r>   5.5494  0.0000</r>
       <r>   5.5679  0.0000</r>
       <r>   6.2625  0.0000</r>
       <r>  10.5563  0.0000</r>
       <r>  11.7096  0.0000</r>
      </set>
      <set comment="kpoint 2">
       <r>  -3.9795  1.0000</r>
       <r>  -1.8275  1.0000</r>
       <r>  -1.4720  1.0000</r>
       <r>  -1.1850  1.0000</r>
       <r>  -0.9386  1.0000</r>
       <r>  -0.7019  1.0000</r>
       <r>  -0.6828  1.0000</r>
       <r>   0.2511  1.0000</r>
       <r>   0.6674  1.0000</r>
       <r>   1.2195  1.0000</r>
       <r>   1.3164  1.0000</r>
       <r>   1.8991  1.0000</r>
       <r>   2.2616  1.0000</r>
       <r>   2.2710  1.0000</r>
       <r>   2.4526  1.0000</r>
       <r>   2.5387  1.0000</r>
       <r>   2.6484  1.0000</r>
       <r>   2.6542  1.0000</r>
       <r>   2.9087  1.0000</r>
       <r>   3.0275  1.0000</r>
       <r>   3.0581  1.0000</r>
       <r>   3.5784  1.0000</r>
       <r>   6.8733  0.0000</r>
       <r>   7.5291  0.0000</r>
       <r>  11.0932  0.0000</r>
       <r>  11.4196  0.0000</r>
      </set>
      <set comment="kpoint 3">
       <r>  -2.8703  1.0000</r>
       <r>  -1.7851  1.0000</r>
       <r>  -0.9177  1.0000</r>
       <r>  -0.7211  1.0000</r>
       <r>  -0.6181  1.0000</r>
       <r>  -0.6152  1.0000</r>
       <r>  -0.2323  1.0000</r>
       <r>  -0.1833  1.0000</r>
       <r>   0.0640  1.0000</r>
       <r>   0.3073  1.0000</r>
       <r>   0.7775  1.0000</r>
       <r>   1.0959  1.0000</r>
       <r>   2.0739  1.0000</r>
       <r>   2.1582  1.0000</r>
       <r>   2.3055  1.0000</r>
       <r>   2.3416  1.0000</r>
       <r>   2.4411  1.0000</r>
       <r>   2.5847  1.0000</r>
       <r>   2.6293  1.0000</r>
       <r>   2.7517  1.0000</r>
       <r>   3.0311  1.0000</r>
       <r>   3.0454  1.0000</r>
       <r>   8.4099  0.0000</r>
       <r>   9.1519  0.0000</r>
       <r>   9.9831  0.0000</r>
       <r>  10.7072  0.0000</r>
      </set>
      <set comment="kpoint 4">
       <r>  -3.4615  1.0000</r>
       <r>  -1.4438  1.0000</r>
       <r>  -1.3771  1.0000</r>
       <r>  -0.9787  1.0000</r>
       <r>  -0.7204  1.0000</r>
       <r>  -0.6936  1.0000</r>
       <r>  -0.2615  1.0000</r>
       <r>  -0.1471  1.0000</r>
       <r>   0.1705  1.0000</r>
       <r>   0.9069  1.0000</r>
       <r>   1.1712  1.0000</r>
       <r>   1.8755  1.0000</r>
       <r>   1.9490  1.0000</r>
       <r>   2.0432  1.0000</r>
       <r>   2.4276  1.0000</r>
       <r>   2.5017  1.0000</r>
       <r>   2.5172  1.0000</r>
       <r>   2.5330  1.0000</r>
       <r>   2.8587  1.0000</r>
       <r>   2.8894  1.0000</r>
       <r>   2.8915  1.0000</r>
       <r>   4.4968  0.3434</r>
       <r>   4.8631  0.0000</r>
       <r>   8.4863  0.0000</r>
       <r>   9.2244  0.0000</r>
       <r>  13.1009  0.0000</r>
      </set>
      <set comment="kpoint 5">
       <r>  -2.5465  1.0000</r>
       <r>  -1.5237  1.0000</r>
       <r>  -1.0341  1.0000</r>
       <r>  -0.9044  1.0000</r>
       <r>  -0.5470  1.0000</r>
       <r>  -0.5455  1.0000</r>
       <r>  -0.4859  1.0000</r>
       <r>  -0.1425  1.0000</r>
       <r>   0.2916  1.0000</r>
       <r>   0.7657  1.0000</r>
       <r>   0.8866  1.0000</r>
       <r>   1.3423  1.0000</r>
       <r>   1.8997  1.0000</r>
       <r>   2.0115  1.0000</r>
       <r>   2.1628  1.0000</r>
       <r>   2.2337  1.0000</r>
       <r>   2.4068  1.0000</r>
       <r>   2.5845  1.0000</r>
       <r>   2.7603  1.0000</r>
       <r>   2.8018  1.0000</r>
       <r>   2.8083  1.0000</r>
       <r>   3.2362  1.0000</r>
       <r>   5.9868  0.0000</r>
       <r>   7.4032  0.0000</r>
       <r>   9.9266  0.0000</r>
       <r>  11.5384  0.0000</r>
      </set>
      <set comment="kpoint 6">
       <r>  -2.1051  1.0000</r>
       <r>  -1.6713  1.0000</r>
       <r>  -1.0638  1.0000</r>
       <r>  -1.0134  1.0000</r>
       <r>  -0.6259  1.0000</r>
       <r>  -0.5132  1.0000</r>
       <r>  -0.0628  1.0000</r>
       <r>   0.4221  1.0000</r>
       <r>   0.6369  1.0000</r>
       <r>   0.8744  1.0000</r>
       <r>   1.0784  1.0000</r>
       <r>   1.2403  1.0000</r>
       <r>   1.7036  1.0000</r>
       <r>   1.7820  1.0000</r>
       <r>   1.9297  1.0000</r>
       <r>   1.9675  1.0000</r>
       <r>   2.3496  1.0000</r>
       <r>   2.4320  1.0000</r>
       <r>   2.5735  1.0000</r>
       <r>   2.5964  1.0000</r>
       <r>   3.2248  1.0000</r>
       <r>   3.8700  1.0000</r>
       <r>   4.5239  0.2156</r>
       <r>   5.5290  0.0000</r>
       <r>  11.1357  0.0000</r>
       <r>  12.5262  0.0000</r>
      </set>
      <set comment="kpoint 7">
       <r>  -4.0127  1.0000</r>
       <r>  -1.9905  1.0000</r>
       <r>  -1.6890  1.0000</r>
       <r>  -1.3775  1.0000</r>
       <r>  -1.0397  1.0000</r>
       <r>  -0.9227  1.0000</r>
       <r>  -0.1312  1.0000</r>
       <r>   0.6305  1.0000</r>
       <r>   0.7998  1.0000</r>
       <r>   1.6944  1.0000</r>
       <r>   1.7001  1.0000</r>
       <r>   1.9028  1.0000</r>
       <r>   2.1045  1.0000</r>
       <r>   2.1686  1.0000</r>
       <r>   2.4068  1.0000</r>
       <r>   2.4520  1.0000</r>
       <r>   2.6230  1.0000</r>
       <r>   2.7143  1.0000</r>
       <r>   2.8675  1.0000</r>
       <r>   2.9112  1.0000</r>
       <r>   2.9787  1.0000</r>
       <r>   3.9728  1.0000</r>
       <r>   6.7942  0.0000</r>
       <r>   7.0081  0.0000</r>
       <r>  10.9588  0.0000</r>
       <r>  10.9922  0.0000</r>
      </set>
      <set comment="kpoint 8">
       <r>  -3.4228  1.0000</r>
       <r>  -1.6625  1.0000</r>
       <r>  -1.3960  1.0000</r>
       <r>  -1.0414  1.0000</r>
       <r>  -1.0001  1.0000</r>
       <r>  -0.6671  1.0000</r>
       <r>  -0.1644  1.0000</r>
       <r>   0.2457  1.0000</r>
       <r>   0.6413  1.0000</r>
       <r>   1.0338  1.0000</r>
       <r>   1.2516  1.0000</r>
       <r>   1.7595  1.0000</r>
       <r>   1.8618  1.0000</r>
       <r>   2.0379  1.0000</r>
       <r>   2.2228  1.0000</r>
       <r>   2.4189  1.0000</r>
       <r>   2.5703  1.0000</r>
       <r>   2.5778  1.0000</r>
       <r>   2.7661  1.0000</r>
       <r>   2.8768  1.0000</r>
       <r>   2.9102  1.0000</r>
       <r>   4.6755  0.0017</r>
       <r>   5.0793  0.0000</r>
       <r>   7.9360  0.0000</r>
       <r>   9.8458  0.0000</r>
       <r>  12.0855  0.0000</r>
      </set>
      <set comment="kpoint 9">
       <r>  -2.3990  1.0000</r>
       <r>  -1.5404  1.0000</r>
       <r>  -0.9054  1.0000</r>
       <r>  -0.7223  1.0000</r>
       <r>  -0.4601  1.0000</r>
       <r>  -0.3453  1.0000</r>
       <r>  -0.2582  1.0000</r>
       <r>  -0.1521  1.0000</r>
       <r>   0.0629  1.0000</r>
       <r>   0.2207  1.0000</r>
       <r>   0.6443  1.0000</r>
       <r>   0.9661  1.0000</r>
       <r>   2.0157  1.0000</r>
       <r>   2.1088  1.0000</r>
       <r>   2.1984  1.0000</r>
       <r>   2.3435  1.0000</r>
       <r>   2.4156  1.0000</r>
       <r>   2.5823  1.0000</r>
       <r>   2.7678  1.0000</r>
       <r>   2.8086  1.0000</r>
       <r>   2.8250  1.0000</r>
       <r>   3.3226  1.0000</r>
       <r>   6.4572  0.0000</r>
       <r>   8.0269  0.0000</r>
       <r>   9.3040  0.0000</r>
       <r>  10.8107  0.0000</r>
      </set>
      <set comment="kpoint 10">
       <r>  -3.0009  1.0000</r>
       <r>  -1.4998  1.0000</r>
       <r>  -1.3740  1.0000</r>
       <r>  -0.9719  1.0000</r>
       <r>  -0.4974  1.0000</r>
       <r>  -0.3463  1.0000</r>
       <r>  -0.1518  1.0000</r>
       <r>  -0.1071  1.0000</r>
       <r>   0.1352  1.0000</r>
       <r>   0.7910  1.0000</r>
       <r>   1.1606  1.0000</r>
       <r>   1.7950  1.0000</r>
       <r>   1.8418  1.0000</r>
       <r>   1.9218  1.0000</r>
       <r>   2.0316  1.0000</r>
       <r>   2.3502  1.0000</r>
       <r>   2.4536  1.0000</r>
       <r>   2.4881  1.0000</r>
       <r>   2.9092  1.0000</r>
       <r>   2.9679  1.0000</r>
       <r>   2.9897  1.0000</r>
       <r>   5.4023  0.0000</r>
       <r>   5.4233  0.0000</r>
       <r>   5.7535  0.0000</r>
       <r>  10.1325  0.0000</r>
       <r>  10.3728  0.0000</r>
      </set>
      <set comment="kpoint 11">
       <r>  -2.2801  1.0000</r>
       <r>  -1.5995  1.0000</r>
       <r>  -1.2910  1.0000</r>
       <r>  -1.0606  1.0000</r>
       <r>  -0.3662  1.0000</r>
       <r>  -0.2439  1.0000</r>
       <r>  -0.1234  1.0000</r>
       <r>   0.1595  1.0000</r>
       <r>   0.2665  1.0000</r>
       <r>   0.6338  1.0000</r>
       <r>   0.8508  1.0000</r>
       <r>   1.5218  1.0000</r>
       <r>   1.8432  1.0000</r>
       <r>   1.9545  1.0000</r>
       <r>   2.0378  1.0000</r>
       <r>   2.1277  1.0000</r>
       <r>   2.5982  1.0000</r>
       <r>   2.6828  1.0000</r>
       <r>   2.8316  1.0000</r>
       <r>   2.9024  1.0000</r>
       <r>   2.9083  1.0000</r>
       <r>   3.4621  1.0000</r>
       <r>   6.4765  0.0000</r>
       <r>   6.7546  0.0000</r>
       <r>   8.3493  0.0000</r>
       <r>   8.7069  0.0000</r>
      </set>
      <set comment="kpoint 12">
       <r>  -2.0506  1.0000</r>
       <r>  -1.6499  1.0000</r>
       <r>  -1.6467  1.0000</r>
       <r>  -1.5551  1.0000</r>
       <r>  -0.1634  1.0000</r>
       <r>  -0.1002  1.0000</r>
       <r>   0.1133  1.0000</r>
       <r>   0.4817  1.0000</r>
       <r>   0.7607  1.0000</r>
       <r>   0.9704  1.0000</r>
       <r>   1.2626  1.0000</r>
       <r>   1.6754  1.0000</r>
       <r>   1.8099  1.0000</r>
       <r>   1.9170  1.0000</r>
       <r>   1.9334  1.0000</r>
       <r>   1.9540  1.0000</r>
       <r>   2.6016  1.0000</r>
       <r>   2.7823  1.0000</r>
       <r>   2.8288  1.0000</r>
       <r>   2.8379  1.0000</r>
       <r>   3.0670  1.0000</r>
       <r>   4.0098  1.0000</r>
       <r>   4.5180  0.2410</r>
       <r>   5.6321  0.0000</r>
       <r>   8.3892  0.0000</r>
       <r>   9.4265  0.0000</r>
      </set>
      <set comment="kpoint 13">
       <r>  -3.1713  1.0000</r>
       <r>  -1.7798  1.0000</r>
       <r>  -1.5953  1.0000</r>
       <r>  -1.1890  1.0000</r>
       <r>  -1.0348  1.0000</r>
       <r>  -0.8630  1.0000</r>
       <r>   0.7091  1.0000</r>
       <r>   0.7755  1.0000</r>
       <r>   0.9356  1.0000</r>
       <r>   1.1836  1.0000</r>
       <r>   1.4313  1.0000</r>
       <r>   1.6259  1.0000</r>
       <r>   1.6479  1.0000</r>
       <r>   1.6948  1.0000</r>
       <r>   1.7655  1.0000</r>
       <r>   2.3151  1.0000</r>
       <r>   2.4974  1.0000</r>
       <r>   2.5316  1.0000</r>
       <r>   2.6373  1.0000</r>
       <r>   2.7423  1.0000</r>
       <r>   2.8139  1.0000</r>
       <r>   2.9694  1.0000</r>
       <r>   8.2821  0.0000</r>
       <r>   8.7461  0.0000</r>
       <r>  10.0905  0.0000</r>
       <r>  10.3363  0.0000</r>
      </set>
      <set comment="kpoint 14">
       <r>  -2.6015  1.0000</r>
       <r>  -1.4261  1.0000</r>
       <r>  -1.3062  1.0000</r>
       <r>  -1.1543  1.0000</r>
       <r>  -1.0907  1.0000</r>
       <r>  -0.6318  1.0000</r>
       <r>   0.4316  1.0000</r>
       <r>   0.6477  1.0000</r>
       <r>   0.6568  1.0000</r>
       <r>   0.8812  1.0000</r>
       <r>   1.1400  1.0000</r>
       <r>   1.4557  1.0000</r>
       <r>   1.5274  1.0000</r>
       <r>   1.7077  1.0000</r>
       <r>   1.8751  1.0000</r>
       <r>   2.3737  1.0000</r>
       <r>   2.4728  1.0000</r>
       <r>   2.5740  1.0000</r>
       <r>   2.6043  1.0000</r>
       <r>   2.7614  1.0000</r>
       <r>   2.8484  1.0000</r>
       <r>   3.3910  1.0000</r>
       <r>   5.9088  0.0000</r>
       <r>   7.8462  0.0000</r>
       <r>   9.4461  0.0000</r>
       <r>  11.0332  0.0000</r>
      </set>
      <set comment="kpoint 15">
       <r>  -1.7151  1.0000</r>
       <r>  -1.3737  1.0000</r>
       <r>  -1.1593  1.0000</r>
       <r>  -0.7879  1.0000</r>
       <r>  -0.4264  1.0000</r>
       <r>  -0.2972  1.0000</r>
       <r>  -0.1022  1.0000</r>
       <r>   0.1097  1.0000</r>
       <r>   0.3931  1.0000</r>
       <r>   0.5685  1.0000</r>
       <r>   0.6217  1.0000</r>
       <r>   0.9357  1.0000</r>
       <r>   1.6704  1.0000</r>
       <r>   1.7300  1.0000</r>
       <r>   2.1587  1.0000</r>
       <r>   2.3200  1.0000</r>
       <r>   2.3482  1.0000</r>
       <r>   2.4144  1.0000</r>
       <r>   2.5334  1.0000</r>
       <r>   2.6514  1.0000</r>
       <r>   3.3033  1.0000</r>
       <r>   4.1903  1.0000</r>
       <r>   4.4356  0.6778</r>
       <r>   5.8800  0.0000</r>
       <r>  10.7007  0.0000</r>
       <r>  12.2433  0.0000</r>
      </set>
      <set comment="kpoint 16">
       <r>  -2.3809  1.0000</r>
       <r>  -1.5660  1.0000</r>
       <r>  -1.5015  1.0000</r>
       <r>  -0.9691  1.0000</r>
       <r>  -0.4435  1.0000</r>
       <r>  -0.2473  1.0000</r>
       <r>  -0.1139  1.0000</r>
       <r>   0.3940  1.0000</r>
       <r>   0.6791  1.0000</r>
       <r>   0.8008  1.0000</r>
       <r>   0.9734  1.0000</r>
       <r>   1.4711  1.0000</r>
       <r>   1.7022  1.0000</r>
       <r>   1.8561  1.0000</r>
       <r>   1.8794  1.0000</r>
       <r>   2.3066  1.0000</r>
       <r>   2.5882  1.0000</r>
       <r>   2.6961  1.0000</r>
       <r>   2.7252  1.0000</r>
       <r>   2.8986  1.0000</r>
       <r>   2.9197  1.0000</r>
       <r>   3.5891  1.0000</r>
       <r>   6.3776  0.0000</r>
       <r>   6.5821  0.0000</r>
       <r>   8.0536  0.0000</r>
       <r>   9.1738  0.0000</r>
      </set>
      <set comment="kpoint 17">
       <r>  -1.9545  1.0000</r>
       <r>  -1.7613  1.0000</r>
       <r>  -1.6338  1.0000</r>
       <r>  -1.1070  1.0000</r>
       <r>  -0.3210  1.0000</r>
       <r>   0.2342  1.0000</r>
       <r>   0.2666  1.0000</r>
       <r>   0.4640  1.0000</r>
       <r>   0.5334  1.0000</r>
       <r>   0.6029  1.0000</r>
       <r>   0.8497  1.0000</r>
       <r>   1.7819  1.0000</r>
       <r>   1.7975  1.0000</r>
       <r>   1.8753  1.0000</r>
       <r>   2.0635  1.0000</r>
       <r>   2.1223  1.0000</r>
       <r>   2.5824  1.0000</r>
       <r>   2.6663  1.0000</r>
       <r>   2.8333  1.0000</r>
       <r>   2.8476  1.0000</r>
       <r>   3.1446  1.0000</r>
       <r>   4.2734  0.9971</r>
       <r>   4.4210  0.7479</r>
       <r>   5.7413  0.0000</r>
       <r>   8.2420  0.0000</r>
       <r>   9.6822  0.0000</r>
      </set>
      <set comment="kpoint 18">
       <r>  -2.0425  1.0000</r>
       <r>  -2.0066  1.0000</r>
       <r>  -1.8705  1.0000</r>
       <r>  -1.6565  1.0000</r>
       <r>   0.0773  1.0000</r>
       <r>   0.3597  1.0000</r>
       <r>   0.3980  1.0000</r>
       <r>   0.4319  1.0000</r>
       <r>   0.6167  1.0000</r>
       <r>   0.7537  1.0000</r>
       <r>   1.8935  1.0000</r>
       <r>   1.9678  1.0000</r>
       <r>   2.0220  1.0000</r>
       <r>   2.2896  1.0000</r>
       <r>   2.4049  1.0000</r>
       <r>   2.6485  1.0000</r>
       <r>   2.8072  1.0000</r>
       <r>   2.8476  1.0000</r>
       <r>   2.8733  1.0000</r>
       <r>   2.9318  1.0000</r>
       <r>   2.9722  1.0000</r>
       <r>   4.3223  0.9805</r>
       <r>   4.4155  0.7721</r>
       <r>   4.4506  0.5986</r>
       <r>   7.4251  0.0000</r>
       <r>   7.9153  0.0000</r>
      </set>
     </set>
    </set>
   </array>
  </eigenvalues>
  <dos>
   <i name="efermi""      4.46826431</i>
   <total>
    <array>
     <dimension dim="1">gridpoints</dimension>
     <dimension dim="2">spin</dimension>
     <field>energy</field>
     <field>total</field>
     <field>integrated</field>
     <set>
      <set comment="spin 1">
       <r>  -5.5964   0.0000   0.0000 </r>
       <r>  -5.5307   0.0000   0.0000 </r>
       <r>  -5.4651   0.0000   0.0000 </r>
       <r>  -5.3994   0.0000   0.0000 </r>
       <r>  -5.3337   0.0000   0.0000 </r>
       <r>  -5.2681   0.0000   0.0000 </r>
       <r>  -5.2024   0.0000   0.0000 </r>
       <r>  -5.1368   0.0000   0.0000 </r>
       <r>  -5.0711   0.0000   0.0000 </r>
       <r>  -5.0055   0.0000   0.0000 </r>
       <r>  -4.9398   0.0000   0.0000 </r>
       <r>  -4.8741   0.0000   0.0000 </r>
       <r>  -4.8085   0.0015   0.0001 </r>
       <r>  -4.7428   0.0201   0.0014 </r>
       <r>  -4.6772   0.1212   0.0094 </r>
       <r>  -4.6115   0.3256   0.0308 </r>
       <r>  -4.5459   0.3918   0.0565 </r>
       <r>  -4.4802   0.2113   0.0704 </r>
       <r>  -4.4145   0.0509   0.0737 </r>
       <r>  -4.3489   0.0055   0.0741 </r>
       <r>  -4.2832   0.0003   0.0741 </r>
       <r>  -4.2176   0.0029   0.0743 </r>
       <r>  -4.1519   0.0413   0.0770 </r>
       <r>  -4.0862   0.2720   0.0948 </r>
       <r>  -4.0206   0.8310   0.1494 </r>
       <r>  -3.9549   1.1823   0.2270 </r>
       <r>  -3.8893   0.7815   0.2783 </r>
       <r>  -3.8236   0.2382   0.2940 </r>
       <r>  -3.7580   0.0331   0.2962 </r>
       <r>  -3.6923   0.0028   0.2963 </r>
       <r>  -3.6266   0.0147   0.2973 </r>
       <r>  -3.5610   0.1317   0.3060 </r>
       <r>  -3.4953   0.5539   0.3423 </r>
       <r>  -3.4297   1.1005   0.4146 </r>
       <r>  -3.3640   1.0345   0.4825 </r>
       <r>  -3.2984   0.4891   0.5146 </r>
       <r>  -3.2327   0.2684   0.5322 </r>
       <r>  -3.1670   0.3923   0.5580 </r>
       <r>  -3.1014   0.4336   0.5865 </r>
       <r>  -3.0357   0.4351   0.6150 </r>
       <r>  -2.9701   0.5886   0.6537 </r>
       <r>  -2.9044   0.8105   0.7069 </r>
       <r>  -2.8388   0.8925   0.7655 </r>
       <r>  -2.7731   0.5781   0.8034 </r>
       <r>  -2.7074   0.3260   0.8249 </r>
       <r>  -2.6418   0.6888   0.8701 </r>
       <r>  -2.5761   1.3817   0.9608 </r>
       <r>  -2.5105   1.5465   1.0623 </r>
       <r>  -2.4448   1.3557   1.1513 </r>
       <r>  -2.3792   1.5020   1.2500 </r>
       <r>  -2.3135   1.5670   1.3529 </r>
       <r>  -2.2478   1.3472   1.4413 </r>
       <r>  -2.1822   1.1490   1.5167 </r>
       <r>  -2.1165   1.3144   1.6030 </r>
       <r>  -2.0509   1.9027   1.7280 </r>
       <r>  -1.9852   2.4107   1.8863 </r>
       <r>  -1.9196   2.4105   2.0445 </r>
       <r>  -1.8539   2.6707   2.2199 </r>
       <r>  -1.7882   3.9057   2.4763 </r>
       <r>  -1.7226   5.3051   2.8246 </r>
       <r>  -1.6569   6.3627   3.2424 </r>
       <r>  -1.5913   6.9317   3.6975 </r>
       <r>  -1.5256   6.8194   4.1453 </r>
       <r>  -1.4599   6.3714   4.5636 </r>
       <r>  -1.3943   5.9751   4.9559 </r>
       <r>  -1.3286   5.2300   5.2993 </r>
       <r>  -1.2630   4.0554   5.5656 </r>
       <r>  -1.1973   3.9421   5.8244 </r>
       <r>  -1.1317   5.4999   6.1855 </r>
       <r>  -1.0660   7.6188   6.6857 </r>
       <r>  -1.0003   8.8792   7.2687 </r>
       <r>  -0.9347   8.3544   7.8172 </r>
       <r>  -0.8690   6.3362   8.2333 </r>
       <r>  -0.8034   4.4761   8.5271 </r>
       <r>  -0.7377   5.1366   8.8644 </r>
       <r>  -0.6721   7.2293   9.3391 </r>
       <r>  -0.6064   7.6052   9.8384 </r>
       <r>  -0.5407   6.4751  10.2635 </r>
       <r>  -0.4751   5.6823  10.6366 </r>
       <r>  -0.4094   5.3529  10.9881 </r>
       <r>  -0.3438   5.6078  11.3563 </r>
       <r>  -0.2781   6.6139  11.7905 </r>
       <r>  -0.2125   7.9261  12.3109 </r>
       <r>  -0.1468   9.0218  12.9033 </r>
       <r>  -0.0811   7.9550  13.4256 </r>
       <r>  -0.0155   4.8733  13.7456 </r>
       <r>   0.0502   3.6435  13.9848 </r>
       <r>   0.1158   4.6883  14.2926 </r>
       <r>   0.1815   5.9237  14.6815 </r>
       <r>   0.2471   7.1468  15.1508 </r>
       <r>   0.3128   7.3090  15.6307 </r>
       <r>   0.3785   6.2667  16.0421 </r>
       <r>   0.4441   5.6886  16.4156 </r>
       <r>   0.5098   5.5681  16.7812 </r>
       <r>   0.5754   6.9430  17.2371 </r>
       <r>   0.6411   9.6072  17.8679 </r>
       <r>   0.7067  10.0070  18.5249 </r>
       <r>   0.7724   8.4907  19.0824 </r>
       <r>   0.8381   7.7694  19.5925 </r>
       <r>   0.9037   7.3912  20.0778 </r>
       <r>   0.9694   6.2891  20.4907 </r>
       <r>   1.0350   4.7506  20.8026 </r>
       <r>   1.1007   4.0110  21.0660 </r>
       <r>   1.1664   4.2547  21.3453 </r>
       <r>   1.2320   4.5539  21.6443 </r>
       <r>   1.2977   4.2141  21.9210 </r>
       <r>   1.3633   3.3568  22.1414 </r>
       <r>   1.4290   2.8865  22.3309 </r>
       <r>   1.4946   3.1525  22.5379 </r>
       <r>   1.5603   3.3944  22.7608 </r>
       <r>   1.6260   4.2651  23.0408 </r>
       <r>   1.6916   6.7641  23.4849 </r>
       <r>   1.7573   9.2643  24.0932 </r>
       <r>   1.8229  10.9605  24.8128 </r>
       <r>   1.8886  12.3385  25.6230 </r>
       <r>   1.9542  12.3266  26.4323 </r>
       <r>   2.0199  11.2790  27.1729 </r>
       <r>   2.0856  10.6721  27.8736 </r>
       <r>   2.1512  10.1610  28.5407 </r>
       <r>   2.2169   9.5433  29.1673 </r>
       <r>   2.2825   9.9241  29.8189 </r>
       <r>   2.3482  11.9776  30.6053 </r>
       <r>   2.4138  14.0672  31.5289 </r>
       <r>   2.4795  14.6556  32.4912 </r>
       <r>   2.5452  15.5258  33.5105 </r>
       <r>   2.6108  17.2071  34.6403 </r>
       <r>   2.6765  16.3777  35.7156 </r>
       <r>   2.7421  15.4537  36.7303 </r>
       <r>   2.8078  17.8550  37.9026 </r>
       <r>   2.8734  19.2897  39.1691 </r>
       <r>   2.9391  16.1721  40.2309 </r>
       <r>   3.0048  11.4998  40.9860 </r>
       <r>   3.0704   8.0915  41.5173 </r>
       <r>   3.1361   5.0484  41.8487 </r>
       <r>   3.2017   3.0478  42.0488 </r>
       <r>   3.2674   2.7616  42.2302 </r>
       <r>   3.3330   2.9062  42.4210 </r>
       <r>   3.3987   2.5952  42.5914 </r>
       <r>   3.4644   2.0518  42.7261 </r>
       <r>   3.5300   1.6948  42.8374 </r>
       <r>   3.5957   1.5373  42.9383 </r>
       <r>   3.6613   1.0550  43.0076 </r>
       <r>   3.7270   0.4043  43.0341 </r>
       <r>   3.7927   0.2015  43.0473 </r>
       <r>   3.8583   0.4105  43.0743 </r>
       <r>   3.9240   0.7128  43.1211 </r>
       <r>   3.9896   0.9096  43.1808 </r>
       <r>   4.0553   0.8251  43.2350 </r>
       <r>   4.1209   0.6901  43.2803 </r>
       <r>   4.1866   1.0338  43.3482 </r>
       <r>   4.2523   1.5618  43.4507 </r>
       <r>   4.3179   1.8670  43.5733 </r>
       <r>   4.3836   2.3733  43.7291 </r>
       <r>   4.4492   3.1678  43.9371 </r>
       <r>   4.5149   3.0377  44.1366 </r>
       <r>   4.5805   1.9298  44.2633 </r>
       <r>   4.6462   1.1554  44.3391 </r>
       <r>   4.7119   0.9282  44.4001 </r>
       <r>   4.7775   0.6349  44.4418 </r>
       <r>   4.8432   0.4606  44.4720 </r>
       <r>   4.9088   0.4331  44.5004 </r>
       <r>   4.9745   0.3663  44.5245 </r>
       <r>   5.0401   0.5563  44.5610 </r>
       <r>   5.1058   0.8104  44.6142 </r>
       <r>   5.1715   0.5825  44.6525 </r>
       <r>   5.2371   0.2032  44.6658 </r>
       <r>   5.3028   0.1523  44.6758 </r>
       <r>   5.3684   0.4864  44.7077 </r>
       <r>   5.4341   0.9625  44.7709 </r>
       <r>   5.4997   1.2959  44.8560 </r>
       <r>   5.5654   1.5487  44.9577 </r>
       <r>   5.6311   1.5111  45.0569 </r>
       <r>   5.6967   1.3998  45.1488 </r>
       <r>   5.7624   1.5496  45.2506 </r>
       <r>   5.8280   1.6795  45.3609 </r>
       <r>   5.8937   1.9691  45.4901 </r>
       <r>   5.9593   2.0760  45.6264 </r>
       <r>   6.0250   1.4818  45.7237 </r>
       <r>   6.0907   0.6569  45.7669 </r>
       <r>   6.1563   0.2232  45.7815 </r>
       <r>   6.2220   0.2786  45.7998 </r>
       <r>   6.2876   0.5269  45.8344 </r>
       <r>   6.3533   0.8183  45.8881 </r>
       <r>   6.4189   1.3908  45.9794 </r>
       <r>   6.4846   1.9059  46.1046 </r>
       <r>   6.5503   1.6093  46.2102 </r>
       <r>   6.6159   0.9336  46.2715 </r>
       <r>   6.6816   0.6917  46.3170 </r>
       <r>   6.7472   1.0786  46.3878 </r>
       <r>   6.8129   1.5285  46.4881 </r>
       <r>   6.8786   1.4745  46.5849 </r>
       <r>   6.9442   1.0675  46.6550 </r>
       <r>   7.0099   0.6905  46.7004 </r>
       <r>   7.0755   0.4180  46.7278 </r>
       <r>   7.1412   0.1632  46.7385 </r>
       <r>   7.2068   0.0382  46.7410 </r>
       <r>   7.2725   0.0859  46.7467 </r>
       <r>   7.3382   0.4440  46.7758 </r>
       <r>   7.4038   1.1178  46.8492 </r>
       <r>   7.4695   1.4895  46.9470 </r>
       <r>   7.5351   1.3098  47.0330 </r>
       <r>   7.6008   0.8261  47.0873 </r>
       <r>   7.6664   0.3167  47.1081 </r>
       <r>   7.7321   0.1720  47.1193 </r>
       <r>   7.7978   0.5437  47.1550 </r>
       <r>   7.8634   1.3083  47.2409 </r>
       <r>   7.9291   1.9303  47.3677 </r>
       <r>   7.9947   2.0491  47.5022 </r>
       <r>   8.0604   1.7293  47.6158 </r>
       <r>   8.1260   1.1073  47.6885 </r>
       <r>   8.1917   0.8670  47.7454 </r>
       <r>   8.2574   1.3834  47.8362 </r>
       <r>   8.3230   2.0226  47.9690 </r>
       <r>   8.3887   2.3489  48.1232 </r>
       <r>   8.4543   2.0383  48.2571 </r>
       <r>   8.5200   1.1889  48.3351 </r>
       <r>   8.5856   0.5385  48.3705 </r>
       <r>   8.6513   0.5749  48.4082 </r>
       <r>   8.7170   1.0622  48.4780 </r>
       <r>   8.7826   1.0834  48.5491 </r>
       <r>   8.8483   0.5272  48.5837 </r>
       <r>   8.9139   0.1224  48.5918 </r>
       <r>   8.9796   0.0325  48.5939 </r>
       <r>   9.0452   0.1742  48.6053 </r>
       <r>   9.1109   0.7193  48.6526 </r>
       <r>   9.1766   1.4666  48.7489 </r>
       <r>   9.2422   1.7067  48.8609 </r>
       <r>   9.3079   1.5161  48.9605 </r>
       <r>   9.3735   1.3752  49.0507 </r>
       <r>   9.4392   1.4125  49.1435 </r>
       <r>   9.5049   1.1629  49.2198 </r>
       <r>   9.5705   0.6173  49.2604 </r>
       <r>   9.6362   0.5581  49.2970 </r>
       <r>   9.7018   0.8487  49.3527 </r>
       <r>   9.7675   0.9087  49.4124 </r>
       <r>   9.8331   1.1038  49.4849 </r>
       <r>   9.8988   1.6126  49.5907 </r>
       <r>   9.9645   1.8913  49.7149 </r>
       <r>  10.0301   1.6470  49.8231 </r>
       <r>  10.0958   1.2321  49.9040 </r>
       <r>  10.1614   0.8944  49.9627 </r>
       <r>  10.2271   0.5265  49.9973 </r>
       <r>  10.2927   0.4748  50.0284 </r>
       <r>  10.3584   0.7444  50.0773 </r>
       <r>  10.4241   0.7283  50.1251 </r>
       <r>  10.4897   0.4790  50.1566 </r>
       <r>  10.5554   0.5040  50.1897 </r>
       <r>  10.6210   0.8453  50.2452 </r>
       <r>  10.6867   1.5253  50.3453 </r>
       <r>  10.7523   1.9844  50.4756 </r>
       <r>  10.8180   1.6700  50.5853 </r>
       <r>  10.8837   1.1496  50.6607 </r>
       <r>  10.9493   1.1614  50.7370 </r>
       <r>  11.0150   1.7694  50.8532 </r>
       <r>  11.0806   2.1528  50.9945 </r>
       <r>  11.1463   1.7510  51.1095 </r>
       <r>  11.2119   0.8789  51.1672 </r>
       <r>  11.2776   0.2885  51.1861 </r>
       <r>  11.3433   0.3061  51.2062 </r>
       <r>  11.4089   0.7479  51.2553 </r>
       <r>  11.4746   1.1091  51.3281 </r>
       <r>  11.5402   1.1400  51.4030 </r>
       <r>  11.6059   0.8825  51.4609 </r>
       <r>  11.6715   0.5783  51.4989 </r>
       <r>  11.7372   0.4647  51.5294 </r>
       <r>  11.8029   0.2924  51.5486 </r>
       <r>  11.8685   0.0942  51.5548 </r>
       <r>  11.9342   0.0471  51.5579 </r>
       <r>  11.9998   0.2197  51.5723 </r>
       <r>  12.0655   0.6352  51.6140 </r>
       <r>  12.1312   0.9083  51.6737 </r>
       <r>  12.1968   0.9041  51.7330 </r>
       <r>  12.2625   0.9093  51.7927 </r>
       <r>  12.3281   0.6431  51.8350 </r>
       <r>  12.3938   0.2542  51.8516 </r>
       <r>  12.4594   0.1951  51.8645 </r>
       <r>  12.5251   0.3647  51.8884 </r>
       <r>  12.5908   0.3675  51.9125 </r>
       <r>  12.6564   0.1670  51.9235 </r>
       <r>  12.7221   0.0339  51.9257 </r>
       <r>  12.7877   0.0031  51.9259 </r>
       <r>  12.8534   0.0004  51.9259 </r>
       <r>  12.9190   0.0055  51.9263 </r>
       <r>  12.9847   0.0509  51.9296 </r>
       <r>  13.0504   0.2113  51.9435 </r>
       <r>  13.1160   0.3918  51.9692 </r>
       <r>  13.1817   0.3256  51.9906 </r>
       <r>  13.2473   0.1212  51.9986 </r>
       <r>  13.3130   0.0201  51.9999 </r>
       <r>  13.3786   0.0015  52.0000 </r>
       <r>  13.4443   0.0000  52.0000 </r>
       <r>  13.5100   0.0000  52.0000 </r>
       <r>  13.5756   0.0000  52.0000 </r>
       <r>  13.6413   0.0000  52.0000 </r>
       <r>  13.7069   0.0000  52.0000 </r>
       <r>  13.7726   0.0000  52.0000 </r>
       <r>  13.8382   0.0000  52.0000 </r>
       <r>  13.9039   0.0000  52.0000 </r>
       <r>  13.9696   0.0000  52.0000 </r>
       <r>  14.0352   0.0000  52.0000 </r>
       <r>  14.1009   0.0000  52.0000 </r>
      </set>
     </set>
    </array>
   </total>
   <partial>
    <array>
     <dimension dim="1">gridpoints</dimension>
     <dimension dim="2">spin</dimension>
     <dimension dim="3">ion</dimension>
     <field>energy</field>
     <field>  s</field>
     <field> py</field>
     <field> pz</field>
     <field> px</field>
     <field>dxy</field>
     <field>dyz</field>
     <field>dz2</field>
     <field>dxz</field>
     <field>dx2</field>
     <set>
      <set comment="ion 1">
       <set comment="spin 1">
        <r>  -5.5964   0.0000   0.0000   0.0000   0.0000   0.0000   0.0000   0.0000   0.0000   0.0000 </r>
        <r>  -5.5307   0.0000   0.0000   0.0000   0.0000   0.0000   0.0000   0.0000   0.0000   0.0000 </r>
        <r>  -5.4651   0.0000   0.0000   0.0000   0.0000   0.0000   0.0000   0.0000   0.0000   0.0000 </r>
        <r>  -5.3994   0.0000   0.0000   0.0000   0.0000   0.0000   0.0000   0.0000   0.0000   0.0000 </r>
        <r>  -5.3337   0.0000   0.0000   0.0000   0.0000   0.0000   0.0000   0.0000   0.0000   0.0000 </r>
        <r>  -5.2681   0.0000   0.0000   0.0000   0.0000   0.0000   0.0000   0.0000   0.0000   0.0000 </r>
        <r>  -5.2024   0.0000   0.0000   0.0000   0.0000   0.0000   0.0000   0.0000   0.0000   0.0000 </r>
        <r>  -5.1368   0.0000   0.0000   0.0000   0.0000   0.0000   0.0000   0.0000   0.0000   0.0000 </r>
        <r>  -5.0711   0.0000   0.0000   0.0000   0.0000   0.0000   0.0000   0.0000   0.0000   0.0000 </r>
        <r>  -5.0055   0.0000   0.0000   0.0000   0.0000   0.0000   0.0000   0.0000   0.0000   0.0000 </r>
        <r>  -4.9398   0.0000   0.0000   0.0000   0.0000   0.0000   0.0000   0.0000   0.0000   0.0000 </r>
        <r>  -4.8741   0.0000   0.0000   0.0000   0.0000   0.0000   0.0000   0.0000   0.0000   0.0000 </r>
        <r>  -4.8085   0.0003   0.0000   0.0000   0.0000   0.0000   0.0000   0.0000   0.0000   0.0000 </r>
        <r>  -4.7428   0.0038   0.0000   0.0000   0.0000   0.0000   0.0000   0.0001   0.0000   0.0000 </r>
        <r>  -4.6772   0.0230   0.0001   0.0001   0.0001   0.0000   0.0000   0.0003   0.0000   0.0000 </r>
        <r>  -4.6115   0.0617   0.0004   0.0002   0.0004   0.0001   0.0000   0.0009   0.0000   0.0000 </r>
        <r>  -4.5459   0.0742   0.0004   0.0003   0.0004   0.0001   0.0000   0.0011   0.0000   0.0000 </r>
        <r>  -4.4802   0.0400   0.0002   0.0002   0.0002   0.0001   0.0000   0.0006   0.0000   0.0000 </r>
        <r>  -4.4145   0.0096   0.0001   0.0000   0.0001   0.0000   0.0000   0.0001   0.0000   0.0000 </r>
        <r>  -4.3489   0.0010   0.0000   0.0000   0.0000   0.0000   0.0000   0.0000   0.0000   0.0000 </r>
        <r>  -4.2832   0.0001   0.0000   0.0000   0.0000   0.0000   0.0000   0.0000   0.0000   0.0000 </r>
        <r>  -4.2176   0.0005   0.0000   0.0000   0.0000   0.0000   0.0000   0.0000   0.0000   0.0000 </r>
        <r>  -4.1519   0.0077   0.0000   0.0001   0.0002   0.0000   0.0000   0.0003   0.0000   0.0000 </r>
        <r>  -4.0862   0.0501   0.0003   0.0008   0.0014   0.0004   0.0001   0.0020   0.0001   0.0001 </r>
        <r>  -4.0206   0.1520   0.0008   0.0021   0.0051   0.0013   0.0002   0.0049   0.0004   0.0004 </r>
        <r>  -3.9549   0.2147   0.0011   0.0025   0.0082   0.0021   0.0002   0.0056   0.0005   0.0006 </r>
        <r>  -3.8893   0.1411   0.0007   0.0014   0.0059   0.0015   0.0001   0.0029   0.0004   0.0005 </r>
        <r>  -3.8236   0.0428   0.0002   0.0004   0.0019   0.0005   0.0000   0.0007   0.0001   0.0002 </r>
        <r>  -3.7580   0.0059   0.0000   0.0000   0.0003   0.0001   0.0000   0.0001   0.0000   0.0000 </r>
        <r>  -3.6923   0.0005   0.0000   0.0000   0.0000   0.0000   0.0000   0.0000   0.0000   0.0000 </r>
        <r>  -3.6266   0.0025   0.0001   0.0000   0.0001   0.0003   0.0000   0.0000   0.0000   0.0000 </r>
        <r>  -3.5610   0.0224   0.0005   0.0003   0.0010   0.0021   0.0001   0.0005   0.0003   0.0000 </r>
        <r>  -3.4953   0.0946   0.0019   0.0017   0.0045   0.0075   0.0004   0.0024   0.0015   0.0002 </r>
        <r>  -3.4297   0.1889   0.0031   0.0040   0.0095   0.0125   0.0008   0.0058   0.0035   0.0006 </r>
        <r>  -3.3640   0.1784   0.0023   0.0042   0.0092   0.0097   0.0007   0.0065   0.0036   0.0006 </r>
        <r>  -3.2984   0.0856   0.0008   0.0021   0.0042   0.0036   0.0003   0.0056   0.0017   0.0003 </r>
        <r>  -3.2327   0.0510   0.0004   0.0010   0.0011   0.0009   0.0001   0.0128   0.0004   0.0001 </r>
        <r>  -3.1670   0.0773   0.0006   0.0013   0.0006   0.0010   0.0002   0.0257   0.0002   0.0000 </r>
        <r>  -3.1014   0.0827   0.0009   0.0015   0.0009   0.0035   0.0006   0.0248   0.0006   0.0000 </r>
        <r>  -3.0357   0.0740   0.0016   0.0017   0.0021   0.0105   0.0018   0.0121   0.0019   0.0002 </r>
        <r>  -2.9701   0.0916   0.0023   0.0020   0.0058   0.0166   0.0028   0.0048   0.0031   0.0018 </r>
        <r>  -2.9044   0.1223   0.0016   0.0017   0.0135   0.0142   0.0020   0.0026   0.0030   0.0062 </r>
        <r>  -2.8388   0.1331   0.0007   0.0010   0.0187   0.0087   0.0007   0.0015   0.0024   0.0094 </r>
        <r>  -2.7731   0.0863   0.0002   0.0006   0.0127   0.0045   0.0002   0.0016   0.0014   0.0064 </r>
        <r>  -2.7074   0.0519   0.0002   0.0007   0.0056   0.0050   0.0002   0.0081   0.0012   0.0022 </r>
        <r>  -2.6418   0.1144   0.0005   0.0021   0.0082   0.0200   0.0007   0.0288   0.0032   0.0015 </r>
        <r>  -2.5761   0.2232   0.0014   0.0037   0.0168   0.0516   0.0017   0.0473   0.0062   0.0034 </r>
        <r>  -2.5105   0.2384   0.0019   0.0036   0.0203   0.0691   0.0025   0.0363   0.0084   0.0055 </r>
        <r>  -2.4448   0.1936   0.0016   0.0044   0.0200   0.0618   0.0039   0.0194   0.0149   0.0081 </r>
        <r>  -2.3792   0.2006   0.0017   0.0066   0.0226   0.0692   0.0078   0.0193   0.0260   0.0116 </r>
        <r>  -2.3135   0.1975   0.0017   0.0066   0.0210   0.0893   0.0133   0.0185   0.0309   0.0178 </r>
        <r>  -2.2478   0.1474   0.0014   0.0044   0.0144   0.0907   0.0157   0.0100   0.0270   0.0518 </r>
        <r>  -2.1822   0.0917   0.0012   0.0022   0.0076   0.0796   0.0147   0.0038   0.0200   0.1206 </r>
        <r>  -2.1165   0.0818   0.0017   0.0011   0.0036   0.1105   0.0346   0.0038   0.0365   0.1471 </r>
        <r>  -2.0509   0.1063   0.0022   0.0019   0.0034   0.1667   0.0949   0.0091   0.0982   0.1330 </r>
        <r>  -1.9852   0.1142   0.0018   0.0035   0.0054   0.1838   0.1422   0.0178   0.1523   0.1615 </r>
        <r>  -1.9196   0.1063   0.0010   0.0041   0.0088   0.1801   0.1188   0.0256   0.1357   0.2065 </r>
        <r>  -1.8539   0.1021   0.0009   0.0036   0.0175   0.1974   0.0840   0.0293   0.1092   0.3320 </r>
        <r>  -1.7882   0.1302   0.0015   0.0054   0.0330   0.2853   0.1096   0.0345   0.1668   0.5100 </r>
        <r>  -1.7226   0.1940   0.0028   0.0103   0.0418   0.4849   0.1723   0.0497   0.2758   0.5186 </r>
        <r>  -1.6569   0.2459   0.0047   0.0135   0.0392   0.7122   0.2482   0.0820   0.3709   0.4306 </r>
        <r>  -1.5913   0.2385   0.0060   0.0142   0.0391   0.7559   0.3334   0.1431   0.4522   0.3645 </r>
        <r>  -1.5256   0.1927   0.0073   0.0158   0.0438   0.6479   0.3392   0.2155   0.4518   0.3615 </r>
        <r>  -1.4599   0.1243   0.0104   0.0180   0.0375   0.6460   0.2442   0.2609   0.3669   0.4527 </r>
        <r>  -1.3943   0.0526   0.0126   0.0227   0.0220   0.7412   0.1533   0.3099   0.3346   0.4601 </r>
        <r>  -1.3286   0.0194   0.0115   0.0297   0.0107   0.7332   0.1254   0.3214   0.3433   0.2693 </r>
        <r>  -1.2630   0.0173   0.0092   0.0330   0.0060   0.5608   0.1202   0.2814   0.2996   0.0882 </r>
        <r>  -1.1973   0.0406   0.0083   0.0369   0.0094   0.4108   0.1324   0.3296   0.3199   0.0485 </r>
        <r>  -1.1317   0.0936   0.0117   0.0410   0.0185   0.4956   0.2355   0.4245   0.4884   0.0773 </r>
        <r>  -1.0660   0.1304   0.0177   0.0357   0.0243   0.6793   0.4793   0.4912   0.7165   0.1281 </r>
        <r>  -1.0003   0.1004   0.0198   0.0234   0.0206   0.6562   0.7508   0.5132   0.9151   0.2395 </r>
        <r>  -0.9347   0.0488   0.0181   0.0129   0.0130   0.5122   0.8206   0.4398   0.9262   0.3133 </r>
        <r>  -0.8690   0.0304   0.0143   0.0077   0.0108   0.3956   0.6271   0.3343   0.6924   0.2648 </r>
        <r>  -0.8034   0.0437   0.0082   0.0050   0.0170   0.2289   0.3617   0.2887   0.4052   0.2906 </r>
        <r>  -0.7377   0.0808   0.0059   0.0052   0.0243   0.1277   0.3411   0.4725   0.3463   0.3844 </r>
        <r>  -0.6721   0.1018   0.0100   0.0073   0.0235   0.1698   0.6162   0.7238   0.4968   0.3372 </r>
        <r>  -0.6064   0.0751   0.0158   0.0070   0.0191   0.2605   0.7904   0.7475   0.5510   0.2250 </r>
        <r>  -0.5407   0.0445   0.0234   0.0049   0.0198   0.3680   0.5974   0.7103   0.4093   0.2161 </r>
        <r>  -0.4751   0.0428   0.0364   0.0041   0.0270   0.5711   0.3084   0.6838   0.2286   0.2681 </r>
        <r>  -0.4094   0.0550   0.0427   0.0046   0.0311   0.6696   0.2257   0.5031   0.1305   0.3840 </r>
        <r>  -0.3438   0.0669   0.0324   0.0064   0.0242   0.4637   0.4229   0.3150   0.1765   0.5660 </r>
        <r>  -0.2781   0.0811   0.0198   0.0101   0.0150   0.2388   0.7250   0.3457   0.3853   0.5424 </r>
        <r>  -0.2125   0.1079   0.0177   0.0149   0.0141   0.2044   0.8803   0.6205   0.6147   0.3010 </r>
        <r>  -0.1468   0.1424   0.0273   0.0180   0.0222   0.3098   0.8271   0.9676   0.6451   0.1775 </r>
        <r>  -0.0811   0.1371   0.0353   0.0147   0.0263   0.3913   0.5665   0.9458   0.4493   0.2082 </r>
        <r>  -0.0155   0.0774   0.0325   0.0069   0.0187   0.3769   0.2631   0.5253   0.2000   0.2417 </r>
        <r>   0.0502   0.0309   0.0349   0.0026   0.0127   0.4737   0.1939   0.2527   0.0831   0.3187 </r>
        <r>   0.1158   0.0238   0.0412   0.0031   0.0188   0.5878   0.3675   0.2376   0.1270   0.4453 </r>
        <r>   0.1815   0.0294   0.0354   0.0066   0.0270   0.4849   0.6593   0.2520   0.3676   0.4407 </r>
        <r>   0.2471   0.0296   0.0212   0.0131   0.0236   0.2691   0.9969   0.2379   0.7653   0.3620 </r>
        <r>   0.3128   0.0342   0.0113   0.0165   0.0154   0.1097   0.9965   0.2820   0.8955   0.3578 </r>
        <r>   0.3785   0.0646   0.0114   0.0122   0.0136   0.0533   0.6076   0.5037   0.5841   0.3917 </r>
        <r>   0.4441   0.0968   0.0154   0.0071   0.0166   0.0531   0.3359   0.7851   0.2588   0.4042 </r>
        <r>   0.5098   0.0952   0.0131   0.0064   0.0139   0.0596   0.3091   0.8656   0.2022   0.3969 </r>
        <r>   0.5754   0.0868   0.0092   0.0096   0.0094   0.0692   0.5385   0.8419   0.4601   0.4975 </r>
        <r>   0.6411   0.0915   0.0095   0.0134   0.0094   0.0807   0.9031   0.8033   0.8803   0.7484 </r>
        <r>   0.7067   0.0847   0.0096   0.0139   0.0094   0.0760   0.9858   0.6561   1.0364   0.8334 </r>
        <r>   0.7724   0.0675   0.0141   0.0121   0.0118   0.1013   0.8069   0.4417   0.8813   0.8050 </r>
        <r>   0.8381   0.0675   0.0307   0.0112   0.0247   0.2238   0.6301   0.3360   0.7101   0.8081 </r>
        <r>   0.9037   0.0752   0.0460   0.0097   0.0422   0.3491   0.5047   0.3482   0.5892   0.6880 </r>
        <r>   0.9694   0.0733   0.0458   0.0060   0.0511   0.3669   0.3881   0.3336   0.4402   0.4999 </r>
        <r>   1.0350   0.0643   0.0412   0.0028   0.0497   0.3393   0.2269   0.2447   0.2438   0.3983 </r>
        <r>   1.1007   0.0576   0.0362   0.0038   0.0443   0.2821   0.1067   0.1806   0.1172   0.5157 </r>
        <r>   1.1664   0.0520   0.0311   0.0077   0.0348   0.2528   0.1027   0.1634   0.1188   0.7471 </r>
        <r>   1.2320   0.0430   0.0353   0.0086   0.0292   0.3002   0.1437   0.1375   0.1579   0.8342 </r>
        <r>   1.2977   0.0302   0.0384   0.0057   0.0315   0.2539   0.1271   0.0914   0.1382   0.7983 </r>
        <r>   1.3633   0.0189   0.0306   0.0058   0.0301   0.1226   0.0610   0.0653   0.0813   0.6276 </r>
        <r>   1.4290   0.0165   0.0231   0.0140   0.0262   0.0588   0.0214   0.0777   0.0683   0.3447 </r>
        <r>   1.4946   0.0201   0.0251   0.0216   0.0305   0.0606   0.0156   0.0944   0.0790   0.1668 </r>
        <r>   1.5603   0.0186   0.0285   0.0191   0.0356   0.0643   0.0165   0.0812   0.0610   0.1516 </r>
        <r>   1.6260   0.0113   0.0258   0.0225   0.0317   0.0470   0.0209   0.0999   0.0487   0.3017 </r>
        <r>   1.6916   0.0097   0.0272   0.0436   0.0347   0.0526   0.0287   0.2141   0.0590   0.4869 </r>
        <r>   1.7573   0.0172   0.0351   0.0612   0.0478   0.1075   0.0374   0.3119   0.0608   0.4212 </r>
        <r>   1.8229   0.0213   0.0403   0.0633   0.0525   0.1699   0.0621   0.2555   0.0572   0.1871 </r>
        <r>   1.8886   0.0162   0.0371   0.0620   0.0424   0.1978   0.0964   0.1348   0.0619   0.0616 </r>
        <r>   1.9542   0.0122   0.0313   0.0627   0.0319   0.1846   0.1048   0.0895   0.0701   0.0519 </r>
        <r>   2.0199   0.0138   0.0267   0.0652   0.0258   0.1503   0.0931   0.1228   0.0715   0.0685 </r>
        <r>   2.0856   0.0146   0.0209   0.0621   0.0199   0.1157   0.0823   0.1641   0.0638   0.0780 </r>
        <r>   2.1512   0.0132   0.0139   0.0489   0.0148   0.0825   0.0776   0.1940   0.0592   0.0848 </r>
        <r>   2.2169   0.0153   0.0098   0.0405   0.0169   0.0685   0.0715   0.2363   0.0627   0.0900 </r>
        <r>   2.2825   0.0183   0.0104   0.0382   0.0241   0.0952   0.0550   0.2447   0.0697   0.0842 </r>
        <r>   2.3482   0.0150   0.0145   0.0306   0.0257   0.1920   0.0423   0.2350   0.0694   0.0798 </r>
        <r>   2.4138   0.0088   0.0191   0.0205   0.0228   0.2971   0.0458   0.2892   0.0615   0.0911 </r>
        <r>   2.4795   0.0063   0.0171   0.0149   0.0182   0.3011   0.0642   0.3379   0.0593   0.1129 </r>
        <r>   2.5452   0.0101   0.0120   0.0150   0.0147   0.3143   0.1003   0.3425   0.0810   0.1420 </r>
        <r>   2.6108   0.0191   0.0116   0.0228   0.0175   0.3937   0.1382   0.3367   0.1246   0.1727 </r>
        <r>   2.6765   0.0235   0.0121   0.0273   0.0192   0.4169   0.1534   0.3237   0.1497   0.1828 </r>
        <r>   2.7421   0.0205   0.0094   0.0197   0.0150   0.4636   0.2264   0.3613   0.1712   0.1914 </r>
        <r>   2.8078   0.0161   0.0072   0.0117   0.0103   0.5837   0.4248   0.3835   0.2214   0.2287 </r>
        <r>   2.8734   0.0102   0.0056   0.0076   0.0061   0.5893   0.5555   0.3049   0.2539   0.2637 </r>
        <r>   2.9391   0.0049   0.0034   0.0038   0.0028   0.3895   0.4966   0.1820   0.2277   0.2388 </r>
        <r>   3.0048   0.0041   0.0024   0.0018   0.0019   0.1812   0.4518   0.0857   0.1696   0.1517 </r>
        <r>   3.0704   0.0086   0.0032   0.0024   0.0036   0.0986   0.4406   0.0458   0.1218   0.0741 </r>
        <r>   3.1361   0.0168   0.0043   0.0040   0.0072   0.0743   0.2765   0.0426   0.0854   0.0455 </r>
        <r>   3.2017   0.0287   0.0053   0.0045   0.0124   0.0771   0.0870   0.0552   0.0616   0.0427 </r>
        <r>   3.2674   0.0433   0.0054   0.0058   0.0178   0.0870   0.0139   0.0668   0.0707   0.0546 </r>
        <r>   3.3330   0.0518   0.0039   0.0111   0.0196   0.0579   0.0029   0.0562   0.1132   0.0758 </r>
        <r>   3.3987   0.0489   0.0035   0.0171   0.0190   0.0289   0.0033   0.0382   0.1333   0.0730 </r>
        <r>   3.4644   0.0439   0.0051   0.0164   0.0230   0.0314   0.0054   0.0264   0.1061   0.0529 </r>
        <r>   3.5300   0.0445   0.0056   0.0127   0.0333   0.0392   0.0094   0.0218   0.0698   0.0370 </r>
        <r>   3.5957   0.0462   0.0044   0.0125   0.0407   0.0368   0.0142   0.0231   0.0519   0.0257 </r>
        <r>   3.6613   0.0326   0.0027   0.0099   0.0295   0.0232   0.0122   0.0178   0.0337   0.0145 </r>
        <r>   3.7270   0.0117   0.0014   0.0040   0.0109   0.0079   0.0050   0.0069   0.0121   0.0049 </r>
        <r>   3.7927   0.0022   0.0029   0.0011   0.0044   0.0013   0.0011   0.0014   0.0022   0.0015 </r>
        <r>   3.8583   0.0021   0.0075   0.0032   0.0076   0.0001   0.0013   0.0022   0.0014   0.0022 </r>
        <r>   3.9240   0.0079   0.0119   0.0128   0.0119   0.0000   0.0050   0.0086   0.0050   0.0042 </r>
        <r>   3.9896   0.0145   0.0153   0.0232   0.0154   0.0000   0.0091   0.0157   0.0093   0.0070 </r>
        <r>   4.0553   0.0152   0.0153   0.0191   0.0163   0.0001   0.0077   0.0130   0.0099   0.0101 </r>
        <r>   4.1209   0.0237   0.0091   0.0083   0.0148   0.0006   0.0031   0.0062   0.0154   0.0185 </r>
        <r>   4.1866   0.0518   0.0073   0.0058   0.0227   0.0028   0.0012   0.0044   0.0350   0.0409 </r>
        <r>   4.2523   0.0708   0.0186   0.0101   0.0406   0.0070   0.0020   0.0049   0.0539   0.0634 </r>
        <r>   4.3179   0.0611   0.0359   0.0225   0.0544   0.0110   0.0040   0.0107   0.0654   0.0650 </r>
        <r>   4.3836   0.0532   0.0412   0.0583   0.0518   0.0234   0.0086   0.0366   0.1038   0.0484 </r>
        <r>   4.4492   0.0722   0.0356   0.0974   0.0418   0.0724   0.0149   0.0789   0.1523   0.0354 </r>
        <r>   4.5149   0.0911   0.0280   0.0823   0.0327   0.1455   0.0149   0.1031   0.1218   0.0287 </r>
        <r>   4.5805   0.0808   0.0163   0.0358   0.0251   0.1480   0.0080   0.0823   0.0542   0.0201 </r>
        <r>   4.6462   0.0620   0.0058   0.0098   0.0303   0.0752   0.0024   0.0374   0.0357   0.0185 </r>
        <r>   4.7119   0.0530   0.0019   0.0034   0.0366   0.0265   0.0005   0.0118   0.0400   0.0203 </r>
        <r>   4.7775   0.0391   0.0016   0.0017   0.0239   0.0253   0.0004   0.0091   0.0255   0.0126 </r>
        <r>   4.8432   0.0355   0.0028   0.0008   0.0092   0.0535   0.0010   0.0179   0.0082   0.0036 </r>
        <r>   4.9088   0.0363   0.0034   0.0015   0.0042   0.0664   0.0013   0.0226   0.0032   0.0005 </r>
        <r>   4.9745   0.0250   0.0020   0.0079   0.0023   0.0379   0.0014   0.0174   0.0091   0.0003 </r>
        <r>   5.0401   0.0238   0.0008   0.0275   0.0017   0.0097   0.0026   0.0208   0.0301   0.0010 </r>
        <r>   5.1058   0.0308   0.0005   0.0442   0.0020   0.0011   0.0040   0.0288   0.0484   0.0016 </r>
        <r>   5.1715   0.0219   0.0004   0.0320   0.0015   0.0001   0.0029   0.0206   0.0350   0.0012 </r>
        <r>   5.2371   0.0075   0.0006   0.0104   0.0010   0.0005   0.0011   0.0068   0.0115   0.0009 </r>
        <r>   5.3028   0.0050   0.0042   0.0020   0.0042   0.0045   0.0019   0.0024   0.0034   0.0039 </r>
        <r>   5.3684   0.0183   0.0149   0.0021   0.0149   0.0210   0.0069   0.0066   0.0070   0.0132 </r>
        <r>   5.4341   0.0418   0.0280   0.0042   0.0280   0.0500   0.0123   0.0164   0.0123   0.0202 </r>
        <r>   5.4997   0.0580   0.0407   0.0048   0.0407   0.0753   0.0115   0.0272   0.0115   0.0155 </r>
        <r>   5.5654   0.0592   0.0565   0.0068   0.0565   0.0850   0.0079   0.0353   0.0086   0.0091 </r>
        <r>   5.6311   0.0449   0.0540   0.0173   0.0545   0.0698   0.0062   0.0367   0.0120   0.0072 </r>
        <r>   5.6967   0.0325   0.0340   0.0419   0.0361   0.0394   0.0085   0.0342   0.0318   0.0089 </r>
        <r>   5.7624   0.0363   0.0206   0.0674   0.0266   0.0144   0.0134   0.0313   0.0625   0.0132 </r>
        <r>   5.8280   0.0592   0.0130   0.0667   0.0305   0.0068   0.0115   0.0240   0.0887   0.0175 </r>
        <r>   5.8937   0.1072   0.0117   0.0514   0.0476   0.0209   0.0051   0.0185   0.1101   0.0260 </r>
        <r>   5.9593   0.1330   0.0221   0.0328   0.0532   0.0561   0.0025   0.0235   0.0896   0.0305 </r>
        <r>   6.0250   0.0966   0.0287   0.0128   0.0315   0.0741   0.0023   0.0262   0.0368   0.0211 </r>
        <r>   6.0907   0.0408   0.0176   0.0037   0.0099   0.0454   0.0015   0.0155   0.0071   0.0084 </r>
        <r>   6.1563   0.0105   0.0049   0.0084   0.0017   0.0127   0.0011   0.0051   0.0013   0.0019 </r>
        <r>   6.2220   0.0059   0.0007   0.0299   0.0003   0.0022   0.0029   0.0038   0.0029   0.0002 </r>
        <r>   6.2876   0.0143   0.0008   0.0526   0.0007   0.0044   0.0066   0.0066   0.0077   0.0002 </r>
        <r>   6.3533   0.0344   0.0049   0.0546   0.0035   0.0160   0.0117   0.0122   0.0200   0.0017 </r>
        <r>   6.4189   0.0635   0.0183   0.0586   0.0117   0.0359   0.0168   0.0282   0.0453   0.0080 </r>
        <r>   6.4846   0.0755   0.0386   0.0655   0.0241   0.0507   0.0180   0.0444   0.0615   0.0190 </r>
        <r>   6.5503   0.0503   0.0479   0.0445   0.0341   0.0400   0.0136   0.0348   0.0430   0.0282 </r>
        <r>   6.6159   0.0179   0.0405   0.0177   0.0347   0.0159   0.0073   0.0146   0.0174   0.0283 </r>
        <r>   6.6816   0.0103   0.0277   0.0194   0.0262   0.0058   0.0045   0.0136   0.0134   0.0171 </r>
        <r>   6.7472   0.0257   0.0318   0.0423   0.0258   0.0127   0.0069   0.0296   0.0258   0.0072 </r>
        <r>   6.8129   0.0440   0.0592   0.0466   0.0299   0.0331   0.0111   0.0360   0.0302   0.0057 </r>
        <r>   6.8786   0.0426   0.0844   0.0233   0.0226   0.0530   0.0113   0.0233   0.0174   0.0078 </r>
        <r>   6.9442   0.0245   0.0758   0.0053   0.0176   0.0447   0.0092   0.0096   0.0076   0.0086 </r>
        <r>   7.0099   0.0081   0.0483   0.0006   0.0239   0.0181   0.0089   0.0027   0.0075   0.0080 </r>
        <r>   7.0755   0.0014   0.0267   0.0000   0.0221   0.0033   0.0071   0.0004   0.0068   0.0058 </r>
        <r>   7.1412   0.0001   0.0100   0.0000   0.0096   0.0003   0.0030   0.0000   0.0030   0.0024 </r>
        <r>   7.2068   0.0006   0.0021   0.0000   0.0020   0.0004   0.0006   0.0001   0.0006   0.0005 </r>
        <r>   7.2725   0.0076   0.0022   0.0004   0.0013   0.0051   0.0001   0.0011   0.0001   0.0003 </r>
        <r>   7.3382   0.0429   0.0103   0.0028   0.0056   0.0275   0.0005   0.0055   0.0004   0.0013 </r>
        <r>   7.4038   0.1114   0.0228   0.0138   0.0124   0.0665   0.0014   0.0130   0.0035   0.0029 </r>
        <r>   7.4695   0.1357   0.0228   0.0452   0.0126   0.0733   0.0027   0.0168   0.0152   0.0029 </r>
        <r>   7.5351   0.0835   0.0102   0.0836   0.0060   0.0369   0.0038   0.0155   0.0310   0.0013 </r>
        <r>   7.6008   0.0306   0.0021   0.0752   0.0016   0.0084   0.0031   0.0105   0.0288   0.0003 </r>
        <r>   7.6664   0.0081   0.0002   0.0315   0.0005   0.0009   0.0013   0.0040   0.0128   0.0001 </r>
        <r>   7.7321   0.0061   0.0006   0.0100   0.0018   0.0006   0.0005   0.0008   0.0101   0.0004 </r>
        <r>   7.7978   0.0252   0.0055   0.0178   0.0078   0.0054   0.0023   0.0007   0.0324   0.0022 </r>
        <r>   7.8634   0.0697   0.0272   0.0330   0.0167   0.0250   0.0109   0.0028   0.0613   0.0062 </r>
        <r>   7.9291   0.1160   0.0636   0.0364   0.0204   0.0539   0.0249   0.0075   0.0622   0.0106 </r>
        <r>   7.9947   0.1378   0.0690   0.0445   0.0186   0.0573   0.0270   0.0129   0.0562   0.0106 </r>
        <r>   8.0604   0.1366   0.0363   0.0558   0.0154   0.0364   0.0156   0.0140   0.0568   0.0060 </r>
        <r>   8.1260   0.1048   0.0141   0.0393   0.0103   0.0225   0.0079   0.0086   0.0378   0.0028 </r>
        <r>   8.1917   0.0981   0.0206   0.0138   0.0102   0.0299   0.0108   0.0046   0.0193   0.0038 </r>
        <r>   8.2574   0.1591   0.0443   0.0054   0.0204   0.0553   0.0214   0.0062   0.0210   0.0069 </r>
        <r>   8.3230   0.2092   0.0633   0.0106   0.0281   0.0773   0.0302   0.0093   0.0281   0.0088 </r>
        <r>   8.3887   0.1993   0.0732   0.0246   0.0228   0.0886   0.0324   0.0115   0.0296   0.0105 </r>
        <r>   8.4543   0.1364   0.0645   0.0421   0.0119   0.0725   0.0270   0.0124   0.0243   0.0101 </r>
        <r>   8.5200   0.0609   0.0327   0.0467   0.0043   0.0335   0.0173   0.0099   0.0162   0.0053 </r>
        <r>   8.5856   0.0249   0.0090   0.0314   0.0023   0.0086   0.0086   0.0053   0.0114   0.0016 </r>
        <r>   8.6513   0.0389   0.0068   0.0247   0.0083   0.0053   0.0060   0.0035   0.0200   0.0017 </r>
        <r>   8.7170   0.0712   0.0186   0.0342   0.0231   0.0089   0.0100   0.0045   0.0377   0.0049 </r>
        <r>   8.7826   0.0627   0.0264   0.0294   0.0304   0.0078   0.0113   0.0039   0.0357   0.0069 </r>
        <r>   8.8483   0.0248   0.0169   0.0116   0.0185   0.0031   0.0061   0.0015   0.0158   0.0044 </r>
        <r>   8.9139   0.0044   0.0048   0.0021   0.0051   0.0005   0.0016   0.0003   0.0033   0.0013 </r>
        <r>   8.9796   0.0012   0.0007   0.0014   0.0007   0.0001   0.0004   0.0002   0.0012   0.0002 </r>
        <r>   9.0452   0.0071   0.0007   0.0104   0.0007   0.0004   0.0021   0.0015   0.0081   0.0002 </r>
        <r>   9.1109   0.0283   0.0040   0.0387   0.0038   0.0027   0.0099   0.0059   0.0318   0.0008 </r>
        <r>   9.1766   0.0569   0.0147   0.0647   0.0112   0.0112   0.0220   0.0109   0.0571   0.0024 </r>
        <r>   9.2422   0.0676   0.0357   0.0504   0.0180   0.0277   0.0262   0.0113   0.0469   0.0060 </r>
        <r>   9.3079   0.0637   0.0579   0.0235   0.0170   0.0421   0.0240   0.0094   0.0185   0.0110 </r>
        <r>   9.3735   0.0701   0.0665   0.0215   0.0115   0.0431   0.0240   0.0081   0.0050   0.0133 </r>
        <r>   9.4392   0.0875   0.0704   0.0329   0.0084   0.0382   0.0278   0.0073   0.0032   0.0135 </r>
        <r>   9.5049   0.0735   0.0606   0.0282   0.0066   0.0284   0.0251   0.0055   0.0029   0.0112 </r>
        <r>   9.5705   0.0390   0.0316   0.0116   0.0052   0.0162   0.0139   0.0027   0.0029   0.0055 </r>
        <r>   9.6362   0.0418   0.0204   0.0036   0.0098   0.0197   0.0113   0.0021   0.0069   0.0025 </r>
        <r>   9.7018   0.0668   0.0260   0.0043   0.0167   0.0307   0.0157   0.0029   0.0134   0.0025 </r>
        <r>   9.7675   0.0701   0.0214   0.0128   0.0170   0.0241   0.0124   0.0030   0.0212   0.0019 </r>
        <r>   9.8331   0.0757   0.0126   0.0393   0.0170   0.0096   0.0062   0.0049   0.0390   0.0010 </r>
        <r>   9.8988   0.0885   0.0174   0.0796   0.0199   0.0083   0.0069   0.0122   0.0551   0.0023 </r>
        <r>   9.9645   0.0793   0.0351   0.0942   0.0215   0.0198   0.0093   0.0184   0.0475   0.0061 </r>
        <r>  10.0301   0.0550   0.0463   0.0606   0.0238   0.0266   0.0079   0.0143   0.0256   0.0078 </r>
        <r>  10.0958   0.0358   0.0408   0.0210   0.0274   0.0213   0.0068   0.0065   0.0115   0.0048 </r>
        <r>  10.1614   0.0288   0.0285   0.0055   0.0251   0.0153   0.0064   0.0028   0.0071   0.0016 </r>
        <r>  10.2271   0.0237   0.0140   0.0063   0.0137   0.0090   0.0051   0.0014   0.0051   0.0004 </r>
        <r>  10.2927   0.0357   0.0056   0.0222   0.0055   0.0045   0.0076   0.0010   0.0076   0.0001 </r>
        <r>  10.3584   0.0674   0.0044   0.0457   0.0044   0.0049   0.0126   0.0015   0.0126   0.0000 </r>
        <r>  10.4241   0.0742   0.0038   0.0449   0.0038   0.0052   0.0109   0.0029   0.0109   0.0000 </r>
        <r>  10.4897   0.0668   0.0032   0.0209   0.0030   0.0028   0.0046   0.0080   0.0046   0.0000 </r>
        <r>  10.5554   0.0889   0.0061   0.0065   0.0044   0.0018   0.0022   0.0170   0.0024   0.0006 </r>
        <r>  10.6210   0.1046   0.0174   0.0129   0.0071   0.0066   0.0074   0.0193   0.0093   0.0034 </r>
        <r>  10.6867   0.1084   0.0411   0.0353   0.0119   0.0185   0.0198   0.0152   0.0259   0.0098 </r>
        <r>  10.7523   0.1103   0.0594   0.0462   0.0175   0.0294   0.0266   0.0125   0.0334   0.0144 </r>
        <r>  10.8180   0.0877   0.0556   0.0296   0.0193   0.0307   0.0209   0.0098   0.0206   0.0135 </r>
        <r>  10.8837   0.0731   0.0392   0.0115   0.0161   0.0215   0.0124   0.0094   0.0075   0.0098 </r>
        <r>  10.9493   0.0989   0.0345   0.0080   0.0140   0.0111   0.0100   0.0137   0.0046   0.0097 </r>
        <r>  11.0150   0.1373   0.0562   0.0181   0.0158   0.0105   0.0154   0.0162   0.0070   0.0174 </r>
        <r>  11.0806   0.1588   0.0688   0.0337   0.0137   0.0122   0.0189   0.0150   0.0107   0.0257 </r>
        <r>  11.1463   0.1388   0.0460   0.0417   0.0082   0.0078   0.0147   0.0133   0.0119   0.0228 </r>
        <r>  11.2119   0.0709   0.0169   0.0305   0.0038   0.0027   0.0076   0.0082   0.0079   0.0106 </r>
        <r>  11.2776   0.0222   0.0045   0.0117   0.0020   0.0011   0.0024   0.0028   0.0027   0.0025 </r>
        <r>  11.3433   0.0257   0.0064   0.0050   0.0050   0.0034   0.0005   0.0012   0.0006   0.0010 </r>
        <r>  11.4089   0.0623   0.0158   0.0115   0.0128   0.0085   0.0005   0.0027   0.0022   0.0020 </r>
        <r>  11.4746   0.0832   0.0202   0.0303   0.0176   0.0098   0.0015   0.0062   0.0105   0.0023 </r>
        <r>  11.5402   0.0695   0.0152   0.0534   0.0157   0.0053   0.0029   0.0102   0.0228   0.0021 </r>
        <r>  11.6059   0.0423   0.0086   0.0493   0.0105   0.0015   0.0027   0.0092   0.0223   0.0068 </r>
        <r>  11.6715   0.0159   0.0045   0.0213   0.0055   0.0003   0.0012   0.0039   0.0098   0.0230 </r>
        <r>  11.7372   0.0030   0.0031   0.0042   0.0033   0.0000   0.0003   0.0008   0.0020   0.0364 </r>
        <r>  11.8029   0.0003   0.0019   0.0004   0.0019   0.0000   0.0000   0.0001   0.0002   0.0260 </r>
        <r>  11.8685   0.0000   0.0006   0.0001   0.0006   0.0000   0.0000   0.0000   0.0000   0.0084 </r>
        <r>  11.9342   0.0005   0.0010   0.0013   0.0007   0.0002   0.0001   0.0006   0.0000   0.0023 </r>
        <r>  11.9998   0.0033   0.0061   0.0086   0.0041   0.0014   0.0004   0.0041   0.0001   0.0075 </r>
        <r>  12.0655   0.0098   0.0176   0.0246   0.0120   0.0042   0.0014   0.0118   0.0005   0.0213 </r>
        <r>  12.1312   0.0164   0.0255   0.0324   0.0170   0.0070   0.0039   0.0154   0.0017   0.0280 </r>
[...]
        <r>  0.0001  0.0000  0.0090  0.0003  0.0001  0.0011  0.0022  0.0259  0.0000 </r>
       </set>
       <set comment="band 6">
        <r>  0.0000  0.0000  0.0029  0.0000  0.0009  0.2250  0.0013  0.1537  0.0002 </r>
        <r>  0.0000  0.0000  0.0029  0.0000  0.0009  0.2250  0.0013  0.1537  0.0002 </r>
        <r>  0.0009  0.0087  0.0000  0.0041  0.0036  0.0059  0.0000  0.0017  0.0389 </r>
        <r>  0.0009  0.0087  0.0000  0.0041  0.0036  0.0059  0.0000  0.0017  0.0389 </r>
       </set>
       <set comment="band 7">
        <r>  0.0000  0.0046  0.0003  0.0087  0.0314  0.0009  0.1074  0.0010  0.2317 </r>
        <r>  0.0000  0.0046  0.0003  0.0087  0.0314  0.0009  0.1074  0.0010  0.2317 </r>
        <r>  0.0000  0.0004  0.0044  0.0009  0.0005  0.0000  0.0050  0.0461  0.0000 </r>
        <r>  0.0000  0.0004  0.0044  0.0009  0.0005  0.0000  0.0050  0.0461  0.0000 </r>
       </set>
       <set comment="band 8">
        <r>  0.0298  0.0011  0.0016  0.0026  0.0215  0.0115  0.2092  0.0073  0.0817 </r>
        <r>  0.0298  0.0011  0.0016  0.0026  0.0215  0.0115  0.2092  0.0073  0.0817 </r>
        <r>  0.0023  0.0028  0.0077  0.0026  0.0010  0.0327  0.0032  0.0130  0.0033 </r>
        <r>  0.0023  0.0028  0.0077  0.0026  0.0010  0.0327  0.0032  0.0130  0.0033 </r>
       </set>
       <set comment="band 9">
        <r>  0.0189  0.0001  0.0022  0.0001  0.0067  0.0067  0.3268  0.0000  0.0029 </r>
        <r>  0.0189  0.0001  0.0022  0.0001  0.0067  0.0067  0.3268  0.0000  0.0029 </r>
        <r>  0.0007  0.0028  0.0008  0.0034  0.0002  0.0227  0.0010  0.0403  0.0103 </r>
        <r>  0.0007  0.0028  0.0008  0.0034  0.0002  0.0227  0.0010  0.0403  0.0103 </r>
       </set>
       <set comment="band 10">
        <r>  0.0005  0.0006  0.0019  0.0008  0.0030  0.2328  0.0034  0.1310  0.0001 </r>
        <r>  0.0005  0.0006  0.0019  0.0008  0.0030  0.2328  0.0034  0.1310  0.0001 </r>
        <r>  0.0020  0.0058  0.0003  0.0006  0.0068  0.0085  0.0000  0.0000  0.0592 </r>
        <r>  0.0020  0.0058  0.0003  0.0006  0.0068  0.0085  0.0000  0.0000  0.0592 </r>
       </set>
       <set comment="band 11">
        <r>  0.0370  0.0197  0.0000  0.0173  0.1378  0.0002  0.0306  0.0137  0.0727 </r>
        <r>  0.0370  0.0197  0.0000  0.0173  0.1378  0.0002  0.0306  0.0137  0.0727 </r>
        <r>  0.0009  0.0001  0.0126  0.0002  0.0028  0.0117  0.0006  0.0581  0.0027 </r>
        <r>  0.0009  0.0001  0.0126  0.0002  0.0028  0.0117  0.0006  0.0581  0.0027 </r>
       </set>
       <set comment="band 12">
        <r>  0.0115  0.0202  0.0000  0.0231  0.0575  0.0013  0.0252  0.0014  0.0004 </r>
        <r>  0.0115  0.0202  0.0000  0.0231  0.0575  0.0013  0.0252  0.0014  0.0004 </r>
        <r>  0.0023  0.0001  0.0113  0.0000  0.0111  0.0805  0.0052  0.1781  0.0000 </r>
        <r>  0.0023  0.0001  0.0113  0.0000  0.0111  0.0805  0.0052  0.1781  0.0000 </r>
       </set>
       <set comment="band 13">
        <r>  0.0001  0.0001  0.0159  0.0000  0.0043  0.0146  0.0048  0.0150  0.0001 </r>
        <r>  0.0001  0.0001  0.0159  0.0000  0.0043  0.0146  0.0048  0.0150  0.0001 </r>
        <r>  0.0127  0.0045  0.0000  0.0098  0.0208  0.0383  0.2124  0.0280  0.0481 </r>
        <r>  0.0127  0.0045  0.0000  0.0098  0.0208  0.0383  0.2124  0.0280  0.0481 </r>
       </set>
       <set comment="band 14">
        <r>  0.0000  0.0003  0.0196  0.0000  0.0065  0.0072  0.0043  0.0000  0.0001 </r>
        <r>  0.0000  0.0003  0.0196  0.0000  0.0065  0.0072  0.0043  0.0000  0.0001 </r>
        <r>  0.0035  0.0050  0.0000  0.0100  0.0019  0.0493  0.0290  0.0212  0.2754 </r>
        <r>  0.0035  0.0050  0.0000  0.0100  0.0019  0.0493  0.0290  0.0212  0.2754 </r>
       </set>
       <set comment="band 15">
        <r>  0.0001  0.0003  0.0107  0.0001  0.0002  0.0028  0.0000  0.0003  0.0007 </r>
        <r>  0.0001  0.0003  0.0107  0.0001  0.0002  0.0028  0.0000  0.0003  0.0007 </r>
        <r>  0.0048  0.0051  0.0000  0.0051  0.2627  0.0279  0.0408  0.0088  0.0816 </r>
        <r>  0.0048  0.0051  0.0000  0.0051  0.2627  0.0279  0.0408  0.0088  0.0816 </r>
       </set>
       <set comment="band 16">
        <r>  0.0000  0.0000  0.0007  0.0000  0.0000  0.0049  0.0000  0.0042  0.0013 </r>
        <r>  0.0000  0.0000  0.0007  0.0000  0.0000  0.0049  0.0000  0.0042  0.0013 </r>
        <r>  0.0001  0.0012  0.0001  0.0000  0.1797  0.0028  0.2516  0.0000  0.0284 </r>
        <r>  0.0001  0.0012  0.0001  0.0000  0.1797  0.0028  0.2516  0.0000  0.0284 </r>
       </set>
       <set comment="band 17">
        <r>  0.0001  0.0009  0.0000  0.0001  0.0234  0.0102  0.0234  0.0006  0.0090 </r>
        <r>  0.0001  0.0009  0.0000  0.0001  0.0234  0.0102  0.0234  0.0006  0.0090 </r>
        <r>  0.0000  0.0002  0.0007  0.0003  0.1022  0.1762  0.1165  0.0020  0.0189 </r>
        <r>  0.0000  0.0002  0.0007  0.0003  0.1022  0.1762  0.1165  0.0020  0.0189 </r>
       </set>
       <set comment="band 18">
        <r>  0.0007  0.0001  0.0006  0.0001  0.1096  0.0036  0.0711  0.0054  0.0047 </r>
        <r>  0.0007  0.0001  0.0006  0.0001  0.1096  0.0036  0.0711  0.0054  0.0047 </r>
        <r>  0.0000  0.0005  0.0001  0.0005  0.0130  0.2283  0.0127  0.0058  0.0300 </r>
        <r>  0.0000  0.0005  0.0001  0.0005  0.0130  0.2283  0.0127  0.0058  0.0300 </r>
       </set>
       <set comment="band 19">
        <r>  0.0001  0.0006  0.0008  0.0002  0.0042  0.0450  0.0044  0.0071  0.0234 </r>
        <r>  0.0001  0.0006  0.0008  0.0002  0.0042  0.0450  0.0044  0.0071  0.0234 </r>
        <r>  0.0001  0.0003  0.0006  0.0001  0.0413  0.1455  0.0420  0.0298  0.1436 </r>
        <r>  0.0001  0.0003  0.0006  0.0001  0.0413  0.1455  0.0420  0.0298  0.1436 </r>
       </set>
       <set comment="band 20">
        <r>  0.0000  0.0001  0.0000  0.0001  0.0001  0.0279  0.0000  0.0019  0.0048 </r>
        <r>  0.0000  0.0001  0.0000  0.0001  0.0001  0.0279  0.0000  0.0019  0.0048 </r>
        <r>  0.0000  0.0000  0.0001  0.0002  0.2381  0.0248  0.1703  0.0094  0.0134 </r>
        <r>  0.0000  0.0000  0.0001  0.0002  0.2381  0.0248  0.1703  0.0094  0.0134 </r>
       </set>
       <set comment="band 21">
        <r>  0.0114  0.0020  0.0041  0.0050  0.0007  0.0019  0.0128  0.0457  0.0371 </r>
        <r>  0.0114  0.0020  0.0041  0.0050  0.0007  0.0019  0.0128  0.0457  0.0371 </r>
        <r>  0.0061  0.0010  0.0041  0.0034  0.0019  0.0008  0.0240  0.2062  0.1009 </r>
        <r>  0.0061  0.0010  0.0041  0.0034  0.0019  0.0008  0.0240  0.2062  0.1009 </r>
       </set>
       <set comment="band 22">
        <r>  0.0422  0.0119  0.0091  0.0268  0.0097  0.0022  0.0002  0.0392  0.0412 </r>
        <r>  0.0422  0.0119  0.0091  0.0268  0.0097  0.0022  0.0002  0.0392  0.0412 </r>
        <r>  0.0124  0.0038  0.0134  0.0116  0.0029  0.0010  0.0004  0.1350  0.0465 </r>
        <r>  0.0124  0.0038  0.0134  0.0116  0.0029  0.0010  0.0004  0.1350  0.0465 </r>
       </set>
       <set comment="band 23">
        <r>  0.0218  0.0059  0.0365  0.0079  0.0009  0.0021  0.0243  0.0663  0.0074 </r>
        <r>  0.0218  0.0059  0.0365  0.0079  0.0009  0.0021  0.0243  0.0663  0.0074 </r>
        <r>  0.0273  0.0115  0.0132  0.0175  0.0042  0.0089  0.0355  0.0691  0.0260 </r>
        <r>  0.0273  0.0115  0.0132  0.0175  0.0042  0.0089  0.0355  0.0691  0.0260 </r>
       </set>
       <set comment="band 24">
        <r>  0.0132  0.0143  0.0471  0.0183  0.0004  0.0032  0.0097  0.0513  0.0139 </r>
        <r>  0.0132  0.0143  0.0471  0.0183  0.0004  0.0032  0.0097  0.0513  0.0139 </r>
        <r>  0.0125  0.0238  0.0157  0.0320  0.0009  0.0000  0.0075  0.0352  0.0386 </r>
        <r>  0.0125  0.0238  0.0157  0.0320  0.0009  0.0000  0.0075  0.0352  0.0386 </r>
       </set>
       <set comment="band 25">
        <r>  0.1194  0.0331  0.0000  0.0074  0.0517  0.0179  0.0027  0.0161  0.0077 </r>
        <r>  0.1194  0.0331  0.0000  0.0074  0.0517  0.0179  0.0027  0.0161  0.0077 </r>
        <r>  0.0634  0.0062  0.0076  0.0000  0.0095  0.0364  0.0001  0.0129  0.0005 </r>
        <r>  0.0633  0.0062  0.0076  0.0000  0.0095  0.0364  0.0001  0.0129  0.0005 </r>
       </set>
       <set comment="band 26">
        <r>  0.0792  0.0318  0.0032  0.0201  0.0384  0.0195  0.0036  0.0144  0.0030 </r>
        <r>  0.0792  0.0318  0.0032  0.0201  0.0384  0.0195  0.0036  0.0144  0.0030 </r>
        <r>  0.0632  0.0170  0.0133  0.0091  0.0147  0.0185  0.0005  0.0108  0.0006 </r>
        <r>  0.0632  0.0170  0.0133  0.0091  0.0147  0.0185  0.0005  0.0108  0.0006 </r>
       </set>
      </set>
      <set comment="kpoint 18">
       <set comment="band 1">
        <r>  0.0245  0.0006  0.0019  0.0006  0.0464  0.1171  0.0051  0.1171  0.0000 </r>
        <r>  0.0245  0.0006  0.0019  0.0006  0.0464  0.1171  0.0051  0.1171  0.0000 </r>
        <r>  0.0525  0.0004  0.0000  0.0004  0.0178  0.0059  0.0007  0.0059  0.0000 </r>
        <r>  0.0525  0.0004  0.0000  0.0004  0.0178  0.0059  0.0007  0.0059  0.0000 </r>
       </set>
       <set comment="band 2">
        <r>  0.0000  0.0003  0.0000  0.0003  0.0000  0.1588  0.0000  0.1588  0.0003 </r>
        <r>  0.0000  0.0003  0.0000  0.0003  0.0000  0.1588  0.0000  0.1588  0.0003 </r>
        <r>  0.0564  0.0008  0.0004  0.0008  0.0235  0.0001  0.0011  0.0001  0.0000 </r>
        <r>  0.0564  0.0008  0.0004  0.0008  0.0235  0.0001  0.0011  0.0001  0.0000 </r>
       </set>
       <set comment="band 3">
        <r>  0.0658  0.0000  0.0003  0.0000  0.1898  0.0356  0.0309  0.0356  0.0000 </r>
        <r>  0.0658  0.0000  0.0003  0.0000  0.1898  0.0356  0.0309  0.0356  0.0000 </r>
        <r>  0.0107  0.0003  0.0021  0.0003  0.0066  0.0180  0.0000  0.0180  0.0000 </r>
        <r>  0.0107  0.0003  0.0021  0.0003  0.0066  0.0180  0.0000  0.0180  0.0000 </r>
       </set>
       <set comment="band 4">
        <r>  0.0819  0.0017  0.0000  0.0017  0.2430  0.0000  0.0311  0.0000  0.0000 </r>
        <r>  0.0819  0.0017  0.0000  0.0017  0.2430  0.0000  0.0311  0.0000  0.0000 </r>
        <r>  0.0000  0.0006  0.0000  0.0006  0.0000  0.0284  0.0000  0.0284  0.0000 </r>
        <r>  0.0000  0.0006  0.0000  0.0006  0.0000  0.0284  0.0000  0.0284  0.0000 </r>
       </set>
       <set comment="band 5">
        <r>  0.0000  0.0017  0.0000  0.0017  0.0000  0.0005  0.0000  0.0005  0.3932 </r>
        <r>  0.0000  0.0017  0.0000  0.0017  0.0000  0.0005  0.0000  0.0005  0.3932 </r>
        <r>  0.0001  0.0001  0.0040  0.0001  0.0001  0.0247  0.0011  0.0247  0.0000 </r>
        <r>  0.0001  0.0001  0.0040  0.0001  0.0001  0.0247  0.0011  0.0247  0.0000 </r>
       </set>
       <set comment="band 6">
        <r>  0.0000  0.0001  0.0000  0.0001  0.0000  0.0008  0.0000  0.0008  0.3892 </r>
        <r>  0.0000  0.0001  0.0000  0.0001  0.0000  0.0008  0.0000  0.0008  0.3892 </r>
        <r>  0.0000  0.0001  0.0000  0.0001  0.0000  0.0365  0.0000  0.0365  0.0006 </r>
        <r>  0.0000  0.0001  0.0000  0.0001  0.0000  0.0365  0.0000  0.0365  0.0006 </r>
       </set>
       <set comment="band 7">
        <r>  0.0208  0.0000  0.0008  0.0000  0.0035  0.0010  0.3238  0.0010  0.0000 </r>
        <r>  0.0208  0.0000  0.0008  0.0000  0.0035  0.0010  0.3238  0.0010  0.0000 </r>
        <r>  0.0003  0.0023  0.0004  0.0023  0.0001  0.0454  0.0017  0.0454  0.0000 </r>
        <r>  0.0003  0.0023  0.0004  0.0023  0.0001  0.0454  0.0017  0.0454  0.0000 </r>
       </set>
       <set comment="band 8">
        <r>  0.0189  0.0000  0.0005  0.0000  0.0058  0.0056  0.3115  0.0056  0.0000 </r>
        <r>  0.0189  0.0000  0.0005  0.0000  0.0058  0.0056  0.3115  0.0056  0.0000 </r>
        <r>  0.0000  0.0013  0.0000  0.0013  0.0000  0.0460  0.0000  0.0460  0.0103 </r>
        <r>  0.0000  0.0013  0.0000  0.0013  0.0000  0.0460  0.0000  0.0460  0.0103 </r>
       </set>
       <set comment="band 9">
        <r>  0.0011  0.0000  0.0013  0.0000  0.0000  0.1759  0.0153  0.1759  0.0000 </r>
        <r>  0.0011  0.0000  0.0013  0.0000  0.0000  0.1759  0.0153  0.1759  0.0000 </r>
        <r>  0.0000  0.0029  0.0000  0.0029  0.0000  0.0003  0.0000  0.0003  0.0847 </r>
        <r>  0.0000  0.0029  0.0000  0.0029  0.0000  0.0003  0.0000  0.0003  0.0847 </r>
       </set>
       <set comment="band 10">
        <r>  0.0000  0.0000  0.0000  0.0000  0.0000  0.1760  0.0000  0.1760  0.0024 </r>
        <r>  0.0000  0.0000  0.0000  0.0000  0.0000  0.1760  0.0000  0.1760  0.0024 </r>
        <r>  0.0000  0.0002  0.0000  0.0002  0.0000  0.0000  0.0000  0.0000  0.1143 </r>
        <r>  0.0000  0.0002  0.0000  0.0002  0.0000  0.0000  0.0000  0.0000  0.1143 </r>
       </set>
       <set comment="band 11">
        <r>  0.0001  0.0000  0.0010  0.0000  0.0021  0.0097  0.0001  0.0097  0.0000 </r>
        <r>  0.0001  0.0000  0.0010  0.0000  0.0021  0.0097  0.0001  0.0097  0.0000 </r>
        <r>  0.0017  0.0005  0.0000  0.0005  0.1732  0.0030  0.2639  0.0030  0.0000 </r>
        <r>  0.0017  0.0005  0.0000  0.0005  0.1732  0.0030  0.2639  0.0030  0.0000 </r>
       </set>
       <set comment="band 12">
        <r>  0.0000  0.0000  0.0000  0.0000  0.0000  0.0079  0.0000  0.0079  0.0005 </r>
        <r>  0.0000  0.0000  0.0000  0.0000  0.0000  0.0079  0.0000  0.0079  0.0005 </r>
        <r>  0.0009  0.0002  0.0001  0.0002  0.1967  0.0000  0.2583  0.0000  0.0000 </r>
        <r>  0.0009  0.0002  0.0001  0.0002  0.1967  0.0000  0.2583  0.0000  0.0000 </r>
       </set>
       <set comment="band 13">
        <r>  0.0199  0.0280  0.0010  0.0280  0.1351  0.0054  0.0460  0.0054  0.0000 </r>
        <r>  0.0199  0.0280  0.0010  0.0280  0.1351  0.0054  0.0460  0.0054  0.0000 </r>
        <r>  0.0015  0.0004  0.0216  0.0004  0.0354  0.0341  0.0096  0.0341  0.0000 </r>
        <r>  0.0015  0.0004  0.0216  0.0004  0.0354  0.0341  0.0096  0.0341  0.0000 </r>
       </set>
       <set comment="band 14">
        <r>  0.0000  0.0000  0.0213  0.0000  0.0344  0.0111  0.0140  0.0111  0.0000 </r>
        <r>  0.0000  0.0000  0.0213  0.0000  0.0344  0.0111  0.0140  0.0111  0.0000 </r>
        <r>  0.0000  0.0119  0.0000  0.0119  0.0000  0.0641  0.0000  0.0641  0.1896 </r>
        <r>  0.0000  0.0119  0.0000  0.0119  0.0000  0.0641  0.0000  0.0641  0.1896 </r>
       </set>
       <set comment="band 15">
        <r>  0.0000  0.0208  0.0000  0.0208  0.0000  0.0048  0.0000  0.0048  0.0119 </r>
        <r>  0.0000  0.0208  0.0000  0.0208  0.0000  0.0048  0.0000  0.0048  0.0119 </r>
        <r>  0.0027  0.0000  0.0152  0.0000  0.0367  0.1384  0.0401  0.1384  0.0000 </r>
        <r>  0.0027  0.0000  0.0152  0.0000  0.0367  0.1384  0.0401  0.1384  0.0000 </r>
       </set>
       <set comment="band 16">
        <r>  0.0160  0.0175  0.0353  0.0175  0.0010  0.0034  0.0007  0.0034  0.0000 </r>
        <r>  0.0160  0.0175  0.0353  0.0175  0.0010  0.0034  0.0007  0.0034  0.0000 </r>
        <r>  0.0171  0.0230  0.0138  0.0230  0.0520  0.0559  0.0029  0.0559  0.0000 </r>
        <r>  0.0171  0.0230  0.0138  0.0230  0.0520  0.0559  0.0029  0.0559  0.0000 </r>
       </set>
       <set comment="band 17">
        <r>  0.0000  0.0008  0.0000  0.0008  0.0277  0.0105  0.0310  0.0105  0.0000 </r>
        <r>  0.0000  0.0008  0.0000  0.0008  0.0277  0.0105  0.0310  0.0105  0.0000 </r>
        <r>  0.0001  0.0000  0.0011  0.0000  0.1688  0.0311  0.1747  0.0311  0.0000 </r>
        <r>  0.0001  0.0000  0.0011  0.0000  0.1688  0.0311  0.1747  0.0311  0.0000 </r>
       </set>
       <set comment="band 18">
        <r>  0.0009  0.0000  0.0008  0.0000  0.0939  0.0233  0.0793  0.0233  0.0000 </r>
        <r>  0.0009  0.0000  0.0008  0.0000  0.0939  0.0233  0.0793  0.0233  0.0000 </r>
        <r>  0.0000  0.0006  0.0000  0.0006  0.0000  0.0625  0.0000  0.0625  0.1418 </r>
        <r>  0.0000  0.0006  0.0000  0.0006  0.0000  0.0625  0.0000  0.0625  0.1418 </r>
       </set>
       <set comment="band 19">
        <r>  0.0000  0.0001  0.0000  0.0001  0.0000  0.0243  0.0000  0.0243  0.0427 </r>
        <r>  0.0000  0.0001  0.0000  0.0001  0.0000  0.0243  0.0000  0.0243  0.0427 </r>
        <r>  0.0000  0.0000  0.0000  0.0000  0.0000  0.1171  0.0000  0.1171  0.1660 </r>
        <r>  0.0000  0.0000  0.0000  0.0000  0.0000  0.1171  0.0000  0.1171  0.1660 </r>
       </set>
       <set comment="band 20">
        <r>  0.0000  0.0000  0.0000  0.0000  0.0000  0.0105  0.0000  0.0105  0.0169 </r>
        <r>  0.0000  0.0000  0.0000  0.0000  0.0000  0.0105  0.0000  0.0105  0.0169 </r>
        <r>  0.0000  0.0000  0.0000  0.0000  0.1905  0.0475  0.1697  0.0475  0.0000 </r>
        <r>  0.0000  0.0000  0.0000  0.0000  0.1905  0.0475  0.1697  0.0475  0.0000 </r>
       </set>
       <set comment="band 21">
        <r>  0.0000  0.0000  0.0000  0.0000  0.0000  0.0372  0.0000  0.0372  0.0340 </r>
        <r>  0.0000  0.0000  0.0000  0.0000  0.0000  0.0372  0.0000  0.0372  0.0340 </r>
        <r>  0.0000  0.0000  0.0000  0.0000  0.0000  0.0907  0.0000  0.0907  0.2037 </r>
        <r>  0.0000  0.0000  0.0000  0.0000  0.0000  0.0907  0.0000  0.0907  0.2037 </r>
       </set>
       <set comment="band 22">
        <r>  0.0000  0.0654  0.0000  0.0654  0.0000  0.0012  0.0000  0.0012  0.0427 </r>
        <r>  0.0000  0.0654  0.0000  0.0654  0.0000  0.0012  0.0000  0.0012  0.0427 </r>
        <r>  0.0115  0.0002  0.0488  0.0002  0.0225  0.0338  0.0103  0.0338  0.0000 </r>
        <r>  0.0115  0.0002  0.0488  0.0002  0.0225  0.0338  0.0103  0.0338  0.0000 </r>
       </set>
       <set comment="band 23">
        <r>  0.0056  0.0210  0.0484  0.0210  0.0091  0.0076  0.0326  0.0076  0.0000 </r>
        <r>  0.0056  0.0210  0.0484  0.0210  0.0091  0.0076  0.0326  0.0076  0.0000 </r>
        <r>  0.0042  0.0293  0.0226  0.0293  0.0113  0.0217  0.0277  0.0217  0.0000 </r>
        <r>  0.0042  0.0293  0.0226  0.0293  0.0113  0.0217  0.0277  0.0217  0.0000 </r>
       </set>
       <set comment="band 24">
        <r>  0.0142  0.0001  0.0602  0.0001  0.0376  0.0218  0.0211  0.0218  0.0000 </r>
        <r>  0.0142  0.0001  0.0602  0.0001  0.0376  0.0218  0.0211  0.0218  0.0000 </r>
        <r>  0.0000  0.0454  0.0000  0.0454  0.0000  0.0003  0.0000  0.0003  0.0572 </r>
        <r>  0.0000  0.0454  0.0000  0.0454  0.0000  0.0003  0.0000  0.0003  0.0572 </r>
       </set>
       <set comment="band 25">
        <r>  0.2075  0.0008  0.0138  0.0008  0.0779  0.0005  0.0002  0.0005  0.0000 </r>
        <r>  0.2074  0.0008  0.0138  0.0008  0.0779  0.0005  0.0002  0.0005  0.0000 </r>
        <r>  0.0000  0.0048  0.0000  0.0048  0.0000  0.0533  0.0000  0.0533  0.0005 </r>
        <r>  0.0000  0.0048  0.0000  0.0048  0.0000  0.0533  0.0000  0.0533  0.0005 </r>
       </set>
       <set comment="band 26">
        <r>  0.1498  0.0132  0.0007  0.0132  0.0664  0.0142  0.0016  0.0140  0.0000 </r>
        <r>  0.1498  0.0132  0.0007  0.0132  0.0664  0.0140  0.0016  0.0142  0.0000 </r>
        <r>  0.0486  0.0005  0.0063  0.0005  0.0084  0.0341  0.0000  0.0341  0.0000 </r>
        <r>  0.0492  0.0005  0.0063  0.0005  0.0083  0.0341  0.0000  0.0341  0.0000 </r>
       </set>
      </set>
     </set>
    </set>
   </array>
  </projected>
 </calculation>
 <structure name="finalpos"">
  <crystal>
   <varray name="basis"">
    <v>       3.98545848      0.00000000      0.00000000</v>
    <v>       0.00000000      3.98545848      0.00000000</v>
    <v>       0.00000000      0.00000000      3.80764344</v>
   </varray>
   <i name="volume""     60.48014867</i>
   <varray name="rec_basis"">
    <v>       0.25091216      0.00000000      0.00000000</v>
    <v>       0.00000000      0.25091216      0.00000000</v>
    <v>       0.00000000      0.00000000      0.26262963</v>
   </varray>
  </crystal>
  <varray name="positions"">
   <v>       0.00000000      0.00000000      0.00000000</v>
   <v>       0.50000000      0.50000000      0.00000000</v>
   <v>       0.50000000      0.00000000      0.50000000</v>
   <v>       0.00000000      0.50000000      0.50000000</v>
  </varray>
 </structure>
</modeling>
