----- GAMESS execution script 'rungms' -----
This job is running on host d12chas532.crc.nd.edu
under operating system Linux at Sun Oct 6 23:47:18 EDT 2019
SGE has assigned the following compute nodes to this run:
Available scratch disk space (Kbyte units) at beginning of the job is
Filesystem      1K-blocks     Used  Available Use% Mounted on
/dev/sda2      1949705068 68228932 1881476136   4% /
GAMESS temporary binary files will be written to /tmp/474121.1.debug
GAMESS supplementary output files will be written to /afs/crc.nd.edu/user/w/wschnei1/scr
Copying input file product-PC1.inp to your run's scratch directory...
reading your own /afs/crc.nd.edu/user/w/wschnei1/.gmsrc

 Distributed Data Interface kickoff program.
 Initiating 1 compute processes on 1 nodes to run the following command:
 /afs/crc.nd.edu/x86_64_linux/g/gamess/nov-2017/gamess/gamess.00.x product-PC1 

          ******************************************************
          *         GAMESS VERSION = 11 NOV 2017 (R3)         *
          *             FROM IOWA STATE UNIVERSITY             *
          * M.W.SCHMIDT, K.K.BALDRIDGE, J.A.BOATZ, S.T.ELBERT, *
          *   M.S.GORDON, J.H.JENSEN, S.KOSEKI, N.MATSUNAGA,   *
          *          K.A.NGUYEN, S.J.SU, T.L.WINDUS,           *
          *       TOGETHER WITH M.DUPUIS, J.A.MONTGOMERY       *
          *         J.COMPUT.CHEM.  14, 1347-1363(1993)        *
          **************** 64 BIT INTEL VERSION ****************

  SINCE 1993, STUDENTS AND POSTDOCS WORKING AT IOWA STATE UNIVERSITY
  AND ALSO IN THEIR VARIOUS JOBS AFTER LEAVING ISU HAVE MADE IMPORTANT
  CONTRIBUTIONS TO THE CODE:
     IVANA ADAMOVIC, CHRISTINE AIKENS, YURI ALEXEEV, POOJA ARORA,
     ANDREY ASADCHEV, ROB BELL, PRADIPTA BANDYOPADHYAY, JONATHAN BENTZ,
     BRETT BODE, KURT BRORSEN, CALEB CARLIN, GALINA CHABAN, WEI CHEN,
     CHEOL HO CHOI, PAUL DAY, ALBERT DEFUSCO, NUWAN DESILVA, TIM DUDLEY,
     DMITRI FEDOROV, ALEX FINDLATER, GRAHAM FLETCHER, MARK FREITAG,
     KURT GLAESEMANN, ANASTASIA GUININA,
     DAN KEMP, GRANT MERRILL, NORIYUKI MINEZAWA, JONATHAN MULLIN,
     TAKESHI NAGATA, SEAN NEDD, HEATHER NETZLOFF, BOSILJKA NJEGIC, RYAN OLSON,
     MIKE PAK, BUU PHAM,
     SPENCER PRUITT, LUKE ROSKOP, JIM SHOEMAKER, LYUDMILA SLIPCHENKO,
     TONY SMITH, SAROM SOK LEANG, JIE SONG, TETSUYA TAKETSUGU, SIMON WEBB,
     PENG XU, SOOHAENG YOO, FEDERICO ZAHARIEV

  ADDITIONAL CODE HAS BEEN PROVIDED BY COLLABORATORS IN OTHER GROUPS:
     IOWA STATE UNIVERSITY:
          JOE IVANIC, AARON WEST, LAIMUTIS BYTAUTAS, KLAUS RUEDENBERG
     UNIVERSITY OF TOKYO: KIMIHIKO HIRAO, TAKAHITO NAKAJIMA,
          TAKAO TSUNEDA, MUNEAKI KAMIYA, SUSUMU YANAGISAWA,
          KIYOSHI YAGI, MAHITO CHIBA, SEIKEN TOKURA, NAOAKI KAWAKAMI
     UNIVERSITY OF AARHUS: FRANK JENSEN
     UNIVERSITY OF IOWA: VISVALDAS KAIRYS, HUI LI
     NATIONAL INST. OF STANDARDS AND TECHNOLOGY: WALT STEVENS, DAVID GARMER
     UNIVERSITY OF PISA: BENEDETTA MENNUCCI, JACOPO TOMASI
     UNIVERSITY OF MEMPHIS: HENRY KURTZ, PRAKASHAN KORAMBATH
     UNIVERSITY OF ALBERTA: TOBY ZENG, MARIUSZ KLOBUKOWSKI
     UNIVERSITY OF NEW ENGLAND: MARK SPACKMAN
     MIE UNIVERSITY: HIROAKI UMEDA
     NAT. INST. OF ADVANCED INDUSTRIAL SCIENCE AND TECHNOLOGY: KAZUO KITAURA
     MICHIGAN STATE UNIVERSITY:
          KAROL KOWALSKI, MARTA WLOCH, JEFFREY GOUR, JESSE LUTZ,
          WEI LI, PIOTR PIECUCH
     UNIVERSITY OF SILESIA: MONIKA MUSIAL, STANISLAW KUCHARSKI
     FACULTES UNIVERSITAIRES NOTRE-DAME DE LA PAIX:
          OLIVIER QUINET, BENOIT CHAMPAGNE
     UNIVERSITY OF CALIFORNIA - SANTA BARBARA: BERNARD KIRTMAN
     INSTITUTE FOR MOLECULAR SCIENCE:
          KAZUYA ISHIMURA, MICHIO KATOUDA, AND SHIGERU NAGASE
     UNIVERSITY OF NOTRE DAME: ANNA POMOGAEVA, DAN CHIPMAN
     KYUSHU UNIVERSITY:
          HARUYUKI NAKANO,
          FENG LONG GU, JACEK KORCHOWIEC, MARCIN MAKOWSKI, AND YURIKO AOKI,
          HIROTOSHI MORI AND EISAKU MIYOSHI
     PENNSYLVANIA STATE UNIVERSITY:
          TZVETELIN IORDANOV, CHET SWALINA, JONATHAN SKONE,
          SHARON HAMMES-SCHIFFER
     WASEDA UNIVERSITY:
          MASATO KOBAYASHI, TOMOKO AKAMA, TSUGUKI TOUMA,
          TAKESHI YOSHIKAWA, YASUHIRO IKABATA, JUNJI SEINO,
          YUYA NAKAJIMA, HIROMI NAKAI
     NANJING UNIVERSITY: SHUHUA LI
     UNIVERSITY OF NEBRASKA:
          PEIFENG SU, DEJUN SI, NANDUN THELLAMUREGE, YALI WANG, HUI LI
     UNIVERSITY OF ZURICH: ROBERTO PEVERATI, KIM BALDRIDGE
     N. COPERNICUS UNIVERSITY AND JACKSON STATE UNIVERSITY:
          MARIA BARYSZ
     UNIVERSITY OF COPENHAGEN: Jimmy Kromann, CASPER STEINMANN
     TOKYO INSTITUTE OF TECHNOLOGY: HIROYA NAKATA
     NAGOYA UNIVERSITY: YOSHIO NISHIMOTO, STEPHAN IRLE
     MOSCOW STATE UNIVERSITY: VLADIMIR MIRONOV

 EXECUTION OF GAMESS BEGUN Sun Oct  6 23:47:19 2019

            ECHO OF THE FIRST FEW INPUT CARDS -
 INPUT CARD> $CONTRL SCFTYP=RHF DFTTYP=PBE RUNTYP=OPTIMIZE COORD=CART ISPHER=1 $END         
 INPUT CARD> $BASIS GBASIS=PCseg-1 $END                                                     
 INPUT CARD> $DATA                                                                          
 INPUT CARD>H2ON2                                                                           
 INPUT CARD>C1 1                                                                            
 INPUT CARD>N 7 0.00000000 0.00000000 0.00000000                                            
 INPUT CARD>N 7 -1.21788342 -0.56515143 -0.01936524                                         
 INPUT CARD>O 8 -2.14322565 0.24080023 -0.00200729                                          
 INPUT CARD>H 1 -1.68759184 1.11459827 -0.49075552                                          
 INPUT CARD>H 1 0.80349912 -0.62947370 -0.01451607                                          
 INPUT CARD> $END                                                                           
    1000000 WORDS OF MEMORY AVAILABLE


                    * * * WARNING * * *
 OLD KEYWORD COORD=CART SELECTED, AUTOMATICALLY CHANGED TO COORD=PRINAXIS.
 YOUR MOLECULE'S COORDINATES WILL BE CHANGED TO PRINCIPAL AXES BY
   A) TRANSLATION TO THE CENTER OF MASS, THEN
   B) ROTATION TO HAVE A DIAGONAL MOMENT OF INERTIA TENSOR.

 HOWEVER, NOTHING ELSE IN YOUR INPUT WILL BE ROTATED IN THE SAME WAY,
 SO IF YOU HAVE A $VEC, $VIB, $GRAD, $HESS, EFP PARTICLE COORDINATES,
 OR ANYTHING ELSE THAT DEPENDS ON THE INITIAL ORIENTATION, THAT DATA
 WILL NOT BE USED CORRECTLY IN THIS RUN.

 THE PURPOSE OF COORD=PRINAXIS IS TO BE USED ONCE, ONLY AT THE VERY
 BEGINNING OF A SERIES OF COMPUTATIONS, PERHAPS TO FIND THE SYMMETRY
 UNIQUE ATOMS FROM AN ARBITRARY INITIAL ORIENTATION.

 AFTER THE FIRST RUN, YOU SHOULD USE ONLY COORD=UNIQUE, TO ENSURE THAT
 THE COORDINATES WHICH YOU READ IN ARE THE COORDINATES THAT ARE USED.


     BASIS OPTIONS
     -------------
     GBASIS=PCSEG-1      IGAUSS=       0      POLAR=NONE    
     NDFUNC=       0     NFFUNC=       0     DIFFSP=       F
     NPFUNC=       0      DIFFS=       F     BASNAM=        


     RUN TITLE
     ---------
 H2ON2                                                                           

 THE POINT GROUP OF THE MOLECULE IS C1      
 THE ORDER OF THE PRINCIPAL AXIS IS     1

 THE MOMENTS OF INERTIA ARE (AMU-ANGSTROM**2)
 IXX=     6.211   IYY=    39.488   IZZ=    45.295

 ATOM      ATOMIC                      COORDINATES (BOHR)
           CHARGE         X                   Y                   Z
 N           7.0    -2.0965384030       -0.4740606407        0.0471407936
 N           7.0     0.0126329435        0.9318570385       -0.0688789003
 O           8.0     1.9751120650       -0.2961744668        0.0691688979
 H           1.0     1.3881403899       -2.1216069827       -0.7334818683
 H           1.0    -3.7800890874        0.4613276055       -0.0622416610

          INTERNUCLEAR DISTANCES (ANGS.)
          ------------------------------

                1 N          2 N          3 O          4 H          5 H     

   1 N       0.0000000    1.3427625 *  2.1567116 *  2.0811383 *  1.0208128 *
   2 N       1.3427625 *  0.0000000    1.2272398 *  1.8067634 *  2.0224115 *
   3 O       2.1567116 *  1.2272398 *  0.0000000    1.1000000 *  3.0725755  
   4 H       2.0811383 *  1.8067634 *  1.1000000 *  0.0000000    3.0780067  
   5 H       1.0208128 *  2.0224115 *  3.0725755    3.0780067    0.0000000  

  * ... LESS THAN  3.000


     ATOMIC BASIS SET
     ----------------
 THE CONTRACTED PRIMITIVE FUNCTIONS HAVE BEEN UNNORMALIZED
 THE CONTRACTED BASIS FUNCTIONS ARE NOW NORMALIZED TO UNITY

  SHELL TYPE  PRIMITIVE        EXPONENT          CONTRACTION COEFFICIENT(S)

 N         

      1   S       1          1726.3200000    0.005526692708
      1   S       2           259.8270000    0.041238777833
      1   S       3            59.0335000    0.182735518857
      1   S       4            16.3509000    0.465933825414
      1   S       5             4.9108400    0.450079961070

      2   S       6             7.7589400   -0.147940502099
      2   S       7             0.7055730    1.051675837690

      3   S       8             0.2092860    1.000000000000

      4   P       9            13.1844000    0.064862763118
      4   P      10             2.8186000    0.339184155940
      4   P      11             0.7655710    0.735827618992

      5   P      12             0.1959490    1.000000000000

      6   D      13             0.9000000    1.000000000000

 N         

      7   S      14          1726.3200000    0.005526692708
      7   S      15           259.8270000    0.041238777833
      7   S      16            59.0335000    0.182735518857
      7   S      17            16.3509000    0.465933825414
      7   S      18             4.9108400    0.450079961070

      8   S      19             7.7589400   -0.147940502099
      8   S      20             0.7055730    1.051675837690

      9   S      21             0.2092860    1.000000000000

     10   P      22            13.1844000    0.064862763118
     10   P      23             2.8186000    0.339184155940
     10   P      24             0.7655710    0.735827618992

     11   P      25             0.1959490    1.000000000000

     12   D      26             0.9000000    1.000000000000

 O         

     13   S      27          2288.6400000    0.005451138222
     13   S      28           344.4160000    0.040718922842
     13   S      29            78.2538000    0.181369420873
     13   S      30            21.7195000    0.465536820246
     13   S      31             6.5590700    0.451211321214

     14   S      32            10.4656000   -0.150211201174
     14   S      33             0.9643510    1.052867983385

     15   S      34             0.2851270    1.000000000000

     16   P      35            17.0590000    0.068749256972
     16   P      36             3.6899900    0.351671941499
     16   P      37             0.9929960    0.724532099722

     17   P      38             0.2449240    1.000000000000

     18   D      39             1.0000000    1.000000000000

 H         

     19   S      40            12.2518000    0.037217389296
     19   S      41             1.8687100    0.253808206955
     19   S      42             0.4182080    0.797386763917

     20   S      43             0.1061000    1.000000000000

     21   P      44             1.0000000    1.000000000000

 H         

     22   S      45            12.2518000    0.037217389296
     22   S      46             1.8687100    0.253808206955
     22   S      47             0.4182080    0.797386763917

     23   S      48             0.1061000    1.000000000000

     24   P      49             1.0000000    1.000000000000

 TOTAL NUMBER OF BASIS SET SHELLS             =   24
 NUMBER OF CARTESIAN GAUSSIAN BASIS FUNCTIONS =   55
 NOTE: THIS RUN WILL RESTRICT THE MO VARIATION SPACE TO SPHERICAL HARMONICS.
 THE NUMBER OF ORBITALS KEPT IN THE VARIATIONAL SPACE WILL BE PRINTED LATER.
 NUMBER OF ELECTRONS                          =   24
 CHARGE OF MOLECULE                           =    0
 SPIN MULTIPLICITY                            =    1
 NUMBER OF OCCUPIED ORBITALS (ALPHA)          =   12
 NUMBER OF OCCUPIED ORBITALS (BETA )          =   12
 TOTAL NUMBER OF ATOMS                        =    5
 THE NUCLEAR REPULSION ENERGY IS       71.8865618321

     LEBEDEV GRID-BASED DFT OPTIONS
     ------------------------------
     DFTTYP=PBE     
     NRAD  =      96     NLEB  =     302
     NRAD0 =      24     NLEB0 =     110
     SWOFF =    5.00E-03 (PURE SCF -> DFT)
     SWITCH=    3.00E-04 (COARSE -> TIGHT GRID)
     THRESH=    0.00E+00 GTHRE=    1.00E+00

 GRIMME'S EMPIRICAL DISPERSION CORRECTION= F

     $CONTRL OPTIONS
     ---------------
 SCFTYP=RHF          RUNTYP=OPTIMIZE     EXETYP=RUN     
 MPLEVL=       0     CITYP =NONE         CCTYP =NONE         VBTYP =NONE    
 DFTTYP=PBE          TDDFT =NONE    
 MULT  =       1     ICHARG=       0     NZVAR =       0     COORD =PRINAXIS
 PP    =NONE         RELWFN=NONE         LOCAL =NONE         NUMGRD=       F
 ISPHER=       1     NOSYM =       0     MAXIT =      30     UNITS =ANGS    
 PLTORB=       F     MOLPLT=       F     AIMPAC=       F     FRIEND=        
 NPRINT=       7     IREST =       0     GEOM  =INPUT   
 NORMF =       0     NORMP =       0     ITOL  =      20     ICUT  =       9
 INTTYP=BEST         GRDTYP=BEST         QMTTOL= 1.0E-06

     $SYSTEM OPTIONS
     ---------------
  REPLICATED MEMORY=     1000000 WORDS (ON EVERY NODE).
 DISTRIBUTED MEMDDI=           0 MILLION WORDS IN AGGREGATE,
 MEMDDI DISTRIBUTED OVER   1 PROCESSORS IS           0 WORDS/PROCESSOR.
 TOTAL MEMORY REQUESTED ON EACH PROCESSOR=     1000000 WORDS.
 TIMLIM=      525600.00 MINUTES, OR     365.0 DAYS.
 PARALL= F  BALTYP=  DLB     KDIAG=    0  COREFL= F
 MXSEQ2=     300 MXSEQ3=     150  mem10=         0

          ----------------
          PROPERTIES INPUT
          ----------------

     MOMENTS            FIELD           POTENTIAL          DENSITY
 IEMOM =       1   IEFLD =       0   IEPOT =       0   IEDEN =       0
 WHERE =COMASS     WHERE =NUCLEI     WHERE =NUCLEI     WHERE =NUCLEI  
 OUTPUT=BOTH       OUTPUT=BOTH       OUTPUT=BOTH       OUTPUT=BOTH    
 IEMINT=       0   IEFINT=       0                     IEDINT=       0
                                                       MORB  =       0
          EXTRAPOLATION IN EFFECT
          DIIS IN EFFECT
 ORBITAL PRINTING OPTION: NPREO=     1    55     2     1

     -------------------------------
     INTEGRAL TRANSFORMATION OPTIONS
     -------------------------------
     NWORD  =            0
     CUTOFF = 1.0E-09     MPTRAN =       0
     DIRTRF =       F     AOINTS =DUP     

          ----------------------
          INTEGRAL INPUT OPTIONS
          ----------------------
 NOPK  =       1 NORDER=       0 SCHWRZ=       F

     ------------------------------------------
     THE POINT GROUP IS C1 , NAXIS= 1, ORDER= 1
     ------------------------------------------

 -- VARIATIONAL SPACE WILL BE RESTRICTED TO PURE SPHERICAL HARMONICS ONLY --
 AFTER EXCLUDING CONTAMINANT COMBINATIONS FROM THE CARTESIAN GAUSSIAN BASIS
 SET, THE NUMBER OF SPHERICAL HARMONICS KEPT IN THE VARIATION SPACE IS   52

     DIMENSIONS OF THE SYMMETRY SUBSPACES ARE
 A   =   52

 ..... DONE SETTING UP THE RUN .....
 STEP CPU TIME =     0.05 TOTAL CPU TIME =          0.1 (      0.0 MIN)
 TOTAL WALL CLOCK TIME=          0.6 SECONDS, CPU UTILIZATION IS     7.94%


          -----------------------------
          STATIONARY POINT LOCATION RUN
          -----------------------------

 OBTAINING INITIAL HESSIAN, HESS=GUESS   
 CARTESIAN COORDINATE OPTIMIZATION USING BADGER'S RULE FORCE CONSTANT GUESS

          PARAMETERS CONTROLLING GEOMETRY SEARCH ARE
          METHOD =QA                  UPHESS =BFGS    
          NNEG   =         0          NFRZ   =         0
          NSTEP  =        50          IFOLOW =         1
          HESS   =GUESS               RESTAR =         F
          IHREP  =         0          HSSEND =         F
          NPRT   =         0          NPUN   =         0
          OPTTOL = 1.000E-04          RMIN   = 1.500E-03
          RMAX   = 1.000E-01          RLIM   = 7.000E-02
          DXMAX  = 3.000E-01          PURIFY =         F
          MOVIE  =         F          TRUPD  =         T
          TRMAX  = 5.000E-01          TRMIN  = 5.000E-02
          ITBMAT =         5          STPT   =         F
          STSTEP = 1.000E-02          PROJCT=          T

 BEGINNING GEOMETRY SEARCH POINT NSERCH=   0 ...

 COORDINATES OF ALL ATOMS ARE (ANGS)
   ATOM   CHARGE       X              Y              Z
 ------------------------------------------------------------
 N           7.0  -1.1094404250  -0.2508621058   0.0249458355
 N           7.0   0.0066850663   0.4931175443  -0.0364491470
 O           8.0   1.0451843695  -0.1567287896   0.0366026071
 H           1.0   0.7345723131  -1.1227061471  -0.3881419174
 H           1.0  -2.0003371452   0.2441240733  -0.0329368710

          ********************
          1 ELECTRON INTEGRALS
          ********************
 ...... END OF ONE-ELECTRON INTEGRALS ......
 STEP CPU TIME =     0.00 TOTAL CPU TIME =          0.1 (      0.0 MIN)
 TOTAL WALL CLOCK TIME=          0.7 SECONDS, CPU UTILIZATION IS     7.69%

          -------------
          GUESS OPTIONS
          -------------
          GUESS =HUCKEL            NORB  =       0          NORDER=       0
          MIX   =       F          PRTMO =       F          PUNMO =       F
          TOLZ  = 1.0E-08          TOLE  = 1.0E-05
          SYMDEN=       F          PURIFY=       F

 INITIAL GUESS ORBITALS GENERATED BY HUCKEL   ROUTINE.
 HUCKEL GUESS REQUIRES     27116 WORDS.

 STATISTICS FOR GENERATION OF SYMMETRY ORBITAL -Q- MATRIX
 NUMBER OF CARTESIAN ATOMIC ORBITALS=         55
 NUMBER OF SPHERICAL CONTAMINANTS DROPPED=     3
 NUMBER OF LINEARLY DEPENDENT MOS DROPPED=     0
 TOTAL NUMBER OF MOS IN VARIATION SPACE=      52

 SYMMETRIES FOR INITIAL GUESS ORBITALS FOLLOW.   BOTH SET(S).
    12 ORBITALS ARE OCCUPIED (    3 CORE ORBITALS).
     4=A        5=A        6=A        7=A        8=A        9=A       10=A   
    11=A       12=A       13=A       14=A       15=A       16=A       17=A   
    18=A       19=A       20=A       21=A       22=A   
 ...... END OF INITIAL ORBITAL SELECTION ......
 STEP CPU TIME =     0.01 TOTAL CPU TIME =          0.1 (      0.0 MIN)
 TOTAL WALL CLOCK TIME=          0.8 SECONDS, CPU UTILIZATION IS     7.69%

                    ----------------------
                    AO INTEGRAL TECHNOLOGY
                    ----------------------
     S,P,L SHELL ROTATED AXIS INTEGRALS, REPROGRAMMED BY
        KAZUYA ISHIMURA (IMS) AND JOSE SIERRA (SYNSTAR).
     S,P,D,L SHELL ROTATED AXIS INTEGRALS PROGRAMMED BY
        KAZUYA ISHIMURA (INSTITUTE FOR MOLECULAR SCIENCE).
     S,P,D,F,G SHELL TO TOTAL QUARTET ANGULAR MOMENTUM SUM 5,
        ERIC PROGRAM BY GRAHAM FLETCHER (ELORET AND NASA ADVANCED
        SUPERCOMPUTING DIVISION, AMES RESEARCH CENTER).
     S,P,D,F,G,L SHELL GENERAL RYS QUADRATURE PROGRAMMED BY
        MICHEL DUPUIS (PACIFIC NORTHWEST NATIONAL LABORATORY).

          --------------------
          2 ELECTRON INTEGRALS
          --------------------

 THE -PK- OPTION IS OFF, THE INTEGRALS ARE NOT IN SUPERMATRIX FORM.
 STORING   15000 INTEGRALS/RECORD ON DISK, USING 12 BYTES/INTEGRAL.
 TWO ELECTRON INTEGRAL EVALUATION REQUIRES   90696 WORDS OF MEMORY.
 II,JST,KST,LST =  1  1  1  1 NREC =         1 INTLOC =    1
 II,JST,KST,LST =  2  1  1  1 NREC =         1 INTLOC =    2
 II,JST,KST,LST =  3  1  1  1 NREC =         1 INTLOC =    7
 II,JST,KST,LST =  4  1  1  1 NREC =         1 INTLOC =   22
 II,JST,KST,LST =  5  1  1  1 NREC =         1 INTLOC =   67
 II,JST,KST,LST =  6  1  1  1 NREC =         1 INTLOC =  214
 II,JST,KST,LST =  7  1  1  1 NREC =         1 INTLOC = 1189
 II,JST,KST,LST =  8  1  1  1 NREC =         1 INTLOC = 3183
 II,JST,KST,LST =  9  1  1  1 NREC =         1 INTLOC = 5643
 II,JST,KST,LST = 10  1  1  1 NREC =         1 INTLOC = 8564
 II,JST,KST,LST = 11  1  1  1 NREC =         2 INTLOC = 5461
 II,JST,KST,LST = 12  1  1  1 NREC =         3 INTLOC = 8126
 II,JST,KST,LST = 13  1  1  1 NREC =         7 INTLOC = 5997
 II,JST,KST,LST = 14  1  1  1 NREC =         8 INTLOC = 3771
 II,JST,KST,LST = 15  1  1  1 NREC =         9 INTLOC = 4889
 II,JST,KST,LST = 16  1  1  1 NREC =        10 INTLOC = 7737
 II,JST,KST,LST = 17  1  1  1 NREC =        14 INTLOC =10456
 II,JST,KST,LST = 18  1  1  1 NREC =        20 INTLOC = 1446
 II,JST,KST,LST = 19  1  1  1 NREC =        34 INTLOC =12198
 II,JST,KST,LST = 20  1  1  1 NREC =        38 INTLOC =  522
 II,JST,KST,LST = 21  1  1  1 NREC =        41 INTLOC = 7186
 II,JST,KST,LST = 22  1  1  1 NREC =        53 INTLOC = 1579
 II,JST,KST,LST = 23  1  1  1 NREC =        57 INTLOC = 6145
 II,JST,KST,LST = 24  1  1  1 NREC =        62 INTLOC =  962
 TOTAL NUMBER OF NONZERO TWO-ELECTRON INTEGRALS =             1114785
         75 INTEGRAL RECORDS WERE STORED ON DISK FILE  8.
  ...... END OF TWO-ELECTRON INTEGRALS .....
 STEP CPU TIME =     0.17 TOTAL CPU TIME =          0.2 (      0.0 MIN)
 TOTAL WALL CLOCK TIME=          1.0 SECONDS, CPU UTILIZATION IS    22.55%

          --------------------------
               R-PBE SCF CALCULATION
          --------------------------

     NUCLEAR ENERGY =        71.8865618321
     MAXIT =   30     NPUNCH=    2
     EXTRAP=T  DAMP=F  SHIFT=F  RSTRCT=F  DIIS=T  DEM=F  SOSCF=F
         DENSITY MATRIX CONVERGENCE THRESHOLD=  1.00E-05
     COARSE -> FINE DFT GRID SWITCH THRESHOLD=  3.00E-04 (SWITCH IN $DFT)
                   HF -> DFT SWITCH THRESHOLD=  5.00E-03 (SWOFF IN $DFT)
     MEMORY REQUIRED FOR RHF ITERS=    248522 WORDS.

 DFT CODE IS SWITCHING FROM THE FINE GRID NRAD= 96,  NLEB=  302
                      TO THE COARSE GRID NRAD0= 24, NLEB0=  110

     EXCHANGE FUNCTIONAL   =PBE       
     CORRELATION FUNCTIONAL=PBE       
     DFT THRESHOLD         =.276E-07
     GRID CHANGE THRESHOLD =.300E-03
 FOR AN EULER-MACLAURIN QUADRATURE USING  96 RADIAL POINTS:
 SMALLEST GAUSSIAN PRIMITIVE EXPONENT=        0.1061000000 OF TYPE -S-
 ON ATOM NUMBER   4 HAS RADIAL NORMALIZATION=  1.000000
  LARGEST GAUSSIAN PRIMITIVE EXPONENT=     2288.6400000000 OF TYPE -S-
 ON ATOM NUMBER   3 HAS RADIAL NORMALIZATION=  1.000000
 DFT IS SWITCHED OFF, PERFORMING PURE SCF UNTIL SWOFF THRESHOLD IS REACHED.

 ITER EX DEM     TOTAL ENERGY        E CHANGE  DENSITY CHANGE    DIIS ERROR
          * * *   INITIATING DIIS PROCEDURE   * * *
   1  0  0     -184.0089823369  -184.0089823369   0.412360691   0.479494470
   2  1  0     -184.5949985465    -0.5860162096   0.187752357   0.121938277
   3  2  0     -184.6606710010    -0.0656724545   0.117386572   0.088606742
   4  3  0     -184.7165496484    -0.0558786474   0.020594749   0.009818985
   5  4  0     -184.7182924211    -0.0017427727   0.007116754   0.002687612
   6  5  0     -184.7184061059    -0.0001136848   0.002878936   0.001346061
 CONVERGED TO SWOFF, SO DFT CALCULATION IS NOW SWITCHED ON.
          * * *   INITIATING DIIS PROCEDURE   * * *
   7  6  0     -185.5560136583    -0.8376075524   0.166366141   0.062589469
   8  7  0     -185.5755551330    -0.0195414747   0.117029516   0.039337472
   9  8  0     -185.5695259035     0.0060292294   0.072928890   0.049337168
  10  9  0     -185.5841379347    -0.0146120311   0.031476893   0.012684953
  11 10  0     -185.5848149936    -0.0006770589   0.010878353   0.008356845
  12 11  0     -185.5852633705    -0.0004483769   0.001918218   0.001085572
  13 12  0     -185.5852726435    -0.0000092730   0.000378410   0.000175240
  14 13  0     -185.5852729470    -0.0000003035   0.000063199   0.000049078
 DFT CODE IS SWITCHING BACK TO THE FINE GRID
          * * *   INITIATING DIIS PROCEDURE   * * *
  15 14  0     -185.5866056573    -0.0013327103   0.001397909   0.001213623
  16 15  0     -185.5866107483    -0.0000050910   0.001361304   0.000556219
  17 16  0     -185.5866105131     0.0000002352   0.001030028   0.000513704
  18 17  0     -185.5866119071    -0.0000013940   0.000532848   0.000298809
  19 18  0     -185.5866124466    -0.0000005396   0.000145996   0.000081824
  20 19  0     -185.5866124904    -0.0000000438   0.000025100   0.000017227
  21 20  0     -185.5866124930    -0.0000000025   0.000003529   0.000001550
  22 21  0     -185.5866124930    -0.0000000000   0.000000558   0.000000454

          -----------------
          DENSITY CONVERGED
          -----------------
     TIME TO FORM FOCK OPERATORS=       4.2 SECONDS (       0.2 SEC/ITER)
     TIME TO SOLVE SCF EQUATIONS=       0.0 SECONDS (       0.0 SEC/ITER)

 FINAL R-PBE ENERGY IS     -185.5866124930 AFTER  22 ITERATIONS
 DFT EXCHANGE + CORRELATION ENERGY =       -22.8020792041
 TOTAL ELECTRON NUMBER             =        23.9999884232

          ------------
          EIGENVECTORS
          ------------

                      1          2          3          4          5
                  -18.8460   -14.1036   -14.0158    -1.1307    -0.8494
                     A          A          A          A          A   
    1  N  1  S   -0.000004  -0.000069   0.993264  -0.040387  -0.176831
    2  N  1  S   -0.000569  -0.001079   0.034035   0.083322   0.368534
    3  N  1  S    0.000237   0.007462  -0.015688   0.019803   0.245830
    4  N  1  X   -0.000368  -0.000698  -0.000456   0.051512   0.072210
    5  N  1  Y   -0.000146  -0.000396   0.002344   0.025728   0.129995
    6  N  1  Z   -0.000038   0.000005  -0.000298  -0.002924  -0.013169
    7  N  1  X    0.000119   0.003653  -0.002102  -0.000939   0.028954
    8  N  1  Y    0.000825   0.001928  -0.002389  -0.003704   0.025903
    9  N  1  Z    0.000107  -0.000071   0.000342  -0.000235  -0.004987
   10  N  1 XX   -0.000010  -0.000413   0.001083   0.006962   0.006038
   11  N  1 YY    0.000211  -0.000100  -0.000367  -0.002540   0.001941
   12  N  1 ZZ   -0.000201   0.000514  -0.000716  -0.004422  -0.007979
   13  N  1 XY   -0.000102  -0.001050  -0.000558   0.006217   0.012181
   14  N  1 XZ    0.000025   0.000100   0.000079  -0.000814  -0.001528
   15  N  1 YZ   -0.000043   0.000057  -0.000059  -0.000176  -0.001511
   16  N  2  S    0.000137   0.993308   0.000328  -0.136122  -0.093854
   17  N  2  S   -0.000922   0.034250  -0.000657   0.282349   0.201020
   18  N  2  S    0.008768  -0.018220   0.003002   0.137446   0.164902
   19  N  2  X   -0.000280   0.000730   0.000662   0.112223  -0.230274
   20  N  2  Y    0.000117  -0.002974   0.000493  -0.134552  -0.063214
   21  N  2  Z   -0.000040   0.000112  -0.000071   0.008425   0.003818
   22  N  2  X    0.004803   0.003246  -0.002774  -0.010357  -0.053453
   23  N  2  Y   -0.003447   0.004776  -0.000398  -0.029010  -0.030583
   24  N  2  Z    0.000194  -0.000386   0.000009  -0.000435   0.000818
   25  N  2 XX   -0.000556   0.000683  -0.000694   0.011764   0.004138
   26  N  2 YY    0.000229  -0.000331  -0.000079   0.003626   0.000573
   27  N  2 ZZ    0.000327  -0.000352   0.000773  -0.015390  -0.004711
   28  N  2 XY    0.000749  -0.000586  -0.001063  -0.017667   0.025749
   29  N  2 XZ   -0.000127   0.000045   0.000069   0.001279  -0.001056
   30  N  2 YZ    0.000049   0.000001   0.000093  -0.000993  -0.000612
   31  O  3  S    0.993159   0.000150  -0.000004  -0.185598   0.103387
   32  O  3  S    0.034981  -0.000348  -0.000527   0.382462  -0.220464
   33  O  3  S   -0.020887   0.000996   0.001370   0.310918  -0.230187
   34  O  3  X   -0.001982   0.000997   0.000159  -0.163936  -0.002002
   35  O  3  Y    0.000026  -0.000630  -0.000099   0.045193   0.009083
   36  O  3  Z   -0.000450   0.000053  -0.000032  -0.025084   0.017667
   37  O  3  X    0.005500   0.000080  -0.000891  -0.052327   0.008901
   38  O  3  Y   -0.001887  -0.000803   0.000847   0.020618   0.001360
   39  O  3  Z    0.000891   0.000325   0.000159  -0.007897   0.004910
   40  O  3 XX   -0.000168  -0.000943   0.000085   0.013107   0.005676
   41  O  3 YY    0.000112  -0.000055   0.000064  -0.003117  -0.004946
   42  O  3 ZZ    0.000056   0.000998  -0.000150  -0.009990  -0.000730
   43  O  3 XY    0.000015   0.001306  -0.000002  -0.010947   0.001146
   44  O  3 XZ   -0.000058  -0.000249  -0.000044   0.003795  -0.000724
   45  O  3 YZ    0.000033   0.000064  -0.000049   0.000729  -0.001208
   46  H  4  S    0.001116   0.000202   0.000056   0.079249  -0.055367
   47  H  4  S    0.000745   0.000729   0.001228  -0.011561  -0.007708
   48  H  4  X   -0.000410  -0.000433  -0.000273   0.002348  -0.003709
   49  H  4  Y   -0.000511   0.000389   0.000160   0.015944  -0.008624
   50  H  4  Z   -0.000278  -0.000105   0.000067   0.006215  -0.003246
   51  H  5  S   -0.000133  -0.000584  -0.001847   0.013331   0.133290
   52  H  5  S    0.000433   0.001128   0.002640  -0.005132  -0.005604
   53  H  5  X    0.000036  -0.000196  -0.001879   0.002837   0.016901
   54  H  5  Y    0.000009  -0.000105   0.001364  -0.000181  -0.006875
   55  H  5  Z   -0.000026  -0.000004  -0.000169   0.000053   0.000921

                      6          7          8          9         10
                   -0.6383    -0.5400    -0.4556    -0.4311    -0.3196
                     A          A          A          A          A   
    1  N  1  S    0.086665   0.062037   0.001221   0.042556  -0.084239
    2  N  1  S   -0.181085  -0.130419  -0.000970  -0.090568   0.189486
    3  N  1  S   -0.195456  -0.142175   0.014201  -0.100511   0.289791
    4  N  1  X    0.113550   0.353011   0.111037   0.076971   0.226047
    5  N  1  Y   -0.015167  -0.009695   0.032403   0.171350  -0.241677
    6  N  1  Z    0.011166  -0.016397   0.142742  -0.050701  -0.104117
    7  N  1  X    0.007129   0.120790   0.052543   0.023490   0.109642
    8  N  1  Y   -0.002648  -0.001304   0.022646   0.110356  -0.152573
    9  N  1  Z    0.003772  -0.010493   0.078170  -0.025939  -0.071637
   10  N  1 XX    0.000247   0.003877   0.000076  -0.013527   0.008852
   11  N  1 YY   -0.000011   0.000088   0.003043   0.016451  -0.017045
   12  N  1 ZZ   -0.000236  -0.003965  -0.003119  -0.002924   0.008193
   13  N  1 XY    0.009221   0.018544   0.007866   0.012572   0.005608
   14  N  1 XZ    0.000489  -0.004374   0.011108  -0.003591  -0.005590
   15  N  1 YZ    0.000550  -0.001260   0.009505  -0.004923  -0.004712
   16  N  2  S   -0.121220  -0.032662   0.009382  -0.068522   0.068725
   17  N  2  S    0.282699   0.074799  -0.019964   0.142312  -0.160950
   18  N  2  S    0.233167   0.105361  -0.024547   0.250486  -0.191894
   19  N  2  X    0.150429  -0.238650  -0.128624  -0.212239  -0.018996
   20  N  2  Y   -0.010605  -0.143252   0.006595   0.289701  -0.225961
   21  N  2  Z    0.028937  -0.051255   0.368138  -0.116007  -0.119450
   22  N  2  X    0.021859  -0.061332  -0.024422  -0.044470   0.031891
   23  N  2  Y   -0.008617  -0.079835   0.009570   0.132665  -0.160203
   24  N  2  Z    0.009925  -0.022426   0.186273  -0.057230  -0.071850
   25  N  2 XX    0.007204  -0.023673  -0.002438   0.018088   0.002120
   26  N  2 YY   -0.007824   0.024394  -0.001090  -0.028398   0.008176
   27  N  2 ZZ    0.000621  -0.000721   0.003528   0.010311  -0.010296
   28  N  2 XY   -0.005887   0.011482   0.009487   0.019040   0.019445
   29  N  2 XZ    0.003484  -0.004530   0.013925  -0.003650   0.003181
   30  N  2 YZ   -0.003290   0.004462  -0.029433   0.008918   0.006029
   31  O  3  S    0.088061   0.038470  -0.040131  -0.047125  -0.039493
   32  O  3  S   -0.188164  -0.085972   0.084173   0.094882   0.088138
   33  O  3  S   -0.237630  -0.129754   0.129001   0.145521   0.108110
   34  O  3  X   -0.179659  -0.059108   0.119528   0.433136   0.257960
   35  O  3  Y    0.340737  -0.288425  -0.048329   0.060079   0.277431
   36  O  3  Z    0.058182  -0.083724   0.442861  -0.084400   0.011262
   37  O  3  X   -0.083009  -0.026541   0.067468   0.263528   0.182499
   38  O  3  Y    0.140715  -0.141339  -0.036693   0.036985   0.162992
   39  O  3  Z    0.020199  -0.040642   0.256405  -0.050296   0.006114
   40  O  3 XX    0.011556   0.009184  -0.000476  -0.024039  -0.002905
   41  O  3 YY   -0.004474  -0.007625   0.004567   0.013100  -0.002591
   42  O  3 ZZ   -0.007082  -0.001559  -0.004091   0.010939   0.005496
   43  O  3 XY   -0.019206   0.014712   0.002364  -0.006102  -0.004845
   44  O  3 XZ   -0.000839   0.005581  -0.029495   0.002296   0.001614
   45  O  3 YZ   -0.004860   0.002112   0.006636  -0.001536  -0.005764
   46  H  4  S   -0.230093   0.171564  -0.076705  -0.048858  -0.200233
   47  H  4  S   -0.025749   0.010553  -0.007219   0.017147  -0.043596
   48  H  4  X   -0.010678   0.001026   0.001937   0.011948  -0.005661
   49  H  4  Y   -0.020604   0.014672  -0.011876  -0.005747  -0.011436
   50  H  4  Z   -0.009961   0.005971   0.008516  -0.005694  -0.008050
   51  H  5  S   -0.152950  -0.294815  -0.078167  -0.064594  -0.188431
   52  H  5  S   -0.015258  -0.040949  -0.017352  -0.022930  -0.067560
   53  H  5  X   -0.010454  -0.016402  -0.003105   0.000596  -0.006967
   54  H  5  Y    0.007761   0.012897   0.003692   0.006462  -0.001621
   55  H  5  Z   -0.000615  -0.001785   0.003491  -0.001727  -0.004237

                     11         12         13         14         15
                   -0.2687    -0.2269    -0.1021    -0.0127     0.0441
                     A          A          A          A          A   
    1  N  1  S   -0.032020   0.037634   0.001369   0.026532   0.088917
    2  N  1  S    0.071268  -0.058684   0.001058  -0.052487  -0.175981
    3  N  1  S    0.121500  -0.207863  -0.006642  -0.174925  -0.914589
    4  N  1  X    0.048543   0.045908   0.033383   0.071394   0.192994
    5  N  1  Y   -0.095636   0.428307   0.031186   0.167839  -0.203089
    6  N  1  Z    0.454453   0.066737  -0.410542   0.109894   0.004217
    7  N  1  X    0.015203  -0.001140   0.019964   0.082051   0.371146
    8  N  1  Y   -0.060953   0.312498   0.027785   0.185623  -0.277298
    9  N  1  Z    0.328371   0.055226  -0.424039   0.112648   0.008437
   10  N  1 XX    0.001592   0.001474  -0.000613   0.000581   0.015433
   11  N  1 YY   -0.001971   0.009825   0.001119   0.002566  -0.011438
   12  N  1 ZZ    0.000379  -0.011299  -0.000506  -0.003146  -0.003995
   13  N  1 XY    0.001644   0.001402  -0.000583  -0.012105   0.004196
   14  N  1 XZ    0.008103   0.000733   0.016449  -0.006364   0.001455
   15  N  1 YZ    0.021599   0.000578   0.000302   0.001506   0.000970
   16  N  2  S    0.000695   0.059595   0.012444   0.028923  -0.019060
   17  N  2  S   -0.005096  -0.111253  -0.017920  -0.043384   0.043356
   18  N  2  S    0.009075  -0.279461  -0.143636  -0.403821   0.156452
   19  N  2  X    0.027128  -0.110580   0.003629   0.047931  -0.066476
   20  N  2  Y    0.051840  -0.386582   0.005221  -0.103029  -0.102808
   21  N  2  Z    0.212286   0.018280   0.536640  -0.109443   0.030962
   22  N  2  X    0.019998  -0.066349  -0.021091  -0.002937   0.034756
   23  N  2  Y    0.027346  -0.264912   0.026741  -0.023581  -0.111015
   24  N  2  Z    0.153409   0.013472   0.484738  -0.119741   0.032742
   25  N  2 XX    0.002348   0.015024   0.007663   0.008413  -0.021553
   26  N  2 YY   -0.003227   0.002847  -0.003682  -0.009293   0.015194
   27  N  2 ZZ    0.000879  -0.017871  -0.003981   0.000880   0.006359
   28  N  2 XY    0.005638  -0.007532   0.005512   0.011920  -0.002280
   29  N  2 XZ   -0.032360  -0.008062   0.009231   0.003342  -0.001801
   30  N  2 YZ   -0.008478  -0.000557  -0.001344   0.000202  -0.000413
   31  O  3  S    0.012650  -0.042512   0.016295   0.059243   0.001747
   32  O  3  S   -0.029875   0.104605  -0.034684  -0.135599  -0.004099
   33  O  3  S   -0.058232   0.184984  -0.086596  -0.405847  -0.046699
   34  O  3  X    0.089883  -0.035204   0.025260   0.055302   0.094913
   35  O  3  Y    0.084845   0.112408   0.121076   0.329630  -0.037089
   36  O  3  Z   -0.397429  -0.132400  -0.251955   0.183294  -0.043546
   37  O  3  X    0.061035   0.008043   0.007318  -0.009145   0.129401
   38  O  3  Y    0.061799   0.064983   0.129630   0.383090  -0.072103
   39  O  3  Z   -0.295546  -0.112253  -0.249197   0.180894  -0.041054
   40  O  3 XX   -0.006785   0.011556  -0.003690  -0.006950   0.006585
   41  O  3 YY    0.002210  -0.016224   0.004205   0.010297  -0.008696
   42  O  3 ZZ    0.004575   0.004668  -0.000515  -0.003347   0.002111
   43  O  3 XY   -0.003728   0.001243  -0.003747  -0.002440   0.002372
   44  O  3 XZ    0.005499   0.004397  -0.009744   0.001188  -0.001120
   45  O  3 YZ    0.003848  -0.002045   0.018594   0.003611  -0.001549
   46  H  4  S    0.053059  -0.164691   0.143905   0.308573  -0.093693
   47  H  4  S    0.041207  -0.203838   0.193213   1.062678  -0.216260
   48  H  4  X    0.004249   0.001711   0.002464  -0.005899  -0.002638
   49  H  4  Y    0.004240   0.004547  -0.000264  -0.028283   0.003313
   50  H  4  Z   -0.008662  -0.004677  -0.011972  -0.012029  -0.000190
   51  H  5  S   -0.078695   0.133445   0.010673   0.077203   0.162224
   52  H  5  S   -0.031471   0.000077  -0.015117   0.153076   1.483631
   53  H  5  X   -0.003578   0.008865   0.001088  -0.001122  -0.026275
   54  H  5  Y   -0.000268   0.009740   0.001133   0.010525   0.007493
   55  H  5  Z    0.016323   0.003313  -0.018123   0.005670  -0.002147

                     16         17         18         19         20
                    0.1783     0.2463     0.3873     0.5033     0.5398
                     A          A          A          A          A   
    1  N  1  S    0.072887  -0.055030  -0.020360  -0.041517   0.006451
    2  N  1  S   -0.118772   0.104616   0.066297   0.268328   0.114980
    3  N  1  S   -0.987750   0.985869   0.032688  -0.700276  -0.882960
    4  N  1  X   -0.298239   0.242503   0.041915  -0.139882   0.501945
    5  N  1  Y   -0.128212   0.119744   0.066249   0.485132   0.236736
    6  N  1  Z   -0.000026  -0.031890  -0.068071  -0.033191  -0.098186
    7  N  1  X   -1.087550   0.716373  -0.024939  -0.649915  -1.111193
    8  N  1  Y   -0.341220   0.627490   0.167368  -0.364814  -0.391466
    9  N  1  Z    0.023843  -0.057281   0.056442   0.002208   0.102848
   10  N  1 XX    0.033945   0.019665  -0.038772  -0.105827  -0.027224
   11  N  1 YY   -0.022581  -0.023321   0.011600   0.019750   0.021951
   12  N  1 ZZ   -0.011364   0.003656   0.027173   0.086077   0.005273
   13  N  1 XY    0.010983  -0.033510  -0.002545   0.069822  -0.023933
   14  N  1 XZ    0.001199   0.003925   0.008169  -0.011601   0.000369
   15  N  1 YZ    0.001857   0.000893   0.001905   0.006814  -0.004849
   16  N  2  S   -0.143202  -0.007718   0.036826  -0.016523  -0.007559
   17  N  2  S    0.327916   0.023817  -0.094644   0.031097  -0.057624
   18  N  2  S    2.034002   0.045878  -0.366260   1.057777   1.590999
   19  N  2  X   -0.047544   0.548973   0.201488   0.320764  -0.181185
   20  N  2  Y   -0.366981  -0.045026  -0.031125  -0.002315   0.652554
   21  N  2  Z    0.048847  -0.001477   0.041830  -0.020215  -0.126670
   22  N  2  X   -0.074552   1.650718  -0.201000  -0.157584   0.178150
   23  N  2  Y   -1.034491  -0.048523   0.309736  -0.624872  -1.323314
   24  N  2  Z    0.125714   0.021686   0.000323   0.072935   0.177646
   25  N  2 XX   -0.034975  -0.018839  -0.007152   0.070959   0.100524
   26  N  2 YY    0.012536   0.012236   0.006996  -0.055715  -0.028273
   27  N  2 ZZ    0.022439   0.006603   0.000156  -0.015244  -0.072251
   28  N  2 XY    0.001462   0.041377  -0.017904   0.018210   0.019022
   29  N  2 XZ   -0.001935  -0.006336  -0.015862   0.005126  -0.001925
   30  N  2 YZ    0.001475   0.000388  -0.003947   0.005213  -0.000709
   31  O  3  S    0.066281   0.082104  -0.024144   0.030454  -0.012537
   32  O  3  S   -0.107970  -0.180739   0.138030  -0.033189   0.177606
   33  O  3  S   -0.935769  -0.995106  -0.004560  -0.417273  -0.926057
   34  O  3  X    0.253657   0.209596  -0.230173  -0.002403  -0.289709
   35  O  3  Y   -0.136164  -0.266457  -0.306337  -0.007996  -0.005932
   36  O  3  Z   -0.000919   0.004047  -0.157120   0.056850  -0.062825
   37  O  3  X    0.646795   0.530388  -0.046473   0.447762   0.466274
   38  O  3  Y   -0.241119  -0.615791  -0.010668  -0.121794  -0.028136
   39  O  3  Z    0.004442   0.036769  -0.007061   0.004562   0.063534
   40  O  3 XX    0.018825  -0.004927   0.030780  -0.018688  -0.063852
   41  O  3 YY   -0.021428   0.018532  -0.052884   0.029331   0.016850
   42  O  3 ZZ    0.002603  -0.013605   0.022104  -0.010642   0.047003
   43  O  3 XY   -0.021232  -0.015991  -0.042975  -0.024432   0.028114
   44  O  3 XZ   -0.003304  -0.000190  -0.017077   0.006927  -0.003772
   45  O  3 YZ   -0.003717  -0.004181  -0.051181   0.013457  -0.011948
   46  H  4  S   -0.163665   0.029997  -1.097959   0.315721  -0.084546
   47  H  4  S    0.254045  -0.441923   1.201594  -0.342583   0.111696
   48  H  4  X    0.020791   0.008150   0.041675   0.024861   0.013350
   49  H  4  Y    0.003094  -0.001083   0.062261  -0.016606   0.039191
   50  H  4  Z   -0.003362   0.007731   0.032637  -0.006118   0.013881
   51  H  5  S    0.120998   0.184204  -0.245441  -1.035258   0.194998
   52  H  5  S   -0.499826   0.148729   0.046292   0.724682  -0.289300
   53  H  5  X   -0.014555  -0.012257   0.026163   0.105164  -0.051945
   54  H  5  Y   -0.023971   0.012317   0.012368  -0.050459   0.006361
   55  H  5  Z    0.001566  -0.003090  -0.004330   0.006883  -0.002639

                     21         22         23         24         25
                    0.5642     0.5727     0.6327     0.6514     0.6575
                     A          A          A          A          A   
    1  N  1  S    0.005149  -0.011189  -0.055835   0.001343  -0.010541
    2  N  1  S   -0.065946   0.038376   0.293786   0.034263   0.227946
    3  N  1  S    0.517680   0.678304  -0.106917   0.005971   0.082544
    4  N  1  X   -0.200272  -0.133058   0.065577   0.096222   0.576162
    5  N  1  Y    0.002960   0.038714  -0.694614   0.009459   0.096319
    6  N  1  Z   -0.559012   0.288212  -0.037701  -0.678075   0.077750
    7  N  1  X    0.373597   0.156365  -0.393761  -0.137598  -0.815880
    8  N  1  Y    0.185586   0.359597   1.046129  -0.040321  -0.378927
    9  N  1  Z    0.446134  -0.266219   0.002293   1.088266  -0.158911
   10  N  1 XX    0.008209   0.009310  -0.028008   0.014051   0.067006
   11  N  1 YY   -0.004287  -0.005291  -0.002710  -0.004333  -0.005466
   12  N  1 ZZ   -0.003922  -0.004018   0.030718  -0.009718  -0.061540
   13  N  1 XY    0.037029   0.073586   0.021093   0.002958   0.022527
   14  N  1 XZ   -0.026073   0.005464  -0.009931  -0.013163  -0.004373
   15  N  1 YZ   -0.018453   0.009766   0.001843  -0.013696  -0.002645
   16  N  2  S    0.026239   0.042101  -0.009280   0.003890   0.017339
   17  N  2  S   -0.199184  -0.375236   0.082902   0.018125   0.232902
   18  N  2  S    0.064849   0.533526   0.518811  -0.052476  -0.193995
   19  N  2  X   -0.310306  -0.561580   0.051152  -0.019548   0.006719
   20  N  2  Y   -0.216861  -0.150336   0.091960  -0.033302  -0.509647
   21  N  2  Z   -0.531257   0.320646  -0.056617   0.551873  -0.141043
   22  N  2  X    0.869428   1.616438   0.350530  -0.035645  -0.264193
   23  N  2  Y    0.265623  -0.050694  -0.644877   0.123675   1.037989
   24  N  2  Z    0.529535  -0.335117   0.142893  -1.031887   0.268887
   25  N  2 XX   -0.004234  -0.004025   0.031220   0.009193   0.058259
   26  N  2 YY    0.007557   0.009704  -0.015156  -0.001846   0.029634
   27  N  2 ZZ   -0.003323  -0.005679  -0.016063  -0.007346  -0.087893
   28  N  2 XY   -0.034902  -0.042118  -0.066376   0.024385   0.065598
   29  N  2 XZ    0.008090   0.000878   0.022143   0.028632   0.002441
   30  N  2 YZ    0.039780  -0.020260  -0.002160  -0.027450  -0.010838
   31  O  3  S    0.021435   0.020116   0.024561  -0.005436  -0.015244
   32  O  3  S   -0.079005  -0.004768  -0.010824  -0.006701   0.057469
   33  O  3  S   -0.387773  -0.963595  -0.603766   0.165879   0.465516
   34  O  3  X   -0.128051  -0.326335  -0.371195   0.036810  -0.113770
   35  O  3  Y    0.042123  -0.161681   0.167662   0.035378   0.030237
   36  O  3  Z   -0.218783   0.088721   0.134779   0.204158   0.139286
   37  O  3  X    0.198864   0.483580   0.734806  -0.148490  -0.209650
   38  O  3  Y   -0.161927  -0.085425  -0.341465  -0.054480  -0.162852
   39  O  3  Z    0.120605   0.047285  -0.127648  -0.032425  -0.216606
   40  O  3 XX   -0.012287  -0.026788  -0.026199  -0.000407   0.012302
   41  O  3 YY   -0.010534  -0.020877   0.014553   0.009407   0.032114
   42  O  3 ZZ    0.022821   0.047666   0.011646  -0.008999  -0.044415
   43  O  3 XY    0.053886   0.081141  -0.014981  -0.007379  -0.044835
   44  O  3 XZ    0.015434  -0.017707  -0.000264  -0.035299   0.008636
   45  O  3 YZ   -0.013696   0.009935   0.017559   0.003200   0.010496
   46  H  4  S    0.078510   0.053589   0.140745   0.001506   0.084978
   47  H  4  S   -0.066258  -0.129026  -0.041657  -0.027143   0.122635
   48  H  4  X   -0.007243  -0.012295   0.065665   0.016431   0.076727
   49  H  4  Y    0.010213   0.063674  -0.025013  -0.028557  -0.056092
   50  H  4  Z    0.024730  -0.002484  -0.030941  -0.005783   0.000269
   51  H  5  S   -0.113560  -0.294173  -0.394052   0.022597   0.077752
   52  H  5  S    0.219292   0.280194  -0.004575  -0.062025  -0.480259
   53  H  5  X    0.015997  -0.000262  -0.029522  -0.007542  -0.064744
   54  H  5  Y   -0.030518  -0.050762   0.000396   0.001508   0.022951
   55  H  5  Z   -0.002989   0.007217   0.001541   0.009869  -0.002661

                     26         27         28         29         30
                    0.7548     0.8441     0.8723     0.9339     1.1452
                     A          A          A          A          A   
    1  N  1  S    0.000774   0.063394  -0.027330   0.009855   0.053037
    2  N  1  S    0.013935  -0.767822   0.514399  -0.170725  -1.453700
    3  N  1  S    0.057511   0.124554  -0.398491   0.287555   4.411256
    4  N  1  X    0.032136   0.036299  -0.342290   0.059665  -0.015957
    5  N  1  Y    0.034462   0.153579   0.235633   0.051977  -0.012934
    6  N  1  Z    0.074489  -0.014513   0.023015   0.070233   0.018190
    7  N  1  X    0.081984  -0.150804   1.638159  -0.637599   0.903786
    8  N  1  Y   -0.126514  -0.662730  -0.487735   0.199990   1.275140
    9  N  1  Z    0.086033   0.028300  -0.084654  -0.220227  -0.161040
   10  N  1 XX    0.008963  -0.051072   0.033438  -0.002901  -0.083734
   11  N  1 YY    0.006433   0.026310   0.042192  -0.054638   0.032089
   12  N  1 ZZ   -0.015396   0.024762  -0.075629   0.057539   0.051645
   13  N  1 XY   -0.000519  -0.094540   0.013845  -0.026684   0.063483
   14  N  1 XZ    0.020469   0.000681   0.010445   0.030721   0.018008
   15  N  1 YZ   -0.022358   0.002674  -0.001347   0.023055   0.007386
   16  N  2  S    0.006821   0.037436  -0.028448   0.051595  -0.029101
   17  N  2  S    0.058273  -0.662725   0.701629  -0.860965   1.000809
   18  N  2  S    0.474446   1.917542  -1.074345   2.077205  -3.270800
   19  N  2  X    0.029361   0.300373  -0.141043  -0.087200  -0.189436
   20  N  2  Y   -0.075416  -0.076936   0.083522   0.061180   0.016148
   21  N  2  Z    0.271045  -0.001184  -0.031926  -0.029625   0.003373
   22  N  2  X    0.226644  -0.759866   0.573634   0.996155   1.970251
   23  N  2  Y    0.094882  -0.421125   0.550320  -0.343922   0.925385
   24  N  2  Z   -0.732049   0.119062   0.209427   0.309570  -0.022331
   25  N  2 XX    0.058867  -0.034034   0.056962   0.000200   0.082385
   26  N  2 YY   -0.007294   0.026273   0.040078  -0.045995  -0.062667
   27  N  2 ZZ   -0.051574   0.007761  -0.097039   0.045796  -0.019717
   28  N  2 XY   -0.039183  -0.095555  -0.051562  -0.015847  -0.056362
   29  N  2 XZ   -0.014445   0.017849  -0.003545  -0.026976  -0.017765
   30  N  2 YZ   -0.019067   0.007704  -0.026460  -0.009235  -0.020864
   31  O  3  S    0.027934   0.051215  -0.001957  -0.008251  -0.011095
   32  O  3  S   -0.097582  -0.282835   0.021773   0.009525   0.141623
   33  O  3  S   -0.154458   0.009856   0.119145  -0.704914  -0.138257
   34  O  3  X   -0.173366  -0.418457  -0.291718   0.209052  -0.008507
   35  O  3  Y    0.364712   0.000985   0.292829   0.588373   0.081741
   36  O  3  Z   -0.695559   0.193354   0.269572   0.171352   0.048224
   37  O  3  X    0.456902   1.126975   0.481458  -0.082334  -0.208302
   38  O  3  Y   -0.646658   0.005696  -0.774763  -1.656220  -0.513397
   39  O  3  Z    1.064100  -0.249457  -0.539663  -0.449465  -0.132607
   40  O  3 XX   -0.001981   0.044814   0.047997  -0.068192   0.004522
   41  O  3 YY    0.021534  -0.036121  -0.007928  -0.025596   0.078397
   42  O  3 ZZ   -0.019553  -0.008693  -0.040069   0.093787  -0.082919
   43  O  3 XY   -0.001222   0.042531  -0.006786   0.005904  -0.042074
   44  O  3 XZ    0.013525   0.004027  -0.021138  -0.032476  -0.026111
   45  O  3 YZ   -0.011746   0.026211  -0.027086  -0.037816  -0.063213
   46  H  4  S    0.137337   0.279037  -0.320206  -0.657608  -0.161936
   47  H  4  S   -0.306499  -0.593420  -0.397881  -0.389335  -0.115598
   48  H  4  X   -0.000269  -0.082122  -0.038588  -0.002855   0.031696
   49  H  4  Y   -0.026526   0.046639  -0.066409  -0.091241  -0.078346
   50  H  4  Z    0.044327  -0.017677   0.013724  -0.057871   0.106765
   51  H  5  S    0.103162   0.327173   0.542046  -0.277181  -0.515812
   52  H  5  S   -0.007926  -0.490160   0.908179  -0.226123  -0.296718
   53  H  5  X   -0.003835  -0.008403   0.071967  -0.030524  -0.052060
   54  H  5  Y    0.001474   0.074623  -0.042113  -0.035101   0.121915
   55  H  5  Z   -0.008673  -0.006973  -0.005016  -0.019537  -0.032258

                     31         32         33         34         35
                    1.3954     1.4577     1.5402     1.5780     1.5917
                     A          A          A          A          A   
    1  N  1  S   -0.001722  -0.008374  -0.003328  -0.005812   0.001512
    2  N  1  S    0.125741  -0.031807  -0.261585  -0.107600   0.055353
    3  N  1  S   -0.486678   0.342482   0.898623   1.036738  -0.265927
    4  N  1  X    0.014851   0.106600   0.043983   0.125549   0.049274
    5  N  1  Y   -0.029037  -0.035248   0.061618   0.015913  -0.035116
    6  N  1  Z   -0.047575  -0.060783   0.014101   0.010161   0.060795
    7  N  1  X   -0.150974  -0.304408   0.090708  -0.085289  -0.330776
    8  N  1  Y   -0.156579   0.287497   0.469538   0.285672  -0.083641
    9  N  1  Z    0.156257  -0.072385   0.064595   0.021374  -0.131360
   10  N  1 XX   -0.009768   0.130595   0.239264   0.005371   0.112343
   11  N  1 YY    0.032341  -0.088987  -0.465044   0.116998  -0.000186
   12  N  1 ZZ   -0.022574  -0.041608   0.225780  -0.122369  -0.112157
   13  N  1 XY    0.053753   0.019940   0.004850  -0.031480  -0.016408
   14  N  1 XZ    0.517091  -0.040442   0.074690   0.026893  -0.135731
   15  N  1 YZ   -0.039177   0.310031  -0.179562  -0.145440  -0.090494
   16  N  2  S    0.000018  -0.000153   0.005274  -0.011744   0.003898
   17  N  2  S   -0.056440   0.155204   0.169066   0.531067   0.011429
   18  N  2  S   -0.070864  -0.548752  -0.476724  -2.085474  -1.021430
   19  N  2  X    0.014685   0.056822   0.075180  -0.093078  -0.015429
   20  N  2  Y   -0.004412   0.060845   0.101852   0.064060   0.098106
   21  N  2  Z   -0.050643   0.065113  -0.045162   0.000427  -0.045499
   22  N  2  X   -0.547384  -0.116391   0.383460   0.000389  -0.995575
   23  N  2  Y   -0.024076   0.157655   0.093627   0.767028   0.288499
   24  N  2  Z   -0.102425  -0.004524  -0.006608  -0.091961   0.144592
   25  N  2 XX    0.016527  -0.079500  -0.233587  -0.097483  -0.035537
   26  N  2 YY   -0.085215   0.265826   0.412423   0.259080   0.070707
   27  N  2 ZZ    0.068688  -0.186326  -0.178835  -0.161598  -0.035170
   28  N  2 XY    0.004152  -0.010509   0.002982   0.023158   0.151832
   29  N  2 XZ   -0.320285  -0.402678   0.222858   0.047434   0.233470
   30  N  2 YZ   -0.307541   0.177729  -0.154563   0.033309  -0.168077
   31  O  3  S    0.014202   0.011482  -0.027163   0.045455   0.049752
   32  O  3  S   -0.306545  -0.264017   0.428257  -1.005256  -1.151304
   33  O  3  S    0.689338   0.591228  -0.637291   2.115561   2.441924
   34  O  3  X   -0.007747   0.025259  -0.029972   0.086249   0.024197
   35  O  3  Y   -0.091195   0.028448   0.064623   0.060305  -0.022106
   36  O  3  Z    0.028927   0.068117  -0.045081  -0.016332  -0.013036
   37  O  3  X   -0.187029  -0.146885   0.195077  -0.823929  -0.769698
   38  O  3  Y    0.347311   0.053208  -0.028563  -0.069000   0.392486
   39  O  3  Z   -0.008785   0.004766   0.014284   0.037808  -0.365985
   40  O  3 XX   -0.034019   0.130547   0.237141   0.025260  -0.035081
   41  O  3 YY    0.024886  -0.051105  -0.085031  -0.276354   0.114147
   42  O  3 ZZ    0.009134  -0.079442  -0.152110   0.251094  -0.079066
   43  O  3 XY    0.034636   0.172517   0.116207   0.015291   0.126833
   44  O  3 XZ   -0.010289   0.240044  -0.087025   0.078965  -0.356895
   45  O  3 YZ   -0.131758  -0.222587   0.108576   0.123401  -0.165164
   46  H  4  S    0.069543  -0.035562   0.077907  -0.311738  -0.311108
   47  H  4  S    0.032904   0.099806   0.150318   0.011762   0.043711
   48  H  4  X    0.027873  -0.360684  -0.114450  -0.083396  -0.014144
   49  H  4  Y   -0.098605   0.008846   0.058904   0.181204  -0.194400
   50  H  4  Z    0.074729   0.164311  -0.018805  -0.476703   0.401152
   51  H  5  S    0.050139  -0.271942  -0.277968  -0.314723  -0.144361
   52  H  5  S   -0.021090  -0.147813  -0.066494  -0.114041  -0.116429
   53  H  5  X    0.020746  -0.044910  -0.122662   0.130429   0.038121
   54  H  5  Y   -0.031118  -0.076379  -0.285420   0.195585   0.014847
   55  H  5  Z   -0.443378   0.167795  -0.181814  -0.117042   0.104340

                     36         37         38         39         40
                    1.6665     1.7912     1.9202     1.9505     2.0799
                     A          A          A          A          A   
    1  N  1  S   -0.001479  -0.019090   0.007780   0.019936  -0.029523
    2  N  1  S    0.132144   0.330192   0.030994  -0.181028   0.528740
    3  N  1  S   -0.448102  -0.695507  -0.474903  -0.201081  -0.411045
    4  N  1  X    0.002248   0.125486   0.038894  -0.113305   0.020713
    5  N  1  Y   -0.053084  -0.045845   0.045490  -0.127738   0.144816
    6  N  1  Z    0.081760  -0.011727   0.014684  -0.010588  -0.020588
    7  N  1  X   -0.229785  -0.995433  -0.386772  -0.295791   0.111434
    8  N  1  Y   -0.051318   0.001141  -0.288825   0.134804  -0.317530
    9  N  1  Z    0.138303  -0.009244   0.046652   0.050311   0.081417
   10  N  1 XX   -0.067446  -0.224821   0.112117   0.138295  -0.347101
   11  N  1 YY    0.061222   0.363275  -0.200866   0.202595  -0.211112
   12  N  1 ZZ    0.006224  -0.138454   0.088750  -0.340890   0.558213
   13  N  1 XY    0.040531  -0.096232  -0.338589   0.013018   0.150607
   14  N  1 XZ   -0.072247   0.027846   0.020912   0.135230   0.047607
   15  N  1 YZ   -0.504925  -0.035159   0.039182   0.114572   0.201179
   16  N  2  S   -0.000243  -0.014032  -0.011528   0.001030  -0.014465
   17  N  2  S   -0.142079  -0.251191   0.046722  -0.283414   0.476180
   18  N  2  S    0.625900   2.264360   0.148520   1.018417  -1.042432
   19  N  2  X    0.021610  -0.042239  -0.180571   0.089029  -0.047935
   20  N  2  Y   -0.032262  -0.056250   0.035673   0.001356  -0.118671
   21  N  2  Z    0.113882  -0.032077   0.046817  -0.041499  -0.013180
   22  N  2  X   -0.040913   0.779279  -0.461546   0.106516  -0.448862
   23  N  2  Y   -0.201915  -0.863192  -0.208511  -0.479216   0.638808
   24  N  2  Z    0.032225   0.135228  -0.103964   0.010098  -0.067059
   25  N  2 XX    0.117529  -0.151880  -0.417178   0.205191  -0.226284
   26  N  2 YY   -0.063843   0.156844   0.330829   0.080332  -0.150746
   27  N  2 ZZ   -0.053686  -0.004964   0.086349  -0.285523   0.377030
   28  N  2 XY    0.016030  -0.164431   0.048794   0.147712   0.012799
   29  N  2 XZ    0.100375   0.093050  -0.157685   0.035009   0.066624
   30  N  2 YZ    0.527688  -0.195587   0.219219  -0.091635   0.040254
   31  O  3  S    0.005541  -0.024323  -0.009453   0.029463   0.022383
   32  O  3  S    0.013887   0.728807   0.029296   0.084628  -0.396707
   33  O  3  S   -0.241216  -2.111331   0.190067  -0.875117   1.085666
   34  O  3  X    0.040174   0.113087  -0.089591   0.111094   0.004839
   35  O  3  Y    0.008072   0.026523   0.103021   0.208375   0.210975
   36  O  3  Z    0.086923  -0.041565   0.031984   0.094055   0.050935
   37  O  3  X    0.093439   0.620495  -0.133055   0.250217  -0.398326
   38  O  3  Y   -0.106288  -0.415094   0.426401  -0.208561   0.053562
   39  O  3  Z   -0.123907   0.018034   0.076390   0.016022  -0.074967
   40  O  3 XX   -0.019416   0.324655  -0.083285  -0.022000   0.016913
   41  O  3 YY    0.099040  -0.154740   0.102244   0.346636  -0.030685
   42  O  3 ZZ   -0.079623  -0.169914  -0.018959  -0.324636   0.013772
   43  O  3 XY    0.049555   0.172821   0.029453   0.075255   0.158997
   44  O  3 XZ    0.192449  -0.099538   0.105268   0.099658   0.016224
   45  O  3 YZ   -0.108280   0.007627   0.034885   0.286763   0.202309
   46  H  4  S   -0.080892   0.183297   0.105565  -0.147106  -0.150751
   47  H  4  S    0.064234   0.014268   0.089081   0.233960   0.201748
   48  H  4  X   -0.182833  -0.277627   0.607588   0.078426  -0.073399
   49  H  4  Y    0.012582  -0.062966  -0.097918   0.574657   0.334364
   50  H  4  Z    0.238233   0.151445   0.190036   0.152742   0.241164
   51  H  5  S    0.042976  -0.214904  -0.147958  -0.170697   0.340776
   52  H  5  S   -0.031513  -0.104019   0.034417  -0.036835  -0.061064
   53  H  5  X    0.015433   0.253831   0.313988   0.080418  -0.203638
   54  H  5  Y    0.016282   0.446009   0.229301   0.011079   0.232877
   55  H  5  Z   -0.379466  -0.007772  -0.069013  -0.016161  -0.058713

                     41         42         43         44         45
                    2.2316     2.2430     2.3035     2.4220     2.4606
                     A          A          A          A          A   
    1  N  1  S    0.024816  -0.009441   0.007019   0.014113   0.010157
    2  N  1  S   -0.047518   0.242069  -0.091345   0.336606   0.200457
    3  N  1  S   -0.720375  -0.855287  -0.035610  -1.444064  -1.125552
    4  N  1  X   -0.216982  -0.414981  -0.114366   0.015161  -0.142729
    5  N  1  Y   -0.109749   0.102973  -0.028962  -0.068490  -0.049952
    6  N  1  Z   -0.007953  -0.000225   0.038023   0.018586  -0.013713
    7  N  1  X   -0.216643  -0.077434   0.040720  -0.750032  -0.540420
    8  N  1  Y   -0.414620  -0.280916  -0.025639  -0.502001  -0.414261
    9  N  1  Z   -0.084241  -0.019917   0.356515   0.132707   0.014726
   10  N  1 XX    0.207622  -0.222823   0.138002  -0.185072   0.042982
   11  N  1 YY   -0.358535   0.103432   0.036733  -0.221073  -0.312851
   12  N  1 ZZ    0.150913   0.119391  -0.174735   0.406145   0.269870
   13  N  1 XY    0.166818   0.314683   0.173340  -0.457241  -0.063410
   14  N  1 XZ   -0.052719  -0.094845  -0.083987  -0.223845   0.423634
   15  N  1 YZ   -0.194670  -0.071563   0.674014   0.245013   0.009218
   16  N  2  S    0.003530   0.003901   0.012133  -0.032308  -0.006968
   17  N  2  S   -0.078620  -0.550601  -0.117136  -0.162602  -0.420969
   18  N  2  S    0.787249   1.306693   0.143994   1.474193   1.368972
   19  N  2  X    0.043774   0.102457   0.062240  -0.281620  -0.189015
   20  N  2  Y   -0.026485   0.087739   0.060773  -0.161026   0.002637
   21  N  2  Z    0.002705   0.015517  -0.017652   0.012061  -0.017047
   22  N  2  X   -0.661295  -0.278726  -0.176169  -0.451720  -0.457854
   23  N  2  Y   -0.158125  -0.643067  -0.086806  -0.459720  -0.546158
   24  N  2  Z    0.166438   0.005683  -0.316779   0.023509   0.061502
   25  N  2 XX   -0.074421   0.125116  -0.027406   0.291293   0.269460
   26  N  2 YY   -0.040004   0.401492   0.094017  -0.007265   0.198254
   27  N  2 ZZ    0.114425  -0.526607  -0.066611  -0.284028  -0.467714
   28  N  2 XY    0.648272  -0.016742   0.282534  -0.179173  -0.079646
   29  N  2 XZ   -0.108888  -0.149205   0.241882   0.076495   0.202064
   30  N  2 YZ   -0.181512  -0.006162   0.341658  -0.088698   0.000281
   31  O  3  S   -0.041104   0.012657  -0.024746   0.021692   0.011666
   32  O  3  S    0.396953  -0.034371   0.154959  -0.202440  -0.210707
   33  O  3  S   -0.133875  -0.398317   0.046289  -0.076554   0.049874
   34  O  3  X   -0.300558   0.145288  -0.133848   0.149186   0.105259
   35  O  3  Y    0.093078  -0.073588  -0.039865  -0.107435  -0.159286
   36  O  3  Z   -0.025058   0.003341  -0.073888  -0.020589   0.009896
   37  O  3  X    0.330112   0.051417   0.091535   0.047335   0.064280
   38  O  3  Y   -0.069889   0.162589   0.009231   0.061076   0.170819
   39  O  3  Z   -0.023192   0.101081   0.105402   0.098148  -0.181985
   40  O  3 XX   -0.192134   0.123308  -0.037039  -0.101746  -0.206654
   41  O  3 YY    0.188865   0.032192  -0.080322   0.455830   0.013283
   42  O  3 ZZ    0.003269  -0.155499   0.117361  -0.354084   0.193372
   43  O  3 XY    0.001588   0.130929  -0.087577  -0.112572  -0.472951
   44  O  3 XZ    0.033354  -0.064506  -0.215258  -0.105196   0.200341
   45  O  3 YZ   -0.232483  -0.121740   0.143252  -0.367352   0.265527
   46  H  4  S    0.037316   0.049482  -0.001542   0.026196  -0.053120
   47  H  4  S   -0.035656  -0.061864  -0.079529   0.033861  -0.032010
   48  H  4  X   -0.225889   0.467029  -0.116705  -0.143458  -0.241674
   49  H  4  Y    0.066353  -0.114675  -0.227347   0.196098  -0.236216
   50  H  4  Z   -0.224568  -0.145139   0.000720  -0.348615   0.321492
   51  H  5  S    0.127531   0.197107   0.035426   0.066901   0.035258
   52  H  5  S   -0.050862  -0.076228  -0.022539  -0.033813  -0.056369
   53  H  5  X    0.228816  -0.416405   0.049552   0.136429   0.064692
   54  H  5  Y    0.491483   0.316139   0.124501   0.067301   0.341125
   55  H  5  Z    0.132173  -0.010766  -0.617543  -0.320420   0.288798

                     46         47         48         49         50
                    2.5339     2.7384     2.7673     2.9124     3.0198
                     A          A          A          A          A   
    1  N  1  S    0.001469  -0.000955   0.024286   0.057595  -0.048263
    2  N  1  S   -0.002512   0.001083   0.013935  -0.019755   0.138907
    3  N  1  S    0.088258   0.168309  -0.889425  -1.257702   1.036386
    4  N  1  X    0.058334   0.202443  -0.174289  -0.114243  -0.232384
    5  N  1  Y   -0.003384  -0.038000  -0.106573  -0.241538   0.250313
    6  N  1  Z    0.003150  -0.014996  -0.010734   0.026567  -0.042694
    7  N  1  X    0.043201   0.192877  -0.516085  -0.471172  -0.153697
    8  N  1  Y    0.014715  -0.065360  -0.136744  -0.428420   0.463932
    9  N  1  Z    0.073861  -0.007283   0.031607  -0.003916  -0.035380
   10  N  1 XX   -0.082710   0.285502  -0.424103  -0.545077   0.033355
   11  N  1 YY    0.065699  -0.339150   0.225445   0.118361   0.298816
   12  N  1 ZZ    0.017010   0.053648   0.198658   0.426717  -0.332172
   13  N  1 XY    0.024948   0.290889  -0.437076  -0.440294  -0.302824
   14  N  1 XZ    0.769673  -0.081236   0.075871  -0.039449   0.003028
   15  N  1 YZ    0.089599  -0.137821  -0.124082   0.019016  -0.114363
   16  N  2  S    0.000217   0.034927  -0.063375  -0.013034   0.043493
   17  N  2  S    0.096411  -0.132239   0.169481  -0.207113   0.038639
   18  N  2  S   -0.355864  -0.846970   1.981018   0.335660  -1.872696
   19  N  2  X   -0.030923  -0.122840   0.150203  -0.412972  -0.358205
   20  N  2  Y   -0.005053   0.202499  -0.374041   0.036731   0.146918
   21  N  2  Z   -0.030556  -0.085028  -0.022418   0.010152  -0.040401
   22  N  2  X   -0.032675  -0.066152   0.005102  -0.976508  -0.367332
   23  N  2  Y    0.172318   0.402449  -0.766008   0.035595   0.515793
   24  N  2  Z   -0.240600  -0.221593  -0.097785   0.057532  -0.053019
   25  N  2 XX   -0.047065   0.098399   0.194318   0.373409  -0.768250
   26  N  2 YY   -0.036423  -0.253982   0.274011  -0.244616   0.356486
   27  N  2 ZZ    0.083488   0.155582  -0.468329  -0.128793   0.411765
   28  N  2 XY    0.101503  -0.161424   0.152182   0.882131   0.289431
   29  N  2 XZ    0.343315  -0.597903  -0.406984  -0.092893  -0.170317
   30  N  2 YZ    0.508213   0.327375   0.186326  -0.069520   0.023790
   31  O  3  S   -0.011716   0.000530   0.008522  -0.032599  -0.043693
   32  O  3  S   -0.057079  -0.326922   0.591360  -0.406711  -0.353034
   33  O  3  S    0.403290   0.887089  -1.776392   1.616798   1.888413
   34  O  3  X   -0.053872   0.001736   0.025973  -0.161440  -0.243444
   35  O  3  Y   -0.013364  -0.023053   0.022807  -0.043826   0.066953
   36  O  3  Z   -0.049157   0.006511   0.024801  -0.045699  -0.060816
   37  O  3  X   -0.170503  -0.463793   0.888911  -0.692239  -0.718734
   38  O  3  Y   -0.087487   0.136994  -0.179125  -0.029902   0.346851
   39  O  3  Z    0.127367   0.241017   0.303184  -0.208287  -0.064908
   40  O  3 XX    0.124740   0.420218  -0.475265   0.547310  -0.025357
   41  O  3 YY    0.171820  -0.039159   0.012820  -0.200848   0.478167
   42  O  3 ZZ   -0.296559  -0.381059   0.462445  -0.346462  -0.452810
   43  O  3 XY    0.203725  -0.228626   0.162657   0.069409  -0.610446
   44  O  3 XZ   -0.197915  -0.565195  -0.612236   0.249134   0.007641
   45  O  3 YZ   -0.224989   0.379753   0.155046   0.331863   0.180781
   46  H  4  S   -0.104781  -0.070932   0.320079  -0.481216  -0.304344
   47  H  4  S   -0.039369   0.028222  -0.005877  -0.015544   0.136453
   48  H  4  X    0.044362  -0.048452  -0.200490   0.055447  -0.305243
   49  H  4  Y   -0.051774   0.019239   0.197812  -0.458230  -0.203956
   50  H  4  Z   -0.353047  -0.094044   0.109057  -0.073881  -0.151919
   51  H  5  S    0.022069   0.172089  -0.042891   0.230793  -0.718731
   52  H  5  S    0.009270   0.041896  -0.037029  -0.037618  -0.256723
   53  H  5  X    0.012021   0.312568  -0.125392   0.109488  -0.729570
   54  H  5  Y   -0.049955   0.141549  -0.178135  -0.274443   0.069725
   55  H  5  Z    0.437433   0.047261   0.082110   0.008568  -0.020475

                     51         52
                    3.2667     3.3069
                     A          A   
    1  N  1  S   -0.054928  -0.027261
    2  N  1  S    0.169221   0.139039
    3  N  1  S    1.172693   0.315678
    4  N  1  X   -0.402216  -0.389564
    5  N  1  Y    0.239113   0.099992
    6  N  1  Z   -0.024634  -0.017354
    7  N  1  X   -0.348936  -0.509226
    8  N  1  Y    0.300457   0.133937
    9  N  1  Z   -0.074355   0.043041
   10  N  1 XX    0.712387   0.378316
   11  N  1 YY   -0.336304  -0.150176
   12  N  1 ZZ   -0.376083  -0.228140
   13  N  1 XY   -0.611621  -0.596987
   14  N  1 XZ    0.035427   0.121070
   15  N  1 YZ   -0.026684   0.007110
   16  N  2  S   -0.027900   0.009339
   17  N  2  S    0.280022  -0.070798
   18  N  2  S    0.097768  -0.087564
   19  N  2  X    0.202757  -0.229178
   20  N  2  Y   -0.110034   0.067956
   21  N  2  Z    0.017589  -0.014471
   22  N  2  X    0.595821  -0.299927
   23  N  2  Y    0.179112   0.004237
   24  N  2  Z    0.040357  -0.086842
   25  N  2 XX    0.473167   0.174578
   26  N  2 YY   -0.422268  -0.216937
   27  N  2 ZZ   -0.050898   0.042359
   28  N  2 XY   -0.288387   0.367053
   29  N  2 XZ   -0.007551   0.026279
   30  N  2 YZ    0.003687   0.089058
   31  O  3  S   -0.004282   0.019858
   32  O  3  S   -0.037979   0.155687
   33  O  3  S   -0.055955  -0.449037
   34  O  3  X    0.067497  -0.037253
   35  O  3  Y   -0.205172   0.206505
   36  O  3  Z   -0.038545   0.071650
   37  O  3  X    0.078738  -0.061834
   38  O  3  Y   -0.792249   0.698771
   39  O  3  Z   -0.145525   0.281243
   40  O  3 XX   -0.188780   0.599429
   41  O  3 YY    0.165213  -0.725680
   42  O  3 ZZ    0.023567   0.126250
   43  O  3 XY    0.690111  -0.436652
   44  O  3 XZ    0.067218  -0.156046
   45  O  3 YZ    0.365945  -0.484335
   46  H  4  S   -0.577903   0.885344
   47  H  4  S   -0.160192   0.261202
   48  H  4  X   -0.144295   0.274518
   49  H  4  Y   -0.495265   0.756921
   50  H  4  Z   -0.229222   0.354807
   51  H  5  S   -1.063303  -0.794374
   52  H  5  S   -0.215337  -0.234545
   53  H  5  X   -0.755834  -0.618493
   54  H  5  Y    0.575197   0.346906
   55  H  5  Z   -0.064552  -0.040186
 ...... END OF RHF CALCULATION ......
 STEP CPU TIME =     4.28 TOTAL CPU TIME =          4.5 (      0.1 MIN)
 TOTAL WALL CLOCK TIME=          5.3 SECONDS, CPU UTILIZATION IS    84.30%

     ---------------------------------------------------------------------
     PROPERTIES FOR THE PBE      DFT FUNCTIONAL (RHF  TYPE) DENSITY MATRIX
     ---------------------------------------------------------------------

          -----------------
          ENERGY COMPONENTS
          -----------------

         WAVEFUNCTION NORMALIZATION =       1.0000000000

                ONE ELECTRON ENERGY =    -395.0037186094
                TWO ELECTRON ENERGY =     137.5305442843
           NUCLEAR REPULSION ENERGY =      71.8865618321
                                      ------------------
                       TOTAL ENERGY =    -185.5866124930

 ELECTRON-ELECTRON POTENTIAL ENERGY =     137.5305442843
  NUCLEUS-ELECTRON POTENTIAL ENERGY =    -580.0329032290
   NUCLEUS-NUCLEUS POTENTIAL ENERGY =      71.8865618321
                                      ------------------
             TOTAL POTENTIAL ENERGY =    -370.6157971126
               TOTAL KINETIC ENERGY =     185.0291846197
                 VIRIAL RATIO (V/T) =       2.0030126484

          ---------------------------------------
          MULLIKEN AND LOWDIN POPULATION ANALYSES
          ---------------------------------------

     ATOMIC MULLIKEN POPULATION IN EACH MOLECULAR ORBITAL

                      1          2          3          4          5

                  2.000000   2.000000   2.000000   2.000000   2.000000

    1             0.000009   0.001555   1.999278   0.060848   0.988410
    2             0.001973   1.998563   0.000746   0.678715   0.599797
    3             1.997895  -0.000224   0.000035   1.210610   0.285250
    4             0.000120   0.000051   0.000056   0.049816   0.018842
    5             0.000002   0.000055  -0.000115   0.000011   0.107702

                      6          7          8          9         10

                  2.000000   2.000000   2.000000   2.000000   2.000000

    1             0.280870   0.707282   0.188326   0.286756   0.736348
    2             0.404061   0.339747   0.722315   0.774830   0.468426
    3             0.950652   0.464320   1.041678   0.910109   0.574319
    4             0.249721   0.116982   0.023406   0.012246   0.102115
    5             0.114696   0.371669   0.024275   0.016059   0.118792

                     11         12

                  2.000000   2.000000

    1             1.088166   0.918693
    2             0.234031   0.714319
    3             0.640454   0.112426
    4             0.014451   0.210516
    5             0.022899   0.044046

               ----- POPULATIONS IN EACH AO -----
                             MULLIKEN      LOWDIN
              1  N  1  S      1.99457     1.97199
              2  N  1  S      0.88140     0.54836
              3  N  1  S      0.75838     0.43863
              4  N  1  X      0.72543     0.65836
              5  N  1  Y      0.89561     0.85471
              6  N  1  Z      0.71772     0.68100
              7  N  1  X      0.21188     0.37636
              8  N  1  Y      0.53735     0.62307
              9  N  1  Z      0.50593     0.53377
             10  N  1 XX      0.00387     0.21138
             11  N  1 YY      0.00384     0.17201
             12  N  1 ZZ      0.01337     0.17290
             13  N  1 XY      0.00329     0.02496
             14  N  1 XZ      0.00391     0.00580
             15  N  1 YZ      0.00000     0.00411
             16  N  2  S      1.99472     1.97132
             17  N  2  S      0.91209     0.55157
             18  N  2  S      0.76197     0.41903
             19  N  2  X      0.71801     0.65203
             20  N  2  Y      0.95643     0.92199
             21  N  2  Z      0.63011     0.57304
             22  N  2  X      0.11020     0.28130
             23  N  2  Y      0.38882     0.50581
             24  N  2  Z      0.38243     0.42377
             25  N  2 XX      0.00859     0.21397
             26  N  2 YY      0.01812     0.17874
             27  N  2 ZZ      0.02902     0.17059
             28  N  2 XY      0.01895     0.05204
             29  N  2 XZ      0.00808     0.03909
             30  N  2 YZ      0.00000     0.00948
             31  O  3  S      1.99521     1.97124
             32  O  3  S      0.94231     0.66683
             33  O  3  S      0.85971     0.45201
             34  O  3  X      0.97814     0.92540
             35  O  3  Y      0.88121     0.81209
             36  O  3  Z      1.05570     1.01109
             37  O  3  X      0.44762     0.52472
             38  O  3  Y      0.40357     0.48925
             39  O  3  Z      0.59071     0.61740
             40  O  3 XX      0.00353     0.20128
             41  O  3 YY      0.01090     0.19200
             42  O  3 ZZ      0.00958     0.18013
             43  O  3 XY      0.00719     0.01612
             44  O  3 XZ      0.00215     0.01044
             45  O  3 YZ      0.00000     0.00484
             46  H  4  S      0.60841     0.51646
             47  H  4  S      0.15130     0.24499
             48  H  4  X      0.00714     0.01642
             49  H  4  Y      0.02261     0.04316
             50  H  4  Z      0.00886     0.01996
             51  H  5  S      0.72905     0.59031
             52  H  5  S      0.05754     0.17813
             53  H  5  X      0.01685     0.03290
             54  H  5  Y      0.00966     0.02313
             55  H  5  Z      0.00699     0.01852

          ----- MULLIKEN ATOMIC OVERLAP POPULATIONS -----
          (OFF-DIAGONAL ELEMENTS NEED TO BE MULTIPLIED BY 2)

             1           2           3           4           5

    1    6.6703342
    2    0.3483654   6.4386704
    3   -0.1380318   0.2062779   7.8906342
    4    0.0413749  -0.0369541   0.2225280   0.5717965
    5    0.3344986  -0.0188376   0.0061157  -0.0004222   0.4987348

          TOTAL MULLIKEN AND LOWDIN ATOMIC POPULATIONS
       ATOM         MULL.POP.    CHARGE          LOW.POP.     CHARGE
    1 N             7.256541   -0.256541         7.277403   -0.277403
    2 N             6.937522    0.062478         6.963766    0.036234
    3 O             8.187524   -0.187524         8.074857   -0.074857
    4 H             0.798323    0.201677         0.840986    0.159014
    5 H             0.820089    0.179911         0.842988    0.157012

          MULLIKEN SPHERICAL HARMONIC POPULATIONS
       ATOM           S       P       D      F      G      H      I    TOTAL
    1 N             3.63    3.59    0.03   0.00   0.00   0.00   0.00    7.26
    2 N             3.67    3.19    0.08   0.00   0.00   0.00   0.00    6.94
    3 O             3.80    4.36    0.03   0.00   0.00   0.00   0.00    8.19
    4 H             0.76    0.04    0.00   0.00   0.00   0.00   0.00    0.80
    5 H             0.79    0.03    0.00   0.00   0.00   0.00   0.00    0.82

          -------------------------------
          BOND ORDER AND VALENCE ANALYSIS     BOND ORDER THRESHOLD=0.050
          -------------------------------

                   BOND                       BOND                       BOND
  ATOM PAIR DIST  ORDER      ATOM PAIR DIST  ORDER      ATOM PAIR DIST  ORDER
    1   2  1.343  1.662        1   3  2.157  0.180        1   4  2.081  0.141
    1   5  1.021  0.926        2   3  1.227  1.201        2   4  1.807  0.095
    3   4  1.100  0.813

                       TOTAL       BONDED        FREE
      ATOM            VALENCE     VALENCE     VALENCE
    1 N                 2.909       2.909       0.000
    2 N                 2.983       2.983       0.000
    3 O                 2.214       2.214       0.000
    4 H                 1.054       1.054       0.000
    5 H                 0.977       0.977       0.000

          ---------------------
          ELECTROSTATIC MOMENTS
          ---------------------

 POINT   1           X           Y           Z (BOHR)    CHARGE
                 0.000000   -0.000000    0.000000        0.00 (A.U.)
         DX          DY          DZ         /D/  (DEBYE)
    -0.665245   -0.553367   -0.657442    1.086737
 ...... END OF PROPERTY EVALUATION ......
 STEP CPU TIME =     0.00 TOTAL CPU TIME =          4.5 (      0.1 MIN)
 TOTAL WALL CLOCK TIME=          5.4 SECONDS, CPU UTILIZATION IS    83.83%

 BEGINNING ONE ELECTRON GRADIENT...
 ..... END OF 1-ELECTRON GRADIENT ......
 STEP CPU TIME =     0.02 TOTAL CPU TIME =          4.5 (      0.1 MIN)
 TOTAL WALL CLOCK TIME=          5.4 SECONDS, CPU UTILIZATION IS    84.04%

          ----------------------
          GRADIENT OF THE ENERGY
          ----------------------
 MEMORY FOR GRID POINT CONTRIBUTIONS TO THE DFT GRADIENT=    210017 WORDS.
 STEP CPU TIME =     0.84 TOTAL CPU TIME =          5.4 (      0.1 MIN)
 TOTAL WALL CLOCK TIME=          6.2 SECONDS, CPU UTILIZATION IS    86.20%

 THE MINIMUM MEMORY REQUIRED FOR THIS RUN IS      88986 WORDS.
 USING     991342 WORDS FOR 2E- DERIVATIVE INTEGRAL CONTRIBUTIONS.
 THE COARSE/FINE SCHWARZ SCREENINGS SKIPPED            0/           0 BLOCKS.
 THE NUMBER OF GRADIENT INTEGRAL BLOCKS COMPUTED WAS     44290
 ...... END OF 2-ELECTRON GRADIENT ......
 STEP CPU TIME =     0.30 TOTAL CPU TIME =          5.7 (      0.1 MIN)
 TOTAL WALL CLOCK TIME=          6.5 SECONDS, CPU UTILIZATION IS    86.70%

          NSERCH=  0     ENERGY=    -185.5866125

                                 -----------------------
                                 GRADIENT (HARTREE/BOHR)
                                 -----------------------
        ATOM     ZNUC       DE/DX         DE/DY         DE/DZ
 --------------------------------------------------------------
    1  N            7.0    -0.0819201    -0.0000961     0.0146331
    2  N            7.0     0.1690036    -0.0501106    -0.0240314
    3  O            8.0    -0.0658222     0.0963707     0.0389055
    4  H            1.0    -0.0174977    -0.0219052    -0.0318072
    5  H            1.0    -0.0037635    -0.0242588     0.0023000

          MAXIMUM GRADIENT = 0.1690036    RMS GRADIENT = 0.0611637

 NSERCH:   0  E=     -185.5866124930  GRAD. MAX=  0.1690036  R.M.S.=  0.0611637

          FORCE CONSTANT MATRIX NOT UPDATED --- TAKING FIRST STEP
          MIN SEARCH, CORRECT HESSIAN, TRYING PURE NR STEP
               NR STEP HAS LENGTH         =   8.207537
          TRIM/QA LAMBDA FOR NON-TS MODES =  -0.22699666
          TRIM/QA STEP HAS LENGTH         =   0.300000
          RADIUS OF STEP TAKEN=   0.30000  CURRENT TRUST RADIUS=   0.30000

 BEGINNING GEOMETRY SEARCH POINT NSERCH=   1 ...

 COORDINATES OF ALL ATOMS ARE (ANGS)
   ATOM   CHARGE       X              Y              Z
 ------------------------------------------------------------
 N           7.0  -1.0736053563  -0.2834588438  -0.0053119040
 N           7.0  -0.0766009639   0.5343087230   0.0221394430
 O           8.0   1.0498715440  -0.1896505610  -0.0335457261
 H           1.0   0.7479622014  -1.1271024292  -0.3439200807
 H           1.0  -1.9709632465   0.2728476860  -0.0353412250

          INTERNUCLEAR DISTANCES (ANGS.)
          ------------------------------

                1 N          2 N          3 O          4 H          5 H     

   1 N       0.0000000    1.2897733 *  2.1257355 *  2.0358041 *  1.0562338 *
   2 N       1.2897733 *  0.0000000    1.3402083 *  1.8905531 *  1.9131844 *
   3 O       2.1257355 *  1.3402083 *  0.0000000    1.0326168 *  3.0560351  
   4 H       2.0358041 *  1.8905531 *  1.0326168 *  0.0000000    3.0737008  
   5 H       1.0562338 *  1.9131844 *  3.0560351    3.0737008    0.0000000  

  * ... LESS THAN  3.000

 ...... END OF ONE-ELECTRON INTEGRALS ......
 STEP CPU TIME =     0.01 TOTAL CPU TIME =          5.7 (      0.1 MIN)
[...]
   54  H  5  Y   -0.010464  -0.013629   0.009611  -0.001687  -0.001356
   55  H  5  Z   -0.002126  -0.002762   0.001922   0.008392  -0.000278

                     11         12         13         14         15
                   -0.2779    -0.2438    -0.0913     0.0144     0.0418
                     A          A          A          A          A   
    1  N  1  S    0.000015   0.051458  -0.000002   0.063270  -0.052394
    2  N  1  S   -0.000036  -0.087515   0.000007  -0.130584   0.107710
    3  N  1  S   -0.000042  -0.274021  -0.000007  -0.511907   0.584030
    4  N  1  X   -0.000709   0.009583   0.000798   0.158597  -0.188575
    5  N  1  Y    0.076595   0.421688  -0.088736   0.029408   0.222628
    6  N  1  Z   -0.380692   0.084804   0.441364   0.005654   0.045113
    7  N  1  X   -0.000482  -0.022192   0.000860   0.235619  -0.370178
    8  N  1  Y    0.053570   0.288359  -0.095173   0.038080   0.268221
    9  N  1  Z   -0.266250   0.058047   0.473339   0.007258   0.054605
   10  N  1 XX   -0.000021   0.001173  -0.000057   0.012049  -0.013483
   11  N  1 YY    0.006810   0.009918   0.000529  -0.006592   0.011588
   12  N  1 ZZ   -0.006789  -0.011091  -0.000472  -0.005457   0.001896
   13  N  1 XY    0.001266  -0.000823   0.003574  -0.012106  -0.007099
   14  N  1 XZ   -0.006485  -0.000192  -0.017789  -0.002472  -0.001397
   15  N  1 YZ   -0.018762   0.005086  -0.001463  -0.000250   0.002359
   16  N  2  S    0.000004   0.069283  -0.000001   0.007422   0.016466
   17  N  2  S   -0.000002  -0.132573   0.000001   0.010807  -0.028115
   18  N  2  S   -0.000042  -0.331244   0.000013  -0.253725  -0.165664
   19  N  2  X   -0.000268  -0.083032  -0.000994   0.095276   0.017053
   20  N  2  Y    0.028263  -0.382158   0.108129  -0.145658   0.036771
   21  N  2  Z   -0.140730  -0.076665  -0.537803  -0.029475   0.007348
   22  N  2  X   -0.000154  -0.051834  -0.000940   0.104432  -0.101634
   23  N  2  Y    0.016464  -0.251392   0.100812  -0.059660   0.063017
   24  N  2  Z   -0.081931  -0.050438  -0.501412  -0.012206   0.012846
   25  N  2 XX    0.000106   0.014981  -0.000031  -0.009352   0.024431
   26  N  2 YY   -0.001972   0.002846   0.000034   0.004542  -0.018264
   27  N  2 ZZ    0.001866  -0.017827  -0.000003   0.004810  -0.006167
   28  N  2 XY   -0.006714  -0.008244   0.001873   0.007163   0.009885
   29  N  2 XZ    0.033430  -0.001733  -0.009319   0.001470   0.001924
   30  N  2 YZ    0.005450   0.005018  -0.000097  -0.000080  -0.002946
   31  O  3  S   -0.000004  -0.036344  -0.000005   0.067978   0.032423
   32  O  3  S    0.000008   0.084944   0.000009  -0.145763  -0.065051
   33  O  3  S    0.000026   0.175183   0.000046  -0.538358  -0.273398
   34  O  3  X    0.000922  -0.175583   0.000428   0.136131  -0.068768
   35  O  3  Y   -0.107383   0.092994  -0.048240   0.217876   0.202453
   36  O  3  Z    0.533854   0.018946   0.239791   0.043594   0.040867
   37  O  3  X    0.000673  -0.112039   0.000404   0.104741  -0.117549
   38  O  3  Y   -0.078532   0.047550  -0.045998   0.255856   0.285092
   39  O  3  Z    0.390415   0.009706   0.228653   0.051289   0.057572
   40  O  3 XX   -0.000040   0.013986   0.000026  -0.001994  -0.006783
   41  O  3 YY    0.002618  -0.013588   0.005214   0.004653   0.009013
   42  O  3 ZZ   -0.002578  -0.000398  -0.005240  -0.002659  -0.002230
   43  O  3 XY    0.002768   0.003525  -0.001592  -0.004837  -0.003434
   44  O  3 XZ   -0.013825   0.000682   0.007778  -0.000975  -0.000681
   45  O  3 YZ   -0.007219  -0.003198  -0.014366   0.001780   0.002728
   46  H  4  S   -0.000014  -0.110647  -0.000031   0.164945   0.181459
   47  H  4  S   -0.000018  -0.147978  -0.000039   0.951240   0.859136
   48  H  4  X    0.000031  -0.002862   0.000024  -0.000805   0.000071
   49  H  4  Y   -0.003664   0.002837  -0.002646  -0.026231  -0.017444
   50  H  4  Z    0.018210   0.000573   0.013156  -0.005275  -0.003509
   51  H  5  S    0.000040   0.193744  -0.000009   0.184425  -0.100498
   52  H  5  S    0.000012   0.018033   0.000003   0.790754  -1.252656
   53  H  5  X   -0.000024   0.010671   0.000034  -0.013734   0.020896
   54  H  5  Y    0.002872   0.004298  -0.003709   0.012621  -0.008267
   55  H  5  Z   -0.014283   0.000847   0.018447   0.002563  -0.001698

                     16         17         18         19         20
                    0.1002     0.2599     0.4643     0.4866     0.5404
                     A          A          A          A          A   
    1  N  1  S    0.010117   0.093612  -0.004104   0.064220  -0.006366
    2  N  1  S   -0.004442  -0.130533   0.101198  -0.308766  -0.061526
    3  N  1  S   -0.146929  -2.113247  -0.118089  -0.288822   0.290462
    4  N  1  X   -0.125100  -0.298801  -0.040564   0.067351  -0.535153
    5  N  1  Y    0.033755  -0.099247   0.228055  -0.416531   0.004273
    6  N  1  Z    0.007015  -0.019406   0.045944  -0.083834   0.001839
    7  N  1  X   -0.430403  -1.477651  -0.244522   0.060407   0.898260
    8  N  1  Y    0.109946  -0.959951  -0.265651  -0.280980  -0.015285
    9  N  1  Z    0.022891  -0.190283  -0.052995  -0.056609  -0.004714
   10  N  1 XX    0.030049  -0.008080  -0.000576   0.077712  -0.004342
   11  N  1 YY   -0.026519   0.006670  -0.004493  -0.000023  -0.016451
   12  N  1 ZZ   -0.003530   0.001410   0.005069  -0.077689   0.020793
   13  N  1 XY   -0.004152   0.039794   0.053721  -0.072964   0.029561
   14  N  1 XZ   -0.000903   0.008020   0.010808  -0.015000   0.005997
   15  N  1 YZ   -0.005554   0.001197  -0.002419   0.018930  -0.009065
   16  N  2  S   -0.106431  -0.092685  -0.022388  -0.052525   0.010142
   17  N  2  S    0.263268   0.180972   0.146106   0.251459   0.029328
   18  N  2  S    1.091615   2.114683   0.313402  -0.037715  -1.184706
   19  N  2  X    0.428791  -0.366578  -0.156897  -0.048837   0.378577
   20  N  2  Y   -0.314395  -0.158822  -0.049481   0.021942  -0.466146
   21  N  2  Z   -0.063999  -0.031247  -0.009689   0.004497  -0.094375
   22  N  2  X    0.653886  -1.268770   0.430599  -0.938411  -1.016886
   23  N  2  Y   -0.604231  -1.027300  -0.221436  -0.009105   0.964548
   24  N  2  Z   -0.122670  -0.204189  -0.045283  -0.000113   0.195739
   25  N  2 XX   -0.032130   0.006523   0.044410  -0.046916  -0.043133
   26  N  2 YY    0.015016  -0.010286  -0.030740   0.029444  -0.006860
   27  N  2 ZZ    0.017114   0.003763  -0.013671   0.017472   0.049994
   28  N  2 XY    0.015101  -0.028797   0.036300  -0.010292  -0.035925
   29  N  2 XZ    0.003141  -0.005794   0.007182  -0.001933  -0.007020
   30  N  2 YZ   -0.000538  -0.003340  -0.004201   0.002915  -0.013681
   31  O  3  S    0.077214  -0.016463   0.036345  -0.009960  -0.008570
   32  O  3  S   -0.155050   0.087388  -0.133589  -0.077730  -0.102038
   33  O  3  S   -0.716928  -0.079153  -0.178442   0.626818   0.985667
   34  O  3  X    0.378461  -0.053638   0.150182   0.280724   0.314863
   35  O  3  Y   -0.294447   0.052840   0.317011   0.243398   0.065616
   36  O  3  Z   -0.059895   0.010719   0.063518   0.048439   0.012626
   37  O  3  X    0.618327   0.087838   0.131544  -0.400473  -0.590541
   38  O  3  Y   -0.443890   0.151260   0.034176   0.159329   0.159929
   39  O  3  Z   -0.090387   0.030244   0.006639   0.032764   0.033227
   40  O  3 XX    0.008910   0.012224  -0.051574   0.011788   0.051198
   41  O  3 YY   -0.001078  -0.028155   0.095055   0.024040  -0.006464
   42  O  3 ZZ   -0.007832   0.015932  -0.043482  -0.035828  -0.044734
   43  O  3 XY   -0.027423  -0.005622   0.038297   0.008778  -0.028000
   44  O  3 XZ   -0.005550  -0.001119   0.007711   0.001661  -0.005836
   45  O  3 YZ    0.001688  -0.010658   0.033465   0.014478   0.009320
   46  H  4  S   -0.055130  -0.199359   1.104360   0.333886   0.024804
   47  H  4  S   -0.205401   0.460459  -0.967621  -0.305251  -0.049487
   48  H  4  X    0.027664   0.012393  -0.026578  -0.033383  -0.005144
   49  H  4  Y    0.002719   0.013562  -0.103787  -0.069752  -0.050460
   50  H  4  Z    0.000498   0.002703  -0.020832  -0.013973  -0.010140
   51  H  5  S    0.108630  -0.207046  -0.339759   0.976748  -0.354233
   52  H  5  S   -0.292057  -0.121075   0.429488  -0.825658   0.342229
   53  H  5  X   -0.009425   0.004134   0.017409  -0.080148   0.085995
   54  H  5  Y   -0.014478  -0.021516  -0.042145   0.057887  -0.013483
   55  H  5  Z   -0.002893  -0.004333  -0.008502   0.011781  -0.002865

                     21         22
                    0.5553     0.5929
                     A          A   
    1  N  1  S   -0.000006  -0.006369
    2  N  1  S    0.000039   0.042506
    3  N  1  S   -0.000027  -1.306944
    4  N  1  X    0.001299   0.166553
    5  N  1  Y   -0.140379   0.493201
    6  N  1  Z    0.698235   0.098840
    7  N  1  X   -0.001259  -0.351627
    8  N  1  Y    0.133456  -0.845806
    9  N  1  Z   -0.663720  -0.169380
   10  N  1 XX    0.000114  -0.088343
   11  N  1 YY   -0.010905   0.021561
   12  N  1 ZZ    0.010791   0.066782
   13  N  1 XY   -0.007259  -0.079890
   14  N  1 XZ    0.036407  -0.015728
   15  N  1 YZ    0.030065  -0.010779
   16  N  2  S   -0.000000  -0.014777
   17  N  2  S    0.000007   0.069047
   18  N  2  S    0.000013   0.740475
   19  N  2  X    0.001004   0.538942
   20  N  2  Y   -0.109305   0.589713
   21  N  2  Z    0.543779   0.117573
   22  N  2  X   -0.000897  -1.254196
   23  N  2  Y    0.099124  -0.894689
   24  N  2  Z   -0.493217  -0.177580
   25  N  2 XX   -0.000084   0.071072
   26  N  2 YY    0.016297  -0.038405
   27  N  2 ZZ   -0.016213  -0.032667
   28  N  2 XY    0.005264   0.066708
   29  N  2 XZ   -0.026612   0.013191
   30  N  2 YZ   -0.044916  -0.001521
   31  O  3  S   -0.000003  -0.020744
   32  O  3  S    0.000020   0.093407
   33  O  3  S   -0.000019   0.217544
   34  O  3  X    0.000398   0.187189
   35  O  3  Y   -0.044707   0.025193
   36  O  3  Z    0.222203   0.004705
   37  O  3  X   -0.000123  -0.136318
   38  O  3  Y    0.014483   0.174258
   39  O  3  Z   -0.071926   0.035295
   40  O  3 XX   -0.000013  -0.001430
   41  O  3 YY   -0.003071   0.010764
   42  O  3 ZZ    0.003084  -0.009334
   43  O  3 XY    0.000831  -0.037655
   44  O  3 XZ   -0.004063  -0.007589
   45  O  3 YZ    0.008458   0.004935
   46  H  4  S   -0.000010  -0.047836
   47  H  4  S   -0.000005  -0.045196
   48  H  4  X   -0.000031  -0.019401
   49  H  4  Y    0.003191  -0.001328
   50  H  4  Z   -0.015845  -0.000230
   51  H  5  S   -0.000021   0.006154
   52  H  5  S   -0.000011   0.134686
   53  H  5  X   -0.000010   0.062006
   54  H  5  Y    0.000695   0.020896
   55  H  5  Z   -0.003452   0.004087

     ---------------------------------------------------------------------
     PROPERTIES FOR THE PBE      DFT FUNCTIONAL (RHF  TYPE) DENSITY MATRIX
     ---------------------------------------------------------------------

          -----------------
          ENERGY COMPONENTS
          -----------------

         WAVEFUNCTION NORMALIZATION =       1.0000000000

                ONE ELECTRON ENERGY =    -393.8260786746
                TWO ELECTRON ENERGY =     137.0013661650
           NUCLEAR REPULSION ENERGY =      71.1992247381
                                      ------------------
                       TOTAL ENERGY =    -185.6254877715

 ELECTRON-ELECTRON POTENTIAL ENERGY =     137.0013661650
  NUCLEUS-ELECTRON POTENTIAL ENERGY =    -578.9130548409
   NUCLEUS-NUCLEUS POTENTIAL ENERGY =      71.1992247381
                                      ------------------
             TOTAL POTENTIAL ENERGY =    -370.7124639378
               TOTAL KINETIC ENERGY =     185.0869761663
                 VIRIAL RATIO (V/T) =       2.0029095057

          ---------------------------------------
          MULLIKEN AND LOWDIN POPULATION ANALYSES
          ---------------------------------------

     ATOMIC MULLIKEN POPULATION IN EACH MOLECULAR ORBITAL

                      1          2          3          4          5

                  2.000000   2.000000   2.000000   2.000000   2.000000

    1             0.000010   0.001937   1.998799   0.240783   0.741699
    2             0.001380   1.997706   0.001132   0.746803   0.481943
    3             1.998639   0.000235   0.000024   0.927461   0.615660
    4            -0.000032   0.000040   0.000051   0.076666   0.082728
    5             0.000003   0.000082  -0.000005   0.008287   0.077970

                      6          7          8          9         10

                  2.000000   2.000000   2.000000   2.000000   2.000000

    1             0.414730   0.706718   0.668775   0.477325   0.333242
    2             0.509459   0.318304   0.760331   0.941108   0.330092
    3             0.679248   0.491068   0.561633   0.576284   1.074366
    4             0.222368   0.134435   0.004225   0.003359   0.153406
    5             0.174196   0.349475   0.005036   0.001923   0.108894

                     11         12

                  2.000000   2.000000

    1             0.681718   0.911464
    2             0.092251   0.783846
    3             1.214545   0.102068
    4             0.007126   0.118444
    5             0.004360   0.084178

               ----- POPULATIONS IN EACH AO -----
                             MULLIKEN      LOWDIN
              1  N  1  S      1.99461     1.97200
              2  N  1  S      0.88630     0.54603
              3  N  1  S      0.75641     0.43871
              4  N  1  X      0.75298     0.68587
              5  N  1  Y      0.91163     0.86454
              6  N  1  Z      0.70600     0.66333
              7  N  1  X      0.21721     0.36973
              8  N  1  Y      0.46183     0.57471
              9  N  1  Z      0.45157     0.48681
             10  N  1 XX      0.00444     0.20732
             11  N  1 YY      0.00668     0.17793
             12  N  1 ZZ      0.01650     0.17244
             13  N  1 XY      0.00493     0.03099
             14  N  1 XZ      0.00612     0.00865
             15  N  1 YZ      0.00000     0.00707
             16  N  2  S      1.99498     1.97221
             17  N  2  S      0.92659     0.56717
             18  N  2  S      0.81943     0.42926
             19  N  2  X      0.69846     0.63641
             20  N  2  Y      0.91891     0.87994
             21  N  2  Z      0.64193     0.58702
             22  N  2  X      0.11875     0.28265
             23  N  2  Y      0.39096     0.50510
             24  N  2  Z      0.38006     0.42767
             25  N  2 XX      0.00833     0.20841
             26  N  2 YY      0.01676     0.18688
             27  N  2 ZZ      0.02543     0.17918
             28  N  2 XY      0.01601     0.04415
             29  N  2 XZ      0.00778     0.03133
             30  N  2 YZ      0.00000     0.00881
             31  O  3  S      1.99518     1.97145
             32  O  3  S      0.93921     0.66589
             33  O  3  S      0.85972     0.46428
             34  O  3  X      0.92940     0.88403
             35  O  3  Y      0.86658     0.79655
             36  O  3  Z      1.09595     1.05919
             37  O  3  X      0.48062     0.54691
             38  O  3  Y      0.38249     0.49834
             39  O  3  Z      0.66843     0.68080
             40  O  3 XX      0.00324     0.19510
             41  O  3 YY      0.00812     0.19591
             42  O  3 ZZ      0.00720     0.18240
             43  O  3 XY      0.00429     0.01204
             44  O  3 XZ      0.00079     0.00566
             45  O  3 YZ      0.00000     0.00201
             46  H  4  S      0.66676     0.54557
             47  H  4  S      0.08783     0.19800
             48  H  4  X      0.00810     0.02030
             49  H  4  Y      0.02890     0.05385
             50  H  4  Z      0.01123     0.02902
             51  H  5  S      0.72647     0.59188
             52  H  5  S      0.05526     0.17897
             53  H  5  X      0.01544     0.02936
             54  H  5  Y      0.01076     0.02374
             55  H  5  Z      0.00647     0.01641

          ----- MULLIKEN ATOMIC OVERLAP POPULATIONS -----
          (OFF-DIAGONAL ELEMENTS NEED TO BE MULTIPLIED BY 2)

             1           2           3           4           5

    1    6.5984117
    2    0.3491105   6.4770944
    3   -0.1378348   0.1887714   7.9076683
    4    0.0356680  -0.0216430   0.2748441   0.5149208
    5    0.3318429  -0.0289761   0.0077821  -0.0009752   0.5047248

          TOTAL MULLIKEN AND LOWDIN ATOMIC POPULATIONS
       ATOM         MULL.POP.    CHARGE          LOW.POP.     CHARGE
    1 N             7.177198   -0.177198         7.206124   -0.206124
    2 N             6.964357    0.035643         6.946204    0.053796
    3 O             8.241231   -0.241231         8.160570   -0.160570
    4 H             0.802815    0.197185         0.846743    0.153257
    5 H             0.814398    0.185602         0.840359    0.159641

          MULLIKEN SPHERICAL HARMONIC POPULATIONS
       ATOM           S       P       D      F      G      H      I    TOTAL
    1 N             3.64    3.50    0.04   0.00   0.00   0.00   0.00    7.18
    2 N             3.74    3.15    0.07   0.00   0.00   0.00   0.00    6.96
    3 O             3.79    4.42    0.02   0.00   0.00   0.00   0.00    8.24
    4 H             0.75    0.05    0.00   0.00   0.00   0.00   0.00    0.80
    5 H             0.78    0.03    0.00   0.00   0.00   0.00   0.00    0.81

          -------------------------------
          BOND ORDER AND VALENCE ANALYSIS     BOND ORDER THRESHOLD=0.050
          -------------------------------

                   BOND                       BOND                       BOND
  ATOM PAIR DIST  ORDER      ATOM PAIR DIST  ORDER      ATOM PAIR DIST  ORDER
    1   2  1.248  1.758        1   3  2.166  0.136        1   4  2.101  0.079
    1   5  1.038  0.917        2   3  1.370  1.076        2   4  1.897  0.057
    3   4  1.000  0.905

                       TOTAL       BONDED        FREE
      ATOM            VALENCE     VALENCE     VALENCE
    1 N                 2.889       2.889       0.000
    2 N                 2.914       2.914       0.000
    3 O                 2.150       2.150       0.000
    4 H                 1.046       1.046       0.000
    5 H                 0.978       0.978       0.000

          ---------------------
          ELECTROSTATIC MOMENTS
          ---------------------

 POINT   1           X           Y           Z (BOHR)    CHARGE
                -0.067174   -0.036421   -0.097456        0.00 (A.U.)
         DX          DY          DZ         /D/  (DEBYE)
    -1.278849   -0.657274   -0.130061    1.443738
 ...... END OF PROPERTY EVALUATION ......
 STEP CPU TIME =     0.01 TOTAL CPU TIME =         72.2 (      1.2 MIN)
 TOTAL WALL CLOCK TIME=         73.9 SECONDS, CPU UTILIZATION IS    97.77%
  $VIB   
          IVIB=   0 IATOM=   0 ICOORD=   0 E=     -185.6254877715
 -1.071014897E-05-3.088695556E-05-1.098372161E-06-3.249732930E-05 4.670819305E-05
  1.087775918E-05 4.056035854E-05-4.107070515E-05-9.065651486E-06 5.184900450E-06
  1.378055327E-05 1.071041297E-06-2.537780719E-06 1.146891439E-05-1.784776827E-06
 -1.278848819E+00-6.572744464E-01-1.300608624E-01
 ......END OF GEOMETRY SEARCH......
 STEP CPU TIME =     0.00 TOTAL CPU TIME =         72.2 (      1.2 MIN)
 TOTAL WALL CLOCK TIME=         73.9 SECONDS, CPU UTILIZATION IS    97.75%
                991462  WORDS OF DYNAMIC MEMORY USED
 EXECUTION OF GAMESS TERMINATED NORMALLY Sun Oct  6 23:48:33 2019
 DDI: 263640 bytes (0.3 MB / 0 MWords) used by master data server.

 ----------------------------------------
 CPU timing information for all processes
 ========================================
 0: 71.323 + 0.931 = 72.255
 ----------------------------------------
 ddikick.x: exited gracefully.
----- accounting info -----
Files used on the master node d12chas532.crc.nd.edu were:
-rw-r--r-- 1 wschnei1 campus 279293 Oct  6 23:48 /scratch365/wschnei1/product-PC1.F07
Sun Oct  6 23:48:36 EDT 2019
0.463u 0.361s 1:18.15 1.0%	0+0k 1008+592io 9pf+0w
