----- GAMESS execution script 'rungms' -----
This job is running on host dftfe.crc.nd.edu
under operating system Linux at Thu Feb 26 00:18:12 EST 2015
Available scratch disk space (Kbyte units) at beginning of the job is
Filesystem     1K-blocks     Used Available Use% Mounted on
/dev/sda2      147771864 22814652 117450780  17% /
GAMESS temporary binary files will be written to /tmp
GAMESS supplementary output files will be written to /tmp
Copying input file gamess.inp to your run's scratch directory...

 Distributed Data Interface kickoff program.
 Initiating 1 compute processes on 1 nodes to run the following command:
 /opt/crc/gamess/2012R1/gamess/gamess.00.x gamess 

          ******************************************************
          *         GAMESS VERSION =  1 MAY 2012 (R1)          *
          *             FROM IOWA STATE UNIVERSITY             *
          * M.W.SCHMIDT, K.K.BALDRIDGE, J.A.BOATZ, S.T.ELBERT, *
          *   M.S.GORDON, J.H.JENSEN, S.KOSEKI, N.MATSUNAGA,   *
          *          K.A.NGUYEN, S.J.SU, T.L.WINDUS,           *
          *       TOGETHER WITH M.DUPUIS, J.A.MONTGOMERY       *
          *         J.COMPUT.CHEM.  14, 1347-1363(1993)        *
          **************** 64 BIT LINUX VERSION ****************

  SINCE 1993, STUDENTS AND POSTDOCS WORKING AT IOWA STATE UNIVERSITY
  AND ALSO IN THEIR VARIOUS JOBS AFTER LEAVING ISU HAVE MADE IMPORTANT
  CONTRIBUTIONS TO THE CODE:
     IVANA ADAMOVIC, CHRISTINE AIKENS, YURI ALEXEEV, POOJA ARORA,
     ANDREY ASADCHEV, ROB BELL, PRADIPTA BANDYOPADHYAY, JONATHAN BENTZ,
     BRETT BODE, GALINA CHABAN, WEI CHEN, CHEOL HO CHOI, PAUL DAY,
     ALBERT DEFUSCO, TIM DUDLEY, DMITRI FEDOROV, GRAHAM FLETCHER,
     MARK FREITAG, KURT GLAESEMANN, DAN KEMP, GRANT MERRILL,
     NORIYUKI MINEZAWA, JONATHAN MULLIN, TAKESHI NAGATA,
     SEAN NEDD, HEATHER NETZLOFF, BOSILJKA NJEGIC, RYAN OLSON, MIKE PAK,
     JIM SHOEMAKER, LYUDMILA SLIPCHENKO, SAROM SOK, JIE SONG,
     TETSUYA TAKETSUGU, SIMON WEBB, SOOHAENG YOO, FEDERICO ZAHARIEV

  ADDITIONAL CODE HAS BEEN PROVIDED BY COLLABORATORS IN OTHER GROUPS:
     IOWA STATE UNIVERSITY:
          JOE IVANIC, LAIMUTIS BYTAUTAS, KLAUS RUEDENBERG
     UNIVERSITY OF TOKYO: KIMIHIKO HIRAO, TAKAHITO NAKAJIMA,
          TAKAO TSUNEDA, MUNEAKI KAMIYA, SUSUMU YANAGISAWA,
          KIYOSHI YAGI, MAHITO CHIBA, SEIKEN TOKURA, NAOAKI KAWAKAMI
     UNIVERSITY OF AARHUS: FRANK JENSEN
     UNIVERSITY OF IOWA: VISVALDAS KAIRYS, HUI LI
     NATIONAL INST. OF STANDARDS AND TECHNOLOGY: WALT STEVENS, DAVID GARMER
     UNIVERSITY OF PISA: BENEDETTA MENNUCCI, JACOPO TOMASI
     UNIVERSITY OF MEMPHIS: HENRY KURTZ, PRAKASHAN KORAMBATH
     UNIVERSITY OF ALBERTA: TOBY ZENG, MARIUSZ KLOBUKOWSKI
     UNIVERSITY OF NEW ENGLAND: MARK SPACKMAN
     MIE UNIVERSITY: HIROAKI UMEDA
     MICHIGAN STATE UNIVERSITY:
          KAROL KOWALSKI, MARTA WLOCH, JEFFREY GOUR, JESSE LUTZ, PIOTR PIECUCH
     UNIVERSITY OF SILESIA: MONIKA MUSIAL, STANISLAW KUCHARSKI
     FACULTES UNIVERSITAIRES NOTRE-DAME DE LA PAIX:
          OLIVIER QUINET, BENOIT CHAMPAGNE
     UNIVERSITY OF CALIFORNIA - SANTA BARBARA: BERNARD KIRTMAN
     INSTITUTE FOR MOLECULAR SCIENCE:
          KAZUYA ISHIMURA, MICHIO KATOUDA, AND SHIGERU NAGASE
     UNIVERSITY OF NOTRE DAME: DAN CHIPMAN
     KYUSHU UNIVERSITY:
          HARUYUKI NAKANO,
          FENG LONG GU, JACEK KORCHOWIEC, MARCIN MAKOWSKI, AND YURIKO AOKI,
          HIROTOSHI MORI AND EISAKU MIYOSHI
     PENNSYLVANIA STATE UNIVERSITY:
          TZVETELIN IORDANOV, CHET SWALINA, JONATHAN SKONE,
          SHARON HAMMES-SCHIFFER
     WASEDA UNIVERSITY:
          MASATO KOBAYASHI, TOMOKO AKAMA, TSUGUKI TOUMA,
          TAKESHI YOSHIKAWA, YASUHIRO IKABATA, HIROMI NAKAI
     UNIVERSITY OF NEBRASKA:
          PEIFENG SU, DEJUN SI, NANDUN THELLAMUREGE, YALI WANG, HUI LI
     UNIVERSITY OF ZURICH:
          ROBERTO PEVERATI, KIM BALDRIDGE
     N. COPERNICUS UNIVERSITY AND JACKSON STATE UNIVERSITY:
          MARIA BARYSZ

 EXECUTION OF GAMESS BEGUN Thu Feb 26 00:18:12 2015

            ECHO OF THE FIRST FEW INPUT CARDS -
 INPUT CARD> $BASIS GBASIS=PC1 $END                                                         
 INPUT CARD> $CONTRL COORD=ZMT ISPHER=1 RUNTYP=ENERGY DFTTYP=PBE $END                       
 INPUT CARD>                                                                                
 INPUT CARD> $DATA                                                                          
 INPUT CARD>Title                                                                           
 INPUT CARD>Cnv 2                                                                           
 INPUT CARD>                                                                                
 INPUT CARD>S                                                                               
 INPUT CARD>O 1 1.60                                                                        
 INPUT CARD>O 1 1.60 2 130.0                                                                
 INPUT CARD> $END                                                                           
    1000000 WORDS OF MEMORY AVAILABLE

     BASIS OPTIONS
     -------------
     GBASIS=PC1          IGAUSS=       0      POLAR=NONE    
     NDFUNC=       0     NFFUNC=       0     DIFFSP=       F
     NPFUNC=       0      DIFFS=       F     BASNAM=        


     RUN TITLE
     ---------
 Title                                                                           

 THE POINT GROUP OF THE MOLECULE IS CNV     
 THE ORDER OF THE PRINCIPAL AXIS IS     2

 YOUR FULLY SUBSTITUTED Z-MATRIX IS
 S   
 O      1   1.6000000
 O      1   1.6000000  2  130.0000

 THE MOMENTS OF INERTIA ARE (AMU-ANGSTROM**2)
 IXX=     7.311   IYY=    67.267   IZZ=    74.579

 ATOM      ATOMIC                      COORDINATES (BOHR)
           CHARGE         X                   Y                   Z
 S          16.0     0.0000000000        0.0000000000       -0.6390834719
 O           8.0    -2.7402774049        0.0000000000        0.6387288675
 O           8.0     2.7402774049        0.0000000000        0.6387288675

          INTERNUCLEAR DISTANCES (ANGS.)
          ------------------------------

                1 S          2 O          3 O     

   1 S       0.0000000    1.6000000 *  1.6000000 *
   2 O       1.6000000 *  0.0000000    2.9001849 *
   3 O       1.6000000 *  2.9001849 *  0.0000000  

  * ... LESS THAN  3.000


     ATOMIC BASIS SET
     ----------------
 THE CONTRACTED PRIMITIVE FUNCTIONS HAVE BEEN UNNORMALIZED
 THE CONTRACTED BASIS FUNCTIONS ARE NOW NORMALIZED TO UNITY

  SHELL TYPE  PRIMITIVE        EXPONENT          CONTRACTION COEFFICIENT(S)

 S         

      1   S       1         55510.0000000    0.000587229760
      1   S       2          8326.7000000    0.004532413947
      1   S       3          1895.6000000    0.023265261648
      1   S       4           536.7700000    0.089696133027
      1   S       5           174.6700000    0.254098332277
      1   S       6            62.5780000    0.438665087637
      1   S       7            23.5730000    0.314547135094
      1   S       8             5.8908000    0.032727897102

      2   S       9          8326.7000000   -0.000019755715
      2   S      10          1895.6000000   -0.000043822381
      2   S      11           536.7700000   -0.001730264906
      2   S      12           174.6700000   -0.009381263460
      2   S      13            62.5780000   -0.064050766303
      2   S      14            23.5730000   -0.082478179196
      2   S      15             5.8908000    0.478342956889
      2   S      16             2.1852000    0.626896670208

      3   S      17          1895.6000000    0.000016227260
      3   S      18           536.7700000    0.000191135619
      3   S      19           174.6700000    0.001952069674
      3   S      20            62.5780000    0.010578701087
      3   S      21            23.5730000    0.022164934551
      3   S      22             5.8908000   -0.184968323118
      3   S      23             2.1852000   -0.480920750976
      3   S      24             0.4528200    1.243822243872

      4   S      25             0.1620200    1.000000000000

      5   P      26           395.4500000    0.004642761329
      5   P      27            92.8340000    0.036023396489
      5   P      28            29.2660000    0.149058869978
      5   P      29            10.5950000    0.360033266263
      5   P      30             4.0272000    0.455756476221
      5   P      31             1.5484000    0.206167664178

      6   P      32            92.8340000    0.000169901442
      6   P      33            29.2660000   -0.002541839934
      6   P      34            10.5950000   -0.007867614595
      6   P      35             4.0272000   -0.037231009184
      6   P      36             1.5484000    0.161417246830
      6   P      37             0.4613400    0.902230419976

      7   P      38             0.1313100    1.000000000000

      8   D      39             0.5500000    1.000000000000

 O         

     15   S      40          2306.7000000    0.005424388755
     15   S      41           347.1500000    0.040474749465
     15   S      42            78.8900000    0.180219634554
     15   S      43            21.8760000    0.462370311787
     15   S      44             6.6646000    0.454888396263

     16   S      45           347.1500000   -0.000655003786
     16   S      46            78.8900000   -0.005362052952
     16   S      47            21.8760000   -0.074902158894
     16   S      48             6.6646000   -0.181442579655
     16   S      49             1.0669000    1.102006874042

     17   S      50             0.3070000    1.000000000000

     18   P      51            17.0220000    0.068979967443
     18   P      52             3.6838000    0.351985516325
     18   P      53             0.9923400    0.724036547822

     19   P      54             0.2448700    1.000000000000

     20   D      55             1.0000000    1.000000000000

 TOTAL NUMBER OF BASIS SET SHELLS             =   20
 NUMBER OF CARTESIAN GAUSSIAN BASIS FUNCTIONS =   49
 NOTE: THIS RUN WILL RESTRICT THE MO VARIATION SPACE TO SPHERICAL HARMONICS.
 THE NUMBER OF ORBITALS KEPT IN THE VARIATIONAL SPACE WILL BE PRINTED LATER.
 NUMBER OF ELECTRONS                          =   32
 CHARGE OF MOLECULE                           =    0
 SPIN MULTIPLICITY                            =    1
 NUMBER OF OCCUPIED ORBITALS (ALPHA)          =   16
 NUMBER OF OCCUPIED ORBITALS (BETA )          =   16
 TOTAL NUMBER OF ATOMS                        =    3
 THE NUCLEAR REPULSION ENERGY IS       96.3460097190

     LEBEDEV GRID-BASED DFT OPTIONS
     ------------------------------
     DFTTYP=PBE     
     NRAD  =      96     NLEB  =     302
     NRAD0 =      24     NLEB0 =     110
     SWOFF =    5.00E-03 (PURE SCF -> DFT)
     SWITCH=    3.00E-04 (COARSE -> TIGHT GRID)
     THRESH=    0.00E+00 GTHRE=    1.00E+00

 GRIMME'S EMPIRICAL DISPERSION CORRECTION= F

     $CONTRL OPTIONS
     ---------------
 SCFTYP=RHF          RUNTYP=ENERGY       EXETYP=RUN     
 MPLEVL=       0     CITYP =NONE         CCTYP =NONE         VBTYP =NONE    
 DFTTYP=PBE          TDDFT =NONE    
 MULT  =       1     ICHARG=       0     NZVAR =       0     COORD =ZMT     
 PP    =NONE         RELWFN=NONE         LOCAL =NONE         NUMGRD=       F
 ISPHER=       1     NOSYM =       0     MAXIT =      30     UNITS =ANGS    
 PLTORB=       F     MOLPLT=       F     AIMPAC=       F     FRIEND=        
 NPRINT=       7     IREST =       0     GEOM  =INPUT   
 NORMF =       0     NORMP =       0     ITOL  =      20     ICUT  =       9
 INTTYP=BEST         GRDTYP=BEST         QMTTOL= 1.0E-06

     $SYSTEM OPTIONS
     ---------------
  REPLICATED MEMORY=     1000000 WORDS (ON EVERY NODE).
 DISTRIBUTED MEMDDI=           0 MILLION WORDS IN AGGREGATE,
 MEMDDI DISTRIBUTED OVER   1 PROCESSORS IS           0 WORDS/PROCESSOR.
 TOTAL MEMORY REQUESTED ON EACH PROCESSOR=     1000000 WORDS.
 TIMLIM=      525600.00 MINUTES, OR     365.0 DAYS.
 PARALL= F  BALTYP=  DLB     KDIAG=    0  COREFL= F
 MXSEQ2=     300 MXSEQ3=     150

          ----------------
          PROPERTIES INPUT
          ----------------

     MOMENTS            FIELD           POTENTIAL          DENSITY
 IEMOM =       1   IEFLD =       0   IEPOT =       0   IEDEN =       0
 WHERE =COMASS     WHERE =NUCLEI     WHERE =NUCLEI     WHERE =NUCLEI  
 OUTPUT=BOTH       OUTPUT=BOTH       OUTPUT=BOTH       OUTPUT=BOTH    
 IEMINT=       0   IEFINT=       0                     IEDINT=       0
                                                       MORB  =       0
          EXTRAPOLATION IN EFFECT
          DIIS IN EFFECT
 ORBITAL PRINTING OPTION: NPREO=     1    49     2     1

     -------------------------------
     INTEGRAL TRANSFORMATION OPTIONS
     -------------------------------
     NWORD  =            0
     CUTOFF = 1.0E-09     MPTRAN =       0
     DIRTRF =       F     AOINTS =DUP     

          ----------------------
          INTEGRAL INPUT OPTIONS
          ----------------------
 NOPK  =       1 NORDER=       0 SCHWRZ=       F

   --- ENCODED Z MATRIX ---
 COORD  TYPE   I   J   K   L   M   N
    1      1    3   1
    2      1    2   1
    3      2    2   1   3

 THE DETERMINANT OF THE G MATRIX IS 10**(    -4)

 THE DETERMINANT OF THE G MATRIX IS 10**(    -4)
 * * * WARNING * * *
 YOUR B MATRIX HAS A SMALL DETERMINANT.
 THIS SUGGESTS YOU MAY HAVE BADLY CHOSEN COORDINATES.

     ------------------------------------------
     THE POINT GROUP IS CNV, NAXIS= 2, ORDER= 4
     ------------------------------------------

 -- VARIATIONAL SPACE WILL BE RESTRICTED TO PURE SPHERICAL HARMONICS ONLY --
 AFTER EXCLUDING CONTAMINANT COMBINATIONS FROM THE CARTESIAN GAUSSIAN BASIS
 SET, THE NUMBER OF SPHERICAL HARMONICS KEPT IN THE VARIATION SPACE IS   46

     DIMENSIONS OF THE SYMMETRY SUBSPACES ARE
 A1  =   19     A2  =    5     B1  =   14     B2  =    8

 ..... DONE SETTING UP THE RUN .....
 STEP CPU TIME =     0.01 TOTAL CPU TIME =        0.0 (    0.0 MIN)
 TOTAL WALL CLOCK TIME=        0.0 SECONDS, CPU UTILIZATION IS  50.00%

          ********************
          1 ELECTRON INTEGRALS
          ********************
 ...... END OF ONE-ELECTRON INTEGRALS ......
 STEP CPU TIME =     0.00 TOTAL CPU TIME =        0.0 (    0.0 MIN)
 TOTAL WALL CLOCK TIME=        0.0 SECONDS, CPU UTILIZATION IS  50.00%

          -------------
          GUESS OPTIONS
          -------------
          GUESS =HUCKEL            NORB  =       0          NORDER=       0
          MIX   =       F          PRTMO =       F          PUNMO =       F
          TOLZ  = 1.0E-08          TOLE  = 1.0E-05
          SYMDEN=       F          PURIFY=       F

 INITIAL GUESS ORBITALS GENERATED BY HUCKEL   ROUTINE.
 HUCKEL GUESS REQUIRES     21583 WORDS.

 STATISTICS FOR GENERATION OF SYMMETRY ORBITAL -Q- MATRIX
 NUMBER OF CARTESIAN ATOMIC ORBITALS=         49
 NUMBER OF SPHERICAL CONTAMINANTS DROPPED=     3
 NUMBER OF LINEARLY DEPENDENT MOS DROPPED=     0
 TOTAL NUMBER OF MOS IN VARIATION SPACE=      46

 SYMMETRIES FOR INITIAL GUESS ORBITALS FOLLOW.   BOTH SET(S).
    16 ORBITALS ARE OCCUPIED (    7 CORE ORBITALS).
     8=?A1      9=?B1     10=?A1     11=B2      12=A1      13=?B1     14=A2  
    15=B1      16=?A1     17=B2      18=?A1     19=?B1     20=A1      21=A1  
    22=A1      23=A1      24=A1      25=A1      26=A1  
 ...... END OF INITIAL ORBITAL SELECTION ......
 STEP CPU TIME =     0.01 TOTAL CPU TIME =        0.0 (    0.0 MIN)
 TOTAL WALL CLOCK TIME=        0.0 SECONDS, CPU UTILIZATION IS  66.67%

                    ----------------------
                    AO INTEGRAL TECHNOLOGY
                    ----------------------
     S,P,L SHELL ROTATED AXIS INTEGRALS, REPROGRAMMED BY
        KAZUYA ISHIMURA (IMS) AND JOSE SIERRA (SYNSTAR).
     S,P,D,L SHELL ROTATED AXIS INTEGRALS PROGRAMMED BY
        KAZUYA ISHIMURA (INSTITUTE FOR MOLECULAR SCIENCE).
     S,P,D,F,G SHELL TO TOTAL QUARTET ANGULAR MOMENTUM SUM 5,
        ERIC PROGRAM BY GRAHAM FLETCHER (ELORET AND NASA ADVANCED
        SUPERCOMPUTING DIVISION, AMES RESEARCH CENTER).
     S,P,D,F,G,L SHELL GENERAL RYS QUADRATURE PROGRAMMED BY
        MICHEL DUPUIS (PACIFIC NORTHWEST NATIONAL LABORATORY).

          --------------------
          2 ELECTRON INTEGRALS
          --------------------

 THE -PK- OPTION IS OFF, THE INTEGRALS ARE NOT IN SUPERMATRIX FORM.
 STORING   15000 INTEGRALS/RECORD ON DISK, USING 12 BYTES/INTEGRAL.
 TWO ELECTRON INTEGRAL EVALUATION REQUIRES   90606 WORDS OF MEMORY.
 II,JST,KST,LST =  1  1  1  1 NREC =         1 INTLOC =    1
 II,JST,KST,LST =  2  1  1  1 NREC =         1 INTLOC =    2
 II,JST,KST,LST =  3  1  1  1 NREC =         1 INTLOC =    7
 II,JST,KST,LST =  4  1  1  1 NREC =         1 INTLOC =   22
 II,JST,KST,LST =  5  1  1  1 NREC =         1 INTLOC =   56
 II,JST,KST,LST =  6  1  1  1 NREC =         1 INTLOC =  125
 II,JST,KST,LST =  7  1  1  1 NREC =         1 INTLOC =  329
 II,JST,KST,LST =  8  1  1  1 NREC =         1 INTLOC =  776
 II,JST,KST,LST =  9  1  1  1 NREC =         1 INTLOC = 2864
 II,JST,KST,LST = 10  1  1  1 NREC =         1 INTLOC = 2864
 II,JST,KST,LST = 11  1  1  1 NREC =         1 INTLOC = 2864
 II,JST,KST,LST = 12  1  1  1 NREC =         1 INTLOC = 2864
 II,JST,KST,LST = 13  1  1  1 NREC =         1 INTLOC = 2864
 II,JST,KST,LST = 14  1  1  1 NREC =         1 INTLOC = 2864
 II,JST,KST,LST = 15  1  1  1 NREC =         1 INTLOC = 2864
 II,JST,KST,LST = 16  1  1  1 NREC =         1 INTLOC = 5054
 II,JST,KST,LST = 17  1  1  1 NREC =         1 INTLOC = 8205
 II,JST,KST,LST = 18  1  1  1 NREC =         1 INTLOC =12615
 II,JST,KST,LST = 19  1  1  1 NREC =         2 INTLOC =14721
 II,JST,KST,LST = 20  1  1  1 NREC =         5 INTLOC =  595
 TOTAL NUMBER OF NONZERO TWO-ELECTRON INTEGRALS =              171043
         12 INTEGRAL RECORDS WERE STORED ON DISK FILE  8.
  ...... END OF TWO-ELECTRON INTEGRALS .....
 STEP CPU TIME =     0.16 TOTAL CPU TIME =        0.2 (    0.0 MIN)
 TOTAL WALL CLOCK TIME=        0.2 SECONDS, CPU UTILIZATION IS 100.00%

          --------------------------
               R-PBE SCF CALCULATION
          --------------------------

     NUCLEAR ENERGY =        96.3460097190
     MAXIT =   30     NPUNCH=    2
     EXTRAP=T  DAMP=F  SHIFT=F  RSTRCT=F  DIIS=T  DEM=F  SOSCF=F
         DENSITY MATRIX CONVERGENCE THRESHOLD=  1.00E-05
     COARSE -> FINE DFT GRID SWITCH THRESHOLD=  3.00E-04 (SWITCH IN $DFT)
                   HF -> DFT SWITCH THRESHOLD=  5.00E-03 (SWOFF IN $DFT)
     MEMORY REQUIRED FOR RHF ITERS=    183108 WORDS.

 DFT CODE IS SWITCHING FROM THE FINE GRID NRAD= 96,  NLEB=  302
                      TO THE COARSE GRID NRAD0= 24, NLEB0=  110

     EXCHANGE FUNCTIONAL   =PBE       
     CORRELATION FUNCTIONAL=PBE       
     DFT THRESHOLD         =.460E-07
     GRID CHANGE THRESHOLD =.300E-03
 FOR AN EULER-MACLAURIN QUADRATURE USING  96 RADIAL POINTS:
 SMALLEST GAUSSIAN PRIMITIVE EXPONENT=        0.1313100000 OF TYPE -P-
 ON ATOM NUMBER   1 HAS RADIAL NORMALIZATION=  1.000000
  LARGEST GAUSSIAN PRIMITIVE EXPONENT=    55510.0000000000 OF TYPE -S-
 ON ATOM NUMBER   1 HAS RADIAL NORMALIZATION=  0.999999
 DFT IS SWITCHED OFF, PERFORMING PURE SCF UNTIL SWOFF THRESHOLD IS REACHED.

 ITER EX DEM     TOTAL ENERGY        E CHANGE  DENSITY CHANGE    DIIS ERROR
   1  0  0     -546.0373437148  -546.0373437148   0.431031316   1.391057087
          * * *   INITIATING DIIS PROCEDURE   * * *
   2  1  0     -546.6586899968    -0.6213462820   0.481218242   0.348262527
   3  2  0     -546.7143322717    -0.0556422749   0.202544972   0.373395966
   4  3  0     -547.0448349825    -0.3305027108   0.020053334   0.012589585
   5  4  0     -547.0457785621    -0.0009435796   0.009153156   0.004530970
   6  5  0     -547.0459238566    -0.0001452944   0.002984640   0.001787508
 CONVERGED TO SWOFF, SO DFT CALCULATION IS NOW SWITCHED ON.
          * * *   INITIATING DIIS PROCEDURE   * * *
   7  6  0     -548.1974954715    -1.1515716150   0.307388022   0.112692027
   8  7  0     -548.1892784329     0.0082170386   0.264287835   0.131007459
   9  8  0     -548.1973850761    -0.0081066432   0.085793835   0.145155350
  10  9  0     -548.2409362183    -0.0435511422   0.015731256   0.015972369
  11 10  0     -548.2416333870    -0.0006971686   0.001125505   0.001447866
  12 11  0     -548.2416376785    -0.0000042915   0.000632938   0.000372658
  13 12  0     -548.2416380962    -0.0000004177   0.000046198   0.000037651
 DFT CODE IS SWITCHING BACK TO THE FINE GRID
          * * *   INITIATING DIIS PROCEDURE   * * *
  14 13  0     -548.2405622415     0.0010758547   0.007991209   0.010239885
  15 14  0     -548.2406113484    -0.0000491069   0.015714446   0.008392138
  16 15  0     -548.2404474775     0.0001638710   0.009219195   0.011856105
  17 16  0     -548.2407567973    -0.0003093198   0.000291276   0.000339216
  18 17  0     -548.2407569741    -0.0000001767   0.000043294   0.000042912
  19 18  0     -548.2407569814    -0.0000000074   0.000016347   0.000010883
  20 19  0     -548.2407569818    -0.0000000004   0.000002309   0.000001424
  21 20  0     -548.2407569818     0.0000000000   0.000000119   0.000000157

          -----------------
          DENSITY CONVERGED
          -----------------
     TIME TO FORM FOCK OPERATORS=       4.3 SECONDS (       0.2 SEC/ITER)
     TIME TO SOLVE SCF EQUATIONS=       0.0 SECONDS (       0.0 SEC/ITER)

 FINAL R-PBE ENERGY IS     -548.2407569818 AFTER  21 ITERATIONS
 DFT EXCHANGE + CORRELATION ENERGY =       -42.3536707253
 TOTAL ELECTRON NUMBER             =        32.0000382552

          ------------
          EIGENVECTORS
          ------------

                      1          2          3          4          5
                  -88.2216   -18.8203   -18.8203    -7.8418    -5.8632
                     A1         A1         B1         A1         B1  
    1  S  1  S    1.002980  -0.000052   0.000000  -0.274090   0.000000
    2  S  1  S   -0.010290  -0.000773   0.000000   1.039395   0.000000
    3  S  1  S    0.001788  -0.001366   0.000000   0.040578   0.000000
    4  S  1  S   -0.000788   0.009050   0.000000  -0.011136   0.000000
    5  S  1  X    0.000000   0.000000   0.000077   0.000000   0.996778
    6  S  1  Y    0.000000   0.000000   0.000000   0.000000   0.000000
    7  S  1  Z    0.000063  -0.000073   0.000000   0.011180   0.000000
    8  S  1  X    0.000000   0.000000  -0.001408   0.000000   0.009096
    9  S  1  Y    0.000000   0.000000   0.000000   0.000000   0.000000
   10  S  1  Z    0.000048   0.000840   0.000000   0.001204   0.000000
   11  S  1  X    0.000000   0.000000  -0.005930   0.000000  -0.000252
   12  S  1  Y    0.000000   0.000000   0.000000   0.000000   0.000000
   13  S  1  Z   -0.000013   0.003190   0.000000  -0.000412   0.000000
   14  S  1 XX    0.000079   0.001139   0.000000   0.001023   0.000000
   15  S  1 YY   -0.000050  -0.000959   0.000000  -0.000552   0.000000
   16  S  1 ZZ   -0.000029  -0.000180   0.000000  -0.000471   0.000000
   17  S  1 XY    0.000000   0.000000   0.000000   0.000000   0.000000
   18  S  1 XZ    0.000000   0.000000  -0.000936   0.000000   0.000797
   19  S  1 YZ    0.000000   0.000000   0.000000   0.000000   0.000000
   20  O  2  S    0.000008   0.703280   0.703273   0.000038   0.000197
   21  O  2  S    0.000036   0.025685   0.025635   0.000090  -0.000008
   22  O  2  S   -0.000035  -0.012193  -0.012316  -0.000076  -0.000207
   23  O  2  X   -0.000017   0.000958   0.000782  -0.000317  -0.000264
   24  O  2  Y    0.000000   0.000000   0.000000   0.000000   0.000000
   25  O  2  Z    0.000005  -0.000220  -0.000496   0.000113   0.000123
   26  O  2  X   -0.000102  -0.003593  -0.002359  -0.000966  -0.000112
   27  O  2  Y    0.000000   0.000000   0.000000   0.000000   0.000000
   28  O  2  Z    0.000064   0.000747   0.001900   0.000662   0.000145
   29  O  2 XX   -0.000085  -0.000457  -0.000221  -0.000606  -0.000294
   30  O  2 YY    0.000062   0.000284   0.000204   0.000446   0.000243
   31  O  2 ZZ    0.000023   0.000173   0.000017   0.000160   0.000051
   32  O  2 XY    0.000000   0.000000   0.000000   0.000000   0.000000
   33  O  2 XZ    0.000085   0.000280   0.000311   0.000627   0.000370
   34  O  2 YZ    0.000000   0.000000   0.000000   0.000000   0.000000
   35  O  3  S    0.000008   0.703280  -0.703273   0.000038  -0.000197
   36  O  3  S    0.000036   0.025685  -0.025635   0.000090   0.000008
   37  O  3  S   -0.000035  -0.012193   0.012316  -0.000076   0.000207
   38  O  3  X    0.000017  -0.000958   0.000782   0.000317  -0.000264
   39  O  3  Y    0.000000   0.000000   0.000000   0.000000   0.000000
   40  O  3  Z    0.000005  -0.000220   0.000496   0.000113  -0.000123
   41  O  3  X    0.000102   0.003593  -0.002359   0.000966  -0.000112
   42  O  3  Y    0.000000   0.000000   0.000000   0.000000   0.000000
   43  O  3  Z    0.000064   0.000747  -0.001900   0.000662  -0.000145
   44  O  3 XX   -0.000085  -0.000457   0.000221  -0.000606   0.000294
   45  O  3 YY    0.000062   0.000284  -0.000204   0.000446  -0.000243
   46  O  3 ZZ    0.000023   0.000173  -0.000017   0.000160  -0.000051
   47  O  3 XY    0.000000   0.000000   0.000000   0.000000   0.000000
   48  O  3 XZ   -0.000085  -0.000280   0.000311  -0.000627   0.000370
   49  O  3 YZ    0.000000   0.000000   0.000000   0.000000   0.000000

                      6          7          8          9         10
                   -5.8616    -5.8573    -0.9926    -0.9325    -0.6158
                     B2         A1         A1         B1         A1  
    1  S  1  S    0.000000   0.003116   0.047866   0.000000   0.069149
    2  S  1  S    0.000000  -0.011891  -0.137539   0.000000  -0.192638
    3  S  1  S    0.000000  -0.000044   0.283186   0.000000   0.440547
    4  S  1  S    0.000000  -0.000688   0.158127   0.000000   0.401581
    5  S  1  X    0.000000   0.000000   0.000000   0.108574   0.000000
    6  S  1  Y    0.996912   0.000000   0.000000   0.000000   0.000000
    7  S  1  Z    0.000000   0.996914  -0.045288   0.000000   0.021431
    8  S  1  X    0.000000   0.000000   0.000000  -0.214193   0.000000
    9  S  1  Y    0.008872   0.000000   0.000000   0.000000   0.000000
   10  S  1  Z    0.000000   0.008582   0.090445   0.000000  -0.038339
   11  S  1  X    0.000000   0.000000   0.000000  -0.023274   0.000000
   12  S  1  Y   -0.000159   0.000000   0.000000   0.000000   0.000000
   13  S  1  Z    0.000000  -0.000246   0.003603   0.000000  -0.042046
   14  S  1 XX    0.000000  -0.000559   0.043842   0.000000  -0.016444
   15  S  1 YY    0.000000  -0.000258  -0.029561   0.000000   0.015963
   16  S  1 ZZ    0.000000   0.000818  -0.014281   0.000000   0.000482
   17  S  1 XY    0.000000   0.000000   0.000000   0.000000   0.000000
   18  S  1 XZ    0.000000   0.000000   0.000000  -0.052848   0.000000
   19  S  1 YZ    0.000640   0.000000   0.000000   0.000000   0.000000
   20  O  2  S    0.000000  -0.000110  -0.125507  -0.147728   0.102945
   21  O  2  S    0.000000  -0.000117   0.249749   0.298533  -0.213644
   22  O  2  S    0.000000   0.000535   0.296966   0.364282  -0.334288
   23  O  2  X    0.000000   0.000182   0.094438   0.084911   0.126028
   24  O  2  Y    0.000024   0.000000   0.000000   0.000000   0.000000
   25  O  2  Z    0.000000  -0.000062  -0.039894  -0.040501  -0.064254
   26  O  2  X    0.000000   0.000291   0.043147   0.036199   0.060419
   27  O  2  Y   -0.000059   0.000000   0.000000   0.000000   0.000000
   28  O  2  Z    0.000000  -0.000219  -0.015528  -0.020056  -0.025276
   29  O  2 XX    0.000000   0.000254   0.011016   0.006129   0.006471
   30  O  2 YY    0.000000  -0.000161  -0.005285  -0.002982  -0.005856
   31  O  2 ZZ    0.000000  -0.000093  -0.005731  -0.003147  -0.000615
   32  O  2 XY    0.000034   0.000000   0.000000   0.000000   0.000000
   33  O  2 XZ    0.000000  -0.000222  -0.007493  -0.006856  -0.006782
   34  O  2 YZ   -0.000028   0.000000   0.000000   0.000000   0.000000
   35  O  3  S    0.000000  -0.000110  -0.125507   0.147728   0.102945
   36  O  3  S    0.000000  -0.000117   0.249749  -0.298533  -0.213644
   37  O  3  S    0.000000   0.000535   0.296966  -0.364282  -0.334288
   38  O  3  X    0.000000  -0.000182  -0.094438   0.084911  -0.126028
   39  O  3  Y    0.000024   0.000000   0.000000   0.000000   0.000000
   40  O  3  Z    0.000000  -0.000062  -0.039894   0.040501  -0.064254
   41  O  3  X    0.000000  -0.000291  -0.043147   0.036199  -0.060419
   42  O  3  Y   -0.000059   0.000000   0.000000   0.000000   0.000000
   43  O  3  Z    0.000000  -0.000219  -0.015528   0.020056  -0.025276
   44  O  3 XX    0.000000   0.000254   0.011016  -0.006129   0.006471
   45  O  3 YY    0.000000  -0.000161  -0.005285   0.002982  -0.005856
   46  O  3 ZZ    0.000000  -0.000093  -0.005731   0.003147  -0.000615
   47  O  3 XY   -0.000034   0.000000   0.000000   0.000000   0.000000
   48  O  3 XZ    0.000000   0.000222   0.007493  -0.006856   0.006782
   49  O  3 YZ   -0.000028   0.000000   0.000000   0.000000   0.000000

                     11         12         13         14         15
                   -0.4406    -0.4168    -0.4136    -0.3250    -0.3100
                     B1         B2         A1         A2         B1  
    1  S  1  S    0.000000   0.000000  -0.009632   0.000000   0.000000
    2  S  1  S    0.000000   0.000000   0.043869   0.000000   0.000000
    3  S  1  S    0.000000   0.000000  -0.039040   0.000000   0.000000
    4  S  1  S    0.000000   0.000000  -0.195185   0.000000   0.000000
    5  S  1  X   -0.173699   0.000000   0.000000   0.000000  -0.016869
    6  S  1  Y    0.000000  -0.205618   0.000000   0.000000   0.000000
    7  S  1  Z    0.000000   0.000000  -0.203084   0.000000   0.000000
    8  S  1  X    0.412705   0.000000   0.000000   0.000000   0.034328
    9  S  1  Y    0.000000   0.482297   0.000000   0.000000   0.000000
   10  S  1  Z    0.000000   0.000000   0.474817   0.000000   0.000000
   11  S  1  X    0.069081   0.000000   0.000000   0.000000   0.109275
   12  S  1  Y    0.000000   0.283249   0.000000   0.000000   0.000000
   13  S  1  Z    0.000000   0.000000   0.244337   0.000000   0.000000
   14  S  1 XX    0.000000   0.000000  -0.027072   0.000000   0.000000
   15  S  1 YY    0.000000   0.000000  -0.018926   0.000000   0.000000
   16  S  1 ZZ    0.000000   0.000000   0.045997   0.000000   0.000000
   17  S  1 XY    0.000000   0.000000   0.000000  -0.108396   0.000000
   18  S  1 XZ    0.038517   0.000000   0.000000   0.000000  -0.099434
   19  S  1 YZ    0.000000   0.039390   0.000000   0.000000   0.000000
   20  O  2  S   -0.063159   0.000000   0.020646   0.000000  -0.001085
   21  O  2  S    0.129147   0.000000  -0.041814   0.000000  -0.000049
   22  O  2  S    0.226938   0.000000  -0.078924   0.000000   0.035429
   23  O  2  X   -0.313575   0.000000   0.253544   0.000000   0.277252
   24  O  2  Y    0.000000   0.299632   0.000000   0.466512   0.000000
   25  O  2  Z    0.194360   0.000000   0.170616   0.000000   0.377601
   26  O  2  X   -0.179765   0.000000   0.163594   0.000000   0.193557
   27  O  2  Y    0.000000   0.181542   0.000000   0.331960   0.000000
   28  O  2  Z    0.120881   0.000000   0.105386   0.000000   0.261908
   29  O  2 XX   -0.007029   0.000000   0.017671   0.000000   0.011682
   30  O  2 YY    0.007762   0.000000  -0.004724   0.000000   0.000517
   31  O  2 ZZ   -0.000733   0.000000  -0.012947   0.000000  -0.012199
   32  O  2 XY    0.000000   0.018175   0.000000   0.016559   0.000000
   33  O  2 XZ    0.012649   0.000000   0.006317   0.000000   0.011490
   34  O  2 YZ    0.000000  -0.007889   0.000000  -0.008118   0.000000
   35  O  3  S    0.063159   0.000000   0.020646   0.000000   0.001085
   36  O  3  S   -0.129147   0.000000  -0.041814   0.000000   0.000049
   37  O  3  S   -0.226938   0.000000  -0.078924   0.000000  -0.035429
   38  O  3  X   -0.313575   0.000000  -0.253544   0.000000   0.277252
   39  O  3  Y    0.000000   0.299632   0.000000  -0.466512   0.000000
   40  O  3  Z   -0.194360   0.000000   0.170616   0.000000  -0.377601
   41  O  3  X   -0.179765   0.000000  -0.163594   0.000000   0.193557
   42  O  3  Y    0.000000   0.181542   0.000000  -0.331960   0.000000
   43  O  3  Z   -0.120881   0.000000   0.105386   0.000000  -0.261908
   44  O  3 XX    0.007029   0.000000   0.017671   0.000000  -0.011682
   45  O  3 YY   -0.007762   0.000000  -0.004724   0.000000  -0.000517
   46  O  3 ZZ    0.000733   0.000000  -0.012947   0.000000   0.012199
   47  O  3 XY    0.000000  -0.018175   0.000000   0.016559   0.000000
   48  O  3 XZ    0.012649   0.000000  -0.006317   0.000000   0.011490
   49  O  3 YZ    0.000000  -0.007889   0.000000   0.008118   0.000000

                     16         17         18         19         20
                   -0.2806    -0.1972    -0.0898     0.0251     0.3587
                     A1         B2         A1         B1         B2  
    1  S  1  S    0.020237   0.000000   0.025685   0.000000   0.000000
    2  S  1  S   -0.094067   0.000000  -0.097279   0.000000   0.000000
    3  S  1  S    0.083882   0.000000   0.143015   0.000000   0.000000
    4  S  1  S    0.471282   0.000000   0.581350   0.000000   0.000000
    5  S  1  X    0.000000   0.000000   0.000000  -0.193761   0.000000
    6  S  1  Y    0.000000  -0.208302   0.000000   0.000000   0.286640
    7  S  1  Z    0.089395   0.000000  -0.183007   0.000000   0.000000
    8  S  1  X    0.000000   0.000000   0.000000   0.501036   0.000000
    9  S  1  Y    0.000000   0.524442   0.000000   0.000000  -1.112743
   10  S  1  Z   -0.217287   0.000000   0.475823   0.000000   0.000000
   11  S  1  X    0.000000   0.000000   0.000000   1.079110   0.000000
   12  S  1  Y    0.000000   0.424578   0.000000   0.000000   1.244880
   13  S  1  Z   -0.072353   0.000000   0.574742   0.000000   0.000000
   14  S  1 XX   -0.138128   0.000000  -0.128690   0.000000   0.000000
   15  S  1 YY    0.059895   0.000000   0.124062   0.000000   0.000000
   16  S  1 ZZ    0.078234   0.000000   0.004628   0.000000   0.000000
   17  S  1 XY    0.000000   0.000000   0.000000   0.000000   0.000000
   18  S  1 XZ    0.000000   0.000000   0.000000  -0.190592   0.000000
   19  S  1 YZ    0.000000  -0.040179   0.000000   0.000000  -0.203340
   20  O  2  S    0.000442   0.000000   0.036525  -0.055432   0.000000
   21  O  2  S   -0.001930   0.000000  -0.073928   0.092782   0.000000
   22  O  2  S   -0.039095   0.000000  -0.278568   0.549547   0.000000
   23  O  2  X   -0.137140   0.000000  -0.386985   0.160148   0.000000
   24  O  2  Y    0.000000  -0.393233   0.000000   0.000000  -0.057927
   25  O  2  Z    0.425061   0.000000  -0.091606  -0.264595   0.000000
   26  O  2  X   -0.102181   0.000000  -0.357773   0.236287   0.000000
   27  O  2  Y    0.000000  -0.314253   0.000000   0.000000  -0.112500
   28  O  2  Z    0.310004   0.000000  -0.074426  -0.268272   0.000000
   29  O  2 XX    0.000626   0.000000   0.001261   0.006184   0.000000
   30  O  2 YY    0.003589   0.000000   0.002510   0.001039   0.000000
   31  O  2 ZZ   -0.004214   0.000000  -0.003771  -0.007222   0.000000
   32  O  2 XY    0.000000  -0.001688   0.000000   0.000000  -0.023763
   33  O  2 XZ    0.010582   0.000000   0.004649   0.004041   0.000000
   34  O  2 YZ    0.000000   0.000024   0.000000   0.000000   0.006183
   35  O  3  S    0.000442   0.000000   0.036525   0.055432   0.000000
   36  O  3  S   -0.001930   0.000000  -0.073928  -0.092782   0.000000
   37  O  3  S   -0.039095   0.000000  -0.278568  -0.549547   0.000000
   38  O  3  X    0.137140   0.000000   0.386985   0.160148   0.000000
   39  O  3  Y    0.000000  -0.393233   0.000000   0.000000  -0.057927
   40  O  3  Z    0.425061   0.000000  -0.091606   0.264595   0.000000
   41  O  3  X    0.102181   0.000000   0.357773   0.236287   0.000000
   42  O  3  Y    0.000000  -0.314253   0.000000   0.000000  -0.112500
   43  O  3  Z    0.310004   0.000000  -0.074426   0.268272   0.000000
   44  O  3 XX    0.000626   0.000000   0.001261  -0.006184   0.000000
   45  O  3 YY    0.003589   0.000000   0.002510  -0.001039   0.000000
   46  O  3 ZZ   -0.004214   0.000000  -0.003771   0.007222   0.000000
   47  O  3 XY    0.000000   0.001688   0.000000   0.000000   0.023763
   48  O  3 XZ   -0.010582   0.000000  -0.004649   0.004041   0.000000
   49  O  3 YZ    0.000000   0.000024   0.000000   0.000000   0.006183

                     21         22         23         24         25
                    0.3590     0.3664     0.3922     0.5020     0.5054
                     A1         B1         A1         A2         B2  
    1  S  1  S   -0.009471   0.000000  -0.114302   0.000000   0.000000
    2  S  1  S   -0.075234   0.000000  -0.401525   0.000000   0.000000
    3  S  1  S   -0.195375   0.000000  -1.748450   0.000000   0.000000
    4  S  1  S    0.514115   0.000000   2.154880   0.000000   0.000000
    5  S  1  X    0.000000   0.293303   0.000000   0.000000   0.000000
    6  S  1  Y    0.000000   0.000000   0.000000   0.000000   0.061040
    7  S  1  Z    0.276416   0.000000  -0.038514   0.000000   0.000000
    8  S  1  X    0.000000  -1.092603   0.000000   0.000000   0.000000
    9  S  1  Y    0.000000   0.000000   0.000000   0.000000  -0.238743
   10  S  1  Z   -1.063273   0.000000   0.151436   0.000000   0.000000
   11  S  1  X    0.000000   1.550295   0.000000   0.000000   0.000000
   12  S  1  Y    0.000000   0.000000   0.000000   0.000000   0.212977
   13  S  1  Z    1.340253   0.000000   0.027532   0.000000   0.000000
   14  S  1 XX    0.140243   0.000000  -0.161098   0.000000   0.000000
   15  S  1 YY    0.105253   0.000000   0.133542   0.000000   0.000000
   16  S  1 ZZ   -0.245496   0.000000   0.027556   0.000000   0.000000
   17  S  1 XY    0.000000   0.000000   0.000000   0.863624   0.000000
   18  S  1 XZ    0.000000   0.105991   0.000000   0.000000   0.000000
   19  S  1 YZ    0.000000   0.000000   0.000000   0.000000   0.933897
   20  O  2  S    0.012994  -0.012803   0.014323   0.000000   0.000000
   21  O  2  S    0.003931  -0.038991  -0.034223   0.000000   0.000000
   22  O  2  S   -0.318067   0.547562  -0.289340   0.000000   0.000000
   23  O  2  X    0.095652  -0.265908   0.097303   0.000000   0.000000
   24  O  2  Y    0.000000   0.000000   0.000000   0.353067  -0.213192
   25  O  2  Z   -0.083165   0.074272  -0.114610   0.000000   0.000000
   26  O  2  X   -0.175363   0.101703  -0.148714   0.000000   0.000000
   27  O  2  Y    0.000000   0.000000   0.000000  -0.139464   0.079028
   28  O  2  Z   -0.046965  -0.105177   0.080324   0.000000   0.000000
   29  O  2 XX   -0.037921   0.031021  -0.032265   0.000000   0.000000
   30  O  2 YY    0.018391  -0.026010   0.028903   0.000000   0.000000
   31  O  2 ZZ    0.019530  -0.005011   0.003362   0.000000   0.000000
   32  O  2 XY    0.000000   0.000000   0.000000  -0.050958   0.033154
   33  O  2 XZ    0.001535  -0.039163   0.041097   0.000000   0.000000
   34  O  2 YZ    0.000000   0.000000   0.000000   0.034964   0.010848
   35  O  3  S    0.012994   0.012803   0.014323   0.000000   0.000000
   36  O  3  S    0.003931   0.038991  -0.034223   0.000000   0.000000
   37  O  3  S   -0.318067  -0.547562  -0.289340   0.000000   0.000000
   38  O  3  X   -0.095652  -0.265908  -0.097303   0.000000   0.000000
   39  O  3  Y    0.000000   0.000000   0.000000  -0.353067  -0.213192
   40  O  3  Z   -0.083165  -0.074272  -0.114610   0.000000   0.000000
   41  O  3  X    0.175363   0.101703   0.148714   0.000000   0.000000
   42  O  3  Y    0.000000   0.000000   0.000000   0.139464   0.079028
   43  O  3  Z   -0.046965   0.105177   0.080324   0.000000   0.000000
   44  O  3 XX   -0.037921  -0.031021  -0.032265   0.000000   0.000000
   45  O  3 YY    0.018391   0.026010   0.028903   0.000000   0.000000
   46  O  3 ZZ    0.019530   0.005011   0.003362   0.000000   0.000000
   47  O  3 XY    0.000000   0.000000   0.000000  -0.050958  -0.033154
   48  O  3 XZ   -0.001535  -0.039163  -0.041097   0.000000   0.000000
   49  O  3 YZ    0.000000   0.000000   0.000000  -0.034964   0.010848

                     26         27         28         29         30
                    0.5099     0.6515     0.6721     0.7871     0.8074
                     A1         B1         A1         A2         B1  
    1  S  1  S   -0.001744   0.000000  -0.003242   0.000000   0.000000
    2  S  1  S   -0.018509   0.000000  -0.100820   0.000000   0.000000
    3  S  1  S   -0.042259   0.000000  -0.149875   0.000000   0.000000
    4  S  1  S    0.115843   0.000000   1.323267   0.000000   0.000000
    5  S  1  X    0.000000  -0.104521   0.000000   0.000000  -0.034561
    6  S  1  Y    0.000000   0.000000   0.000000   0.000000   0.000000
    7  S  1  Z    0.065585   0.000000  -0.069050   0.000000   0.000000
    8  S  1  X    0.000000   0.491024   0.000000   0.000000   0.224019
    9  S  1  Y    0.000000   0.000000   0.000000   0.000000   0.000000
   10  S  1  Z   -0.256637   0.000000   0.325378   0.000000   0.000000
   11  S  1  X    0.000000   0.549209   0.000000   0.000000  -0.340570
   12  S  1  Y    0.000000   0.000000   0.000000   0.000000   0.000000
   13  S  1  Z    0.264945   0.000000   0.266879   0.000000   0.000000
   14  S  1 XX   -0.145041   0.000000   0.715755   0.000000   0.000000
   15  S  1 YY   -0.704662   0.000000  -0.558032   0.000000   0.000000
   16  S  1 ZZ    0.849703   0.000000  -0.157723   0.000000   0.000000
   17  S  1 XY    0.000000   0.000000   0.000000   0.521602   0.000000
   18  S  1 XZ    0.000000   0.814533   0.000000   0.000000   0.206780
   19  S  1 YZ    0.000000   0.000000   0.000000   0.000000   0.000000
   20  O  2  S    0.003684  -0.060392   0.062961   0.000000  -0.000250
   21  O  2  S   -0.011963   0.219859  -0.242006   0.000000  -0.050004
   22  O  2  S   -0.056163   0.341731  -0.352176   0.000000  -0.010921
   23  O  2  X   -0.089712  -0.066641   0.309835   0.000000  -0.374363
   24  O  2  Y    0.000000   0.000000   0.000000  -0.550658   0.000000
   25  O  2  Z   -0.237855   0.244368   0.027836   0.000000  -0.490322
   26  O  2  X    0.013114   0.646937  -0.920700   0.000000   0.567943
   27  O  2  Y    0.000000   0.000000   0.000000   0.767976   0.000000
   28  O  2  Z    0.100102  -0.463124   0.264608   0.000000   0.599266
   29  O  2 XX    0.017352  -0.040903  -0.003756   0.000000  -0.036297
   30  O  2 YY   -0.015265   0.005467  -0.013710   0.000000   0.014604
   31  O  2 ZZ   -0.002087   0.035436   0.017467   0.000000   0.021693
   32  O  2 XY    0.000000   0.000000   0.000000  -0.052587   0.000000
   33  O  2 XZ    0.033739  -0.004941  -0.018254   0.000000   0.000759
   34  O  2 YZ    0.000000   0.000000   0.000000   0.031649   0.000000
   35  O  3  S    0.003684   0.060392   0.062961   0.000000   0.000250
   36  O  3  S   -0.011963  -0.219859  -0.242006   0.000000   0.050004
   37  O  3  S   -0.056163  -0.341731  -0.352176   0.000000   0.010921
   38  O  3  X    0.089712  -0.066641  -0.309835   0.000000  -0.374363
   39  O  3  Y    0.000000   0.000000   0.000000   0.550658   0.000000
   40  O  3  Z   -0.237855  -0.244368   0.027836   0.000000   0.490322
   41  O  3  X   -0.013114   0.646937   0.920700   0.000000   0.567943
   42  O  3  Y    0.000000   0.000000   0.000000  -0.767976   0.000000
   43  O  3  Z    0.100102   0.463124   0.264608   0.000000  -0.599266
   44  O  3 XX    0.017352   0.040903  -0.003756   0.000000   0.036297
   45  O  3 YY   -0.015265  -0.005467  -0.013710   0.000000  -0.014604
   46  O  3 ZZ   -0.002087  -0.035436   0.017467   0.000000  -0.021693
   47  O  3 XY    0.000000   0.000000   0.000000  -0.052587   0.000000
   48  O  3 XZ   -0.033739  -0.004941   0.018254   0.000000   0.000759
   49  O  3 YZ    0.000000   0.000000   0.000000  -0.031649   0.000000

                     31         32         33         34         35
                    0.8213     0.8398     0.8833     0.8940     1.6197
                     A1         B2         B1         A1         B1  
    1  S  1  S    0.014450   0.000000   0.000000  -0.032030   0.000000
    2  S  1  S    0.075347   0.000000   0.000000  -0.202607   0.000000
    3  S  1  S    0.260622   0.000000   0.000000  -0.621112   0.000000
    4  S  1  S   -0.106731   0.000000   0.000000   0.557462   0.000000
    5  S  1  X    0.000000   0.000000   0.018477   0.000000  -0.027435
    6  S  1  Y    0.000000  -0.026329   0.000000   0.000000   0.000000
    7  S  1  Z   -0.033010   0.000000   0.000000  -0.020153   0.000000
    8  S  1  X    0.000000   0.000000  -0.288952   0.000000   0.209646
    9  S  1  Y    0.000000   0.125622   0.000000   0.000000   0.000000
   10  S  1  Z    0.188580   0.000000   0.000000  -0.005467   0.000000
   11  S  1  X    0.000000   0.000000   0.336744   0.000000   1.295680
   12  S  1  Y    0.000000  -0.649578   0.000000   0.000000   0.000000
   13  S  1  Z   -0.605786   0.000000   0.000000   0.003834   0.000000
   14  S  1 XX    0.182406   0.000000   0.000000   0.772951   0.000000
   15  S  1 YY    0.179778   0.000000   0.000000  -0.470458   0.000000
   16  S  1 ZZ   -0.362184   0.000000   0.000000  -0.302493   0.000000
   17  S  1 XY    0.000000   0.000000   0.000000   0.000000   0.000000
   18  S  1 XZ    0.000000   0.000000   0.659495   0.000000   0.311509
   19  S  1 YZ    0.000000  -0.304298   0.000000   0.000000   0.000000
   20  O  2  S   -0.003430   0.000000  -0.011894   0.019913   0.004443
   21  O  2  S    0.075525   0.000000   0.013263  -0.062340  -1.207347
   22  O  2  S    0.007010   0.000000   0.190531  -0.171067   1.910224
   23  O  2  X   -0.089969   0.000000   0.501740  -0.523116  -0.000051
   24  O  2  Y    0.000000  -0.603901   0.000000   0.000000   0.000000
   25  O  2  Z   -0.573688   0.000000  -0.302478   0.159775   0.090287
   26  O  2  X    0.120922   0.000000  -0.447351   0.442916   0.399583
   27  O  2  Y    0.000000   0.900920   0.000000   0.000000   0.000000
   28  O  2  Z    0.861280   0.000000   0.375258   0.017360  -0.411856
   29  O  2 XX   -0.007283   0.000000  -0.021619  -0.060315  -0.123016
   30  O  2 YY   -0.008055   0.000000  -0.022986   0.001567   0.090787
   31  O  2 ZZ    0.015338   0.000000   0.044605   0.058748   0.032229
   32  O  2 XY    0.000000  -0.041558   0.000000   0.000000   0.000000
   33  O  2 XZ   -0.051364   0.000000  -0.050795  -0.022898   0.148327
   34  O  2 YZ    0.000000   0.008246   0.000000   0.000000   0.000000
   35  O  3  S   -0.003430   0.000000   0.011894   0.019913  -0.004443
   36  O  3  S    0.075525   0.000000  -0.013263  -0.062340   1.207347
   37  O  3  S    0.007010   0.000000  -0.190531  -0.171067  -1.910224
   38  O  3  X    0.089969   0.000000   0.501740   0.523116  -0.000051
   39  O  3  Y    0.000000  -0.603901   0.000000   0.000000   0.000000
   40  O  3  Z   -0.573688   0.000000   0.302478   0.159775  -0.090287
   41  O  3  X   -0.120922   0.000000  -0.447351  -0.442916   0.399583
   42  O  3  Y    0.000000   0.900920   0.000000   0.000000   0.000000
   43  O  3  Z    0.861280   0.000000  -0.375258   0.017360   0.411856
   44  O  3 XX   -0.007283   0.000000   0.021619  -0.060315   0.123016
   45  O  3 YY   -0.008055   0.000000   0.022986   0.001567  -0.090787
   46  O  3 ZZ    0.015338   0.000000  -0.044605   0.058748  -0.032229
   47  O  3 XY    0.000000   0.041558   0.000000   0.000000   0.000000
   48  O  3 XZ    0.051364   0.000000  -0.050795   0.022898   0.148327
   49  O  3 YZ    0.000000   0.008246   0.000000   0.000000   0.000000

                     36         37         38         39         40
                    1.6319     2.0703     2.0704     2.0754     2.0822
                     A1         A2         B1         B2         A1  
    1  S  1  S   -0.023394   0.000000   0.000000   0.000000  -0.002180
    2  S  1  S   -0.237661   0.000000   0.000000   0.000000  -0.007949
    3  S  1  S   -0.537710   0.000000   0.000000   0.000000  -0.035077
    4  S  1  S    1.946910   0.000000   0.000000   0.000000   0.025973
    5  S  1  X    0.000000   0.000000  -0.000935   0.000000   0.000000
    6  S  1  Y    0.000000   0.000000   0.000000  -0.014446   0.000000
    7  S  1  Z   -0.012677   0.000000   0.000000   0.000000   0.005536
    8  S  1  X    0.000000   0.000000  -0.001687   0.000000   0.000000
    9  S  1  Y    0.000000   0.000000   0.000000   0.041222   0.000000
   10  S  1  Z    0.102575   0.000000   0.000000   0.000000  -0.022230
   11  S  1  X    0.000000   0.000000   0.043050   0.000000   0.000000
   12  S  1  Y    0.000000   0.000000   0.000000   0.037616   0.000000
   13  S  1  Z    0.691567   0.000000   0.000000   0.000000   0.007276
   14  S  1 XX    0.334060   0.000000   0.000000   0.000000   0.032036
   15  S  1 YY   -0.274880   0.000000   0.000000   0.000000  -0.074335
   16  S  1 ZZ   -0.059180   0.000000   0.000000   0.000000   0.042299
   17  S  1 XY    0.000000   0.025660   0.000000   0.000000   0.000000
   18  S  1 XZ    0.000000   0.000000  -0.027358   0.000000   0.000000
   19  S  1 YZ    0.000000   0.000000   0.000000  -0.013743   0.000000
   20  O  2  S   -0.002566   0.000000   0.000500   0.000000   0.001447
   21  O  2  S    1.155925   0.000000  -0.020987   0.000000  -0.010414
   22  O  2  S   -1.802341   0.000000   0.034218   0.000000  -0.002676
   23  O  2  X    0.072980   0.000000   0.005340   0.000000  -0.015367
   24  O  2  Y    0.000000  -0.006322   0.000000   0.017593   0.000000
   25  O  2  Z    0.050265   0.000000   0.012360   0.000000   0.003666
   26  O  2  X   -0.670876   0.000000  -0.008023   0.000000   0.011206
   27  O  2  Y    0.000000   0.009936   0.000000  -0.029931   0.000000
   28  O  2  Z    0.073539   0.000000  -0.021153   0.000000  -0.002297
   29  O  2 XX    0.200429   0.000000  -0.224722   0.000000  -0.049619
   30  O  2 YY   -0.124763   0.000000   0.604839   0.000000   0.593347
   31  O  2 ZZ   -0.075666   0.000000  -0.380117   0.000000  -0.543727
   32  O  2 XY    0.000000   0.402056   0.000000   0.063596   0.000000
   33  O  2 XZ   -0.103912   0.000000  -0.355597   0.000000  -0.257786
   34  O  2 YZ    0.000000   0.581864   0.000000   0.705001   0.000000
   35  O  3  S   -0.002566   0.000000  -0.000500   0.000000   0.001447
   36  O  3  S    1.155925   0.000000   0.020987   0.000000  -0.010414
   37  O  3  S   -1.802341   0.000000  -0.034218   0.000000  -0.002676
   38  O  3  X   -0.072980   0.000000   0.005340   0.000000   0.015367
   39  O  3  Y    0.000000   0.006322   0.000000   0.017593   0.000000
   40  O  3  Z    0.050265   0.000000  -0.012360   0.000000   0.003666
   41  O  3  X    0.670876   0.000000  -0.008023   0.000000  -0.011206
   42  O  3  Y    0.000000  -0.009936   0.000000  -0.029931   0.000000
   43  O  3  Z    0.073539   0.000000   0.021153   0.000000  -0.002297
   44  O  3 XX    0.200429   0.000000   0.224722   0.000000  -0.049619
   45  O  3 YY   -0.124763   0.000000  -0.604839   0.000000   0.593347
   46  O  3 ZZ   -0.075666   0.000000   0.380117   0.000000  -0.543727
   47  O  3 XY    0.000000   0.402056   0.000000  -0.063596   0.000000
   48  O  3 XZ    0.103912   0.000000  -0.355597   0.000000   0.257786
   49  O  3 YZ    0.000000  -0.581864   0.000000   0.705001   0.000000

                     41         42         43         44         45
                    2.1365     2.1390     2.2277     2.2468     2.6490
                     B2         B1         A2         A1         A1  
    1  S  1  S    0.000000   0.000000   0.000000  -0.003218   0.027828
    2  S  1  S    0.000000   0.000000   0.000000   0.029371  -0.096773
    3  S  1  S    0.000000   0.000000   0.000000  -0.006071   0.215514
    4  S  1  S    0.000000   0.000000   0.000000  -0.349480   1.192428
    5  S  1  X    0.000000  -0.039929   0.000000   0.000000   0.000000
    6  S  1  Y    0.038434   0.000000   0.000000   0.000000   0.000000
    7  S  1  Z    0.000000   0.000000   0.000000   0.049661  -0.086501
    8  S  1  X    0.000000   0.171684   0.000000   0.000000   0.000000
    9  S  1  Y   -0.104805   0.000000   0.000000   0.000000   0.000000
   10  S  1  Z    0.000000   0.000000   0.000000  -0.169939   0.419925
   11  S  1  X    0.000000   0.103331   0.000000   0.000000   0.000000
   12  S  1  Y   -0.146414   0.000000   0.000000   0.000000   0.000000
   13  S  1  Z    0.000000   0.000000   0.000000  -0.269378   0.237127
   14  S  1 XX    0.000000   0.000000   0.000000   0.190519   0.676116
   15  S  1 YY    0.000000   0.000000   0.000000   0.085974  -0.433479
   16  S  1 ZZ    0.000000   0.000000   0.000000  -0.276493  -0.242636
   17  S  1 XY    0.000000   0.000000   0.393603   0.000000   0.000000
   18  S  1 XZ    0.000000  -0.221485   0.000000   0.000000   0.000000
   19  S  1 YZ   -0.204264   0.000000   0.000000   0.000000   0.000000
   20  O  2  S    0.000000   0.001635   0.000000  -0.000079   0.023747
   21  O  2  S    0.000000  -0.140810   0.000000  -0.234221   0.596558
   22  O  2  S    0.000000   0.189332   0.000000   0.367910  -1.149326
   23  O  2  X    0.000000  -0.032648   0.000000  -0.082939   0.038347
   24  O  2  Y   -0.058504   0.000000  -0.040638   0.000000   0.000000
   25  O  2  Z    0.000000   0.062775   0.000000  -0.034910  -0.008697
   26  O  2  X    0.000000   0.054395   0.000000   0.241095  -0.624369
   27  O  2  Y    0.127877   0.000000   0.113792   0.000000   0.000000
   28  O  2  Z    0.000000  -0.122393   0.000000   0.095619   0.283630
   29  O  2 XX    0.000000  -0.366292   0.000000   0.555903  -0.464341
   30  O  2 YY    0.000000  -0.179932   0.000000  -0.102883   0.400047
   31  O  2 ZZ    0.000000   0.546224   0.000000  -0.453020   0.064294
   32  O  2 XY    0.714579   0.000000   0.598200   0.000000   0.000000
   33  O  2 XZ    0.000000  -0.443244   0.000000   0.407542   0.588278
   34  O  2 YZ   -0.069930   0.000000  -0.409058   0.000000   0.000000
   35  O  3  S    0.000000  -0.001635   0.000000  -0.000079   0.023747
   36  O  3  S    0.000000   0.140810   0.000000  -0.234221   0.596558
   37  O  3  S    0.000000  -0.189332   0.000000   0.367910  -1.149326
   38  O  3  X    0.000000  -0.032648   0.000000   0.082939  -0.038347
   39  O  3  Y   -0.058504   0.000000   0.040638   0.000000   0.000000
   40  O  3  Z    0.000000  -0.062775   0.000000  -0.034910  -0.008697
   41  O  3  X    0.000000   0.054395   0.000000  -0.241095   0.624369
   42  O  3  Y    0.127877   0.000000  -0.113792   0.000000   0.000000
   43  O  3  Z    0.000000   0.122393   0.000000   0.095619   0.283630
   44  O  3 XX    0.000000   0.366292   0.000000   0.555903  -0.464341
   45  O  3 YY    0.000000   0.179932   0.000000  -0.102883   0.400047
   46  O  3 ZZ    0.000000  -0.546224   0.000000  -0.453020   0.064294
   47  O  3 XY   -0.714579   0.000000   0.598200   0.000000   0.000000
   48  O  3 XZ    0.000000  -0.443244   0.000000  -0.407542  -0.588278
   49  O  3 YZ   -0.069930   0.000000   0.409058   0.000000   0.000000

                     46
                    2.6677
                     B1  
    1  S  1  S    0.000000
    2  S  1  S    0.000000
    3  S  1  S    0.000000
    4  S  1  S    0.000000
    5  S  1  X   -0.188775
    6  S  1  Y    0.000000
    7  S  1  Z    0.000000
    8  S  1  X    0.882136
    9  S  1  Y    0.000000
   10  S  1  Z    0.000000
   11  S  1  X    0.419520
   12  S  1  Y    0.000000
   13  S  1  Z    0.000000
   14  S  1 XX    0.000000
   15  S  1 YY    0.000000
   16  S  1 ZZ    0.000000
   17  S  1 XY    0.000000
   18  S  1 XZ    0.565340
   19  S  1 YZ    0.000000
   20  O  2  S   -0.022477
   21  O  2  S   -0.520681
   22  O  2  S    1.006680
   23  O  2  X   -0.016295
   24  O  2  Y    0.000000
   25  O  2  Z    0.017079
   26  O  2  X    0.530810
   27  O  2  Y    0.000000
   28  O  2  Z   -0.255458
   29  O  2 XX    0.634752
   30  O  2 YY   -0.355573
   31  O  2 ZZ   -0.279180
   32  O  2 XY    0.000000
   33  O  2 XZ   -0.455582
   34  O  2 YZ    0.000000
   35  O  3  S    0.022477
   36  O  3  S    0.520681
   37  O  3  S   -1.006680
   38  O  3  X   -0.016295
   39  O  3  Y    0.000000
   40  O  3  Z   -0.017079
   41  O  3  X    0.530810
   42  O  3  Y    0.000000
   43  O  3  Z    0.255458
   44  O  3 XX   -0.634752
   45  O  3 YY    0.355573
   46  O  3 ZZ    0.279180
   47  O  3 XY    0.000000
   48  O  3 XZ   -0.455582
   49  O  3 YZ    0.000000
 ...... END OF RHF CALCULATION ......
 STEP CPU TIME =     4.30 TOTAL CPU TIME =        4.5 (    0.1 MIN)
 TOTAL WALL CLOCK TIME=        4.5 SECONDS, CPU UTILIZATION IS 100.00%

     ---------------------------------------------------------------------
     PROPERTIES FOR THE PBE      DFT FUNCTIONAL (RHF  TYPE) DENSITY MATRIX
     ---------------------------------------------------------------------

          -----------------
          ENERGY COMPONENTS
          -----------------

         WAVEFUNCTION NORMALIZATION =       1.0000000000

                ONE ELECTRON ENERGY =    -947.0634938805
                TWO ELECTRON ENERGY =     302.4767271797
           NUCLEAR REPULSION ENERGY =      96.3460097190
                                      ------------------
                       TOTAL ENERGY =    -548.2407569818

 ELECTRON-ELECTRON POTENTIAL ENERGY =     302.4767271797
  NUCLEUS-ELECTRON POTENTIAL ENERGY =   -1494.1614251950
   NUCLEUS-NUCLEUS POTENTIAL ENERGY =      96.3460097190
                                      ------------------
             TOTAL POTENTIAL ENERGY =   -1095.3386882964
               TOTAL KINETIC ENERGY =     547.0979313146
                 VIRIAL RATIO (V/T) =       2.0020888868

          ---------------------------------------
          MULLIKEN AND LOWDIN POPULATION ANALYSES
          ---------------------------------------

     ATOMIC MULLIKEN POPULATION IN EACH MOLECULAR ORBITAL

                      1          2          3          4          5

                  2.000000   2.000000   2.000000   2.000000   2.000000

    1             2.000010   0.001088   0.001193   2.000782   1.999879
    2            -0.000005   0.999456   0.999403  -0.000391   0.000061
    3            -0.000005   0.999456   0.999403  -0.000391   0.000061

                      6          7          8          9         10

                  2.000000   2.000000   2.000000   2.000000   2.000000

    1             2.000005   1.999923   0.633682   0.277426   1.041338
    2            -0.000002   0.000039   0.683159   0.861287   0.479331
    3            -0.000002   0.000039   0.683159   0.861287   0.479331

                     11         12         13         14         15

                  2.000000   2.000000   2.000000   2.000000   2.000000

    1             0.460050   1.091194   1.031702   0.070950   0.106813
    2             0.769975   0.454403   0.484149   0.964525   0.946593
    3             0.769975   0.454403   0.484149   0.964525   0.946593

                     16

                  2.000000

    1             0.458596
    2             0.770702
    3             0.770702

               ----- POPULATIONS IN EACH AO -----
                             MULLIKEN      LOWDIN
              1  S  1  S      2.00022     1.99592
              2  S  1  S      2.01008     1.97100
              3  S  1  S      0.99167     0.61590
              4  S  1  S      0.87099     0.54850
              5  S  1  X      1.99642     1.95282
              6  S  1  Y      1.99619     1.95482
              7  S  1  Z      1.99688     1.96000
              8  S  1  X      0.65518     0.59108
              9  S  1  Y      0.65657     0.62615
             10  S  1  Z      0.78815     0.76100
             11  S  1  X      0.09987     0.26824
             12  S  1  Y      0.43059     0.48158
             13  S  1  Z      0.35567     0.46059
             14  S  1 XX      0.05113     0.28367
             15  S  1 YY      0.10234     0.26942
             16  S  1 ZZ      0.07095     0.27214
             17  S  1 XY      0.09388     0.08404
             18  S  1 XZ      0.00786     0.11593
             19  S  1 YZ      0.00000     0.00751
             20  O  2  S      1.99804     1.98091
             21  O  2  S      0.84582     0.66210
             22  O  2  S      1.08550     0.57899
             23  O  2  X      0.83423     0.79231
             24  O  2  Y      0.84450     0.80939
             25  O  2  Z      1.08138     1.05042
             26  O  2  X      0.47365     0.56540
             27  O  2  Y      0.56975     0.60780
             28  O  2  Z      0.66366     0.70842
             29  O  2 XX      0.00237     0.21023
             30  O  2 YY      0.00452     0.20801
             31  O  2 ZZ      0.00386     0.20312
             32  O  2 XY      0.00459     0.00477
             33  O  2 XZ      0.00082     0.00699
             34  O  2 YZ      0.00000     0.00099
             35  O  3  S      1.99804     1.98091
             36  O  3  S      0.84582     0.66210
             37  O  3  S      1.08550     0.57899
             38  O  3  X      0.83423     0.79231
             39  O  3  Y      0.84450     0.80939
             40  O  3  Z      1.08138     1.05042
             41  O  3  X      0.47365     0.56540
             42  O  3  Y      0.56975     0.60780
             43  O  3  Z      0.66366     0.70842
             44  O  3 XX      0.00237     0.21023
             45  O  3 YY      0.00452     0.20801
             46  O  3 ZZ      0.00386     0.20312
             47  O  3 XY      0.00459     0.00477
             48  O  3 XZ      0.00082     0.00699
             49  O  3 YZ      0.00000     0.00099

          ----- MULLIKEN ATOMIC OVERLAP POPULATIONS -----
          (OFF-DIAGONAL ELEMENTS NEED TO BE MULTIPLIED BY 2)

             1           2           3

    1   14.6552271
    2    0.2597022   8.1660475
    3    0.2597022  -0.0130655   8.1660475

          TOTAL MULLIKEN AND LOWDIN ATOMIC POPULATIONS
       ATOM         MULL.POP.    CHARGE          LOW.POP.     CHARGE
    1 S            15.174632    0.825368        15.220306    0.779694
    2 O             8.412684   -0.412684         8.389847   -0.389847
    3 O             8.412684   -0.412684         8.389847   -0.389847

          MULLIKEN SPHERICAL HARMONIC POPULATIONS
       ATOM           S       P       D      F      G      H      I    TOTAL
    1 S             5.87    8.98    0.33   0.00   0.00   0.00   0.00   15.17
    2 O             3.93    4.47    0.02   0.00   0.00   0.00   0.00    8.41
    3 O             3.93    4.47    0.02   0.00   0.00   0.00   0.00    8.41

          -------------------------------
          BOND ORDER AND VALENCE ANALYSIS     BOND ORDER THRESHOLD=0.050
          -------------------------------

                   BOND                       BOND                       BOND
  ATOM PAIR DIST  ORDER      ATOM PAIR DIST  ORDER      ATOM PAIR DIST  ORDER
    1   2  1.600  1.718        1   3  1.600  1.718        2   3  2.900  0.384

                       TOTAL       BONDED        FREE
      ATOM            VALENCE     VALENCE     VALENCE
    1 S                 3.436       3.436       0.000
    2 O                 2.102       2.102       0.000
    3 O                 2.102       2.102       0.000

          ---------------------
          ELECTROSTATIC MOMENTS
          ---------------------

 POINT   1           X           Y           Z (BOHR)    CHARGE
                 0.000000    0.000000    0.000000        0.00 (A.U.)
         DX          DY          DZ         /D/  (DEBYE)
     0.000000    0.000000   -1.534267    1.534267
 ...... END OF PROPERTY EVALUATION ......
 STEP CPU TIME =     0.00 TOTAL CPU TIME =        4.5 (    0.1 MIN)
 TOTAL WALL CLOCK TIME=        4.5 SECONDS, CPU UTILIZATION IS  99.78%
               580000  WORDS OF DYNAMIC MEMORY USED
 EXECUTION OF GAMESS TERMINATED NORMALLY Thu Feb 26 00:18:16 2015
 DDI: 263624 bytes (0.3 MB / 0 MWords) used by master data server.

 ----------------------------------------
 CPU timing information for all processes
 ========================================
 0: 4.469 + 0.24 = 4.494
 ----------------------------------------
 ddikick.x: exited gracefully.
----- accounting info -----
Files used on the master node dftfe.crc.nd.edu were:
-rw-r--r-- 1 pmehta1 campus   37475 Feb 26 00:18 /tmp/gamess.dat
-rw-r--r-- 1 pmehta1 campus     142 Feb 26 00:18 /tmp/gamess.F05
-rw-r--r-- 1 pmehta1 campus 2160288 Feb 26 00:18 /tmp/gamess.F08
-rw-r--r-- 1 pmehta1 campus 1220440 Feb 26 00:18 /tmp/gamess.F10
Thu Feb 26 00:18:19 EST 2015
0.242u 0.176s 0:07.93 5.1%	0+0k 0+104io 0pf+0w
