----- GAMESS execution script 'rungms' -----
This job is running on host dftfe.crc.nd.edu
under operating system Linux at Thu Feb 26 00:18:54 EST 2015
Available scratch disk space (Kbyte units) at beginning of the job is
Filesystem     1K-blocks     Used Available Use% Mounted on
/dev/sda2      147771864 22815232 117450200  17% /
GAMESS temporary binary files will be written to /tmp
GAMESS supplementary output files will be written to /tmp
Copying input file gamess.inp to your run's scratch directory...

 Distributed Data Interface kickoff program.
 Initiating 1 compute processes on 1 nodes to run the following command:
 /opt/crc/gamess/2012R1/gamess/gamess.00.x gamess 

          ******************************************************
          *         GAMESS VERSION =  1 MAY 2012 (R1)          *
          *             FROM IOWA STATE UNIVERSITY             *
          * M.W.SCHMIDT, K.K.BALDRIDGE, J.A.BOATZ, S.T.ELBERT, *
          *   M.S.GORDON, J.H.JENSEN, S.KOSEKI, N.MATSUNAGA,   *
          *          K.A.NGUYEN, S.J.SU, T.L.WINDUS,           *
          *       TOGETHER WITH M.DUPUIS, J.A.MONTGOMERY       *
          *         J.COMPUT.CHEM.  14, 1347-1363(1993)        *
          **************** 64 BIT LINUX VERSION ****************

  SINCE 1993, STUDENTS AND POSTDOCS WORKING AT IOWA STATE UNIVERSITY
  AND ALSO IN THEIR VARIOUS JOBS AFTER LEAVING ISU HAVE MADE IMPORTANT
  CONTRIBUTIONS TO THE CODE:
     IVANA ADAMOVIC, CHRISTINE AIKENS, YURI ALEXEEV, POOJA ARORA,
     ANDREY ASADCHEV, ROB BELL, PRADIPTA BANDYOPADHYAY, JONATHAN BENTZ,
     BRETT BODE, GALINA CHABAN, WEI CHEN, CHEOL HO CHOI, PAUL DAY,
     ALBERT DEFUSCO, TIM DUDLEY, DMITRI FEDOROV, GRAHAM FLETCHER,
     MARK FREITAG, KURT GLAESEMANN, DAN KEMP, GRANT MERRILL,
     NORIYUKI MINEZAWA, JONATHAN MULLIN, TAKESHI NAGATA,
     SEAN NEDD, HEATHER NETZLOFF, BOSILJKA NJEGIC, RYAN OLSON, MIKE PAK,
     JIM SHOEMAKER, LYUDMILA SLIPCHENKO, SAROM SOK, JIE SONG,
     TETSUYA TAKETSUGU, SIMON WEBB, SOOHAENG YOO, FEDERICO ZAHARIEV

  ADDITIONAL CODE HAS BEEN PROVIDED BY COLLABORATORS IN OTHER GROUPS:
     IOWA STATE UNIVERSITY:
          JOE IVANIC, LAIMUTIS BYTAUTAS, KLAUS RUEDENBERG
     UNIVERSITY OF TOKYO: KIMIHIKO HIRAO, TAKAHITO NAKAJIMA,
          TAKAO TSUNEDA, MUNEAKI KAMIYA, SUSUMU YANAGISAWA,
          KIYOSHI YAGI, MAHITO CHIBA, SEIKEN TOKURA, NAOAKI KAWAKAMI
     UNIVERSITY OF AARHUS: FRANK JENSEN
     UNIVERSITY OF IOWA: VISVALDAS KAIRYS, HUI LI
     NATIONAL INST. OF STANDARDS AND TECHNOLOGY: WALT STEVENS, DAVID GARMER
     UNIVERSITY OF PISA: BENEDETTA MENNUCCI, JACOPO TOMASI
     UNIVERSITY OF MEMPHIS: HENRY KURTZ, PRAKASHAN KORAMBATH
     UNIVERSITY OF ALBERTA: TOBY ZENG, MARIUSZ KLOBUKOWSKI
     UNIVERSITY OF NEW ENGLAND: MARK SPACKMAN
     MIE UNIVERSITY: HIROAKI UMEDA
     MICHIGAN STATE UNIVERSITY:
          KAROL KOWALSKI, MARTA WLOCH, JEFFREY GOUR, JESSE LUTZ, PIOTR PIECUCH
     UNIVERSITY OF SILESIA: MONIKA MUSIAL, STANISLAW KUCHARSKI
     FACULTES UNIVERSITAIRES NOTRE-DAME DE LA PAIX:
          OLIVIER QUINET, BENOIT CHAMPAGNE
     UNIVERSITY OF CALIFORNIA - SANTA BARBARA: BERNARD KIRTMAN
     INSTITUTE FOR MOLECULAR SCIENCE:
          KAZUYA ISHIMURA, MICHIO KATOUDA, AND SHIGERU NAGASE
     UNIVERSITY OF NOTRE DAME: DAN CHIPMAN
     KYUSHU UNIVERSITY:
          HARUYUKI NAKANO,
          FENG LONG GU, JACEK KORCHOWIEC, MARCIN MAKOWSKI, AND YURIKO AOKI,
          HIROTOSHI MORI AND EISAKU MIYOSHI
     PENNSYLVANIA STATE UNIVERSITY:
          TZVETELIN IORDANOV, CHET SWALINA, JONATHAN SKONE,
          SHARON HAMMES-SCHIFFER
     WASEDA UNIVERSITY:
          MASATO KOBAYASHI, TOMOKO AKAMA, TSUGUKI TOUMA,
          TAKESHI YOSHIKAWA, YASUHIRO IKABATA, HIROMI NAKAI
     UNIVERSITY OF NEBRASKA:
          PEIFENG SU, DEJUN SI, NANDUN THELLAMUREGE, YALI WANG, HUI LI
     UNIVERSITY OF ZURICH:
          ROBERTO PEVERATI, KIM BALDRIDGE
     N. COPERNICUS UNIVERSITY AND JACKSON STATE UNIVERSITY:
          MARIA BARYSZ

 EXECUTION OF GAMESS BEGUN Thu Feb 26 00:18:54 2015

            ECHO OF THE FIRST FEW INPUT CARDS -
 INPUT CARD> $BASIS GBASIS=PC1 $END                                                         
 INPUT CARD> $CONTRL COORD=ZMT ISPHER=1 RUNTYP=ENERGY DFTTYP=PBE $END                       
 INPUT CARD>                                                                                
 INPUT CARD> $DATA                                                                          
 INPUT CARD>Title                                                                           
 INPUT CARD>Cnv 2                                                                           
 INPUT CARD>                                                                                
 INPUT CARD>S                                                                               
 INPUT CARD>O 1 1.70                                                                        
 INPUT CARD>O 1 1.70 2 90.0                                                                 
 INPUT CARD> $END                                                                           
    1000000 WORDS OF MEMORY AVAILABLE

     BASIS OPTIONS
     -------------
     GBASIS=PC1          IGAUSS=       0      POLAR=NONE    
     NDFUNC=       0     NFFUNC=       0     DIFFSP=       F
     NPFUNC=       0      DIFFS=       F     BASNAM=        


     RUN TITLE
     ---------
 Title                                                                           

 THE POINT GROUP OF THE MOLECULE IS CNV     
 THE ORDER OF THE PRINCIPAL AXIS IS     2

 YOUR FULLY SUBSTITUTED Z-MATRIX IS
 S   
 O      1   1.7000000
 O      1   1.7000000  2   90.0000

 THE MOMENTS OF INERTIA ARE (AMU-ANGSTROM**2)
 IXX=    23.106   IYY=    46.225   IZZ=    69.332

 ATOM      ATOMIC                      COORDINATES (BOHR)
           CHARGE         X                   Y                   Z
 S          16.0     0.0000000000        0.0000000000       -1.1361175468
 O           8.0    -2.2716047029        0.0000000000        1.1354871561
 O           8.0     2.2716047029        0.0000000000        1.1354871561

          INTERNUCLEAR DISTANCES (ANGS.)
          ------------------------------

                1 S          2 O          3 O     

   1 S       0.0000000    1.7000000 *  1.7000000 *
   2 O       1.7000000 *  0.0000000    2.4041631 *
   3 O       1.7000000 *  2.4041631 *  0.0000000  

  * ... LESS THAN  3.000


     ATOMIC BASIS SET
     ----------------
 THE CONTRACTED PRIMITIVE FUNCTIONS HAVE BEEN UNNORMALIZED
 THE CONTRACTED BASIS FUNCTIONS ARE NOW NORMALIZED TO UNITY

  SHELL TYPE  PRIMITIVE        EXPONENT          CONTRACTION COEFFICIENT(S)

 S         

      1   S       1         55510.0000000    0.000587229760
      1   S       2          8326.7000000    0.004532413947
      1   S       3          1895.6000000    0.023265261648
      1   S       4           536.7700000    0.089696133027
      1   S       5           174.6700000    0.254098332277
      1   S       6            62.5780000    0.438665087637
      1   S       7            23.5730000    0.314547135094
      1   S       8             5.8908000    0.032727897102

      2   S       9          8326.7000000   -0.000019755715
      2   S      10          1895.6000000   -0.000043822381
      2   S      11           536.7700000   -0.001730264906
      2   S      12           174.6700000   -0.009381263460
      2   S      13            62.5780000   -0.064050766303
      2   S      14            23.5730000   -0.082478179196
      2   S      15             5.8908000    0.478342956889
      2   S      16             2.1852000    0.626896670208

      3   S      17          1895.6000000    0.000016227260
      3   S      18           536.7700000    0.000191135619
      3   S      19           174.6700000    0.001952069674
      3   S      20            62.5780000    0.010578701087
      3   S      21            23.5730000    0.022164934551
      3   S      22             5.8908000   -0.184968323118
      3   S      23             2.1852000   -0.480920750976
      3   S      24             0.4528200    1.243822243872

      4   S      25             0.1620200    1.000000000000

      5   P      26           395.4500000    0.004642761329
      5   P      27            92.8340000    0.036023396489
      5   P      28            29.2660000    0.149058869978
      5   P      29            10.5950000    0.360033266263
      5   P      30             4.0272000    0.455756476221
      5   P      31             1.5484000    0.206167664178

      6   P      32            92.8340000    0.000169901442
      6   P      33            29.2660000   -0.002541839934
      6   P      34            10.5950000   -0.007867614595
      6   P      35             4.0272000   -0.037231009184
      6   P      36             1.5484000    0.161417246830
      6   P      37             0.4613400    0.902230419976

      7   P      38             0.1313100    1.000000000000

      8   D      39             0.5500000    1.000000000000

 O         

     15   S      40          2306.7000000    0.005424388755
     15   S      41           347.1500000    0.040474749465
     15   S      42            78.8900000    0.180219634554
     15   S      43            21.8760000    0.462370311787
     15   S      44             6.6646000    0.454888396263

     16   S      45           347.1500000   -0.000655003786
     16   S      46            78.8900000   -0.005362052952
     16   S      47            21.8760000   -0.074902158894
     16   S      48             6.6646000   -0.181442579655
     16   S      49             1.0669000    1.102006874042

     17   S      50             0.3070000    1.000000000000

     18   P      51            17.0220000    0.068979967443
     18   P      52             3.6838000    0.351985516325
     18   P      53             0.9923400    0.724036547822

     19   P      54             0.2448700    1.000000000000

     20   D      55             1.0000000    1.000000000000

 TOTAL NUMBER OF BASIS SET SHELLS             =   20
 NUMBER OF CARTESIAN GAUSSIAN BASIS FUNCTIONS =   49
 NOTE: THIS RUN WILL RESTRICT THE MO VARIATION SPACE TO SPHERICAL HARMONICS.
 THE NUMBER OF ORBITALS KEPT IN THE VARIATIONAL SPACE WILL BE PRINTED LATER.
 NUMBER OF ELECTRONS                          =   32
 CHARGE OF MOLECULE                           =    0
 SPIN MULTIPLICITY                            =    1
 NUMBER OF OCCUPIED ORBITALS (ALPHA)          =   16
 NUMBER OF OCCUPIED ORBITALS (BETA )          =   16
 TOTAL NUMBER OF ATOMS                        =    3
 THE NUCLEAR REPULSION ENERGY IS       93.7748261025

     LEBEDEV GRID-BASED DFT OPTIONS
     ------------------------------
     DFTTYP=PBE     
     NRAD  =      96     NLEB  =     302
     NRAD0 =      24     NLEB0 =     110
     SWOFF =    5.00E-03 (PURE SCF -> DFT)
     SWITCH=    3.00E-04 (COARSE -> TIGHT GRID)
     THRESH=    0.00E+00 GTHRE=    1.00E+00

 GRIMME'S EMPIRICAL DISPERSION CORRECTION= F

     $CONTRL OPTIONS
     ---------------
 SCFTYP=RHF          RUNTYP=ENERGY       EXETYP=RUN     
 MPLEVL=       0     CITYP =NONE         CCTYP =NONE         VBTYP =NONE    
 DFTTYP=PBE          TDDFT =NONE    
 MULT  =       1     ICHARG=       0     NZVAR =       0     COORD =ZMT     
 PP    =NONE         RELWFN=NONE         LOCAL =NONE         NUMGRD=       F
 ISPHER=       1     NOSYM =       0     MAXIT =      30     UNITS =ANGS    
 PLTORB=       F     MOLPLT=       F     AIMPAC=       F     FRIEND=        
 NPRINT=       7     IREST =       0     GEOM  =INPUT   
 NORMF =       0     NORMP =       0     ITOL  =      20     ICUT  =       9
 INTTYP=BEST         GRDTYP=BEST         QMTTOL= 1.0E-06

     $SYSTEM OPTIONS
     ---------------
  REPLICATED MEMORY=     1000000 WORDS (ON EVERY NODE).
 DISTRIBUTED MEMDDI=           0 MILLION WORDS IN AGGREGATE,
 MEMDDI DISTRIBUTED OVER   1 PROCESSORS IS           0 WORDS/PROCESSOR.
 TOTAL MEMORY REQUESTED ON EACH PROCESSOR=     1000000 WORDS.
 TIMLIM=      525600.00 MINUTES, OR     365.0 DAYS.
 PARALL= F  BALTYP=  DLB     KDIAG=    0  COREFL= F
 MXSEQ2=     300 MXSEQ3=     150

          ----------------
          PROPERTIES INPUT
          ----------------

     MOMENTS            FIELD           POTENTIAL          DENSITY
 IEMOM =       1   IEFLD =       0   IEPOT =       0   IEDEN =       0
 WHERE =COMASS     WHERE =NUCLEI     WHERE =NUCLEI     WHERE =NUCLEI  
 OUTPUT=BOTH       OUTPUT=BOTH       OUTPUT=BOTH       OUTPUT=BOTH    
 IEMINT=       0   IEFINT=       0                     IEDINT=       0
                                                       MORB  =       0
          EXTRAPOLATION IN EFFECT
          DIIS IN EFFECT
 ORBITAL PRINTING OPTION: NPREO=     1    49     2     1

     -------------------------------
     INTEGRAL TRANSFORMATION OPTIONS
     -------------------------------
     NWORD  =            0
     CUTOFF = 1.0E-09     MPTRAN =       0
     DIRTRF =       F     AOINTS =DUP     

          ----------------------
          INTEGRAL INPUT OPTIONS
          ----------------------
 NOPK  =       1 NORDER=       0 SCHWRZ=       F

   --- ENCODED Z MATRIX ---
 COORD  TYPE   I   J   K   L   M   N
    1      1    3   1
    2      1    2   1
    3      2    2   1   3

 THE DETERMINANT OF THE G MATRIX IS 10**(    -4)

 THE DETERMINANT OF THE G MATRIX IS 10**(    -4)
 * * * WARNING * * *
 YOUR B MATRIX HAS A SMALL DETERMINANT.
 THIS SUGGESTS YOU MAY HAVE BADLY CHOSEN COORDINATES.

     ------------------------------------------
     THE POINT GROUP IS CNV, NAXIS= 2, ORDER= 4
     ------------------------------------------

 -- VARIATIONAL SPACE WILL BE RESTRICTED TO PURE SPHERICAL HARMONICS ONLY --
 AFTER EXCLUDING CONTAMINANT COMBINATIONS FROM THE CARTESIAN GAUSSIAN BASIS
 SET, THE NUMBER OF SPHERICAL HARMONICS KEPT IN THE VARIATION SPACE IS   46

     DIMENSIONS OF THE SYMMETRY SUBSPACES ARE
 A1  =   19     A2  =    5     B1  =   14     B2  =    8

 ..... DONE SETTING UP THE RUN .....
 STEP CPU TIME =     0.01 TOTAL CPU TIME =        0.0 (    0.0 MIN)
 TOTAL WALL CLOCK TIME=        0.0 SECONDS, CPU UTILIZATION IS  50.00%

          ********************
          1 ELECTRON INTEGRALS
          ********************
 ...... END OF ONE-ELECTRON INTEGRALS ......
 STEP CPU TIME =     0.00 TOTAL CPU TIME =        0.0 (    0.0 MIN)
 TOTAL WALL CLOCK TIME=        0.0 SECONDS, CPU UTILIZATION IS  50.00%

          -------------
          GUESS OPTIONS
          -------------
          GUESS =HUCKEL            NORB  =       0          NORDER=       0
          MIX   =       F          PRTMO =       F          PUNMO =       F
          TOLZ  = 1.0E-08          TOLE  = 1.0E-05
          SYMDEN=       F          PURIFY=       F

 INITIAL GUESS ORBITALS GENERATED BY HUCKEL   ROUTINE.
 HUCKEL GUESS REQUIRES     21583 WORDS.

 STATISTICS FOR GENERATION OF SYMMETRY ORBITAL -Q- MATRIX
 NUMBER OF CARTESIAN ATOMIC ORBITALS=         49
 NUMBER OF SPHERICAL CONTAMINANTS DROPPED=     3
 NUMBER OF LINEARLY DEPENDENT MOS DROPPED=     0
 TOTAL NUMBER OF MOS IN VARIATION SPACE=      46

 SYMMETRIES FOR INITIAL GUESS ORBITALS FOLLOW.   BOTH SET(S).
    16 ORBITALS ARE OCCUPIED (    7 CORE ORBITALS).
     8=A1       9=?B1     10=?A1     11=B2      12=B1      13=A1      14=A2  
    15=B1      16=A1      17=B2      18=B1      19=A1      20=A1      21=A1  
    22=A1      23=A1      24=A1      25=A1      26=A1  
 ...... END OF INITIAL ORBITAL SELECTION ......
 STEP CPU TIME =     0.01 TOTAL CPU TIME =        0.0 (    0.0 MIN)
 TOTAL WALL CLOCK TIME=        0.0 SECONDS, CPU UTILIZATION IS  66.67%

                    ----------------------
                    AO INTEGRAL TECHNOLOGY
                    ----------------------
     S,P,L SHELL ROTATED AXIS INTEGRALS, REPROGRAMMED BY
        KAZUYA ISHIMURA (IMS) AND JOSE SIERRA (SYNSTAR).
     S,P,D,L SHELL ROTATED AXIS INTEGRALS PROGRAMMED BY
        KAZUYA ISHIMURA (INSTITUTE FOR MOLECULAR SCIENCE).
     S,P,D,F,G SHELL TO TOTAL QUARTET ANGULAR MOMENTUM SUM 5,
        ERIC PROGRAM BY GRAHAM FLETCHER (ELORET AND NASA ADVANCED
        SUPERCOMPUTING DIVISION, AMES RESEARCH CENTER).
     S,P,D,F,G,L SHELL GENERAL RYS QUADRATURE PROGRAMMED BY
        MICHEL DUPUIS (PACIFIC NORTHWEST NATIONAL LABORATORY).

          --------------------
          2 ELECTRON INTEGRALS
          --------------------

 THE -PK- OPTION IS OFF, THE INTEGRALS ARE NOT IN SUPERMATRIX FORM.
 STORING   15000 INTEGRALS/RECORD ON DISK, USING 12 BYTES/INTEGRAL.
 TWO ELECTRON INTEGRAL EVALUATION REQUIRES   90606 WORDS OF MEMORY.
 II,JST,KST,LST =  1  1  1  1 NREC =         1 INTLOC =    1
 II,JST,KST,LST =  2  1  1  1 NREC =         1 INTLOC =    2
 II,JST,KST,LST =  3  1  1  1 NREC =         1 INTLOC =    7
 II,JST,KST,LST =  4  1  1  1 NREC =         1 INTLOC =   22
 II,JST,KST,LST =  5  1  1  1 NREC =         1 INTLOC =   56
 II,JST,KST,LST =  6  1  1  1 NREC =         1 INTLOC =  125
 II,JST,KST,LST =  7  1  1  1 NREC =         1 INTLOC =  329
 II,JST,KST,LST =  8  1  1  1 NREC =         1 INTLOC =  776
 II,JST,KST,LST =  9  1  1  1 NREC =         1 INTLOC = 2864
 II,JST,KST,LST = 10  1  1  1 NREC =         1 INTLOC = 2864
 II,JST,KST,LST = 11  1  1  1 NREC =         1 INTLOC = 2864
 II,JST,KST,LST = 12  1  1  1 NREC =         1 INTLOC = 2864
 II,JST,KST,LST = 13  1  1  1 NREC =         1 INTLOC = 2864
 II,JST,KST,LST = 14  1  1  1 NREC =         1 INTLOC = 2864
 II,JST,KST,LST = 15  1  1  1 NREC =         1 INTLOC = 2864
 II,JST,KST,LST = 16  1  1  1 NREC =         1 INTLOC = 4990
 II,JST,KST,LST = 17  1  1  1 NREC =         1 INTLOC = 8154
 II,JST,KST,LST = 18  1  1  1 NREC =         1 INTLOC =12568
 II,JST,KST,LST = 19  1  1  1 NREC =         3 INTLOC =  360
 II,JST,KST,LST = 20  1  1  1 NREC =         5 INTLOC = 1458
 TOTAL NUMBER OF NONZERO TWO-ELECTRON INTEGRALS =              177524
         12 INTEGRAL RECORDS WERE STORED ON DISK FILE  8.
  ...... END OF TWO-ELECTRON INTEGRALS .....
 STEP CPU TIME =     0.16 TOTAL CPU TIME =        0.2 (    0.0 MIN)
 TOTAL WALL CLOCK TIME=        0.2 SECONDS, CPU UTILIZATION IS  94.74%

          --------------------------
               R-PBE SCF CALCULATION
          --------------------------

     NUCLEAR ENERGY =        93.7748261025
     MAXIT =   30     NPUNCH=    2
     EXTRAP=T  DAMP=F  SHIFT=F  RSTRCT=F  DIIS=T  DEM=F  SOSCF=F
         DENSITY MATRIX CONVERGENCE THRESHOLD=  1.00E-05
     COARSE -> FINE DFT GRID SWITCH THRESHOLD=  3.00E-04 (SWITCH IN $DFT)
                   HF -> DFT SWITCH THRESHOLD=  5.00E-03 (SWOFF IN $DFT)
     MEMORY REQUIRED FOR RHF ITERS=    183108 WORDS.

 DFT CODE IS SWITCHING FROM THE FINE GRID NRAD= 96,  NLEB=  302
                      TO THE COARSE GRID NRAD0= 24, NLEB0=  110

     EXCHANGE FUNCTIONAL   =PBE       
     CORRELATION FUNCTIONAL=PBE       
     DFT THRESHOLD         =.460E-07
     GRID CHANGE THRESHOLD =.300E-03
 FOR AN EULER-MACLAURIN QUADRATURE USING  96 RADIAL POINTS:
 SMALLEST GAUSSIAN PRIMITIVE EXPONENT=        0.1313100000 OF TYPE -P-
 ON ATOM NUMBER   1 HAS RADIAL NORMALIZATION=  1.000000
  LARGEST GAUSSIAN PRIMITIVE EXPONENT=    55510.0000000000 OF TYPE -S-
 ON ATOM NUMBER   1 HAS RADIAL NORMALIZATION=  0.999999
 DFT IS SWITCHED OFF, PERFORMING PURE SCF UNTIL SWOFF THRESHOLD IS REACHED.

 ITER EX DEM     TOTAL ENERGY        E CHANGE  DENSITY CHANGE    DIIS ERROR
   1  0  0     -545.9226177048  -545.9226177048   0.543837680   1.202396337
          * * *   INITIATING DIIS PROCEDURE   * * *
   2  1  0     -546.3285117449    -0.4058940401   0.615439559   0.489635467
   3  2  0     -546.2319659871     0.0965457578   0.299054655   0.491860544
   4  3  0     -546.9580194934    -0.7260535063   0.030817720   0.018451283
   5  4  0     -546.9597426648    -0.0017231714   0.008264395   0.008087222
   6  5  0     -546.9601724582    -0.0004297933   0.005386454   0.004740354
   7  6  0     -546.9602890554    -0.0001165972   0.002355619   0.001919794
 CONVERGED TO SWOFF, SO DFT CALCULATION IS NOW SWITCHED ON.
          * * *   INITIATING DIIS PROCEDURE   * * *
   8  7  0     -548.1220479547    -1.1617588993   0.354446432   0.094683771
   9  8  0     -548.0829424228     0.0391055319   0.319556041   0.179121921
  10  9  0     -548.0965463144    -0.0136038917   0.101111560   0.189656215
  11 10  0     -548.1663574265    -0.0698111120   0.020178756   0.013522965
  12 11  0     -548.1671250946    -0.0007676682   0.001533251   0.001632323
  13 12  0     -548.1671335524    -0.0000084577   0.000570805   0.000787635
  14 13  0     -548.1671349293    -0.0000013769   0.000058504   0.000055764
 DFT CODE IS SWITCHING BACK TO THE FINE GRID
          * * *   INITIATING DIIS PROCEDURE   * * *
  15 14  0     -548.1803351305    -0.0132002012   0.016297724   0.010947406
  16 15  0     -548.1803663891    -0.0000312587   0.023441071   0.012873103
  17 16  0     -548.1799576847     0.0004087045   0.014878323   0.018722285
  18 17  0     -548.1807042308    -0.0007465461   0.000665779   0.000708243
  19 18  0     -548.1807055278    -0.0000012970   0.000179868   0.000123338
  20 19  0     -548.1807055921    -0.0000000643   0.000030775   0.000013192
  21 20  0     -548.1807055927    -0.0000000005   0.000004751   0.000005575
  22 21  0     -548.1807055927    -0.0000000001   0.000000575   0.000000517

          -----------------
          DENSITY CONVERGED
          -----------------
     TIME TO FORM FOCK OPERATORS=       4.3 SECONDS (       0.2 SEC/ITER)
     TIME TO SOLVE SCF EQUATIONS=       0.0 SECONDS (       0.0 SEC/ITER)

 FINAL R-PBE ENERGY IS     -548.1807055927 AFTER  22 ITERATIONS
 DFT EXCHANGE + CORRELATION ENERGY =       -42.2778510591
 TOTAL ELECTRON NUMBER             =        31.9999998611

          ------------
          EIGENVECTORS
          ------------

                      1          2          3          4          5
                  -88.2200   -18.8044   -18.8044    -7.8434    -5.8638
                     A1         A1         B1         A1         B1  
    1  S  1  S    1.002979  -0.000087   0.000000  -0.274095   0.000000
    2  S  1  S   -0.010261  -0.001217   0.000000   1.039660   0.000000
    3  S  1  S    0.001811  -0.002362   0.000000   0.040935   0.000000
    4  S  1  S   -0.001006   0.009185   0.000000  -0.013054   0.000000
    5  S  1  X    0.000000   0.000000   0.000121   0.000000   0.996818
    6  S  1  Y    0.000000   0.000000   0.000000   0.000000   0.000000
    7  S  1  Z    0.000048  -0.000136   0.000000   0.007024   0.000000
    8  S  1  X    0.000000   0.000000  -0.001073   0.000000   0.009106
    9  S  1  Y    0.000000   0.000000   0.000000   0.000000   0.000000
   10  S  1  Z    0.000044   0.001023   0.000000   0.000766   0.000000
   11  S  1  X    0.000000   0.000000  -0.003146   0.000000  -0.000250
   12  S  1  Y    0.000000   0.000000   0.000000   0.000000   0.000000
   13  S  1  Z   -0.000121   0.004782   0.000000  -0.001126   0.000000
   14  S  1 XX    0.000004   0.000565   0.000000   0.000175   0.000000
   15  S  1 YY    0.000004  -0.001225   0.000000  -0.000112   0.000000
   16  S  1 ZZ   -0.000008   0.000661   0.000000  -0.000063   0.000000
   17  S  1 XY    0.000000   0.000000   0.000000   0.000000   0.000000
   18  S  1 XZ    0.000000   0.000000  -0.001336   0.000000   0.000334
   19  S  1 YZ    0.000000   0.000000   0.000000   0.000000   0.000000
   20  O  2  S    0.000001   0.703279   0.703239   0.000014   0.000078
   21  O  2  S   -0.000014   0.025471   0.025212  -0.000184   0.000058
   22  O  2  S    0.000127  -0.012205  -0.010425   0.001180  -0.000121
   23  O  2  X    0.000000   0.000476   0.000716  -0.000129  -0.000044
   24  O  2  Y    0.000000   0.000000   0.000000   0.000000   0.000000
   25  O  2  Z   -0.000002  -0.000666  -0.000674   0.000111   0.000053
   26  O  2  X   -0.000005  -0.002334  -0.001925  -0.000140  -0.000087
   27  O  2  Y    0.000000   0.000000   0.000000   0.000000   0.000000
   28  O  2  Z    0.000025   0.002211   0.001856   0.000341   0.000050
   29  O  2 XX   -0.000018  -0.000107  -0.000174  -0.000175  -0.000052
   30  O  2 YY    0.000043   0.000166   0.000292   0.000401   0.000118
   31  O  2 ZZ   -0.000025  -0.000059  -0.000118  -0.000227  -0.000066
   32  O  2 XY    0.000000   0.000000   0.000000   0.000000   0.000000
   33  O  2 XZ    0.000072   0.000417   0.000306   0.000682   0.000197
   34  O  2 YZ    0.000000   0.000000   0.000000   0.000000   0.000000
   35  O  3  S    0.000001   0.703279  -0.703239   0.000014  -0.000078
   36  O  3  S   -0.000014   0.025471  -0.025212  -0.000184  -0.000058
   37  O  3  S    0.000127  -0.012205   0.010425   0.001180   0.000121
   38  O  3  X    0.000000  -0.000476   0.000716   0.000129  -0.000044
   39  O  3  Y    0.000000   0.000000   0.000000   0.000000   0.000000
   40  O  3  Z   -0.000002  -0.000666   0.000674   0.000111  -0.000053
   41  O  3  X    0.000005   0.002334  -0.001925   0.000140  -0.000087
   42  O  3  Y    0.000000   0.000000   0.000000   0.000000   0.000000
   43  O  3  Z    0.000025   0.002211  -0.001856   0.000341  -0.000050
   44  O  3 XX   -0.000018  -0.000107   0.000174  -0.000175   0.000052
   45  O  3 YY    0.000043   0.000166  -0.000292   0.000401  -0.000118
   46  O  3 ZZ   -0.000025  -0.000059   0.000118  -0.000227   0.000066
   47  O  3 XY    0.000000   0.000000   0.000000   0.000000   0.000000
   48  O  3 XZ   -0.000072  -0.000417   0.000306  -0.000682   0.000197
   49  O  3 YZ    0.000000   0.000000   0.000000   0.000000   0.000000

                      6          7          8          9         10
                   -5.8624    -5.8601    -0.9555    -0.8703    -0.6423
                     B2         A1         A1         B1         A1  
    1  S  1  S    0.000000   0.001890   0.044467   0.000000   0.073637
    2  S  1  S    0.000000  -0.007470  -0.128111   0.000000  -0.210275
    3  S  1  S    0.000000  -0.000579   0.264138   0.000000   0.460428
    4  S  1  S    0.000000  -0.000005   0.170469   0.000000   0.448801
    5  S  1  X    0.000000   0.000000   0.000000   0.077624   0.000000
    6  S  1  Y    0.996863   0.000000   0.000000   0.000000   0.000000
    7  S  1  Z    0.000000   0.996852  -0.057665   0.000000   0.047995
    8  S  1  X    0.000000   0.000000   0.000000  -0.157390   0.000000
    9  S  1  Y    0.009026   0.000000   0.000000   0.000000   0.000000
   10  S  1  Z    0.000000   0.008901   0.114538   0.000000  -0.099979
   11  S  1  X    0.000000   0.000000   0.000000  -0.032589   0.000000
   12  S  1  Y   -0.000229   0.000000   0.000000   0.000000   0.000000
   13  S  1  Z    0.000000  -0.000253   0.009531   0.000000  -0.064642
   14  S  1 XX    0.000000  -0.000177   0.012740   0.000000  -0.003238
   15  S  1 YY    0.000000  -0.000151  -0.025149   0.000000   0.012464
   16  S  1 ZZ    0.000000   0.000328   0.012409   0.000000  -0.009226
   17  S  1 XY    0.000000   0.000000   0.000000   0.000000   0.000000
   18  S  1 XZ    0.000000   0.000000   0.000000  -0.056260   0.000000
   19  S  1 YZ    0.000260   0.000000   0.000000   0.000000   0.000000
   20  O  2  S    0.000000  -0.000084  -0.126094  -0.154019   0.092833
   21  O  2  S    0.000000  -0.000096   0.250896   0.312144  -0.191649
   22  O  2  S    0.000000   0.000232   0.304680   0.393116  -0.289005
   23  O  2  X    0.000000   0.000067   0.069059   0.042218   0.053302
   24  O  2  Y    0.000005   0.000000   0.000000   0.000000   0.000000
   25  O  2  Z    0.000000  -0.000055  -0.063615  -0.061576  -0.072078
   26  O  2  X    0.000000   0.000093   0.031011   0.021754   0.020974
   27  O  2  Y   -0.000040   0.000000   0.000000   0.000000   0.000000
   28  O  2  Z    0.000000  -0.000179  -0.031214  -0.031058  -0.030993
   29  O  2 XX    0.000000   0.000054   0.002237  -0.001602   0.000819
   30  O  2 YY    0.000000  -0.000142  -0.004934  -0.001822  -0.004118
   31  O  2 ZZ    0.000000   0.000088   0.002698   0.003425   0.003299
   32  O  2 XY   -0.000002   0.000000   0.000000   0.000000   0.000000
   33  O  2 XZ    0.000000  -0.000255  -0.012041  -0.008989  -0.005173
   34  O  2 YZ   -0.000001   0.000000   0.000000   0.000000   0.000000
   35  O  3  S    0.000000  -0.000084  -0.126094   0.154019   0.092833
   36  O  3  S    0.000000  -0.000096   0.250896  -0.312144  -0.191649
   37  O  3  S    0.000000   0.000232   0.304680  -0.393116  -0.289005
   38  O  3  X    0.000000  -0.000067  -0.069059   0.042218  -0.053302
   39  O  3  Y    0.000005   0.000000   0.000000   0.000000   0.000000
   40  O  3  Z    0.000000  -0.000055  -0.063615   0.061576  -0.072078
   41  O  3  X    0.000000  -0.000093  -0.031011   0.021754  -0.020974
   42  O  3  Y   -0.000040   0.000000   0.000000   0.000000   0.000000
   43  O  3  Z    0.000000  -0.000179  -0.031214   0.031058  -0.030993
   44  O  3 XX    0.000000   0.000054   0.002237   0.001602   0.000819
   45  O  3 YY    0.000000  -0.000142  -0.004934   0.001822  -0.004118
   46  O  3 ZZ    0.000000   0.000088   0.002698  -0.003425   0.003299
   47  O  3 XY    0.000002   0.000000   0.000000   0.000000   0.000000
   48  O  3 XZ    0.000000   0.000255   0.012041  -0.008989   0.005173
   49  O  3 YZ   -0.000001   0.000000   0.000000   0.000000   0.000000

                     11         12         13         14         15
                   -0.4149    -0.4086    -0.3955    -0.2942    -0.2870
                     B1         A1         B2         A1         A2  
    1  S  1  S    0.000000  -0.008050   0.000000   0.010142   0.000000
    2  S  1  S    0.000000   0.049708   0.000000  -0.041245   0.000000
    3  S  1  S    0.000000  -0.015160   0.000000   0.049940   0.000000
    4  S  1  S    0.000000  -0.250232   0.000000   0.194954   0.000000
    5  S  1  X   -0.190490   0.000000   0.000000   0.000000   0.000000
    6  S  1  Y    0.000000   0.000000  -0.214799   0.000000   0.000000
    7  S  1  Z    0.000000  -0.204357   0.000000   0.058045   0.000000
    8  S  1  X    0.450658   0.000000   0.000000   0.000000   0.000000
    9  S  1  Y    0.000000   0.000000   0.506466   0.000000   0.000000
   10  S  1  Z    0.000000   0.482002   0.000000  -0.139966   0.000000
   11  S  1  X    0.183130   0.000000   0.000000   0.000000   0.000000
   12  S  1  Y    0.000000   0.000000   0.320787   0.000000   0.000000
   13  S  1  Z    0.000000   0.208084   0.000000  -0.052100   0.000000
   14  S  1 XX    0.000000  -0.014693   0.000000  -0.095217   0.000000
   15  S  1 YY    0.000000  -0.020784   0.000000   0.025731   0.000000
   16  S  1 ZZ    0.000000   0.035477   0.000000   0.069487   0.000000
   17  S  1 XY    0.000000   0.000000   0.000000   0.000000  -0.078354
   18  S  1 XZ    0.044770   0.000000   0.000000   0.000000   0.000000
   19  S  1 YZ    0.000000   0.000000   0.038956   0.000000   0.000000
   20  O  2  S   -0.054153   0.042462   0.000000  -0.000997   0.000000
   21  O  2  S    0.110057  -0.085321   0.000000   0.001868   0.000000
   22  O  2  S    0.207014  -0.157271   0.000000  -0.006742   0.000000
   23  O  2  X   -0.163805   0.299714   0.000000   0.185779   0.000000
   24  O  2  Y    0.000000   0.000000   0.275384   0.000000   0.477945
   25  O  2  Z    0.300398  -0.094464   0.000000   0.411140   0.000000
   26  O  2  X   -0.102990   0.185785   0.000000   0.136852   0.000000
   27  O  2  Y    0.000000   0.000000   0.169131   0.000000   0.340754
   28  O  2  Z    0.174630  -0.063293   0.000000   0.303752   0.000000
   29  O  2 XX    0.002325   0.011556   0.000000   0.011420   0.000000
   30  O  2 YY    0.007463  -0.006355   0.000000   0.003125   0.000000
   31  O  2 ZZ   -0.009788  -0.005201   0.000000  -0.014546   0.000000
   32  O  2 XY    0.000000   0.000000   0.012142   0.000000   0.009106
   33  O  2 XZ    0.009446  -0.010084   0.000000   0.005639   0.000000
   34  O  2 YZ    0.000000   0.000000  -0.011987   0.000000  -0.012522
   35  O  3  S    0.054153   0.042462   0.000000  -0.000997   0.000000
   36  O  3  S   -0.110057  -0.085321   0.000000   0.001868   0.000000
   37  O  3  S   -0.207014  -0.157271   0.000000  -0.006742   0.000000
   38  O  3  X   -0.163805  -0.299714   0.000000  -0.185779   0.000000
   39  O  3  Y    0.000000   0.000000   0.275384   0.000000  -0.477945
   40  O  3  Z   -0.300398  -0.094464   0.000000   0.411140   0.000000
   41  O  3  X   -0.102990  -0.185785   0.000000  -0.136852   0.000000
   42  O  3  Y    0.000000   0.000000   0.169131   0.000000  -0.340754
   43  O  3  Z   -0.174630  -0.063293   0.000000   0.303752   0.000000
   44  O  3 XX   -0.002325   0.011556   0.000000   0.011420   0.000000
   45  O  3 YY   -0.007463  -0.006355   0.000000   0.003125   0.000000
   46  O  3 ZZ    0.009788  -0.005201   0.000000  -0.014546   0.000000
   47  O  3 XY    0.000000   0.000000  -0.012142   0.000000   0.009106
   48  O  3 XZ    0.009446   0.010084   0.000000  -0.005639   0.000000
   49  O  3 YZ    0.000000   0.000000  -0.011987   0.000000   0.012522

                     16         17         18         19         20
                   -0.2470    -0.2194    -0.1141    -0.0435     0.3287
                     B1         B2         B1         A1         A1  
    1  S  1  S    0.000000   0.000000   0.000000   0.033101  -0.011994
    2  S  1  S    0.000000   0.000000   0.000000  -0.103790  -0.102928
    3  S  1  S    0.000000   0.000000   0.000000   0.213880  -0.257130
    4  S  1  S    0.000000   0.000000   0.000000   0.586749   0.652501
    5  S  1  X   -0.015582   0.000000  -0.202237   0.000000   0.000000
    6  S  1  Y    0.000000  -0.195178   0.000000   0.000000   0.000000
    7  S  1  Z    0.000000   0.000000   0.000000  -0.177518   0.278399
    8  S  1  X    0.029498   0.000000   0.508981   0.000000   0.000000
    9  S  1  Y    0.000000   0.486496   0.000000   0.000000   0.000000
   10  S  1  Z    0.000000   0.000000   0.000000   0.452140  -1.055839
   11  S  1  X    0.156515   0.000000   0.674193   0.000000   0.000000
   12  S  1  Y    0.000000   0.384306   0.000000   0.000000   0.000000
   13  S  1  Z    0.000000   0.000000   0.000000   0.788252   1.459676
   14  S  1 XX    0.000000   0.000000   0.000000  -0.049184   0.121718
   15  S  1 YY    0.000000   0.000000   0.000000   0.158630   0.068071
   16  S  1 ZZ    0.000000   0.000000   0.000000  -0.109446  -0.189789
   17  S  1 XY    0.000000   0.000000   0.000000   0.000000   0.000000
   18  S  1 XZ   -0.069919   0.000000  -0.168316   0.000000   0.000000
   19  S  1 YZ    0.000000  -0.070670   0.000000   0.000000   0.000000
   20  O  2  S   -0.007503   0.000000  -0.029291   0.046297   0.012777
   21  O  2  S    0.014327   0.000000   0.048822  -0.072695   0.052356
   22  O  2  S    0.062579   0.000000   0.257829  -0.411021  -0.495650
   23  O  2  X    0.457536   0.000000   0.049488  -0.296815   0.178701
   24  O  2  Y    0.000000  -0.390034   0.000000   0.000000   0.000000
   25  O  2  Z    0.178982   0.000000  -0.346726   0.196169  -0.116895
   26  O  2  X    0.324529   0.000000   0.052089  -0.342067  -0.223134
   27  O  2  Y    0.000000  -0.310558   0.000000   0.000000   0.000000
   28  O  2  Z    0.112800   0.000000  -0.307775   0.191246   0.054269
   29  O  2 XX    0.010730   0.000000   0.001214   0.000295  -0.033615
   30  O  2 YY   -0.001187   0.000000   0.000679   0.003174   0.025212
   31  O  2 ZZ   -0.009543   0.000000  -0.001894  -0.003469   0.008403
   32  O  2 XY    0.000000  -0.003561   0.000000   0.000000   0.000000
   33  O  2 XZ   -0.007937   0.000000  -0.001112  -0.002266   0.030340
   34  O  2 YZ    0.000000   0.002052   0.000000   0.000000   0.000000
   35  O  3  S    0.007503   0.000000   0.029291   0.046297   0.012777
   36  O  3  S   -0.014327   0.000000  -0.048822  -0.072695   0.052356
   37  O  3  S   -0.062579   0.000000  -0.257829  -0.411021  -0.495650
   38  O  3  X    0.457536   0.000000   0.049488   0.296815  -0.178701
   39  O  3  Y    0.000000  -0.390034   0.000000   0.000000   0.000000
   40  O  3  Z   -0.178982   0.000000   0.346726   0.196169  -0.116895
   41  O  3  X    0.324529   0.000000   0.052089   0.342067   0.223134
   42  O  3  Y    0.000000  -0.310558   0.000000   0.000000   0.000000
   43  O  3  Z   -0.112800   0.000000   0.307775   0.191246   0.054269
   44  O  3 XX   -0.010730   0.000000  -0.001214   0.000295  -0.033615
   45  O  3 YY    0.001187   0.000000  -0.000679   0.003174   0.025212
   46  O  3 ZZ    0.009543   0.000000   0.001894  -0.003469   0.008403
   47  O  3 XY    0.000000   0.003561   0.000000   0.000000   0.000000
   48  O  3 XZ   -0.007937   0.000000  -0.001112   0.002266  -0.030340
   49  O  3 YZ    0.000000   0.002052   0.000000   0.000000   0.000000

                     21         22         23         24         25
                    0.3485     0.3552     0.4007     0.4839     0.4919
                     B1         B2         A1         A2         B2  
    1  S  1  S    0.000000   0.000000  -0.107047   0.000000   0.000000
    2  S  1  S    0.000000   0.000000  -0.394827   0.000000   0.000000
    3  S  1  S    0.000000   0.000000  -1.663574   0.000000   0.000000
    4  S  1  S    0.000000   0.000000   2.068710   0.000000   0.000000
    5  S  1  X    0.291235   0.000000   0.000000   0.000000   0.000000
    6  S  1  Y    0.000000   0.288626   0.000000   0.000000   0.069393
    7  S  1  Z    0.000000   0.000000  -0.065842   0.000000   0.000000
    8  S  1  X   -1.110383   0.000000   0.000000   0.000000   0.000000
    9  S  1  Y    0.000000  -1.115913   0.000000   0.000000  -0.271830
   10  S  1  Z    0.000000   0.000000   0.243810   0.000000   0.000000
   11  S  1  X    1.390170   0.000000   0.000000   0.000000   0.000000
   12  S  1  Y    0.000000   1.225029   0.000000   0.000000   0.239191
   13  S  1  Z    0.000000   0.000000   0.079043   0.000000   0.000000
   14  S  1 XX    0.000000   0.000000  -0.195671   0.000000   0.000000
   15  S  1 YY    0.000000   0.000000   0.369016   0.000000   0.000000
   16  S  1 ZZ    0.000000   0.000000  -0.173346   0.000000   0.000000
   17  S  1 XY    0.000000   0.000000   0.000000   0.915814   0.000000
   18  S  1 XZ   -0.023579   0.000000   0.000000   0.000000   0.000000
   19  S  1 YZ    0.000000  -0.234325   0.000000   0.000000   0.862833
   20  O  2  S   -0.007446   0.000000   0.018262   0.000000   0.000000
   21  O  2  S   -0.034614   0.000000  -0.042770   0.000000   0.000000
   22  O  2  S    0.362199   0.000000  -0.273877   0.000000   0.000000
   23  O  2  X   -0.193650   0.000000   0.060193   0.000000   0.000000
   24  O  2  Y    0.000000  -0.021556   0.000000   0.266745  -0.308713
   25  O  2  Z    0.088259   0.000000  -0.055693   0.000000   0.000000
   26  O  2  X    0.017702   0.000000  -0.143876   0.000000   0.000000
   27  O  2  Y    0.000000  -0.125286   0.000000  -0.125695   0.137698
   28  O  2  Z   -0.142045   0.000000   0.132035   0.000000   0.000000
   29  O  2 XX   -0.000421   0.000000  -0.012921   0.000000   0.000000
   30  O  2 YY   -0.017302   0.000000   0.029377   0.000000   0.000000
   31  O  2 ZZ    0.017723   0.000000  -0.016456   0.000000   0.000000
   32  O  2 XY    0.000000  -0.019252   0.000000  -0.022685   0.039765
   33  O  2 XZ   -0.032218   0.000000   0.032959   0.000000   0.000000
   34  O  2 YZ    0.000000   0.013529   0.000000   0.043189  -0.020113
   35  O  3  S    0.007446   0.000000   0.018262   0.000000   0.000000
   36  O  3  S    0.034614   0.000000  -0.042770   0.000000   0.000000
   37  O  3  S   -0.362199   0.000000  -0.273877   0.000000   0.000000
   38  O  3  X   -0.193650   0.000000  -0.060193   0.000000   0.000000
   39  O  3  Y    0.000000  -0.021556   0.000000  -0.266745  -0.308713
   40  O  3  Z   -0.088259   0.000000  -0.055693   0.000000   0.000000
   41  O  3  X    0.017702   0.000000   0.143876   0.000000   0.000000
   42  O  3  Y    0.000000  -0.125286   0.000000   0.125695   0.137698
   43  O  3  Z    0.142045   0.000000   0.132035   0.000000   0.000000
   44  O  3 XX    0.000421   0.000000  -0.012921   0.000000   0.000000
   45  O  3 YY    0.017302   0.000000   0.029377   0.000000   0.000000
   46  O  3 ZZ   -0.017723   0.000000  -0.016456   0.000000   0.000000
   47  O  3 XY    0.000000   0.019252   0.000000  -0.022685  -0.039765
   48  O  3 XZ   -0.032218   0.000000  -0.032959   0.000000   0.000000
   49  O  3 YZ    0.000000   0.013529   0.000000  -0.043189  -0.020113

                     26         27         28         29         30
                    0.4943     0.6466     0.6972     0.7765     0.8249
                     A1         A1         B1         A1         B2  
    1  S  1  S   -0.004005  -0.036418   0.000000  -0.006042   0.000000
    2  S  1  S   -0.007251  -0.241421   0.000000   0.002974   0.000000
    3  S  1  S   -0.053644  -0.698970   0.000000  -0.068703   0.000000
    4  S  1  S    0.012292   1.564089   0.000000  -0.242760   0.000000
    5  S  1  X    0.000000   0.000000  -0.047431   0.000000   0.000000
    6  S  1  Y    0.000000   0.000000   0.000000   0.000000  -0.025506
    7  S  1  Z   -0.060374  -0.041729   0.000000   0.016917   0.000000
    8  S  1  X    0.000000   0.000000   0.215937   0.000000   0.000000
    9  S  1  Y    0.000000   0.000000   0.000000   0.000000   0.131377
   10  S  1  Z    0.232269   0.163770   0.000000  -0.094511   0.000000
   11  S  1  X    0.000000   0.000000   0.422376   0.000000   0.000000
   12  S  1  Y    0.000000   0.000000   0.000000   0.000000  -0.553340
   13  S  1  Z   -0.247174   0.577263   0.000000  -0.349132   0.000000
   14  S  1 XX    0.762102   0.435939   0.000000   0.438848   0.000000
   15  S  1 YY   -0.099611  -0.883874   0.000000   0.023185   0.000000
   16  S  1 ZZ   -0.662490   0.447935   0.000000  -0.462033   0.000000
   17  S  1 XY    0.000000   0.000000   0.000000   0.000000   0.000000
   18  S  1 XZ    0.000000   0.000000   0.932846   0.000000   0.000000
   19  S  1 YZ    0.000000   0.000000   0.000000   0.000000  -0.465480
   20  O  2  S   -0.000902   0.060506  -0.060882  -0.005658   0.000000
   21  O  2  S   -0.000372  -0.268476   0.277129  -0.018298   0.000000
   22  O  2  S    0.051334  -0.333899   0.170737   0.149809   0.000000
   23  O  2  X    0.212365   0.021202  -0.148995  -0.505428   0.000000
   24  O  2  Y    0.000000   0.000000   0.000000   0.000000  -0.570145
   25  O  2  Z    0.292247  -0.142005   0.050425  -0.239100   0.000000
   26  O  2  X   -0.074206  -0.428187   0.549781   0.693774   0.000000
   27  O  2  Y    0.000000   0.000000   0.000000   0.000000   0.824554
   28  O  2  Z   -0.115888   0.488099  -0.460458   0.250914   0.000000
   29  O  2 XX   -0.049401   0.007258  -0.010987  -0.031783   0.000000
   30  O  2 YY   -0.004967  -0.009461   0.017459  -0.007574   0.000000
   31  O  2 ZZ    0.054368   0.002203  -0.006472   0.039358   0.000000
   32  O  2 XY    0.000000   0.000000   0.000000   0.000000  -0.032504
   33  O  2 XZ   -0.007356   0.008947   0.033977   0.024303   0.000000
   34  O  2 YZ    0.000000   0.000000   0.000000   0.000000   0.036942
   35  O  3  S   -0.000902   0.060506   0.060882  -0.005658   0.000000
   36  O  3  S   -0.000372  -0.268476  -0.277129  -0.018298   0.000000
   37  O  3  S    0.051334  -0.333899  -0.170737   0.149809   0.000000
   38  O  3  X   -0.212365  -0.021202  -0.148995   0.505428   0.000000
   39  O  3  Y    0.000000   0.000000   0.000000   0.000000  -0.570145
   40  O  3  Z    0.292247  -0.142005  -0.050425  -0.239100   0.000000
   41  O  3  X    0.074206   0.428187   0.549781  -0.693774   0.000000
   42  O  3  Y    0.000000   0.000000   0.000000   0.000000   0.824554
   43  O  3  Z   -0.115888   0.488099   0.460458   0.250914   0.000000
   44  O  3 XX   -0.049401   0.007258   0.010987  -0.031783   0.000000
   45  O  3 YY   -0.004967  -0.009461  -0.017459  -0.007574   0.000000
   46  O  3 ZZ    0.054368   0.002203   0.006472   0.039358   0.000000
   47  O  3 XY    0.000000   0.000000   0.000000   0.000000   0.032504
   48  O  3 XZ    0.007356  -0.008947   0.033977  -0.024303   0.000000
   49  O  3 YZ    0.000000   0.000000   0.000000   0.000000   0.036942

                     31         32         33         34         35
                    0.8262     0.8498     0.8509     0.9355     1.5640
                     A2         B1         A1         B1         B1  
    1  S  1  S    0.000000   0.000000   0.037337   0.000000   0.000000
    2  S  1  S    0.000000   0.000000   0.159508   0.000000   0.000000
    3  S  1  S    0.000000   0.000000   0.628050   0.000000   0.000000
    4  S  1  S    0.000000   0.000000  -0.255246   0.000000   0.000000
    5  S  1  X    0.000000   0.045648   0.000000  -0.038126  -0.027594
    6  S  1  Y    0.000000   0.000000   0.000000   0.000000   0.000000
    7  S  1  Z    0.000000   0.000000  -0.063316   0.000000   0.000000
    8  S  1  X    0.000000  -0.293336   0.000000   0.245784   0.168071
    9  S  1  Y    0.000000   0.000000   0.000000   0.000000   0.000000
   10  S  1  Z    0.000000   0.000000   0.404681   0.000000   0.000000
   11  S  1  X    0.000000  -0.020872   0.000000  -0.695758   0.647095
   12  S  1  Y    0.000000   0.000000   0.000000   0.000000   0.000000
   13  S  1  Z    0.000000   0.000000  -0.384633   0.000000   0.000000
   14  S  1 XX    0.000000   0.000000   0.017734   0.000000   0.000000
   15  S  1 YY    0.000000   0.000000   0.313296   0.000000   0.000000
   16  S  1 ZZ    0.000000   0.000000  -0.331029   0.000000   0.000000
   17  S  1 XY    0.415808   0.000000   0.000000   0.000000   0.000000
   18  S  1 XZ    0.000000   0.379375   0.000000  -0.377100   0.350563
   19  S  1 YZ    0.000000   0.000000   0.000000   0.000000   0.000000
   20  O  2  S    0.000000   0.000656  -0.003082   0.005951   0.014657
   21  O  2  S    0.000000  -0.035597   0.010713   0.084336  -1.125281
   22  O  2  S    0.000000   0.045949   0.116218  -0.293118   1.484534
   23  O  2  X    0.000000   0.152426   0.300143  -0.581528  -0.110785
   24  O  2  Y   -0.593051   0.000000   0.000000   0.000000   0.000000
   25  O  2  Z    0.000000  -0.613015  -0.494537  -0.183914   0.047696
   26  O  2  X    0.000000  -0.149144  -0.294421   0.749261   0.406477
   27  O  2  Y    0.779070   0.000000   0.000000   0.000000   0.000000
   28  O  2  Z    0.000000   0.722663   0.658693   0.451939  -0.350642
   29  O  2 XX    0.000000  -0.001347  -0.018597  -0.057501  -0.112379
   30  O  2 YY    0.000000  -0.007806  -0.022664   0.023935   0.162099
   31  O  2 ZZ    0.000000   0.009153   0.041261   0.033566  -0.049720
   32  O  2 XY   -0.034463   0.000000   0.000000   0.000000   0.000000
   33  O  2 XZ    0.000000  -0.011379  -0.052363  -0.018668   0.152887
   34  O  2 YZ    0.029481   0.000000   0.000000   0.000000   0.000000
   35  O  3  S    0.000000  -0.000656  -0.003082  -0.005951  -0.014657
   36  O  3  S    0.000000   0.035597   0.010713  -0.084336   1.125281
   37  O  3  S    0.000000  -0.045949   0.116218   0.293118  -1.484534
   38  O  3  X    0.000000   0.152426  -0.300143  -0.581528  -0.110785
   39  O  3  Y    0.593051   0.000000   0.000000   0.000000   0.000000
   40  O  3  Z    0.000000   0.613015  -0.494537   0.183914  -0.047696
   41  O  3  X    0.000000  -0.149144   0.294421   0.749261   0.406477
   42  O  3  Y   -0.779070   0.000000   0.000000   0.000000   0.000000
   43  O  3  Z    0.000000  -0.722663   0.658693  -0.451939   0.350642
   44  O  3 XX    0.000000   0.001347  -0.018597   0.057501   0.112379
   45  O  3 YY    0.000000   0.007806  -0.022664  -0.023935  -0.162099
   46  O  3 ZZ    0.000000  -0.009153   0.041261  -0.033566   0.049720
   47  O  3 XY   -0.034463   0.000000   0.000000   0.000000   0.000000
   48  O  3 XZ    0.000000  -0.011379   0.052363  -0.018668   0.152887
   49  O  3 YZ   -0.029481   0.000000   0.000000   0.000000   0.000000

                     36         37         38         39         40
                    1.6251     2.0964     2.0992     2.1051     2.1067
                     A1         B1         B2         A2         A1  
    1  S  1  S   -0.033473   0.000000   0.000000   0.000000   0.004977
    2  S  1  S   -0.328222   0.000000   0.000000   0.000000   0.031195
    3  S  1  S   -0.768554   0.000000   0.000000   0.000000   0.092859
    4  S  1  S    2.099058   0.000000   0.000000   0.000000  -0.206647
    5  S  1  X    0.000000  -0.008181   0.000000   0.000000   0.000000
    6  S  1  Y    0.000000   0.000000  -0.003329   0.000000   0.000000
    7  S  1  Z   -0.031178   0.000000   0.000000   0.000000  -0.007408
    8  S  1  X    0.000000   0.010395   0.000000   0.000000   0.000000
    9  S  1  Y    0.000000   0.000000   0.005016   0.000000   0.000000
   10  S  1  Z    0.144045   0.000000   0.000000   0.000000   0.023215
   11  S  1  X    0.000000   0.110327   0.000000   0.000000   0.000000
   12  S  1  Y    0.000000   0.000000   0.036089   0.000000   0.000000
   13  S  1  Z    1.043707   0.000000   0.000000   0.000000  -0.123734
   14  S  1 XX    0.177103   0.000000   0.000000   0.000000   0.003043
   15  S  1 YY   -0.385095   0.000000   0.000000   0.000000  -0.032784
   16  S  1 ZZ    0.207992   0.000000   0.000000   0.000000   0.029741
   17  S  1 XY    0.000000   0.000000   0.000000   0.020950   0.000000
   18  S  1 XZ    0.000000  -0.007594   0.000000   0.000000   0.000000
   19  S  1 YZ    0.000000   0.000000   0.002277   0.000000   0.000000
   20  O  2  S   -0.001709  -0.000955   0.000000   0.000000   0.000852
   21  O  2  S    1.179572  -0.037567   0.000000   0.000000  -0.102414
   22  O  2  S   -1.913026   0.075628   0.000000   0.000000   0.167447
   23  O  2  X   -0.010185   0.021691   0.000000   0.000000  -0.025549
   24  O  2  Y    0.000000   0.000000   0.019524  -0.021369   0.000000
   25  O  2  Z   -0.044140   0.014920   0.000000   0.000000  -0.000740
   26  O  2  X   -0.442558  -0.021668   0.000000   0.000000   0.070689
   27  O  2  Y    0.000000   0.000000  -0.033825   0.033334   0.000000
   28  O  2  Z    0.421005  -0.039345   0.000000   0.000000  -0.019681
   29  O  2 XX    0.018665  -0.168253   0.000000   0.000000  -0.388016
   30  O  2 YY   -0.037561  -0.449605   0.000000   0.000000   0.639869
   31  O  2 ZZ    0.018896   0.617858   0.000000   0.000000  -0.251853
   32  O  2 XY    0.000000   0.000000   0.419120   0.604707   0.000000
   33  O  2 XZ   -0.196423   0.306179   0.000000   0.000000  -0.287059
   34  O  2 YZ    0.000000   0.000000   0.569588   0.366939   0.000000
   35  O  3  S   -0.001709   0.000955   0.000000   0.000000   0.000852
   36  O  3  S    1.179572   0.037567   0.000000   0.000000  -0.102414
   37  O  3  S   -1.913026  -0.075628   0.000000   0.000000   0.167447
   38  O  3  X    0.010185   0.021691   0.000000   0.000000   0.025549
   39  O  3  Y    0.000000   0.000000   0.019524   0.021369   0.000000
   40  O  3  Z   -0.044140  -0.014920   0.000000   0.000000  -0.000740
   41  O  3  X    0.442558  -0.021668   0.000000   0.000000  -0.070689
   42  O  3  Y    0.000000   0.000000  -0.033825  -0.033334   0.000000
   43  O  3  Z    0.421005   0.039345   0.000000   0.000000  -0.019681
   44  O  3 XX    0.018665   0.168253   0.000000   0.000000  -0.388016
   45  O  3 YY   -0.037561   0.449605   0.000000   0.000000   0.639869
   46  O  3 ZZ    0.018896  -0.617858   0.000000   0.000000  -0.251853
   47  O  3 XY    0.000000   0.000000  -0.419120   0.604707   0.000000
   48  O  3 XZ    0.196423   0.306179   0.000000   0.000000   0.287059
   49  O  3 YZ    0.000000   0.000000   0.569588  -0.366939   0.000000

                     41         42         43         44         45
                    2.1366     2.1623     2.1808     2.2256     2.4911
                     A2         B1         B2         A1         A1  
    1  S  1  S    0.000000   0.000000   0.000000  -0.005514   0.014801
    2  S  1  S    0.000000   0.000000   0.000000  -0.018883  -0.143516
    3  S  1  S    0.000000   0.000000   0.000000  -0.086188  -0.005654
    4  S  1  S    0.000000   0.000000   0.000000   0.059510   1.057085
    5  S  1  X    0.000000   0.007277   0.000000   0.000000   0.000000
    6  S  1  Y    0.000000   0.000000   0.024873   0.000000   0.000000
    7  S  1  Z    0.000000   0.000000   0.000000  -0.004845  -0.129084
    8  S  1  X    0.000000   0.017917   0.000000   0.000000   0.000000
    9  S  1  Y    0.000000   0.000000  -0.050628   0.000000   0.000000
   10  S  1  Z    0.000000   0.000000   0.000000  -0.025162   0.528175
   11  S  1  X    0.000000  -0.106112   0.000000   0.000000   0.000000
   12  S  1  Y    0.000000   0.000000  -0.156462   0.000000   0.000000
   13  S  1  Z    0.000000   0.000000   0.000000   0.150346   0.415157
   14  S  1 XX    0.000000   0.000000   0.000000  -0.294098   0.160163
   15  S  1 YY    0.000000   0.000000   0.000000   0.007597  -0.390433
   16  S  1 ZZ    0.000000   0.000000   0.000000   0.286501   0.230270
   17  S  1 XY   -0.242318   0.000000   0.000000   0.000000   0.000000
   18  S  1 XZ    0.000000  -0.016479   0.000000   0.000000   0.000000
   19  S  1 YZ    0.000000   0.000000  -0.257459   0.000000   0.000000
   20  O  2  S    0.000000   0.002381   0.000000   0.002549   0.013979
   21  O  2  S    0.000000  -0.109339   0.000000  -0.024327   0.533311
   22  O  2  S    0.000000   0.100036   0.000000  -0.022649  -0.969149
   23  O  2  X    0.000000  -0.103568   0.000000  -0.013515   0.050124
   24  O  2  Y    0.039146   0.000000  -0.044734   0.000000   0.000000
   25  O  2  Z    0.000000  -0.028355   0.000000   0.041686  -0.057519
   26  O  2  X    0.000000   0.184097   0.000000  -0.020936  -0.399097
   27  O  2  Y   -0.068402   0.000000   0.108890   0.000000   0.000000
   28  O  2  Z    0.000000   0.059944   0.000000  -0.083238   0.372297
   29  O  2 XX    0.000000   0.661711   0.000000  -0.565259  -0.220773
   30  O  2 YY    0.000000  -0.376553   0.000000  -0.100785   0.309797
   31  O  2 ZZ    0.000000  -0.285158   0.000000   0.666043  -0.089025
   32  O  2 XY   -0.370405   0.000000   0.576198   0.000000   0.000000
   33  O  2 XZ    0.000000   0.245485   0.000000  -0.029311   0.659878
   34  O  2 YZ    0.607848   0.000000  -0.426946   0.000000   0.000000
   35  O  3  S    0.000000  -0.002381   0.000000   0.002549   0.013979
   36  O  3  S    0.000000   0.109339   0.000000  -0.024327   0.533311
   37  O  3  S    0.000000  -0.100036   0.000000  -0.022649  -0.969149
   38  O  3  X    0.000000  -0.103568   0.000000   0.013515  -0.050124
   39  O  3  Y   -0.039146   0.000000  -0.044734   0.000000   0.000000
   40  O  3  Z    0.000000   0.028355   0.000000   0.041686  -0.057519
   41  O  3  X    0.000000   0.184097   0.000000   0.020936   0.399097
   42  O  3  Y    0.068402   0.000000   0.108890   0.000000   0.000000
   43  O  3  Z    0.000000  -0.059944   0.000000  -0.083238   0.372297
   44  O  3 XX    0.000000  -0.661711   0.000000  -0.565259  -0.220773
   45  O  3 YY    0.000000   0.376553   0.000000  -0.100785   0.309797
   46  O  3 ZZ    0.000000   0.285158   0.000000   0.666043  -0.089025
   47  O  3 XY   -0.370405   0.000000  -0.576198   0.000000   0.000000
   48  O  3 XZ    0.000000   0.245485   0.000000   0.029311  -0.659878
   49  O  3 YZ   -0.607848   0.000000  -0.426946   0.000000   0.000000

                     46
                    2.5985
                     B1  
    1  S  1  S    0.000000
    2  S  1  S    0.000000
    3  S  1  S    0.000000
    4  S  1  S    0.000000
    5  S  1  X   -0.133536
    6  S  1  Y    0.000000
    7  S  1  Z    0.000000
    8  S  1  X    0.558169
    9  S  1  Y    0.000000
   10  S  1  Z    0.000000
   11  S  1  X    0.333341
   12  S  1  Y    0.000000
   13  S  1  Z    0.000000
   14  S  1 XX    0.000000
   15  S  1 YY    0.000000
   16  S  1 ZZ    0.000000
   17  S  1 XY    0.000000
   18  S  1 XZ    0.654729
   19  S  1 YZ    0.000000
   20  O  2  S   -0.016489
   21  O  2  S   -0.532852
   22  O  2  S    0.890731
   23  O  2  X   -0.059245
   24  O  2  Y    0.000000
   25  O  2  Z    0.047138
   26  O  2  X    0.397397
   27  O  2  Y    0.000000
   28  O  2  Z   -0.401220
   29  O  2 XX    0.179128
   30  O  2 YY   -0.398699
   31  O  2 ZZ    0.219571
   32  O  2 XY    0.000000
   33  O  2 XZ   -0.634328
   34  O  2 YZ    0.000000
   35  O  3  S    0.016489
   36  O  3  S    0.532852
   37  O  3  S   -0.890731
   38  O  3  X   -0.059245
   39  O  3  Y    0.000000
   40  O  3  Z   -0.047138
   41  O  3  X    0.397397
   42  O  3  Y    0.000000
   43  O  3  Z    0.401220
   44  O  3 XX   -0.179128
   45  O  3 YY    0.398699
   46  O  3 ZZ   -0.219571
   47  O  3 XY    0.000000
   48  O  3 XZ   -0.634328
   49  O  3 YZ    0.000000
 ...... END OF RHF CALCULATION ......
 STEP CPU TIME =     4.37 TOTAL CPU TIME =        4.6 (    0.1 MIN)
 TOTAL WALL CLOCK TIME=        4.6 SECONDS, CPU UTILIZATION IS  99.78%

     ---------------------------------------------------------------------
     PROPERTIES FOR THE PBE      DFT FUNCTIONAL (RHF  TYPE) DENSITY MATRIX
     ---------------------------------------------------------------------

          -----------------
          ENERGY COMPONENTS
          -----------------

         WAVEFUNCTION NORMALIZATION =       1.0000000000

                ONE ELECTRON ENERGY =    -942.3311755091
                TWO ELECTRON ENERGY =     300.3756438139
           NUCLEAR REPULSION ENERGY =      93.7748261025
                                      ------------------
                       TOTAL ENERGY =    -548.1807055927

 ELECTRON-ELECTRON POTENTIAL ENERGY =     300.3756438139
  NUCLEUS-ELECTRON POTENTIAL ENERGY =   -1489.3281161405
   NUCLEUS-NUCLEUS POTENTIAL ENERGY =      93.7748261025
                                      ------------------
             TOTAL POTENTIAL ENERGY =   -1095.1776462242
               TOTAL KINETIC ENERGY =     546.9969406314
                 VIRIAL RATIO (V/T) =       2.0021641162

          ---------------------------------------
          MULLIKEN AND LOWDIN POPULATION ANALYSES
          ---------------------------------------

     ATOMIC MULLIKEN POPULATION IN EACH MOLECULAR ORBITAL

                      1          2          3          4          5

                  2.000000   2.000000   2.000000   2.000000   2.000000

    1             2.000000   0.001283   0.000489   2.000056   1.999966
    2             0.000000   0.999359   0.999756  -0.000028   0.000017
    3             0.000000   0.999359   0.999756  -0.000028   0.000017

                      6          7          8          9         10

                  2.000000   2.000000   2.000000   2.000000   2.000000

    1             2.000003   1.999941   0.605663   0.185549   1.313103
    2            -0.000001   0.000029   0.697169   0.907225   0.343449
    3            -0.000001   0.000029   0.697169   0.907225   0.343449

                     11         12         13         14         15

                  2.000000   2.000000   2.000000   2.000000   2.000000

    1             0.692825   0.918153   1.211364   0.142666   0.034465
    2             0.653588   0.540923   0.394318   0.928667   0.982768
    3             0.653588   0.540923   0.394318   0.928667   0.982768

                     16

                  2.000000

    1             0.107472
    2             0.946264
    3             0.946264

               ----- POPULATIONS IN EACH AO -----
                             MULLIKEN      LOWDIN
              1  S  1  S      2.00022     1.99595
              2  S  1  S      2.01043     1.97220
              3  S  1  S      0.99822     0.62605
              4  S  1  S      0.85591     0.55105
              5  S  1  X      1.99620     1.95386
              6  S  1  Y      1.99627     1.95685
              7  S  1  Z      1.99675     1.95883
              8  S  1  X      0.65769     0.61301
              9  S  1  Y      0.70810     0.67985
             10  S  1  Z      0.77791     0.73842
             11  S  1  X      0.25961     0.35023
             12  S  1  Y      0.49811     0.54219
             13  S  1  Z      0.26813     0.41627
             14  S  1 XX      0.03787     0.24567
             15  S  1 YY      0.03542     0.24309
             16  S  1 ZZ      0.03446     0.24753
             17  S  1 XY      0.07281     0.03996
             18  S  1 XZ      0.00889     0.09561
             19  S  1 YZ      0.00000     0.00850
             20  O  2  S      1.99805     1.98111
             21  O  2  S      0.84995     0.66833
             22  O  2  S      1.10821     0.60059
             23  O  2  X      1.01419     0.98256
             24  O  2  Y      0.82773     0.79825
             25  O  2  Z      0.87533     0.83956
             26  O  2  X      0.60348     0.65493
             27  O  2  Y      0.54613     0.58389
             28  O  2  Z      0.55815     0.63271
             29  O  2 XX      0.00245     0.20649
             30  O  2 YY      0.00166     0.21314
             31  O  2 ZZ      0.00150     0.20940
             32  O  2 XY      0.00495     0.00203
             33  O  2 XZ      0.00172     0.00730
             34  O  2 YZ      0.00000     0.00216
             35  O  3  S      1.99805     1.98111
             36  O  3  S      0.84995     0.66833
             37  O  3  S      1.10821     0.60059
             38  O  3  X      1.01419     0.98256
             39  O  3  Y      0.82773     0.79825
             40  O  3  Z      0.87533     0.83956
             41  O  3  X      0.60348     0.65493
             42  O  3  Y      0.54613     0.58389
             43  O  3  Z      0.55815     0.63271
             44  O  3 XX      0.00245     0.20649
             45  O  3 YY      0.00166     0.21314
             46  O  3 ZZ      0.00150     0.20940
             47  O  3 XY      0.00495     0.00203
             48  O  3 XZ      0.00172     0.00730
             49  O  3 YZ      0.00000     0.00216

          ----- MULLIKEN ATOMIC OVERLAP POPULATIONS -----
          (OFF-DIAGONAL ELEMENTS NEED TO BE MULTIPLIED BY 2)

             1           2           3

    1   14.6707674
    2    0.2711149   8.2121009
    3    0.2711149  -0.0897145   8.2121009

          TOTAL MULLIKEN AND LOWDIN ATOMIC POPULATIONS
       ATOM         MULL.POP.    CHARGE          LOW.POP.     CHARGE
    1 S            15.212997    0.787003        15.235120    0.764880
    2 O             8.393501   -0.393501         8.382440   -0.382440
    3 O             8.393501   -0.393501         8.382440   -0.382440

          MULLIKEN SPHERICAL HARMONIC POPULATIONS
       ATOM           S       P       D      F      G      H      I    TOTAL
    1 S             5.86    9.16    0.19   0.00   0.00   0.00   0.00   15.21
    2 O             3.96    4.43    0.01   0.00   0.00   0.00   0.00    8.39
    3 O             3.96    4.43    0.01   0.00   0.00   0.00   0.00    8.39

          -------------------------------
          BOND ORDER AND VALENCE ANALYSIS     BOND ORDER THRESHOLD=0.050
          -------------------------------

                   BOND                       BOND                       BOND
  ATOM PAIR DIST  ORDER      ATOM PAIR DIST  ORDER      ATOM PAIR DIST  ORDER
    1   2  1.700  1.615        1   3  1.700  1.615        2   3  2.404  0.451

                       TOTAL       BONDED        FREE
      ATOM            VALENCE     VALENCE     VALENCE
    1 S                 3.230       3.230       0.000
    2 O                 2.066       2.066       0.000
    3 O                 2.066       2.066       0.000

          ---------------------
          ELECTROSTATIC MOMENTS
          ---------------------

 POINT   1           X           Y           Z (BOHR)    CHARGE
                 0.000000    0.000000    0.000000        0.00 (A.U.)
         DX          DY          DZ         /D/  (DEBYE)
     0.000000    0.000000   -3.266411    3.266411
 ...... END OF PROPERTY EVALUATION ......
 STEP CPU TIME =     0.01 TOTAL CPU TIME =        4.6 (    0.1 MIN)
 TOTAL WALL CLOCK TIME=        4.6 SECONDS, CPU UTILIZATION IS  99.78%
               580000  WORDS OF DYNAMIC MEMORY USED
 EXECUTION OF GAMESS TERMINATED NORMALLY Thu Feb 26 00:18:59 2015
 DDI: 263624 bytes (0.3 MB / 0 MWords) used by master data server.

 ----------------------------------------
 CPU timing information for all processes
 ========================================
 0: 4.545 + 0.26 = 4.572
 ----------------------------------------
 ddikick.x: exited gracefully.
----- accounting info -----
Files used on the master node dftfe.crc.nd.edu were:
-rw-r--r-- 1 pmehta1 campus   37475 Feb 26 00:18 /tmp/gamess.dat
-rw-r--r-- 1 pmehta1 campus     141 Feb 26 00:18 /tmp/gamess.F05
-rw-r--r-- 1 pmehta1 campus 2160288 Feb 26 00:18 /tmp/gamess.F08
-rw-r--r-- 1 pmehta1 campus 1220440 Feb 26 00:19 /tmp/gamess.F10
Thu Feb 26 00:19:02 EST 2015
0.250u 0.171s 0:08.00 5.2%	0+0k 0+112io 0pf+0w
