   4   4   1   0
  0.1668682E+02  0.4056435E-09  0.4056435E-09  0.4056435E-09  0.3500000E-15
   1.0000000000000000E-004
  CAR 
 Au, FCC                                 
     13.57511979     -5.32128318  301      4.75784238      1.00000000
     -5.321  0.0000E+00  0.0000E+00  0.0000E+00  0.0000E+00  0.0000E+00  0.0000E+00  0.0000E+00  0.0000E+00  0.0000E+00
     -5.258  0.0000E+00  0.0000E+00  0.0000E+00  0.0000E+00  0.0000E+00  0.0000E+00  0.0000E+00  0.0000E+00  0.0000E+00
     -5.195  0.0000E+00  0.0000E+00  0.0000E+00  0.0000E+00  0.0000E+00  0.0000E+00  0.0000E+00  0.0000E+00  0.0000E+00
     -5.132  0.0000E+00  0.0000E+00  0.0000E+00  0.0000E+00  0.0000E+00  0.0000E+00  0.0000E+00  0.0000E+00  0.0000E+00
     -5.069  0.0000E+00  0.0000E+00  0.0000E+00  0.0000E+00  0.0000E+00  0.0000E+00  0.0000E+00  0.0000E+00  0.0000E+00
     -5.006  0.0000E+00  0.0000E+00  0.0000E+00  0.0000E+00  0.0000E+00  0.0000E+00  0.0000E+00  0.0000E+00  0.0000E+00
     -4.943  0.0000E+00  0.0000E+00  0.0000E+00  0.0000E+00  0.0000E+00  0.0000E+00  0.0000E+00  0.0000E+00  0.0000E+00
     -4.880  0.2588E-15  0.1092E-17  0.1092E-17  0.1962E-17  0.2157E-18  0.1995E-19  0.1372E-17  0.2157E-18  0.4117E-17
     -4.817  0.2217E-12  0.9355E-15  0.9355E-15  0.1681E-14  0.1848E-15  0.1709E-16  0.1176E-14  0.1848E-15  0.3528E-14
     -4.754  0.8780E-10  0.3705E-12  0.3705E-12  0.6657E-12  0.7320E-13  0.6768E-14  0.4657E-12  0.7320E-13  0.1397E-11
     -4.691  0.1600E-07  0.6750E-10  0.6750E-10  0.1213E-09  0.1334E-10  0.1233E-11  0.8484E-10  0.1334E-10  0.2545E-09
     -4.628  0.1346E-05  0.5679E-08  0.5679E-08  0.1020E-07  0.1122E-08  0.1037E-09  0.7138E-08  0.1122E-08  0.2141E-07
     -4.565  0.5253E-04  0.2217E-06  0.2217E-06  0.3983E-06  0.4380E-07  0.4050E-08  0.2786E-06  0.4380E-07  0.8359E-06
     -4.502  0.9570E-03  0.4038E-05  0.4038E-05  0.7255E-05  0.7978E-06  0.7377E-07  0.5076E-05  0.7978E-06  0.1523E-04
     -4.439  0.8185E-02  0.3454E-04  0.3454E-04  0.6205E-04  0.6824E-05  0.6309E-06  0.4341E-04  0.6824E-05  0.1302E-03
     -4.376  0.3307E-01  0.1395E-03  0.1395E-03  0.2507E-03  0.2757E-04  0.2549E-05  0.1754E-03  0.2757E-04  0.5261E-03
     -4.313  0.6339E-01  0.2675E-03  0.2675E-03  0.4806E-03  0.5285E-04  0.4886E-05  0.3362E-03  0.5285E-04  0.1009E-02
     -4.250  0.5782E-01  0.2440E-03  0.2440E-03  0.4383E-03  0.4820E-04  0.4457E-05  0.3066E-03  0.4820E-04  0.9200E-03
     -4.187  0.2508E-01  0.1058E-03  0.1058E-03  0.1901E-03  0.2091E-04  0.1933E-05  0.1330E-03  0.2091E-04  0.3990E-03
     -4.125  0.5157E-02  0.2176E-04  0.2176E-04  0.3910E-04  0.4299E-05  0.3975E-06  0.2735E-04  0.4299E-05  0.8206E-04
     -4.062  0.5008E-03  0.2113E-05  0.2113E-05  0.3839E-05  0.4226E-06  0.3863E-07  0.2654E-05  0.4226E-06  0.7963E-05
     -3.999  0.5506E-04  0.2086E-06  0.2086E-06  0.2687E-05  0.3227E-06  0.5873E-08  0.1924E-06  0.3227E-06  0.5773E-06
     -3.936  0.8105E-03  0.2826E-05  0.2826E-05  0.6303E-04  0.7615E-05  0.1033E-06  0.1803E-05  0.7615E-05  0.5409E-05
     -3.873  0.9509E-02  0.3315E-04  0.3315E-04  0.7399E-03  0.8939E-04  0.1212E-05  0.2114E-04  0.8939E-04  0.6341E-04
     -3.810  0.5260E-01  0.1834E-03  0.1834E-03  0.4092E-02  0.4944E-03  0.6705E-05  0.1169E-03  0.4944E-03  0.3507E-03
     -3.747  0.1378E+00  0.4805E-03  0.4805E-03  0.1072E-01  0.1296E-02  0.1757E-04  0.3063E-03  0.1296E-02  0.9190E-03
     -3.684  0.1717E+00  0.5985E-03  0.5985E-03  0.1336E-01  0.1614E-02  0.2189E-04  0.3816E-03  0.1614E-02  0.1145E-02
     -3.621  0.1018E+00  0.3548E-03  0.3548E-03  0.7917E-02  0.9565E-03  0.1297E-04  0.2262E-03  0.9565E-03  0.6785E-03
     -3.558  0.2864E-01  0.9985E-04  0.9985E-04  0.2228E-02  0.2692E-03  0.3651E-05  0.6366E-04  0.2692E-03  0.1910E-03
     -3.495  0.3817E-02  0.1345E-04  0.1331E-04  0.2969E-03  0.3633E-04  0.4929E-06  0.8471E-05  0.3592E-04  0.2556E-04
     -3.432  0.4442E-03  0.6515E-05  0.1522E-05  0.3137E-04  0.2012E-04  0.2824E-06  0.5454E-06  0.5822E-05  0.6779E-05
     -3.369  0.3424E-02  0.9435E-04  0.1149E-04  0.2135E-03  0.2968E-03  0.4183E-05  0.2762E-06  0.5951E-04  0.8617E-04
     -3.306  0.2664E-01  0.7356E-03  0.8939E-04  0.1660E-02  0.2314E-02  0.3261E-04  0.2033E-05  0.4636E-03  0.6716E-03
     -3.243  0.9820E-01  0.2711E-02  0.3295E-03  0.6119E-02  0.8529E-02  0.1202E-03  0.7493E-05  0.1709E-02  0.2475E-02
     -3.180  0.1718E+00  0.4744E-02  0.5765E-03  0.1071E-01  0.1493E-01  0.2103E-03  0.1311E-04  0.2990E-02  0.4332E-02
     -3.117  0.1431E+00  0.3950E-02  0.4800E-03  0.8915E-02  0.1243E-01  0.1751E-03  0.1093E-04  0.2489E-02  0.3606E-02
     -3.054  0.5668E-01  0.1565E-02  0.1912E-03  0.3531E-02  0.4926E-02  0.6980E-04  0.4781E-05  0.9924E-03  0.1429E-02
     -2.991  0.1145E-01  0.3143E-03  0.5666E-04  0.7133E-03  0.1050E-02  0.2159E-04  0.9105E-05  0.3126E-03  0.2927E-03
     -2.928  0.8393E-02  0.2050E-03  0.1822E-03  0.7108E-03  0.1193E-02  0.7407E-04  0.7051E-04  0.1128E-02  0.2350E-03
     -2.865  0.3422E-01  0.7273E-03  0.7264E-03  0.4701E-02  0.4729E-02  0.2933E-03  0.2836E-03  0.4726E-02  0.8519E-03
     -2.802  0.8467E-01  0.1423E-02  0.1423E-02  0.1839E-01  0.1024E-01  0.5638E-03  0.5468E-03  0.1024E-01  0.1640E-02
     -2.739  0.1191E+00  0.1381E-02  0.1381E-02  0.3700E-01  0.1197E-01  0.5244E-03  0.5117E-03  0.1197E-01  0.1535E-02
     -2.676  0.9485E-01  0.6908E-03  0.6908E-03  0.3683E-01  0.7942E-02  0.2407E-03  0.2381E-03  0.7942E-02  0.7143E-03
     -2.613  0.4071E-01  0.1886E-03  0.1885E-03  0.1775E-01  0.2989E-02  0.5660E-04  0.5743E-04  0.2988E-02  0.1723E-03
     -2.550  0.9021E-02  0.3138E-04  0.2939E-04  0.4132E-02  0.6839E-03  0.7671E-05  0.7603E-05  0.6193E-03  0.2291E-04
     -2.487  0.3444E-02  0.4246E-04  0.5487E-05  0.1254E-02  0.1522E-02  0.9410E-05  0.7023E-06  0.3205E-03  0.4021E-05
     -2.424  0.2194E-01  0.3496E-03  0.2656E-04  0.7102E-02  0.1283E-01  0.7977E-04  0.1515E-05  0.2324E-02  0.2127E-04
     -2.361  0.9161E-01  0.1453E-02  0.1202E-03  0.2949E-01  0.5395E-01  0.3622E-03  0.1222E-04  0.1063E-01  0.1057E-03
     -2.298  0.1890E+00  0.2928E-02  0.3192E-03  0.5983E-01  0.1136E+00  0.9594E-03  0.9091E-04  0.2876E-01  0.4078E-03
     -2.235  0.2104E+00  0.3028E-02  0.5984E-03  0.6326E-01  0.1342E+00  0.1792E-02  0.6758E-03  0.5522E-01  0.2153E-02
     -2.172  0.1521E+00  0.1866E-02  0.7893E-03  0.4087E-01  0.1083E+00  0.2385E-02  0.4056E-02  0.7333E-01  0.1223E-01
     -2.109  0.8383E-01  0.8883E-03  0.6494E-03  0.1921E-01  0.6775E-01  0.2412E-02  0.1412E-01  0.6020E-01  0.4240E-01
     -2.046  0.4992E-01  0.5435E-03  0.4048E-03  0.6852E-02  0.5096E-01  0.5216E-02  0.2472E-01  0.4836E-01  0.7452E-01
     -1.983  0.7274E-01  0.8374E-03  0.3403E-03  0.3791E-02  0.8597E-01  0.2168E-01  0.2133E-01  0.7794E-01  0.6548E-01
     -1.920  0.1113E+00  0.1387E-02  0.3812E-03  0.5181E-02  0.1312E+00  0.6128E-01  0.1018E-01  0.1149E+00  0.3353E-01
     -1.857  0.1067E+00  0.1494E-02  0.4936E-03  0.5916E-02  0.1292E+00  0.9092E-01  0.9382E-02  0.1120E+00  0.3092E-01
     -1.794  0.9012E-01  0.1507E-02  0.7637E-03  0.8165E-02  0.1210E+00  0.6701E-01  0.2981E-01  0.9938E-01  0.9054E-01
     -1.731  0.1194E+00  0.2445E-02  0.1020E-02  0.1526E-01  0.1602E+00  0.2888E-01  0.5996E-01  0.9800E-01  0.1804E+00
     -1.668  0.1618E+00  0.4219E-02  0.9067E-03  0.1975E-01  0.2012E+00  0.3975E-01  0.5907E-01  0.7425E-01  0.1785E+00
     -1.605  0.1681E+00  0.6718E-02  0.8784E-03  0.1551E-01  0.2026E+00  0.1325E+00  0.3227E-01  0.4151E-01  0.9732E-01
     -1.542  0.2011E+00  0.9829E-02  0.1568E-02  0.1216E-01  0.2178E+00  0.2502E+00  0.3323E-01  0.3031E-01  0.8887E-01
     -1.479  0.2929E+00  0.1146E-01  0.2833E-02  0.1763E-01  0.2457E+00  0.2759E+00  0.8064E-01  0.5727E-01  0.1939E+00
     -1.416  0.3185E+00  0.1097E-01  0.4311E-02  0.2237E-01  0.2460E+00  0.2613E+00  0.1247E+00  0.1477E+00  0.2767E+00
     -1.353  0.2676E+00  0.9351E-02  0.5592E-02  0.2053E-01  0.2662E+00  0.2592E+00  0.1201E+00  0.2895E+00  0.2246E+00
     -1.290  0.3308E+00  0.1000E-01  0.7361E-02  0.2366E-01  0.2948E+00  0.2561E+00  0.1269E+00  0.3782E+00  0.1611E+00
     -1.227  0.5113E+00  0.1356E-01  0.9343E-02  0.3228E-01  0.3296E+00  0.2664E+00  0.1772E+00  0.3331E+00  0.1751E+00
     -1.164  0.5275E+00  0.1327E-01  0.8683E-02  0.3192E-01  0.4205E+00  0.2176E+00  0.1897E+00  0.2841E+00  0.1632E+00
     -1.101  0.3390E+00  0.1101E-01  0.7368E-02  0.2248E-01  0.5217E+00  0.1596E+00  0.1787E+00  0.4143E+00  0.1073E+00
     -1.038  0.1804E+00  0.1738E-01  0.9209E-02  0.1616E-01  0.6022E+00  0.2006E+00  0.2229E+00  0.6012E+00  0.9957E-01
     -0.975  0.1406E+00  0.3267E-01  0.1166E-01  0.1607E-01  0.6756E+00  0.2784E+00  0.2643E+00  0.5883E+00  0.1389E+00
     -0.912  0.1208E+00  0.3787E-01  0.1048E-01  0.1492E-01  0.6530E+00  0.2664E+00  0.2371E+00  0.4810E+00  0.1472E+00
     -0.849  0.7103E-01  0.2381E-01  0.7046E-02  0.1663E-01  0.5244E+00  0.1705E+00  0.2452E+00  0.4934E+00  0.1338E+00
     -0.786  0.3570E-01  0.1011E-01  0.6554E-02  0.3082E-01  0.3807E+00  0.1258E+00  0.3942E+00  0.5949E+00  0.1767E+00
     -0.723  0.2780E-01  0.8721E-02  0.1007E-01  0.4213E-01  0.2851E+00  0.1368E+00  0.4920E+00  0.6319E+00  0.2028E+00
     -0.660  0.2298E-01  0.1758E-01  0.1636E-01  0.3672E-01  0.2513E+00  0.1344E+00  0.3815E+00  0.5156E+00  0.1318E+00
     -0.597  0.1466E-01  0.3026E-01  0.2375E-01  0.2662E-01  0.2888E+00  0.1115E+00  0.2492E+00  0.3785E+00  0.6932E-01
     -0.534  0.8487E-02  0.3664E-01  0.2832E-01  0.1903E-01  0.3994E+00  0.7719E-01  0.2480E+00  0.3186E+00  0.9958E-01
     -0.471  0.7260E-02  0.3457E-01  0.2756E-01  0.1850E-01  0.5316E+00  0.6028E-01  0.3328E+00  0.2911E+00  0.1798E+00
     -0.408  0.7020E-02  0.2387E-01  0.1989E-01  0.2076E-01  0.4804E+00  0.5915E-01  0.3156E+00  0.2087E+00  0.1873E+00
     -0.345  0.5646E-02  0.1034E-01  0.9137E-02  0.1931E-01  0.2382E+00  0.6423E-01  0.2131E+00  0.9406E-01  0.1107E+00
     -0.282  0.5843E-02  0.4095E-02  0.3547E-02  0.1959E-01  0.7254E-01  0.8422E-01  0.2370E+00  0.3472E-01  0.6990E-01
     -0.219  0.7767E-02  0.5852E-02  0.4757E-02  0.1961E-01  0.9399E-01  0.9262E-01  0.5245E+00  0.4904E-01  0.1165E+00
     -0.156  0.1289E-01  0.1348E-01  0.9671E-02  0.2224E-01  0.3294E+00  0.1113E+00  0.1160E+01  0.1360E+00  0.2318E+00
     -0.093  0.2038E-01  0.2418E-01  0.1372E-01  0.3148E-01  0.7044E+00  0.1825E+00  0.1842E+01  0.2629E+00  0.3375E+00
     -0.030  0.2329E-01  0.3565E-01  0.1688E-01  0.3252E-01  0.8303E+00  0.2650E+00  0.2209E+01  0.3507E+00  0.4171E+00
      0.033  0.2272E-01  0.4429E-01  0.2036E-01  0.2169E-01  0.5739E+00  0.3735E+00  0.2129E+01  0.4042E+00  0.4548E+00
      0.096  0.2720E-01  0.3808E-01  0.1905E-01  0.1477E-01  0.3605E+00  0.6320E+00  0.1428E+01  0.5325E+00  0.3581E+00
      0.159  0.3645E-01  0.2141E-01  0.1738E-01  0.1717E-01  0.3808E+00  0.1048E+01  0.5968E+00  0.7408E+00  0.2432E+00
      0.222  0.3753E-01  0.9737E-02  0.2168E-01  0.1797E-01  0.4177E+00  0.1287E+01  0.2104E+00  0.7664E+00  0.2421E+00
      0.285  0.2632E-01  0.4726E-02  0.2261E-01  0.1363E-01  0.3722E+00  0.1075E+01  0.1059E+00  0.5648E+00  0.2977E+00
      0.348  0.1441E-01  0.5033E-02  0.1980E-01  0.9368E-02  0.3647E+00  0.6236E+00  0.5682E-01  0.4477E+00  0.2956E+00
      0.411  0.1879E-01  0.1055E-01  0.3170E-01  0.1026E-01  0.4776E+00  0.5013E+00  0.5890E-01  0.6254E+00  0.3302E+00
      0.474  0.4689E-01  0.2143E-01  0.5967E-01  0.1966E-01  0.6023E+00  0.8687E+00  0.1351E+00  0.9643E+00  0.5653E+00
      0.537  0.7089E-01  0.3329E-01  0.7200E-01  0.2694E-01  0.5944E+00  0.1024E+01  0.2468E+00  0.1040E+01  0.7172E+00
      0.600  0.6679E-01  0.3450E-01  0.5041E-01  0.2373E-01  0.4876E+00  0.6104E+00  0.2838E+00  0.6675E+00  0.5218E+00
      0.663  0.5859E-01  0.2599E-01  0.2173E-01  0.1880E-01  0.4314E+00  0.2257E+00  0.2386E+00  0.2634E+00  0.2769E+00
      0.726  0.5112E-01  0.1874E-01  0.1032E-01  0.1403E-01  0.3411E+00  0.1782E+00  0.2053E+00  0.1126E+00  0.2639E+00
      0.789  0.3659E-01  0.1785E-01  0.1128E-01  0.1202E-01  0.2102E+00  0.3087E+00  0.2002E+00  0.1100E+00  0.4555E+00
      0.852  0.2927E-01  0.1832E-01  0.1581E-01  0.2006E-01  0.2132E+00  0.4923E+00  0.2292E+00  0.1765E+00  0.8700E+00
      0.915  0.3282E-01  0.1349E-01  0.1860E-01  0.2710E-01  0.2976E+00  0.6805E+00  0.2942E+00  0.2772E+00  0.1310E+01
      0.978  0.3446E-01  0.8213E-02  0.1462E-01  0.2171E-01  0.2939E+00  0.8362E+00  0.3427E+00  0.2988E+00  0.1400E+01
      1.041  0.2867E-01  0.6527E-02  0.1029E-01  0.1914E-01  0.2056E+00  0.8795E+00  0.3373E+00  0.2474E+00  0.1318E+01
      1.103  0.2010E-01  0.5571E-02  0.1274E-01  0.3686E-01  0.1405E+00  0.7661E+00  0.2706E+00  0.2512E+00  0.1212E+01
      1.166  0.1507E-01  0.4376E-02  0.2054E-01  0.6677E-01  0.1472E+00  0.7504E+00  0.2267E+00  0.3353E+00  0.1030E+01
      1.229  0.1113E-01  0.4702E-02  0.2649E-01  0.7886E-01  0.1812E+00  0.8712E+00  0.2375E+00  0.3773E+00  0.7476E+00
      1.292  0.6965E-02  0.6214E-02  0.2617E-01  0.5736E-01  0.1711E+00  0.7816E+00  0.2193E+00  0.3047E+00  0.4234E+00
      1.355  0.6066E-02  0.8433E-02  0.2614E-01  0.2417E-01  0.1184E+00  0.5117E+00  0.1555E+00  0.2083E+00  0.2132E+00
      1.418  0.8065E-02  0.9590E-02  0.2723E-01  0.6774E-02  0.8130E-01  0.3653E+00  0.1009E+00  0.1636E+00  0.2027E+00
      1.481  0.1168E-01  0.8422E-02  0.2208E-01  0.6888E-02  0.9574E-01  0.3868E+00  0.1128E+00  0.1616E+00  0.4807E+00
      1.544  0.2037E-01  0.9315E-02  0.1939E-01  0.1768E-01  0.1874E+00  0.6306E+00  0.2197E+00  0.2465E+00  0.1012E+01
      1.607  0.2903E-01  0.1256E-01  0.2198E-01  0.2736E-01  0.2814E+00  0.9654E+00  0.3075E+00  0.3606E+00  0.1221E+01
      1.670  0.2842E-01  0.1517E-01  0.2162E-01  0.2571E-01  0.2867E+00  0.9370E+00  0.2959E+00  0.3757E+00  0.8379E+00
      1.733  0.2330E-01  0.1958E-01  0.2139E-01  0.2142E-01  0.2625E+00  0.5202E+00  0.3022E+00  0.3180E+00  0.4043E+00
      1.796  0.3010E-01  0.2510E-01  0.2228E-01  0.2771E-01  0.2458E+00  0.1632E+00  0.3380E+00  0.2425E+00  0.2591E+00
      1.859  0.4744E-01  0.2419E-01  0.1868E-01  0.3540E-01  0.1859E+00  0.4058E-01  0.3165E+00  0.1688E+00  0.3023E+00
      1.922  0.4454E-01  0.1491E-01  0.1152E-01  0.2655E-01  0.9193E-01  0.2143E-01  0.3022E+00  0.1747E+00  0.3534E+00
      1.985  0.2224E-01  0.7744E-02  0.6386E-02  0.1154E-01  0.3040E-01  0.2103E-01  0.3128E+00  0.3152E+00  0.3276E+00
      2.048  0.8641E-02  0.1461E-01  0.4869E-02  0.4365E-02  0.1741E-01  0.2283E-01  0.2385E+00  0.4233E+00  0.2333E+00
      2.111  0.1304E-01  0.3786E-01  0.6167E-02  0.3993E-02  0.3080E-01  0.2028E-01  0.1272E+00  0.3123E+00  0.1972E+00
      2.174  0.3682E-01  0.6650E-01  0.1408E-01  0.8563E-02  0.5564E-01  0.2538E-01  0.1102E+00  0.1450E+00  0.3253E+00
      2.237  0.6242E-01  0.8732E-01  0.2710E-01  0.1531E-01  0.6823E-01  0.4117E-01  0.1584E+00  0.8032E-01  0.4786E+00
      2.300  0.5562E-01  0.8660E-01  0.3101E-01  0.1722E-01  0.4979E-01  0.4277E-01  0.1786E+00  0.6100E-01  0.4174E+00
      2.363  0.2737E-01  0.6070E-01  0.2119E-01  0.1464E-01  0.3236E-01  0.2613E-01  0.1807E+00  0.9635E-01  0.2328E+00
      2.426  0.1242E-01  0.3151E-01  0.1060E-01  0.1879E-01  0.5066E-01  0.1423E-01  0.1547E+00  0.2644E+00  0.1340E+00
      2.489  0.1307E-01  0.1672E-01  0.6589E-02  0.3066E-01  0.7953E-01  0.1195E-01  0.8981E-01  0.4481E+00  0.1035E+00
      2.552  0.1551E-01  0.9957E-02  0.6030E-02  0.3471E-01  0.8538E-01  0.9001E-02  0.5675E-01  0.4621E+00  0.7746E-01
      2.615  0.1651E-01  0.7125E-02  0.7685E-02  0.3059E-01  0.1223E+00  0.6224E-02  0.8968E-01  0.4558E+00  0.7283E-01
      2.678  0.1595E-01  0.7790E-02  0.1012E-01  0.2521E-01  0.2419E+00  0.9399E-02  0.1489E+00  0.5408E+00  0.9310E-01
      2.741  0.1245E-01  0.7995E-02  0.1055E-01  0.1654E-01  0.3581E+00  0.2216E-01  0.1789E+00  0.6120E+00  0.1093E+00
      2.804  0.1084E-01  0.7690E-02  0.9592E-02  0.9461E-02  0.3582E+00  0.4872E-01  0.2009E+00  0.5510E+00  0.1284E+00
      2.867  0.1427E-01  0.1016E-01  0.1056E-01  0.8294E-02  0.2930E+00  0.7918E-01  0.2941E+00  0.3913E+00  0.1775E+00
      2.930  0.1841E-01  0.1380E-01  0.1325E-01  0.9709E-02  0.2720E+00  0.9376E-01  0.4619E+00  0.2731E+00  0.2398E+00
      2.993  0.1639E-01  0.1248E-01  0.1230E-01  0.9074E-02  0.2714E+00  0.1622E+00  0.5450E+00  0.2067E+00  0.2735E+00
      3.056  0.9891E-02  0.7860E-02  0.9159E-02  0.6263E-02  0.2407E+00  0.3954E+00  0.4415E+00  0.1884E+00  0.2835E+00
      3.119  0.5916E-02  0.4679E-02  0.7242E-02  0.3807E-02  0.2045E+00  0.6340E+00  0.2942E+00  0.1947E+00  0.2737E+00
      3.182  0.4924E-02  0.2657E-02  0.4691E-02  0.2260E-02  0.1617E+00  0.6418E+00  0.1900E+00  0.1603E+00  0.2115E+00
      3.245  0.6556E-02  0.2287E-02  0.2654E-02  0.2179E-02  0.1149E+00  0.5910E+00  0.1129E+00  0.9067E-01  0.1172E+00
      3.308  0.1262E-01  0.3976E-02  0.2679E-02  0.4194E-02  0.1076E+00  0.5707E+00  0.8275E-01  0.4029E-01  0.4712E-01
      3.371  0.1925E-01  0.5280E-02  0.2814E-02  0.6478E-02  0.1177E+00  0.3758E+00  0.8309E-01  0.1668E-01  0.1482E-01
      3.434  0.3256E-01  0.6205E-02  0.1936E-02  0.1077E-01  0.1430E+00  0.1297E+00  0.1008E+00  0.5894E-02  0.4214E-02
      3.497  0.6389E-01  0.9509E-02  0.1444E-02  0.2110E-01  0.2310E+00  0.2343E-01  0.1617E+00  0.3154E-02  0.2866E-02
      3.560  0.7893E-01  0.1099E-01  0.1615E-02  0.2651E-01  0.2652E+00  0.4533E-02  0.1836E+00  0.4885E-02  0.4675E-02
      3.623  0.5721E-01  0.8060E-02  0.2602E-02  0.2078E-01  0.1659E+00  0.3469E-02  0.1096E+00  0.1389E-01  0.1161E-01
      3.686  0.4406E-01  0.6934E-02  0.5393E-02  0.1962E-01  0.7811E-01  0.5571E-02  0.3922E-01  0.3500E-01  0.2807E-01
      3.749  0.4760E-01  0.7285E-02  0.7077E-02  0.2512E-01  0.5552E-01  0.6878E-02  0.1708E-01  0.4965E-01  0.3911E-01
      3.812  0.5074E-01  0.5101E-02  0.5088E-02  0.3467E-01  0.4725E-01  0.4375E-02  0.1188E-01  0.4687E-01  0.3485E-01
      3.875  0.5994E-01  0.2792E-02  0.2792E-02  0.4996E-01  0.4595E-01  0.1405E-02  0.1044E-01  0.4594E-01  0.3131E-01
      3.938  0.5262E-01  0.1638E-02  0.1638E-02  0.4612E-01  0.3793E-01  0.2842E-03  0.8327E-02  0.3793E-01  0.2498E-01
      4.001  0.2424E-01  0.6924E-03  0.6924E-03  0.2141E-01  0.1729E-01  0.5835E-04  0.3771E-02  0.1729E-01  0.1131E-01
      4.064  0.5377E-02  0.1547E-03  0.1516E-03  0.4758E-02  0.3831E-02  0.1059E-04  0.8351E-03  0.3829E-02  0.2504E-02
      4.127  0.5864E-03  0.1018E-03  0.1633E-04  0.5606E-03  0.4470E-03  0.1080E-05  0.1016E-03  0.4036E-03  0.2807E-03
      4.190  0.3160E-03  0.1124E-02  0.6968E-05  0.8293E-03  0.6050E-03  0.1610E-06  0.1854E-03  0.4517E-04  0.2529E-03
      4.253  0.1766E-02  0.7112E-02  0.4382E-04  0.5128E-02  0.3579E-02  0.1621E-05  0.1107E-02  0.1812E-03  0.1586E-02
      4.316  0.5226E-02  0.2324E-01  0.1850E-03  0.1703E-01  0.1052E-01  0.1379E-04  0.3252E-02  0.7707E-03  0.5779E-02
      4.379  0.7811E-02  0.4427E-01  0.5205E-03  0.3351E-01  0.1544E-01  0.6082E-04  0.4756E-02  0.2177E-02  0.1335E-01
      4.442  0.6528E-02  0.5543E-01  0.9722E-03  0.4385E-01  0.1232E-01  0.1508E-03  0.3802E-02  0.3810E-02  0.2037E-01
      4.505  0.3994E-02  0.4472E-01  0.1579E-02  0.3865E-01  0.7170E-02  0.3731E-03  0.2648E-02  0.3673E-02  0.1898E-01
      4.568  0.7761E-02  0.2280E-01  0.4269E-02  0.2979E-01  0.1671E-01  0.1328E-02  0.8914E-02  0.2355E-02  0.1263E-01
      4.631  0.4135E-01  0.1400E-01  0.1345E-01  0.3268E-01  0.9595E-01  0.4162E-02  0.4873E-01  0.4302E-02  0.1144E-01
      4.694  0.1271E+00  0.2145E-01  0.3355E-01  0.2993E-01  0.2987E+00  0.9934E-02  0.1475E+00  0.1381E-01  0.1227E-01
      4.757  0.1906E+00  0.3389E-01  0.5316E-01  0.1647E-01  0.4489E+00  0.1550E-01  0.2213E+00  0.2514E-01  0.1219E-01
      4.820  0.1384E+00  0.3825E-01  0.4500E-01  0.1374E-01  0.3251E+00  0.1350E-01  0.1617E+00  0.2342E-01  0.1648E-01
      4.883  0.4944E-01  0.4123E-01  0.1894E-01  0.2918E-01  0.1138E+00  0.6964E-02  0.5739E-01  0.1318E-01  0.3031E-01
      4.946  0.1041E-01  0.4296E-01  0.3956E-02  0.4029E-01  0.2072E-01  0.3257E-02  0.1033E-01  0.7139E-02  0.3917E-01
      5.009  0.7538E-02  0.2777E-01  0.5388E-03  0.2754E-01  0.1190E-01  0.1710E-02  0.3825E-02  0.3948E-02  0.2595E-01
      5.072  0.3226E-01  0.1145E-01  0.4928E-03  0.1176E-01  0.5525E-01  0.1409E-02  0.1582E-01  0.2776E-02  0.8268E-02
      5.135  0.8550E-01  0.8871E-02  0.1204E-02  0.9767E-02  0.1476E+00  0.2607E-02  0.4217E-01  0.4628E-02  0.1256E-02
      5.198  0.1090E+00  0.9751E-02  0.1530E-02  0.1089E-01  0.1883E+00  0.3243E-02  0.5379E-01  0.5704E-02  0.9876E-04
      5.261  0.6619E-01  0.5867E-02  0.9289E-03  0.6562E-02  0.1143E+00  0.1966E-02  0.3266E-01  0.3456E-02  0.9075E-05
      5.324  0.1908E-01  0.1691E-02  0.2678E-03  0.1891E-02  0.3296E-01  0.5668E-03  0.9417E-02  0.9964E-03  0.1813E-05
      5.387  0.2602E-02  0.2306E-03  0.3658E-04  0.2580E-03  0.4493E-02  0.7739E-04  0.1284E-02  0.1358E-03  0.3298E-06
      5.450  0.1685E-03  0.1773E-04  0.5296E-05  0.2303E-04  0.2880E-03  0.9780E-05  0.8365E-04  0.8759E-05  0.4076E-05
      5.513  0.4450E-04  0.6398E-04  0.6361E-04  0.1394E-03  0.1091E-04  0.1034E-03  0.3217E-04  0.2550E-05  0.8693E-04
      5.576  0.4499E-03  0.6507E-03  0.6507E-03  0.1394E-02  0.6181E-04  0.1042E-02  0.3172E-03  0.6157E-04  0.8794E-03
      5.639  0.2964E-02  0.3303E-02  0.3301E-02  0.6647E-02  0.8912E-03  0.5048E-02  0.1805E-02  0.8829E-03  0.4298E-02
      5.702  0.1282E-01  0.9122E-02  0.9045E-02  0.1537E-01  0.6493E-02  0.1224E-01  0.6328E-02  0.6246E-02  0.1069E-01
      5.765  0.3654E-01  0.1648E-01  0.1540E-01  0.1827E-01  0.2473E-01  0.1626E-01  0.1549E-01  0.2124E-01  0.1503E-01
      5.828  0.6799E-01  0.2591E-01  0.1863E-01  0.1460E-01  0.5836E-01  0.1369E-01  0.2877E-01  0.3476E-01  0.1378E-01
      5.891  0.9692E-01  0.4691E-01  0.2269E-01  0.1949E-01  0.1081E+00  0.8884E-02  0.4781E-01  0.2908E-01  0.9413E-02
      5.954  0.1187E+00  0.8483E-01  0.4276E-01  0.4283E-01  0.1577E+00  0.7460E-02  0.7220E-01  0.1843E-01  0.7247E-02
      6.017  0.1082E+00  0.1071E+00  0.6555E-01  0.6317E-01  0.1571E+00  0.8312E-02  0.8037E-01  0.1639E-01  0.7437E-02
      6.080  0.6344E-01  0.7764E-01  0.5285E-01  0.4871E-01  0.9839E-01  0.5917E-02  0.5550E-01  0.1217E-01  0.5307E-02
      6.143  0.2369E-01  0.3082E-01  0.2078E-01  0.1897E-01  0.4209E-01  0.2162E-02  0.2225E-01  0.4725E-02  0.2476E-02
      6.206  0.1951E-01  0.1615E-01  0.4156E-02  0.6230E-02  0.5668E-01  0.8136E-03  0.1287E-01  0.9003E-03  0.4299E-02
      6.269  0.5242E-01  0.3595E-01  0.1190E-02  0.9613E-02  0.1674E+00  0.1547E-02  0.2976E-01  0.1509E-03  0.1321E-01
      6.331  0.8231E-01  0.5604E-01  0.1343E-02  0.1473E-01  0.2636E+00  0.2400E-02  0.4645E-01  0.1198E-03  0.2083E-01
      6.394  0.6188E-01  0.4212E-01  0.9994E-03  0.1106E-01  0.1982E+00  0.1804E-02  0.3491E-01  0.8775E-04  0.1566E-01
      6.457  0.2211E-01  0.1505E-01  0.3571E-03  0.3954E-02  0.7083E-01  0.6447E-03  0.1248E-01  0.3135E-04  0.5599E-02
      6.520  0.3743E-02  0.2549E-02  0.6131E-04  0.6691E-03  0.1199E-01  0.1091E-03  0.2113E-02  0.5733E-05  0.9478E-03
      6.583  0.2988E-03  0.2385E-03  0.4024E-04  0.5359E-04  0.9727E-03  0.8825E-05  0.2116E-03  0.1785E-04  0.8996E-04
      6.646  0.3433E-04  0.6720E-03  0.6646E-03  0.1415E-04  0.3710E-03  0.6283E-05  0.8173E-03  0.3354E-03  0.2737E-03
      6.709  0.5003E-03  0.5866E-02  0.5865E-02  0.2621E-03  0.3143E-02  0.1284E-03  0.7131E-02  0.3142E-02  0.2389E-02
      6.772  0.5053E-02  0.2460E-01  0.2460E-01  0.2648E-02  0.1500E-01  0.1298E-02  0.2963E-01  0.1500E-01  0.9999E-02
      6.835  0.2409E-01  0.4964E-01  0.4964E-01  0.1262E-01  0.3881E-01  0.6185E-02  0.5848E-01  0.3881E-01  0.2008E-01
      6.898  0.5444E-01  0.4922E-01  0.4922E-01  0.2853E-01  0.5727E-01  0.1398E-01  0.5508E-01  0.5727E-01  0.1969E-01
      6.961  0.5852E-01  0.2484E-01  0.2484E-01  0.3067E-01  0.4799E-01  0.1503E-01  0.2486E-01  0.4799E-01  0.9719E-02
      7.024  0.2992E-01  0.6754E-02  0.6754E-02  0.1568E-01  0.2167E-01  0.7684E-02  0.5422E-02  0.2167E-01  0.2540E-02
      7.087  0.7266E-02  0.1388E-02  0.1388E-02  0.3805E-02  0.5227E-02  0.1865E-02  0.7629E-03  0.5227E-02  0.4322E-03
      7.150  0.9875E-03  0.3833E-02  0.3833E-02  0.4412E-03  0.3326E-02  0.2377E-03  0.1945E-02  0.3326E-02  0.6745E-03
      7.213  0.2169E-02  0.1937E-01  0.1937E-01  0.9400E-04  0.1438E-01  0.3397E-03  0.9396E-02  0.1438E-01  0.3213E-02
      7.276  0.1365E-01  0.5160E-01  0.5160E-01  0.4540E-03  0.3825E-01  0.2110E-02  0.2195E-01  0.3825E-01  0.7829E-02
      7.339  0.4153E-01  0.7702E-01  0.7702E-01  0.1379E-02  0.5718E-01  0.6417E-02  0.2462E-01  0.5718E-01  0.9765E-02
      7.402  0.6002E-01  0.6939E-01  0.6939E-01  0.1994E-02  0.5161E-01  0.9275E-02  0.1348E-01  0.5161E-01  0.6745E-02
      7.465  0.4129E-01  0.3722E-01  0.3722E-01  0.1372E-02  0.2773E-01  0.6379E-02  0.3734E-02  0.2772E-01  0.2794E-02
      7.528  0.1382E-01  0.1105E-01  0.1092E-01  0.4667E-03  0.8254E-02  0.2088E-02  0.6057E-03  0.8138E-02  0.7195E-03
      7.591  0.7392E-02  0.3733E-02  0.1678E-02  0.3647E-03  0.3110E-02  0.3734E-03  0.7589E-03  0.1270E-02  0.5143E-03
      7.654  0.4072E-01  0.1596E-01  0.5969E-03  0.2214E-02  0.1461E-01  0.4061E-03  0.5303E-02  0.8635E-03  0.3144E-02
      7.717  0.1514E+00  0.5630E-01  0.2020E-02  0.7819E-02  0.5395E-01  0.1368E-02  0.1875E-01  0.5369E-02  0.1111E-01
      7.780  0.2868E+00  0.9575E-01  0.4682E-02  0.1317E-01  0.1013E+00  0.2354E-02  0.3153E-01  0.1976E-01  0.1876E-01
      7.843  0.2931E+00  0.7897E-01  0.6274E-02  0.1063E-01  0.1019E+00  0.1998E-02  0.2532E-01  0.3677E-01  0.1520E-01
      7.906  0.1709E+00  0.3233E-01  0.4741E-02  0.4136E-02  0.5821E-01  0.8690E-03  0.9747E-02  0.3349E-01  0.5979E-02
      7.969  0.5721E-01  0.6860E-02  0.1900E-02  0.7890E-03  0.1914E-01  0.2054E-03  0.1814E-02  0.1469E-01  0.1168E-02
      8.032  0.1044E-01  0.8062E-03  0.3986E-03  0.7690E-04  0.3457E-02  0.3209E-04  0.1717E-03  0.3085E-02  0.1194E-03
      8.095  0.1399E-02  0.1725E-03  0.5015E-03  0.1892E-04  0.5400E-03  0.1249E-03  0.1456E-03  0.6977E-03  0.2968E-04
      8.158  0.5983E-02  0.1460E-02  0.5918E-02  0.2196E-03  0.2822E-02  0.1630E-02  0.1739E-02  0.5096E-02  0.2832E-03
      8.221  0.3890E-01  0.8436E-02  0.3565E-01  0.1524E-02  0.1686E-01  0.1026E-01  0.1038E-01  0.3106E-01  0.1639E-02
      8.284  0.1217E+00  0.2313E-01  0.1022E+00  0.5028E-02  0.4828E-01  0.3084E-01  0.2946E-01  0.9056E-01  0.4496E-02
      8.347  0.1823E+00  0.3017E-01  0.1401E+00  0.7905E-02  0.6623E-01  0.4442E-01  0.3996E-01  0.1266E+00  0.5869E-02
      8.410  0.1310E+00  0.1878E-01  0.9196E-01  0.5935E-02  0.4371E-01  0.3072E-01  0.2598E-01  0.8502E-01  0.3660E-02
      8.473  0.4573E-01  0.6173E-02  0.2950E-01  0.2178E-02  0.1511E-01  0.1023E-01  0.8547E-02  0.2867E-01  0.1244E-02
      8.536  0.1621E-01  0.5180E-02  0.8726E-02  0.1110E-02  0.1091E-01  0.2253E-02  0.4433E-02  0.1304E-01  0.1253E-02
      8.599  0.5563E-01  0.1498E-01  0.1523E-01  0.4710E-02  0.2820E-01  0.4122E-02  0.1017E-01  0.2836E-01  0.3507E-02
      8.662  0.1634E+00  0.2581E-01  0.2582E-01  0.1384E-01  0.4332E-01  0.1184E-01  0.1496E-01  0.4333E-01  0.5426E-02
      8.725  0.2380E+00  0.2478E-01  0.2478E-01  0.1956E-01  0.3410E-01  0.1681E-01  0.1078E-01  0.3410E-01  0.4650E-02
      8.788  0.2055E+00  0.1995E-01  0.1995E-01  0.1373E-01  0.1903E-01  0.1230E-01  0.4615E-02  0.1903E-01  0.4620E-02
      8.851  0.1837E+00  0.2529E-01  0.2529E-01  0.6059E-02  0.1865E-01  0.6618E-02  0.3184E-02  0.1865E-01  0.8096E-02
      8.914  0.1715E+00  0.2759E-01  0.2759E-01  0.2975E-02  0.1979E-01  0.4291E-02  0.3194E-02  0.1979E-01  0.9474E-02
      8.977  0.9531E-01  0.1574E-01  0.1574E-01  0.1404E-02  0.1128E-01  0.2209E-02  0.1818E-02  0.1128E-01  0.5452E-02
      9.040  0.2600E-01  0.4307E-02  0.4307E-02  0.3744E-03  0.3088E-02  0.5966E-03  0.4979E-03  0.3088E-02  0.1494E-02
      9.103  0.3366E-02  0.5579E-03  0.5579E-03  0.4836E-04  0.4001E-03  0.7715E-04  0.6451E-04  0.4000E-03  0.1935E-03
      9.166  0.2117E-03  0.3664E-04  0.3611E-04  0.4627E-05  0.2688E-04  0.4809E-05  0.4126E-05  0.2444E-04  0.1181E-04
      9.229  0.2058E-03  0.7994E-04  0.6449E-04  0.4985E-04  0.7525E-04  0.3479E-05  0.6000E-05  0.3306E-05  0.1081E-05
      9.292  0.2763E-02  0.1091E-02  0.8776E-03  0.6873E-03  0.1030E-02  0.4620E-04  0.8137E-04  0.3610E-04  0.1031E-04
      9.355  0.1800E-01  0.7088E-02  0.5720E-02  0.4466E-02  0.6700E-02  0.3006E-03  0.5308E-03  0.2347E-03  0.6704E-04
      9.418  0.5641E-01  0.2180E-01  0.1798E-01  0.1374E-01  0.2078E-01  0.9334E-03  0.1678E-02  0.7251E-03  0.2075E-03
      9.481  0.9344E-01  0.3190E-01  0.3034E-01  0.2009E-01  0.3226E-01  0.1462E-02  0.2948E-02  0.1114E-02  0.3169E-03
      9.544  0.1198E+00  0.2251E-01  0.4197E-01  0.1416E-01  0.3175E-01  0.1633E-02  0.4824E-02  0.1448E-02  0.2938E-03
      9.607  0.1727E+00  0.9409E-02  0.7085E-01  0.6233E-02  0.3240E-01  0.3330E-02  0.1151E-01  0.6280E-02  0.3247E-03
      9.670  0.1978E+00  0.9490E-02  0.1142E+00  0.8087E-02  0.2982E-01  0.1024E-01  0.2957E-01  0.2815E-01  0.5768E-03
      9.733  0.1573E+00  0.1850E-01  0.1551E+00  0.1689E-01  0.1604E-01  0.2128E-01  0.5582E-01  0.6466E-01  0.9549E-03
      9.796  0.9905E-01  0.2015E-01  0.1443E+00  0.1858E-01  0.4815E-02  0.2295E-01  0.5858E-01  0.7143E-01  0.9651E-03
      9.859  0.4321E-01  0.1059E-01  0.7279E-01  0.9783E-02  0.9926E-03  0.1202E-01  0.3049E-01  0.3763E-01  0.4979E-03
      9.922  0.1042E-01  0.2647E-02  0.1802E-01  0.2463E-02  0.1906E-03  0.3004E-02  0.7608E-02  0.9441E-02  0.1318E-03
      9.985  0.3379E-02  0.3226E-03  0.2134E-02  0.5824E-03  0.5477E-03  0.3563E-03  0.9453E-03  0.1643E-02  0.1550E-03
     10.048  0.1846E-01  0.2177E-03  0.3181E-03  0.2454E-02  0.4463E-02  0.5244E-04  0.4487E-03  0.4525E-02  0.1169E-02
     10.111  0.7553E-01  0.2010E-02  0.2012E-02  0.9586E-02  0.1805E-01  0.3349E-03  0.1638E-02  0.1806E-01  0.4608E-02
     10.174  0.1570E+00  0.9986E-02  0.9986E-02  0.1797E-01  0.3626E-01  0.1617E-02  0.3509E-02  0.3627E-01  0.8751E-02
     10.237  0.1766E+00  0.2683E-01  0.2684E-01  0.1621E-01  0.3829E-01  0.3712E-02  0.5348E-02  0.3830E-01  0.8539E-02