    4    4   10    1
  0.1668682E+02  0.4056435E-09  0.4056435E-09  0.4056435E-09  0.3500000E-15
   1.0000000000000000E-004
  CAR 
 Au, FCC                                 
   44   10   26

  0.8333333E-01  0.8333333E-01  0.8333333E-01  0.3703704E-01
   1       -4.3213
   2       -2.0611
   3       -1.3965
   4       -1.3537
   5       -1.3537
   6       -1.2228
   7       -1.2228
   8        0.7270
   9        0.9114
  10        0.9114
  11        1.9564
  12        1.9564
  13        2.6822
  14        2.6839
  15        2.6839
  16        3.0792
  17        3.0894
  18        3.0894
  19        3.1292
  20        3.2904
  21        3.2904
  22        5.9856
  23        6.0004
  24        6.0004
  25       11.0344
  26       11.0344

  0.2500000E+00  0.8333333E-01  0.8333333E-01  0.1111111E+00
   1       -3.7279
   2       -1.7324
   3       -1.2451
   4       -1.1988
   5       -1.0818
   6       -1.0084
   7       -0.7664
   8        0.4835
   9        0.9163
  10        0.9882
  11        1.5651
  12        1.6615
  13        1.7552
  14        2.0143
  15        2.3664
  16        2.6210
  17        2.8797
  18        2.9273
  19        3.0622
  20        3.1642
  21        3.2840
  22        3.8738
  23        7.2848
  24        7.3706
  25       10.7963
  26       10.8995

  0.4166667E+00  0.8333333E-01  0.8333333E-01  0.1111111E+00
   1       -2.7366
   2       -1.4664
   3       -1.1547
   4       -1.0309
   5       -0.5858
   6       -0.5198
   7       -0.1447
   8        0.2589
   9        0.3967
  10        0.4917
  11        0.9839
  12        1.1269
  13        1.3716
  14        1.7408
  15        1.8552
  16        2.0889
  17        2.7026
  18        2.7184
  19        2.8801
  20        2.9747
  21        3.0851
  22        3.2797
  23        8.6320
  24        8.8674
  25       10.1635
  26       10.3748

  0.2500000E+00  0.2500000E+00  0.8333333E-01  0.1111111E+00
   1       -3.1952
   2       -1.4380
   3       -1.0684
   4       -0.9959
   5       -0.9710
   6       -0.6645
   7       -0.4706
   8        0.2078
   9        0.6554
  10        0.8605
  11        1.1913
  12        1.3930
  13        1.5404
  14        1.7652
  15        1.9574
  16        2.4568
  17        2.7477
  18        2.8370
  19        2.8908
  20        3.0992
  21        3.1552
  22        4.9120
  23        5.1554
  24        8.3081
  25        9.4501
  26       12.5751

  0.4166667E+00  0.2500000E+00  0.8333333E-01  0.2222222E+00
   1       -2.3039
   2       -1.2398
   3       -0.9364
   4       -0.7696
   5       -0.6320
   6       -0.4596
   7       -0.0828
   8        0.0271
   9        0.1479
  10        0.4901
  11        0.8903
  12        1.2362
  13        1.4028
  14        1.5509
  15        1.6806
  16        2.2172
  17        2.4676
  18        2.7959
  19        2.8983
  20        2.9680
  21        3.0846
  22        3.5222
  23        6.3073
  24        7.7611
  25        9.7415
  26       11.1034

  0.4166667E+00  0.4166667E+00  0.8333333E-01  0.1111111E+00
   1       -1.6735
   2       -1.1533
   3       -0.9621
   4       -0.7533
   5       -0.2853
   6       -0.1472
   7       -0.1044
   8        0.0301
   9        0.2318
  10        0.4535
  11        1.0475
  12        1.0623
  13        1.1462
  14        1.1916
  15        1.6401
  16        2.0261
  17        2.1200
  18        2.7351
  19        2.7993
  20        2.8689
  21        3.4986
  22        4.3424
  23        4.7214
  24        5.9236
  25       10.9104
  26       12.3671

  0.2500000E+00  0.2500000E+00  0.2500000E+00  0.3703704E-01
   1       -2.8104
   2       -1.3712
   3       -1.0156
   4       -1.0156
   5       -0.7598
   6       -0.1632
   7       -0.1632
   8        0.1362
   9        0.5233
  10        0.5233
  11        1.1382
  12        1.1382
  13        1.3293
  14        1.6311
  15        1.6311
  16        2.3111
  17        2.7552
  18        2.7552
  19        2.9877
  20        3.2149
  21        3.2149
  22        5.7069
  23        5.8058
  24        5.8058
  25       10.2443
  26       10.2443

  0.4166667E+00  0.2500000E+00  0.2500000E+00  0.1111111E+00
   1       -2.1899
   2       -1.4120
   3       -1.2363
   4       -0.8738
   5       -0.4432
   6       -0.0282
   7        0.0044
   8        0.1631
   9        0.5035
  10        0.5510
  11        1.0054
  12        1.0338
  13        1.2590
  14        1.5698
  15        1.5711
  16        2.2593
  17        2.7669
  18        2.8206
  19        2.9416
  20        3.1274
  21        3.1412
  22        3.7106
  23        6.8299
  24        6.9045
  25        8.3064
  26        8.6908

  0.4166667E+00  0.4166667E+00  0.2500000E+00  0.1111111E+00
   1       -1.9231
   2       -1.5547
   3       -1.5218
   4       -1.3009
   5       -0.0584
   6       -0.0455
   7        0.2888
   8        0.5570
   9        0.7412
  10        0.8057
  11        0.8858
  12        1.1521
  13        1.2442
  14        1.5887
  15        1.8259
  16        2.3086
  17        2.6125
  18        2.8693
  19        3.0343
  20        3.0900
  21        3.3306
  22        4.4429
  23        4.7369
  24        6.0079
  25        8.3242
  26        9.6161

  0.4166667E+00  0.4166667E+00  0.4166667E+00  0.3703704E-01
   1       -1.9950
   2       -1.8817
   3       -1.7673
   4       -1.7673
   5        0.0333
   6        0.0333
   7        0.2202
   8        0.5721
   9        0.8774
  10        0.8774
  11        1.2648
  12        1.2648
  13        2.2107
  14        2.2107
  15        2.4946
  16        2.9087
  17        2.9248
  18        3.0487
  19        3.0487
  20        3.1776
  21        3.1776
  22        4.6294
  23        4.7534
  24        4.7534
  25        7.8371
  26        7.8371
