       N       E                     dE             d eps       ncg     rms          rms(c)
DAV:   1     0.342708561101E+03    0.34271E+03   -0.17163E+04   528   0.143E+03

DAV:   2     0.121265742939E+02   -0.33058E+03   -0.32027E+03   528   0.409E+02

DAV:   3    -0.139406732612E+02   -0.26067E+02   -0.24923E+02   570   0.120E+02

DAV:   4    -0.147400632953E+02   -0.79939E+00   -0.79213E+00   576   0.210E+01

DAV:   5    -0.147517770326E+02   -0.11714E-01   -0.11707E-01   564   0.236E+00    0.728E+00
RMM:   6    -0.137717709126E+02    0.98001E+00   -0.76034E+00   520   0.283E+01    0.371E+00
RMM:   7    -0.135627242366E+02    0.20905E+00   -0.25522E+00   520   0.126E+01    0.351E+00
RMM:   8    -0.133952326412E+02    0.16749E+00   -0.45092E-01   520   0.576E+00    0.639E-01
RMM:   9    -0.133833069235E+02    0.11926E-01   -0.52664E-02   520   0.249E+00    0.399E-01
RMM:  10    -0.133800518558E+02    0.32551E-02   -0.14767E-02   521   0.106E+00    0.911E-02
RMM:  11    -0.133799415765E+02    0.11028E-03   -0.48097E-04   368   0.191E-01    0.378E-02
RMM:  12    -0.133799131463E+02    0.28430E-04   -0.15151E-04   298   0.108E-01

   1 F= -.13379913E+02 E0= -.13371647E+02  d E =-.133799E+02
       N       E                     dE             d eps       ncg     rms          rms(c)
DAV:   1    -0.133869511677E+02   -0.13387E+02   -0.13014E-01   550   0.428E+00    0.541E-01
RMM:   2    -0.133809072899E+02    0.60439E-02   -0.35713E-02   520   0.191E+00    0.201E-01
RMM:   3    -0.133804708196E+02    0.43647E-03   -0.11072E-02   519   0.878E-01    0.219E-01
RMM:   4    -0.133796693155E+02    0.80150E-03   -0.13565E-03   394   0.318E-01    0.528E-02
RMM:   5    -0.133796266333E+02    0.42682E-04   -0.15386E-04   286   0.950E-02

   2 F= -.13379627E+02 E0= -.13371305E+02  d E =0.286513E-03

