 vasp.4.6.26 15Dec04 complex 
 executed on             LinuxPgi date 2009.11.30  23:39:04
 serial version


--------------------------------------------------------------------------------------------------------


 INCAR:
 POTCAR:   PAW_GGA Au 18Jul2000                   
 POTCAR:   PAW_GGA Cu 05Jan2001                   
 POTCAR:   PAW_GGA Au 18Jul2000                   
  local pseudopotential read in
  partial core-charges read in
  atomic valenz-charges read in
  non local Contribution for L=                        2  read in
    real space projection operators read in
  non local Contribution for L=                        2  read in
    real space projection operators read in
  non local Contribution for L=                        0  read in
    real space projection operators read in
  non local Contribution for L=                        0  read in
    real space projection operators read in
  non local Contribution for L=                        1  read in
    real space projection operators read in
  non local Contribution for L=                        1  read in
    real space projection operators read in
    PAW grid and wavefunctions read in

   number of l-projection  operators is LMAX  =                        6
   number of lm-projection operators is LMMAX =                       18

 POTCAR:   PAW_GGA Cu 05Jan2001                   
  local pseudopotential read in
  partial core-charges read in
  atomic valenz-charges read in
  non local Contribution for L=                        2  read in
    real space projection operators read in
  non local Contribution for L=                        2  read in
    real space projection operators read in
  non local Contribution for L=                        0  read in
    real space projection operators read in
  non local Contribution for L=                        0  read in
    real space projection operators read in
  non local Contribution for L=                        1  read in
    real space projection operators read in
  non local Contribution for L=                        1  read in
    real space projection operators read in
    PAW grid and wavefunctions read in

   number of l-projection  operators is LMAX  =                        6
   number of lm-projection operators is LMMAX =                       18

 PAW_GGA Au 18Jul2000                   :
 energy of atom  1       EATOM= -927.0928
 kinetic energy error for atom=    0.0152 (will be added to EATOM!!)
 PAW_GGA Cu 05Jan2001                   :
 energy of atom  2       EATOM=-1393.0707
 kinetic energy error for atom=    0.0259 (will be added to EATOM!!)

 EXHCAR: internal setup
 exchange correlation table for  LEXCH =        7
   RHO(1)=    0.500       N(1)  =     2000
   RHO(2)=  100.500       N(2)  =     4000

 POSCAR: Pure FCC metal                          
  positions in direct lattice
  velocities in cartesian coordinates



--------------------------------------------------------------------------------------------------------


 ion  position               nearest neighbor table
   1  0.000  0.000  0.000-   2 2.87   3 2.87   4 2.87   3 2.87   4 2.87   2 2.87   4 2.87   4 2.87
                             2 2.87   3 2.87   3 2.87   2 2.87
   2  0.500  0.500  0.000-   1 2.87   3 2.87   4 2.87   3 2.87   4 2.87   1 2.87   3 2.87   3 2.87
                             1 2.87   4 2.87   4 2.87   1 2.87
   3  0.500  0.000  0.500-   1 2.87   2 2.87   4 2.87   1 2.87   2 2.87   2 2.87   4 2.87   2 2.87
                             1 2.87   4 2.87   1 2.87   4 2.87
   4  0.000  0.500  0.500-   1 2.87   2 2.87   3 2.87   1 2.87   2 2.87   1 2.87   3 2.87   1 2.87
                             2 2.87   3 2.87   2 2.87   3 2.87

  LATTYP: Found a simple cubic cell.
 ALAT       =     4.0564350325
  
  Lattice vectors:
  
 A1 = (   4.0564350325,   0.0000000000,   0.0000000000)
 A2 = (   0.0000000000,   4.0564350325,   0.0000000000)
 A3 = (   0.0000000000,   0.0000000000,   4.0564350325)
 Subroutine PRICEL returns:
 Original cell was already a primitive cell.
 

Analysis of symmetry for initial positions (statically):

 Routine SETGRP: Setting up the symmetry group for a 
 simple cubic supercell.


 Subroutine GETGRP returns: Found 48 space group operations
 (whereof 16 operations were pure point group operations)
 out of a pool of 48 trial point group operations.


The static configuration has the point symmetry D_4h.
 The point group associated with its full space group is O_h .

Analysis of symmetry for dynamics (positions and initial velocities):

 Subroutine DYNSYM returns: Found 48 space group operations
 (whereof 16 operations were pure point group operations)
 out of a pool of 48 trial space group operations
 (whereof 16 operations were pure point group operations)
 and found also     1 'primitive' translations


The dynamic configuration has the point symmetry D_4h.
 The point group associated with its full space group is O_h .


 KPOINTS: 6x6x6 title card                        

Automatic generation of k-mesh.
 
 Subroutine IBZKPT returns following result:
 ===========================================
 
 Found     10 irreducible k-points:
 
 Following reciprocal coordinates:
            Coordinates               Weight
  0.083333  0.083333  0.083333      8.000000
  0.250000  0.083333  0.083333     24.000000
  0.416667  0.083333  0.083333     24.000000
  0.250000  0.250000  0.083333     24.000000
  0.416667  0.250000  0.083333     48.000000
  0.416667  0.416667  0.083333     24.000000
  0.250000  0.250000  0.250000      8.000000
  0.416667  0.250000  0.250000     24.000000
  0.416667  0.416667  0.250000     24.000000
  0.416667  0.416667  0.416667      8.000000
 
 Following cartesian coordinates:
            Coordinates               Weight
  0.085790  0.085790  0.085790      8.000000
  0.257369  0.085790  0.085790     24.000000
  0.428948  0.085790  0.085790     24.000000
  0.257369  0.257369  0.085790     24.000000
  0.428948  0.257369  0.085790     48.000000
  0.428948  0.428948  0.085790     24.000000
  0.257369  0.257369  0.257369      8.000000
  0.428948  0.257369  0.257369     24.000000
  0.428948  0.428948  0.257369     24.000000
  0.428948  0.428948  0.428948      8.000000
 


--------------------------------------------------------------------------------------------------------




 Dimension of arrays:
   k-Points           NKPTS =     10   number of bands    NBANDS=     26
   number of dos      NEDOS =    301   number of ions     NIONS =      4
   non local maximal  LDIM  =      6   non local SUM 2l+1 LMDIM =     18
   total plane-waves  NPLWV =   8000
   max r-space proj   IRMAX =      1   max aug-charges    IRDMAX=   7528
   dimension x,y,z NGX =    20 NGY =   20 NGZ =   20
   dimension x,y,z NGXF=    40 NGYF=   40 NGZF=   40
   support grid    NGXF=    40 NGYF=   40 NGZF=   40
   ions per type =               3   1
 NGX,Y,Z   is equivalent  to a cutoff of   8.20,  8.20,  8.20 a.u.
 NGXF,Y,Z  is equivalent  to a cutoff of  16.39, 16.39, 16.39 a.u.


 I would recommend the setting:
   dimension x,y,z NGX =    19 NGY =   19 NGZ =   19
 SYSTEM =  Au, FCC                                 
 POSCAR =  Pure FCC metal                          

 Startparameter for this run:
   NWRITE =      1    write-flag & timer
   PREC   = normal    medium, high low
   ISTART =      0    job   : 0-new  1-cont  2-samecut
   ICHARG =      2    charge: 1-file 2-atom 10-const
   ISPIN  =      1    spin polarized calculation?
   LNONCOLLINEAR =      F non collinear calculations
   LSORBIT =      F    spin-orbit coupling
   INIWAV =      1    electr: 0-lowe 1-rand  2-diag
   LASPH  =      F    aspherical Exc in radial PAW
   METAGGA=      F    non-selfconsistent MetaGGA calc.

 Electronic Relaxation 1
   ENCUT  =  350.0 eV  25.72 Ry    5.07 a.u.   6.19  6.19  6.19*2*pi/ulx,y,z
   ENINI  =  350.0     initial cutoff
   ENAUG  =  516.5 eV  augmentation charge cutoff
   NELM   =     60;   NELMIN=  2; NELMDL= -5     # of ELM steps 
   EDIFF  = 0.1E-03   stopping-criterion for ELM
   LREAL  =      F    real-space projection
   LCOMPAT=      F    compatible to vasp.4.4
   LREAL_COMPAT= F    compatible to vasp.4.5.1-3
   GGA_COMPAT  = T    GGA compatible to vasp.4.4-vasp.4.6
   LMAXPAW     = -100 max onsite density
   LMAXMIX     =    2 max onsite mixed and CHGCAR
   VOSKOWN=      0    Vosko Wilk Nusair interpolation
   ROPT   =    0.00000   0.00000
 Ionic relaxation
   EDIFFG = 0.1E-02   stopping-criterion for IOM
   NSW    =     10    number of steps for IOM
   NBLOCK =      1;   KBLOCK =     10    inner block; outer block 
   IBRION =      1    ionic relax: 0-MD 1-quasi-New 2-CG
   NFREE  =      5    steps in history (QN), initial steepest desc. (CG)
   ISIF   =      3    stress and relaxation
   IWAVPR =     11    prediction:  0-non 1-charg 2-wave 3-comb
   ISYM   =      2    0-nonsym 1-usesym 2-fastsym
   LCORR  =      T    Harris-Foulkes like correction to forces

   POTIM  =   0.35    time-step for ionic-motion
   TEIN   =    0.0    initial temperature
   TEBEG  =    0.0;   TEEND  =   0.0 temperature during run
   SMASS  =  -3.00    Nose mass-parameter (am)
   estimated Nose-frequenzy (Omega)   =  0.10E-29 period in steps =****** mass=  -0.376E-27a.u.
   NPACO  =    256;   APACO  = 16.0  distance and # of slots for P.C.
   PSTRESS=    0.0 pullay stress

  Mass of Ions in am
   POMASS = 196.97 63.55
  Ionic Valenz
   ZVAL   =  11.00 11.00
  Atomic Wigner-Seitz radii
   RWIGS  =  -1.00 -1.00
   NELECT =      44.0000    total number of electrons
   NUPDOWN=      -1.0000    fix difference up-down

 DOS related values:
   EMIN   =  10.00;   EMAX   =-10.00  energy-range for DOS
   ISMEAR =     0;   SIGMA  =   0.10  broadening in eV -4-tet -1-fermi 0-gaus

 Electronic relaxation 2 (details)
   IALGO  =     68    algorithm
   LDIAG  =      T    sub-space diagonalisation
   IMIX   =      4    mixing-type and parameters
     AMIX     =   0.40;   BMIX     =  1.00
     AMIX_MAG =   1.60;   BMIX_MAG =  1.00
     AMIN     =   0.10
     WC   =   100.;   INIMIX=   1;  MIXPRE=   1

 Intra band minimization:
   WEIMIN = 0.0010     energy-eigenvalue tresh-hold
   EBREAK =  0.96E-06  absolut break condition
   DEPER  =   0.30     relativ break condition  

   TIME   =   0.10     timestep for ELM

  volume/ion in A,a.u.               =      16.69       112.61
  Fermi-wavevector in a.u.,eV,Ry     =   1.424780 27.619807  2.029999

 Second variation
   LSECVAR=     F    do a second variation

 Write flags
   LWAVE  =      F    write WAVECAR
   LCHARG =      T    write CHGCAR
   LVTOT  =      F    write LOCPOT, local potential
   LELF   =      F    write electronic localiz. function (ELF)
   LORBIT =     11    0 simple, 1 ext, 2 COOP (PROOUT)


 Dipole corrections
   IDIPOL =      0    1-x, 2-y, 3-z
   LDIPOL =      F    correct potential



--------------------------------------------------------------------------------------------------------


 quasi-Newton-method for relaxation of ions
 charge density will be updated during run
 non-spin polarized calculation
 RMM-DIIS sequential band-by-band and
  variant of blocked Davidson during initial phase
 performe sub-space diagonalisation
    before iterative eigenvector-optimisation
 modified Broyden-mixing scheme, WC =      100.0
 initial mixing is a Kerker type mixing with AMIX =  0.4000 and BMIX =      1.0000
 Hartree-type preconditioning will be used
 using additional bands                         4
 reciprocal scheme for non local part
 use partial core corrections
 calculate Harris-corrections to forces 
   (improved forces if not selfconsistent)
 use gradient corrections 
 use of overlap-Matrix (Vanderbilt PP)
 Gauss-broadening in eV      SIGMA  =   0.10


--------------------------------------------------------------------------------------------------------


  energy-cutoff  :      350.00
  volume of cell :       66.75
      direct lattice vectors                 reciprocal lattice vectors
     4.056435033  0.000000000  0.000000000     0.246521882  0.000000000  0.000000000
     0.000000000  4.056435033  0.000000000     0.000000000  0.246521882  0.000000000
     0.000000000  0.000000000  4.056435033     0.000000000  0.000000000  0.246521882

  length of vectors
     4.056435033  4.056435033  4.056435033     0.246521882  0.246521882  0.246521882



 k-points in units of 2pi/SCALE and weight: 6x6x6 title card                        
   0.08578962  0.08578962  0.08578962       0.037
   0.25736885  0.08578962  0.08578962       0.111
   0.42894808  0.08578962  0.08578962       0.111
   0.25736885  0.25736885  0.08578962       0.111
   0.42894808  0.25736885  0.08578962       0.222
   0.42894808  0.42894808  0.08578962       0.111
   0.25736885  0.25736885  0.25736885       0.037
   0.42894808  0.25736885  0.25736885       0.111
   0.42894808  0.42894808  0.25736885       0.111
   0.42894808  0.42894808  0.42894808       0.037

 k-points in reciprocal lattice and weights: 6x6x6 title card                        
   0.08333333  0.08333333  0.08333333       0.037
   0.25000000  0.08333333  0.08333333       0.111
   0.41666667  0.08333333  0.08333333       0.111
   0.25000000  0.25000000  0.08333333       0.111
   0.41666667  0.25000000  0.08333333       0.222
   0.41666667  0.41666667  0.08333333       0.111
   0.25000000  0.25000000  0.25000000       0.037
   0.41666667  0.25000000  0.25000000       0.111
   0.41666667  0.41666667  0.25000000       0.111
   0.41666667  0.41666667  0.41666667       0.037

 position of ions in fractional coordinates (direct lattice) 
   0.00000000  0.00000000  0.00000000
   0.50000000  0.50000000  0.00000000
   0.50000000  0.00000000  0.50000000
   0.00000000  0.50000000  0.50000000

 position of ions in cartesian coordinates  (Angst):
   0.00000000  0.00000000  0.00000000
   2.02821752  2.02821752  0.00000000
   2.02821752  0.00000000  2.02821752
   0.00000000  2.02821752  2.02821752



--------------------------------------------------------------------------------------------------------


 k-point  1 :  0.08330.08330.0833  plane waves:    991
 k-point  2 :  0.25000.08330.0833  plane waves:    992
 k-point  3 :  0.41670.08330.0833  plane waves:    990
 k-point  4 :  0.25000.25000.0833  plane waves:    992
 k-point  5 :  0.41670.25000.0833  plane waves:    992
 k-point  6 :  0.41670.41670.0833  plane waves:   1001
 k-point  7 :  0.25000.25000.2500  plane waves:   1003
 k-point  8 :  0.41670.25000.2500  plane waves:    985
 k-point  9 :  0.41670.41670.2500  plane waves:    997
 k-point 10 :  0.41670.41670.4167  plane waves:   1003

 maximum number of plane-waves:   1003
 maximal index in each direction: 
   IXMAX=  6   IYMAX=  6   IZMAX=  6
   IXMIN= -6   IYMIN= -6   IZMIN= -6

 WARNING: wrap around error must be expected set NGX to  26
 WARNING: wrap around error must be expected set NGY to  26
 WARNING: wrap around error must be expected set NGZ to  26
 For storing wavefunctions    4.14 MBYTES are necessary
 For predicting wavefunctions    1.50 MBYTES are necessary
Broyden mixing: mesh for mixing (old mesh)
   NGX = 13   NGY = 13   NGZ = 13
  (NGX  = 40   NGY  = 40   NGZ  = 40)
 gives a total of   2197 points
 initial charge density was supplied:
 charge density of overlapping atoms calculated
 number of electron   44.0000000 magnetization 
 keeping initial charge density in first step


--------------------------------------------------------------------------------------------------------


 Maximum index for augmentation-charges                      7123 (set IRDMAX)


--------------------------------------------------------------------------------------------------------


 First call to EWALD:  gamma=   0.437
 Maximum number of real-space cells 3x 3x 3
 Maximum number of reciprocal cells 3x 3x 3



----------------------------------------- Iteration    1(   1)  ---------------------------------------


      LOOP:  VPU time    2.19: CPU time    1.95

 eigenvalue-minimisations  :   528
 total energy-change (2. order) : 0.3427086E+03  (-0.1716349E+04)
 number of electron   44.0000000 magnetization 
 augmentation part    44.0000000 magnetization 

 Free energy of the ion-electron system (eV)
  ---------------------------------------------------
  alpha Z        PSCENC =       412.22224328
  Ewald energy   TEWEN  =     -3938.70264189
  -1/2 Hartree   DENC   =      -757.40068192
  -V(xc)+E(xc)   XCENC  =        88.65045155
  PAW double counting   =      3325.90099900    -3401.18488486
  entropy T*S    EENTRO =        -0.01512074
  eigenvalues    EBANDS =       438.96051983
  atomic energy  EATOM  =      4174.27767686
  ---------------------------------------------------
  free energy    TOTEN  =       342.70856110 eV

  energy without entropy =      342.72368184  energy(sigma->0) =      342.71612147


--------------------------------------------------------------------------------------------------------




----------------------------------------- Iteration    1(   2)  ---------------------------------------


      LOOP:  VPU time    1.88: CPU time    1.80

 eigenvalue-minimisations  :   528
 total energy-change (2. order) :-0.3305820E+03  (-0.3202682E+03)
 number of electron   44.0000000 magnetization 
 augmentation part    44.0000000 magnetization 

 Free energy of the ion-electron system (eV)
  ---------------------------------------------------
  alpha Z        PSCENC =       412.22224328
  Ewald energy   TEWEN  =     -3938.70264189
  -1/2 Hartree   DENC   =      -757.40068192
  -V(xc)+E(xc)   XCENC  =        88.65045155
  PAW double counting   =      3325.90099900    -3401.18488486
  entropy T*S    EENTRO =        -0.01077813
  eigenvalues    EBANDS =       108.37419041
  atomic energy  EATOM  =      4174.27767686
  ---------------------------------------------------
  free energy    TOTEN  =        12.12657429 eV

  energy without entropy =       12.13735242  energy(sigma->0) =       12.13196336


--------------------------------------------------------------------------------------------------------




----------------------------------------- Iteration    1(   3)  ---------------------------------------


      LOOP:  VPU time    1.97: CPU time    1.90

 eigenvalue-minimisations  :   570
 total energy-change (2. order) :-0.2606725E+02  (-0.2492348E+02)
 number of electron   44.0000000 magnetization 
 augmentation part    44.0000000 magnetization 

 Free energy of the ion-electron system (eV)
  ---------------------------------------------------
  alpha Z        PSCENC =       412.22224328
  Ewald energy   TEWEN  =     -3938.70264189
  -1/2 Hartree   DENC   =      -757.40068192
  -V(xc)+E(xc)   XCENC  =        88.65045155
  PAW double counting   =      3325.90099900    -3401.18488486
  entropy T*S    EENTRO =        -0.01353816
  eigenvalues    EBANDS =        82.30970289
  atomic energy  EATOM  =      4174.27767686
  ---------------------------------------------------
  free energy    TOTEN  =       -13.94067326 eV

  energy without entropy =      -13.92713511  energy(sigma->0) =      -13.93390418


--------------------------------------------------------------------------------------------------------




----------------------------------------- Iteration    1(   4)  ---------------------------------------


      LOOP:  VPU time    2.04: CPU time    1.86

 eigenvalue-minimisations  :   576
 total energy-change (2. order) :-0.7993900E+00  (-0.7921332E+00)
 number of electron   44.0000000 magnetization 
 augmentation part    44.0000000 magnetization 

 Free energy of the ion-electron system (eV)
  ---------------------------------------------------
  alpha Z        PSCENC =       412.22224328
  Ewald energy   TEWEN  =     -3938.70264189
  -1/2 Hartree   DENC   =      -757.40068192
  -V(xc)+E(xc)   XCENC  =        88.65045155
  PAW double counting   =      3325.90099900    -3401.18488486
  entropy T*S    EENTRO =        -0.01145601
  eigenvalues    EBANDS =        81.50823070
  atomic energy  EATOM  =      4174.27767686
  ---------------------------------------------------
  free energy    TOTEN  =       -14.74006330 eV

  energy without entropy =      -14.72860729  energy(sigma->0) =      -14.73433529


--------------------------------------------------------------------------------------------------------




----------------------------------------- Iteration    1(   5)  ---------------------------------------


      LOOP:  VPU time    2.18: CPU time    1.97

 eigenvalue-minimisations  :   564
 total energy-change (2. order) :-0.1171374E-01  (-0.1170680E-01)
 number of electron   43.9999842 magnetization 
 augmentation part    18.4199638 magnetization 

 Broyden mixing:
  rms(total) = 0.72831E+00    rms(broyden)= 0.72828E+00
  rms(prec ) = 0.17872E+01
  weight for this iteration     100.00

 Free energy of the ion-electron system (eV)
  ---------------------------------------------------
  alpha Z        PSCENC =       412.22224328
  Ewald energy   TEWEN  =     -3938.70264189
  -1/2 Hartree   DENC   =      -757.40068192
  -V(xc)+E(xc)   XCENC  =        88.65045155
  PAW double counting   =      3325.90099900    -3401.18488486
  entropy T*S    EENTRO =        -0.01134325
  eigenvalues    EBANDS =        81.49640421
  atomic energy  EATOM  =      4174.27767686
  ---------------------------------------------------
  free energy    TOTEN  =       -14.75177703 eV

  energy without entropy =      -14.74043378  energy(sigma->0) =      -14.74610541


--------------------------------------------------------------------------------------------------------




----------------------------------------- Iteration    1(   6)  ---------------------------------------


      LOOP:  VPU time    2.27: CPU time    2.24

 eigenvalue-minimisations  :   520
 total energy-change (2. order) : 0.9800061E+00  (-0.7603441E+00)
 number of electron   43.9999836 magnetization 
 augmentation part    19.3714987 magnetization 

 Broyden mixing:
  rms(total) = 0.37082E+00    rms(broyden)= 0.37076E+00
  rms(prec ) = 0.92545E+00
  weight for this iteration     100.00

 eigenvalues of (default mixing * dielectric matrix)
  average eigenvalue GAMMA=   0.7681
  0.7681

 Free energy of the ion-electron system (eV)
  ---------------------------------------------------
  alpha Z        PSCENC =       412.22224328
  Ewald energy   TEWEN  =     -3938.70264189
  -1/2 Hartree   DENC   =      -713.88778982
  -V(xc)+E(xc)   XCENC  =        86.60829695
  PAW double counting   =      3282.18246760    -3355.82659811
  entropy T*S    EENTRO =        -0.01605896
  eigenvalues    EBANDS =        39.37063318
  atomic energy  EATOM  =      4174.27767686
  ---------------------------------------------------
  free energy    TOTEN  =       -13.77177091 eV

  energy without entropy =      -13.75571195  energy(sigma->0) =      -13.76374143


--------------------------------------------------------------------------------------------------------




----------------------------------------- Iteration    1(   7)  ---------------------------------------


      LOOP:  VPU time    2.26: CPU time    2.21

 eigenvalue-minimisations  :   520
 total energy-change (2. order) : 0.2090467E+00  (-0.2552234E+00)
 number of electron   43.9999837 magnetization 
 augmentation part    19.0881970 magnetization 

 Broyden mixing:
  rms(total) = 0.35068E+00    rms(broyden)= 0.35063E+00
  rms(prec ) = 0.91587E+00
  weight for this iteration     100.00

 eigenvalues of (default mixing * dielectric matrix)
  average eigenvalue GAMMA=   0.8020
  0.4142  1.1899

 Free energy of the ion-electron system (eV)
  ---------------------------------------------------
  alpha Z        PSCENC =       412.22224328
  Ewald energy   TEWEN  =     -3938.70264189
  -1/2 Hartree   DENC   =      -716.20485540
  -V(xc)+E(xc)   XCENC  =        86.71038551
  PAW double counting   =      3302.27928060    -3383.94767829
  entropy T*S    EENTRO =        -0.01844683
  eigenvalues    EBANDS =        49.82131193
  atomic energy  EATOM  =      4174.27767686
  ---------------------------------------------------
  free energy    TOTEN  =       -13.56272424 eV

  energy without entropy =      -13.54427740  energy(sigma->0) =      -13.55350082


--------------------------------------------------------------------------------------------------------




----------------------------------------- Iteration    1(   8)  ---------------------------------------


      LOOP:  VPU time    2.28: CPU time    2.22

 eigenvalue-minimisations  :   520
 total energy-change (2. order) : 0.1674916E+00  (-0.4509167E-01)
 number of electron   43.9999835 magnetization 
 augmentation part    19.3521862 magnetization 

 Broyden mixing:
  rms(total) = 0.63929E-01    rms(broyden)= 0.63864E-01
  rms(prec ) = 0.11605E+00
  weight for this iteration     100.00

 eigenvalues of (default mixing * dielectric matrix)
  average eigenvalue GAMMA=   1.1710
  0.3793  1.2256  1.9082

 Free energy of the ion-electron system (eV)
  ---------------------------------------------------
  alpha Z        PSCENC =       412.22224328
  Ewald energy   TEWEN  =     -3938.70264189
  -1/2 Hartree   DENC   =      -708.62591688
  -V(xc)+E(xc)   XCENC  =        86.37248096
  PAW double counting   =      3306.21325284    -3387.62630919
  entropy T*S    EENTRO =        -0.01740810
  eigenvalues    EBANDS =        42.49138946
  atomic energy  EATOM  =      4174.27767686
  ---------------------------------------------------
  free energy    TOTEN  =       -13.39523264 eV

  energy without entropy =      -13.37782455  energy(sigma->0) =      -13.38652859


--------------------------------------------------------------------------------------------------------




----------------------------------------- Iteration    1(   9)  ---------------------------------------


      LOOP:  VPU time    2.27: CPU time    2.22

 eigenvalue-minimisations  :   520
 total energy-change (2. order) : 0.1192572E-01  (-0.5266422E-02)
 number of electron   43.9999836 magnetization 
 augmentation part    19.2789918 magnetization 

 Broyden mixing:
  rms(total) = 0.39869E-01    rms(broyden)= 0.39867E-01
  rms(prec ) = 0.95588E-01
  weight for this iteration     100.00

 eigenvalues of (default mixing * dielectric matrix)
  average eigenvalue GAMMA=   1.2972
  2.5402  1.1379  1.1379  0.3729

 Free energy of the ion-electron system (eV)
  ---------------------------------------------------
  alpha Z        PSCENC =       412.22224328
  Ewald energy   TEWEN  =     -3938.70264189
  -1/2 Hartree   DENC   =      -708.53453596
  -V(xc)+E(xc)   XCENC  =        86.36962467
  PAW double counting   =      3328.64061015    -3412.79248041
  entropy T*S    EENTRO =        -0.01628606
  eigenvalues    EBANDS =        45.15248243
  atomic energy  EATOM  =      4174.27767686
  ---------------------------------------------------
  free energy    TOTEN  =       -13.38330692 eV

  energy without entropy =      -13.36702087  energy(sigma->0) =      -13.37516390


--------------------------------------------------------------------------------------------------------




----------------------------------------- Iteration    1(  10)  ---------------------------------------


      LOOP:  VPU time    2.27: CPU time    2.22

 eigenvalue-minimisations  :   521
 total energy-change (2. order) : 0.3255068E-02  (-0.1476684E-02)
 number of electron   43.9999836 magnetization 
 augmentation part    19.3226720 magnetization 

 Broyden mixing:
  rms(total) = 0.91089E-02    rms(broyden)= 0.91018E-02
  rms(prec ) = 0.22196E-01
  weight for this iteration     100.00

 eigenvalues of (default mixing * dielectric matrix)
  average eigenvalue GAMMA=   1.2430
  2.4723  0.3726  1.2945  1.0379  1.0379

 Free energy of the ion-electron system (eV)
  ---------------------------------------------------
  alpha Z        PSCENC =       412.22224328
  Ewald energy   TEWEN  =     -3938.70264189
  -1/2 Hartree   DENC   =      -706.12186481
  -V(xc)+E(xc)   XCENC  =        86.25623789
  PAW double counting   =      3334.88028131    -3419.42529880
  entropy T*S    EENTRO =        -0.01662396
  eigenvalues    EBANDS =        43.24993826
  atomic energy  EATOM  =      4174.27767686
  ---------------------------------------------------
  free energy    TOTEN  =       -13.38005186 eV

  energy without entropy =      -13.36342790  energy(sigma->0) =      -13.37173988


--------------------------------------------------------------------------------------------------------




----------------------------------------- Iteration    1(  11)  ---------------------------------------


      LOOP:  VPU time    1.86: CPU time    1.82

 eigenvalue-minimisations  :   368
 total energy-change (2. order) : 0.1102793E-03  (-0.4809693E-04)
 number of electron   43.9999836 magnetization 
 augmentation part    19.3164715 magnetization 

 Broyden mixing:
  rms(total) = 0.37808E-02    rms(broyden)= 0.37807E-02
  rms(prec ) = 0.96046E-02
  weight for this iteration     100.00

 eigenvalues of (default mixing * dielectric matrix)
  average eigenvalue GAMMA=   1.4667
  2.6194  2.6194  0.3727  1.0892  1.0892  1.0104

 Free energy of the ion-electron system (eV)
  ---------------------------------------------------
  alpha Z        PSCENC =       412.22224328
  Ewald energy   TEWEN  =     -3938.70264189
  -1/2 Hartree   DENC   =      -706.49551159
  -V(xc)+E(xc)   XCENC  =        86.27255033
  PAW double counting   =      3336.04668505    -3420.52971558
  entropy T*S    EENTRO =        -0.01659808
  eigenvalues    EBANDS =        43.54537005
  atomic energy  EATOM  =      4174.27767686
  ---------------------------------------------------
  free energy    TOTEN  =       -13.37994158 eV

  energy without entropy =      -13.36334349  energy(sigma->0) =      -13.37164253


--------------------------------------------------------------------------------------------------------




----------------------------------------- Iteration    1(  12)  ---------------------------------------


      LOOP:  VPU time    1.54: CPU time    1.49

 eigenvalue-minimisations  :   298
 total energy-change (2. order) : 0.2843019E-04  (-0.1515067E-04)
 number of electron   43.9999836 magnetization 
 augmentation part    19.3164715 magnetization 

 Free energy of the ion-electron system (eV)
  ---------------------------------------------------
  alpha Z        PSCENC =       412.22224328
  Ewald energy   TEWEN  =     -3938.70264189
  -1/2 Hartree   DENC   =      -706.73515228
  -V(xc)+E(xc)   XCENC  =        86.28269167
  PAW double counting   =      3337.08722616    -3421.51804161
  entropy T*S    EENTRO =        -0.01653209
  eigenvalues    EBANDS =        43.72261676
  atomic energy  EATOM  =      4174.27767686
  ---------------------------------------------------
  free energy    TOTEN  =       -13.37991315 eV

  energy without entropy =      -13.36338106  energy(sigma->0) =      -13.37164710


--------------------------------------------------------------------------------------------------------




 average (electrostatic) potential at core
  the test charge radii are     1.2098  1.0053
  (the norm of the test charge is              1.0000)
       1 -46.5223       2 -46.5223       3 -46.5223       4 -38.5529



 E-fermi :   4.7185     XC(G=0): -12.4028     alpha+bet : -9.5192
   add alpha+bet to get absolut eigen values

 k-point   1 :       0.0833    0.0833    0.0833
  band No.  band energies     occupation 
      1      -4.3280      2.00000
      2      -2.0696      2.00000
      3      -1.4089      2.00000
      4      -1.3664      2.00000
      5      -1.3664      2.00000
      6      -1.2362      2.00000
      7      -1.2362      2.00000
      8       0.7030      2.00000
      9       0.8863      2.00000
     10       0.8863      2.00000
     11       1.9249      2.00000
     12       1.9249      2.00000
     13       2.6455      2.00000
     14       2.6494      2.00000
     15       2.6494      2.00000
     16       3.0470      2.00000
     17       3.0562      2.00000
     18       3.0562      2.00000
     19       3.0902      2.00000
     20       3.2555      2.00000
     21       3.2555      2.00000
     22       5.9510      0.00000
     23       5.9635      0.00000
     24       5.9635      0.00000
     25      10.9713      0.00000
     26      11.0038      0.00000

 k-point   2 :       0.2500    0.0833    0.0833
  band No.  band energies     occupation 
      1      -3.7363      2.00000
      2      -1.7426      2.00000
      3      -1.2583      2.00000
      4      -1.2125      2.00000
      5      -1.0959      2.00000
      6      -1.0228      2.00000
      7      -0.7819      2.00000
      8       0.4609      2.00000
      9       0.8910      2.00000
     10       0.9626      2.00000
     11       1.5366      2.00000
     12       1.6328      2.00000
     13       1.7264      2.00000
     14       1.9822      2.00000
     15       2.3325      2.00000
     16       2.5920      2.00000
     17       2.8474      2.00000
     18       2.8954      2.00000
     19       3.0251      2.00000
     20       3.1291      2.00000
     21       3.2495      2.00000
     22       3.8386      2.00000
     23       7.2407      0.00000
     24       7.3278      0.00000
     25      10.7400      0.00000
     26      10.8396      0.00000

 k-point   3 :       0.4167    0.0833    0.0833
  band No.  band energies     occupation 
      1      -2.7472      2.00000
      2      -1.4800      2.00000
      3      -1.1680      2.00000
      4      -1.0454      2.00000
      5      -0.6025      2.00000
      6      -0.5369      2.00000
      7      -0.1631      2.00000
      8       0.2379      2.00000
      9       0.3749      2.00000
     10       0.4694      2.00000
     11       0.9586      2.00000
     12       1.1009      2.00000
     13       1.3436      2.00000
     14       1.7104      2.00000
     15       1.8260      2.00000
     16       2.0570      2.00000
     17       2.6710      2.00000
     18       2.6881      2.00000
     19       2.8491      2.00000
     20       2.9417      2.00000
     21       3.0475      2.00000
     22       3.2453      2.00000
     23       8.5802      0.00000
     24       8.8172      0.00000
     25      10.1128      0.00000
     26      10.3230      0.00000

 k-point   4 :       0.2500    0.2500    0.0833
  band No.  band energies     occupation 
      1      -3.2050      2.00000
      2      -1.4499      2.00000
      3      -1.0825      2.00000
      4      -1.0106      2.00000
      5      -0.9857      2.00000
      6      -0.6806      2.00000
      7      -0.4876      2.00000
      8       0.1868      2.00000
      9       0.6322      2.00000
     10       0.8359      2.00000
     11       1.1646      2.00000
     12       1.3665      2.00000
     13       1.5114      2.00000
     14       1.7357      2.00000
     15       1.9257      2.00000
     16       2.4277      2.00000
     17       2.7129      2.00000
     18       2.8058      2.00000
     19       2.8577      2.00000
     20       3.0655      2.00000
     21       3.1214      2.00000
     22       4.8733      0.02866
     23       5.1129      0.00000
     24       8.2592      0.00000
     25       9.4010      0.00000
     26      12.5201      0.00000

 k-point   5 :       0.4167    0.2500    0.0833
  band No.  band energies     occupation 
      1      -2.3156      2.00000
      2      -1.2543      2.00000
      3      -0.9514      2.00000
      4      -0.7852      2.00000
      5      -0.6483      2.00000
      6      -0.4771      2.00000
      7      -0.1024      2.00000
      8       0.0075      2.00000
      9       0.1275      2.00000
     10       0.4679      2.00000
     11       0.8659      2.00000
     12       1.2103      2.00000
     13       1.3748      2.00000
     14       1.5218      2.00000
     15       1.6515      2.00000
     16       2.1877      2.00000
     17       2.4342      2.00000
     18       2.7647      2.00000
     19       2.8659      2.00000
     20       2.9351      2.00000
     21       3.0514      2.00000
     22       3.4858      2.00000
     23       6.2621      0.00000
     24       7.7130      0.00000
     25       9.6906      0.00000
     26      11.0490      0.00000

 k-point   6 :       0.4167    0.4167    0.0833
  band No.  band energies     occupation 
      1      -1.6867      2.00000
      2      -1.1682      2.00000
      3      -0.9774      2.00000
      4      -0.7694      2.00000
      5      -0.3029      2.00000
      6      -0.1662      2.00000
      7      -0.1234      2.00000
      8       0.0102      2.00000
      9       0.2111      2.00000
     10       0.4315      2.00000
     11       1.0224      2.00000
     12       1.0361      2.00000
     13       1.1194      2.00000
     14       1.1673      2.00000
     15       1.6100      2.00000
     16       1.9942      2.00000
     17       2.0931      2.00000
     18       2.7050      2.00000
     19       2.7683      2.00000
     20       2.8374      2.00000
     21       3.4620      2.00000
     22       4.3038      2.00000
     23       4.6782      1.43162
     24       5.8796      0.00000
     25      10.8558      0.00000
     26      12.3276      0.00000

 k-point   7 :       0.2500    0.2500    0.2500
  band No.  band energies     occupation 
      1      -2.8207      2.00000
      2      -1.3842      2.00000
      3      -1.0304      2.00000
      4      -1.0304      2.00000
      5      -0.7748      2.00000
      6      -0.1817      2.00000
      7      -0.1817      2.00000
      8       0.1157      2.00000
      9       0.5008      2.00000
     10       0.5008      2.00000
     11       1.1121      2.00000
     12       1.1121      2.00000
     13       1.3012      2.00000
     14       1.6014      2.00000
     15       1.6014      2.00000
     16       2.2843      2.00000
     17       2.7247      2.00000
     18       2.7247      2.00000
     19       2.9494      2.00000
     20       3.1803      2.00000
     21       3.1803      2.00000
     22       5.6669      0.00000
     23       5.7618      0.00000
     24       5.7618      0.00000
     25      10.1917      0.00000
     26      10.3223      0.00000

 k-point   8 :       0.4167    0.2500    0.2500
  band No.  band energies     occupation 
      1      -2.2012      2.00000
      2      -1.4256      2.00000
      3      -1.2503      2.00000
      4      -0.8893      2.00000
      5      -0.4601      2.00000
      6      -0.0474      2.00000
      7      -0.0157      2.00000
      8       0.1424      2.00000
      9       0.4817      2.00000
     10       0.5286      2.00000
     11       0.9793      2.00000
     12       1.0085      2.00000
     13       1.2326      2.00000
     14       1.5416      2.00000
     15       1.5434      2.00000
     16       2.2314      2.00000
     17       2.7309      2.00000
     18       2.7895      2.00000
     19       2.9081      2.00000
     20       3.0932      2.00000
     21       3.1073      2.00000
     22       3.6745      2.00000
     23       6.7850      0.00000
     24       6.8616      0.00000
     25       8.2557      0.00000
     26       8.6390      0.00000

 k-point   9 :       0.4167    0.4167    0.2500
  band No.  band energies     occupation 
      1      -1.9348      2.00000
      2      -1.5674      2.00000
      3      -1.5348      2.00000
      4      -1.3146      2.00000
      5      -0.0784      2.00000
      6      -0.0652      2.00000
      7       0.2678      2.00000
      8       0.5333      2.00000
      9       0.7179      2.00000
     10       0.7815      2.00000
     11       0.8621      2.00000
     12       1.1275      2.00000
     13       1.2179      2.00000
     14       1.5601      2.00000
     15       1.7992      2.00000
     16       2.2820      2.00000
     17       2.5775      2.00000
     18       2.8370      2.00000
     19       3.0010      2.00000
     20       3.0566      2.00000
     21       3.2954      2.00000
     22       4.4061      1.99999
     23       4.6964      1.24540
     24       5.9682      0.00000
     25       8.2708      0.00000
     26       9.5689      0.00000

 k-point  10 :       0.4167    0.4167    0.4167
  band No.  band energies     occupation 
      1      -2.0060      2.00000
      2      -1.8929      2.00000
      3      -1.7791      2.00000
      4      -1.7791      2.00000
      5       0.0125      2.00000
      6       0.0125      2.00000
      7       0.1983      2.00000
      8       0.5497      2.00000
      9       0.8531      2.00000
     10       0.8531      2.00000
     11       1.2378      2.00000
     12       1.2378      2.00000
     13       2.1804      2.00000
     14       2.1804      2.00000
     15       2.4670      2.00000
     16       2.8709      2.00000
     17       2.8976      2.00000
     18       3.0152      2.00000
     19       3.0152      2.00000
     20       3.1433      2.00000
     21       3.1433      2.00000
     22       4.5976      1.91286
     23       4.7199      0.98506
     24       4.7199      0.98506
     25       7.7821      0.00000
     26       7.7825      0.00000


--------------------------------------------------------------------------------------------------------


 soft charge-density along one line, spin component                        1
         0         1         2         3         4         5         6         7         8         9
x    24.6835   -1.8727    1.6915    0.2571   -0.7381   -0.0183    0.1135   -0.0041    0.0118    0.0008
x     0.0000
y    24.6835   -0.0008   -0.0006    0.0028   -0.0006   -0.0008    0.0000    0.0000    0.0038    0.0803
y    -1.0981
z    24.6835    0.0230    0.0000   -0.0001   -0.0002    0.0000    0.0000    0.0000    0.0000   -0.0012
z    -0.0012
 total charge-density along one line
x    44.0000    1.2685   13.2971    2.1402    1.2998    0.3208    0.0964   -0.0345    0.0169    0.0093
x     0.0003   -0.0028   -0.0007    0.0011    0.0005   -0.0004   -0.0003    0.0002    0.0001    0.0000
x    -0.0001
y    44.0000   -1.2685   13.2971   -2.1402    1.2998   -0.3208    0.0964    0.0345    0.0169   -0.0093
y     0.0003    0.0028   -0.0007   -0.0011    0.0005    0.0004   -0.0003   -0.0002    0.0001    0.0000
y    -0.0001
z    44.0000   -1.2685   13.2971   -2.1402    1.2998   -0.3208    0.0964    0.0345    0.0169   -0.0093
z     0.0003    0.0028   -0.0007   -0.0011    0.0005    0.0004   -0.0003   -0.0002    0.0001    0.0000
z    -0.0001

 pseudopotential strength for first ion, spin component: 
                        1
-10.213   0.000   0.000   0.000   0.000  -0.043   0.000   0.000
  0.000 -10.200   0.000   0.000   0.000   0.000  -0.044   0.000
  0.000   0.000 -10.193   0.000  -0.001   0.000   0.000  -0.045
  0.000   0.000   0.000 -10.213   0.000   0.000   0.000   0.000
  0.000   0.000  -0.001   0.000 -10.192   0.000   0.000   0.000
 -0.043   0.000   0.000   0.000   0.000   0.277   0.000   0.000
  0.000  -0.044   0.000   0.000   0.000   0.000   0.277   0.000
  0.000   0.000  -0.045   0.000   0.000   0.000   0.000   0.277
  0.000   0.000   0.000  -0.043   0.000   0.000   0.000   0.000
  0.000   0.000   0.000   0.000  -0.045   0.000   0.000   0.000
  0.000   0.000  -0.002   0.000   0.003   0.000   0.000   0.000
  0.000   0.000   0.000   0.000   0.000   0.000   0.000   0.000
  0.000   0.000   0.000   0.000   0.000   0.000   0.000   0.000
  0.000   0.000   0.000   0.000   0.000   0.000   0.000   0.000
  0.000   0.000   0.000   0.000   0.000   0.000   0.000   0.000
  0.000   0.000   0.000   0.000   0.000   0.000   0.000   0.000
  0.000   0.000   0.000   0.000   0.000   0.000   0.000   0.000
  0.000   0.000   0.000   0.000   0.000   0.000   0.000   0.000
 total augmentation occupancy for first ion, spin component: 
                        1
  1.802  -0.018  -0.021  -0.006  -0.010   0.019   0.018  -0.017   0.008   0.009   0.044  -0.014   0.000   0.000   0.000   0.000
 -0.018   1.962  -0.002  -0.017   0.001   0.018  -0.086   0.005   0.020  -0.009   0.036   0.002   0.000   0.000   0.000   0.000
 -0.021  -0.002   1.887   0.006  -0.035  -0.017   0.005  -0.029   0.001   0.038  -0.048  -0.069   0.000   0.000   0.000   0.000
 -0.006  -0.017   0.006   1.907   0.000   0.008   0.020   0.001  -0.021   0.019   0.048   0.000   0.000   0.000   0.000   0.000
 -0.010   0.001  -0.035   0.000   1.984   0.009  -0.009   0.038   0.019  -0.121   0.079   0.047   0.000   0.000   0.000   0.000
  0.019   0.018  -0.017   0.008   0.009   0.233  -0.011   0.058  -0.010  -0.005   0.024   0.054   0.000   0.000   0.000   0.000
  0.018  -0.086   0.005   0.020  -0.009  -0.011   0.138  -0.006  -0.013   0.015  -0.008   0.013   0.000   0.000   0.000   0.000
 -0.017   0.005  -0.029   0.001   0.038   0.058  -0.006   0.165  -0.011  -0.003   0.114   0.020   0.000   0.000   0.000   0.000
  0.008   0.020   0.001  -0.021   0.019  -0.010  -0.013  -0.011   0.167  -0.038  -0.004   0.033   0.000   0.000   0.000   0.000
  0.009  -0.009   0.038   0.019  -0.121  -0.005   0.015  -0.003  -0.038   0.123  -0.075  -0.008   0.000   0.000   0.000   0.000
  0.044   0.036  -0.048   0.048   0.079   0.024  -0.008   0.114  -0.004  -0.075   1.146  -0.353   0.000   0.000   0.000   0.000
 -0.014   0.002  -0.069   0.000   0.047   0.054   0.013   0.020   0.033  -0.008  -0.353   0.217   0.000   0.000   0.000   0.000
  0.000   0.000   0.000   0.000   0.000   0.000   0.000   0.000   0.000   0.000   0.000   0.000   0.157   0.013  -0.014  -0.010
  0.000   0.000   0.000   0.000   0.000   0.000   0.000   0.000   0.000   0.000   0.000   0.000   0.013   0.119  -0.001  -0.001
  0.000   0.000   0.000   0.000   0.000   0.000   0.000   0.000   0.000   0.000   0.000   0.000  -0.014  -0.001   0.225  -0.001
  0.000   0.000   0.000   0.000   0.000   0.000   0.000   0.000   0.000   0.000   0.000   0.000  -0.010  -0.001  -0.001   0.001
  0.000   0.000   0.000   0.000   0.000   0.000   0.000   0.000   0.000   0.000   0.000   0.000  -0.001  -0.008  -0.001   0.000
  0.000   0.000   0.000   0.000   0.000   0.000   0.000   0.000   0.000   0.000   0.000   0.000  -0.001  -0.001  -0.016   0.000


------------------------ aborting loop because EDIFF is reached ----------------------------------------





 total charge     

# of ion     s       p       d       tot
----------------------------------------
  1        0.568   0.370   8.664   9.602
  2        0.540   0.363   8.718   9.621
  3        0.576   0.357   8.755   9.688
  4        0.337   0.248   9.256   9.841
------------------------------------------------
tot        2.020   1.337  35.393  38.751



--------------------------------------------------------------------------------------------------------




--------------------------------------------------------------------------------------------------------



  FREE ENERGIE OF THE ION-ELECTRON SYSTEM (eV)
  ---------------------------------------------------
  free  energy   TOTEN  =       -13.379913 eV

  energy  without entropy=      -13.363381  energy(sigma->0) =      -13.371647


  FORCE on cell =-STRESS in cart. coord.  units (eV/reduce length):
  Direction    X        Y        Z        XY       YZ       ZX
  --------------------------------------------------------------------------------------
  Alpha Z    412.22    412.22    412.22
  Ewald    -1312.90  -1312.90  -1312.90      0.00      0.00      0.00
  Hartree    235.53    235.53    235.53      0.00      0.00      0.00
  E(xc)     -212.06   -212.06   -212.06      0.00      0.00      0.00
  Local      341.91    341.91    341.91      0.00      0.00      0.00
  n-local   -174.74   -187.39   -191.82      1.17      4.46      2.42
  augment    183.66    183.66    183.66      0.00      0.00      0.00
  Kinetic    540.42    536.45    531.62     -4.24     -1.96     -2.78
  -------------------------------------------------------------------------------------
  Total       -0.14     -0.14     -0.14      0.00      0.00      0.00
  in kB       -3.25     -3.25     -3.25      0.00      0.00      0.00
  external pressure =       -3.25 kB  Pullay stress =        0.00 kB


 VOLUME and BASIS-vectors are now :
 -----------------------------------------------------------------------------
  energy-cutoff  :      350.00
  volume of cell :       66.75
      direct lattice vectors                 reciprocal lattice vectors
     4.056435033  0.000000000  0.000000000     0.246521882  0.000000000  0.000000000
     0.000000000  4.056435033  0.000000000     0.000000000  0.246521882  0.000000000
     0.000000000  0.000000000  4.056435033     0.000000000  0.000000000  0.246521882

  length of vectors
     4.056435033  4.056435033  4.056435033     0.246521882  0.246521882  0.246521882


 FORCES acting on ions
    electron-ion (+dipol)            ewald-force                    non-local-force                 convergence-correction
 -----------------------------------------------------------------------------------------------
   -.737E-14 0.351E-13 0.479E-13   -.171E-13 -.491E-14 -.128E-13   0.000E+00 0.000E+00 0.000E+00   -.197E-13 -.847E-14 -.267E-13
   -.132E-12 -.464E-13 0.458E-13   -.654E-14 -.154E-14 -.125E-13   0.000E+00 0.000E+00 0.000E+00   -.267E-14 0.697E-14 -.168E-13
   -.132E-12 0.358E-13 -.319E-13   0.163E-13 -.304E-15 0.128E-13   0.000E+00 0.000E+00 0.000E+00   -.796E-14 -.641E-14 0.261E-13
   -.739E-13 -.167E-12 -.154E-12   0.898E-14 0.307E-14 0.130E-13   0.000E+00 0.000E+00 0.000E+00   -.380E-13 0.499E-13 0.420E-13
 -----------------------------------------------------------------------------------------------
   -.345E-12 -.143E-12 -.923E-13   0.169E-14 -.369E-14 0.522E-15   0.000E+00 0.000E+00 0.000E+00   -.683E-13 0.420E-13 0.246E-13


 POSITION                                       TOTAL-FORCE (eV/Angst)
 -----------------------------------------------------------------------------------
      0.00000      0.00000      0.00000         0.000000      0.000000      0.000000
      2.02822      2.02822      0.00000         0.000000      0.000000      0.000000
      2.02822      0.00000      2.02822         0.000000      0.000000      0.000000
      0.00000      2.02822      2.02822         0.000000      0.000000      0.000000
 -----------------------------------------------------------------------------------
    total drift:                                0.000000      0.000000      0.000000


--------------------------------------------------------------------------------------------------------


 Quasi-Newton relaxation of ions (Broydens 2nd method)
  g(Force)  = 0.000E+00   g(Stress)= 0.464E-03

 Reset! Starting new Quasi-Newton update for ions 


--------------------------------------------------------------------------------------------------------


     LOOP+:  VPU time   27.41: CPU time   26.09


----------------------------------------- Iteration    2(   1)  ---------------------------------------


      LOOP:  VPU time    2.30: CPU time    2.05

 eigenvalue-minimisations  :   550
 total energy-change (2. order) :-0.1338695E+02  (-0.1301420E-01)
 number of electron   43.9999869 magnetization 
 augmentation part    19.2468677 magnetization 

  free energy =  -0.133869511677E+02  energy without entropy=  -0.133702391230E+02


--------------------------------------------------------------------------------------------------------




----------------------------------------- Iteration    2(   2)  ---------------------------------------


      LOOP:  VPU time    2.30: CPU time    2.18

 eigenvalue-minimisations  :   520
 total energy-change (2. order) : 0.6043878E-02  (-0.3571319E-02)
 number of electron   43.9999869 magnetization 
 augmentation part    19.3174985 magnetization 

 eigenvalues of (default mixing * dielectric matrix)
  average eigenvalue GAMMA=   0.8342
  0.8342

  free energy =  -0.133809072899E+02  energy without entropy=  -0.133637887463E+02


--------------------------------------------------------------------------------------------------------




----------------------------------------- Iteration    2(   3)  ---------------------------------------


      LOOP:  VPU time    2.28: CPU time    2.18

 eigenvalue-minimisations  :   519
 total energy-change (2. order) : 0.4364703E-03  (-0.1107248E-02)
 number of electron   43.9999869 magnetization 
 augmentation part    19.2993241 magnetization 

 eigenvalues of (default mixing * dielectric matrix)
  average eigenvalue GAMMA=   0.7555
  1.1158  0.3952

  free energy =  -0.133804708196E+02  energy without entropy=  -0.133641573992E+02


--------------------------------------------------------------------------------------------------------




----------------------------------------- Iteration    2(   4)  ---------------------------------------


      LOOP:  VPU time    1.95: CPU time    1.86

 eigenvalue-minimisations  :   394
 total energy-change (2. order) : 0.8015041E-03  (-0.1356520E-03)
 number of electron   43.9999869 magnetization 
 augmentation part    19.3098874 magnetization 

 eigenvalues of (default mixing * dielectric matrix)
  average eigenvalue GAMMA=   1.3077
  0.4390  1.1211  2.3631

  free energy =  -0.133796693155E+02  energy without entropy=  -0.133631008914E+02


--------------------------------------------------------------------------------------------------------




----------------------------------------- Iteration    2(   5)  ---------------------------------------


      LOOP:  VPU time    1.52: CPU time    1.47

 eigenvalue-minimisations  :   286
 total energy-change (2. order) : 0.4268214E-04  (-0.1538619E-04)
 number of electron   43.9999869 magnetization 
 augmentation part    19.3098874 magnetization 

  free energy =  -0.133796266333E+02  energy without entropy=  -0.133629833735E+02


--------------------------------------------------------------------------------------------------------




 average (electrostatic) potential at core
  the test charge radii are     1.2098  1.0053
  (the norm of the test charge is              1.0000)
       1 -46.4955       2 -46.4955       3 -46.4955       4 -38.5221



 E-fermi :   4.7578     XC(G=0): -12.4231     alpha+bet : -9.5519
   add alpha+bet to get absolut eigen values

 k-point   1 :       0.0833    0.0833    0.0833
  band No.  band energies     occupation 
      1      -4.3213      2.00000
      2      -2.0611      2.00000
      3      -1.3965      2.00000
      4      -1.3537      2.00000
      5      -1.3537      2.00000
      6      -1.2228      2.00000
      7      -1.2228      2.00000
      8       0.7270      2.00000
      9       0.9114      2.00000
     10       0.9114      2.00000
     11       1.9564      2.00000
     12       1.9564      2.00000
     13       2.6822      2.00000
     14       2.6839      2.00000
     15       2.6839      2.00000
     16       3.0792      2.00000
     17       3.0894      2.00000
     18       3.0894      2.00000
     19       3.1292      2.00000
     20       3.2904      2.00000
     21       3.2904      2.00000
     22       5.9856      0.00000
     23       6.0004      0.00000
     24       6.0004      0.00000
     25      11.0344      0.00000
     26      11.0344      0.00000

 k-point   2 :       0.2500    0.0833    0.0833
  band No.  band energies     occupation 
      1      -3.7279      2.00000
      2      -1.7324      2.00000
      3      -1.2451      2.00000
      4      -1.1988      2.00000
      5      -1.0818      2.00000
      6      -1.0084      2.00000
      7      -0.7664      2.00000
      8       0.4835      2.00000
      9       0.9163      2.00000
     10       0.9882      2.00000
     11       1.5651      2.00000
     12       1.6615      2.00000
     13       1.7552      2.00000
     14       2.0143      2.00000
     15       2.3664      2.00000
     16       2.6210      2.00000
     17       2.8797      2.00000
     18       2.9273      2.00000
     19       3.0622      2.00000
     20       3.1642      2.00000
     21       3.2840      2.00000
     22       3.8738      2.00000
     23       7.2848      0.00000
     24       7.3706      0.00000
     25      10.7963      0.00000
     26      10.8995      0.00000

 k-point   3 :       0.4167    0.0833    0.0833
  band No.  band energies     occupation 
      1      -2.7366      2.00000
      2      -1.4664      2.00000
      3      -1.1547      2.00000
      4      -1.0309      2.00000
      5      -0.5858      2.00000
      6      -0.5198      2.00000
      7      -0.1447      2.00000
      8       0.2589      2.00000
      9       0.3967      2.00000
     10       0.4917      2.00000
     11       0.9839      2.00000
     12       1.1269      2.00000
     13       1.3716      2.00000
     14       1.7408      2.00000
     15       1.8552      2.00000
     16       2.0889      2.00000
     17       2.7026      2.00000
     18       2.7184      2.00000
     19       2.8801      2.00000
     20       2.9747      2.00000
     21       3.0851      2.00000
     22       3.2797      2.00000
     23       8.6320      0.00000
     24       8.8674      0.00000
     25      10.1635      0.00000
     26      10.3748      0.00000

 k-point   4 :       0.2500    0.2500    0.0833
  band No.  band energies     occupation 
      1      -3.1952      2.00000
      2      -1.4380      2.00000
      3      -1.0684      2.00000
      4      -0.9959      2.00000
      5      -0.9710      2.00000
      6      -0.6645      2.00000
      7      -0.4706      2.00000
      8       0.2078      2.00000
      9       0.6554      2.00000
     10       0.8605      2.00000
     11       1.1913      2.00000
     12       1.3930      2.00000
     13       1.5404      2.00000
     14       1.7652      2.00000
     15       1.9574      2.00000
     16       2.4568      2.00000
     17       2.7477      2.00000
     18       2.8370      2.00000
     19       2.8908      2.00000
     20       3.0992      2.00000
     21       3.1552      2.00000
     22       4.9120      0.02922
     23       5.1554      0.00000
     24       8.3081      0.00000
     25       9.4501      0.00000
     26      12.5751      0.00000

 k-point   5 :       0.4167    0.2500    0.0833
  band No.  band energies     occupation 
      1      -2.3039      2.00000
      2      -1.2398      2.00000
      3      -0.9364      2.00000
      4      -0.7696      2.00000
      5      -0.6320      2.00000
      6      -0.4596      2.00000
      7      -0.0828      2.00000
      8       0.0271      2.00000
      9       0.1479      2.00000
     10       0.4901      2.00000
     11       0.8903      2.00000
     12       1.2362      2.00000
     13       1.4028      2.00000
     14       1.5509      2.00000
     15       1.6806      2.00000
     16       2.2172      2.00000
     17       2.4676      2.00000
     18       2.7959      2.00000
     19       2.8983      2.00000
     20       2.9680      2.00000
     21       3.0846      2.00000
     22       3.5222      2.00000
     23       6.3073      0.00000
     24       7.7611      0.00000
     25       9.7415      0.00000
     26      11.1034      0.00000

 k-point   6 :       0.4167    0.4167    0.0833
  band No.  band energies     occupation 
      1      -1.6735      2.00000
      2      -1.1533      2.00000
      3      -0.9621      2.00000
      4      -0.7533      2.00000
      5      -0.2853      2.00000
      6      -0.1472      2.00000
      7      -0.1044      2.00000
      8       0.0301      2.00000
      9       0.2318      2.00000
     10       0.4535      2.00000
     11       1.0475      2.00000
     12       1.0623      2.00000
     13       1.1462      2.00000
     14       1.1916      2.00000
     15       1.6401      2.00000
     16       2.0261      2.00000
     17       2.1200      2.00000
     18       2.7351      2.00000
     19       2.7993      2.00000
     20       2.8689      2.00000
     21       3.4986      2.00000
     22       4.3424      2.00000
     23       4.7214      1.39355
     24       5.9236      0.00000
     25      10.9104      0.00000
     26      12.3671      0.00000

 k-point   7 :       0.2500    0.2500    0.2500
  band No.  band energies     occupation 
      1      -2.8104      2.00000
      2      -1.3712      2.00000
      3      -1.0156      2.00000
      4      -1.0156      2.00000
      5      -0.7598      2.00000
      6      -0.1632      2.00000
      7      -0.1632      2.00000
      8       0.1362      2.00000
      9       0.5233      2.00000
     10       0.5233      2.00000
     11       1.1382      2.00000
     12       1.1382      2.00000
     13       1.3293      2.00000
     14       1.6311      2.00000
     15       1.6311      2.00000
     16       2.3111      2.00000
     17       2.7552      2.00000
     18       2.7552      2.00000
     19       2.9877      2.00000
     20       3.2149      2.00000
     21       3.2149      2.00000
     22       5.7069      0.00000
     23       5.8058      0.00000
     24       5.8058      0.00000
     25      10.2443      0.00000
     26      10.2443      0.00000

 k-point   8 :       0.4167    0.2500    0.2500
  band No.  band energies     occupation 
      1      -2.1899      2.00000
      2      -1.4120      2.00000
      3      -1.2363      2.00000
      4      -0.8738      2.00000
      5      -0.4432      2.00000
      6      -0.0282      2.00000
      7       0.0044      2.00000
      8       0.1631      2.00000
      9       0.5035      2.00000
     10       0.5510      2.00000
     11       1.0054      2.00000
     12       1.0338      2.00000
     13       1.2590      2.00000
     14       1.5698      2.00000
     15       1.5711      2.00000
     16       2.2593      2.00000
     17       2.7669      2.00000
     18       2.8206      2.00000
     19       2.9416      2.00000
     20       3.1274      2.00000
     21       3.1412      2.00000
     22       3.7106      2.00000
     23       6.8299      0.00000
     24       6.9045      0.00000
     25       8.3064      0.00000
     26       8.6908      0.00000

 k-point   9 :       0.4167    0.4167    0.2500
  band No.  band energies     occupation 
      1      -1.9231      2.00000
      2      -1.5547      2.00000
      3      -1.5218      2.00000
      4      -1.3009      2.00000
      5      -0.0584      2.00000
      6      -0.0455      2.00000
      7       0.2888      2.00000
      8       0.5570      2.00000
      9       0.7412      2.00000
     10       0.8057      2.00000
     11       0.8858      2.00000
     12       1.1521      2.00000
     13       1.2442      2.00000
     14       1.5887      2.00000
     15       1.8259      2.00000
     16       2.3086      2.00000
     17       2.6125      2.00000
     18       2.8693      2.00000
     19       3.0343      2.00000
     20       3.0900      2.00000
     21       3.3306      2.00000
     22       4.4429      1.99999
     23       4.7369      1.23337
     24       6.0079      0.00000
     25       8.3242      0.00000
     26       9.6161      0.00000

 k-point  10 :       0.4167    0.4167    0.4167
  band No.  band energies     occupation 
      1      -1.9950      2.00000
      2      -1.8817      2.00000
      3      -1.7673      2.00000
      4      -1.7673      2.00000
      5       0.0333      2.00000
      6       0.0333      2.00000
      7       0.2202      2.00000
      8       0.5721      2.00000
      9       0.8774      2.00000
     10       0.8774      2.00000
     11       1.2648      2.00000
     12       1.2648      2.00000
     13       2.2107      2.00000
     14       2.2107      2.00000
     15       2.4946      2.00000
     16       2.9087      2.00000
     17       2.9248      2.00000
     18       3.0487      2.00000
     19       3.0487      2.00000
     20       3.1776      2.00000
     21       3.1776      2.00000
     22       4.6294      1.93060
     23       4.7534      1.05050
     24       4.7534      1.05050
     25       7.8371      0.00000
     26       7.8371      0.00000


--------------------------------------------------------------------------------------------------------


 soft charge-density along one line, spin component                        1
         0         1         2         3         4         5         6         7         8         9
x    24.6901   -1.8705    1.6756    0.2567   -0.7339   -0.0184    0.1136   -0.0040    0.0116    0.0008
x     0.0000
y    24.6901   -0.0008   -0.0006    0.0028   -0.0006   -0.0008    0.0000    0.0000    0.0037    0.0810
y    -1.1020
z    24.6901    0.0230    0.0000   -0.0001   -0.0002    0.0000    0.0000    0.0000    0.0000   -0.0012
z    -0.0012
 total charge-density along one line
x    44.0000    1.2713   13.2651    2.1373    1.2920    0.3179    0.0960   -0.0342    0.0167    0.0092
x     0.0003   -0.0028   -0.0007    0.0011    0.0005   -0.0004   -0.0003    0.0002    0.0001    0.0000
x    -0.0001
y    44.0000   -1.2713   13.2651   -2.1373    1.2920   -0.3179    0.0960    0.0342    0.0167   -0.0092
y     0.0003    0.0028   -0.0007   -0.0011    0.0005    0.0004   -0.0003   -0.0002    0.0001    0.0000
y    -0.0001
z    44.0000   -1.2713   13.2651   -2.1373    1.2920   -0.3179    0.0960    0.0342    0.0167   -0.0092
z     0.0003    0.0028   -0.0007   -0.0011    0.0005    0.0004   -0.0003   -0.0002    0.0001    0.0000
z    -0.0001

 pseudopotential strength for first ion, spin component: 
                        1
-10.201   0.000   0.000   0.000   0.000  -0.044   0.000   0.000
  0.000 -10.188   0.000   0.000   0.000   0.000  -0.046   0.000
  0.000   0.000 -10.181   0.000  -0.001   0.000   0.000  -0.047
  0.000   0.000   0.000 -10.201   0.000   0.000   0.000   0.000
  0.000   0.000  -0.001   0.000 -10.180   0.000   0.000   0.000
 -0.044   0.000   0.000   0.000   0.000   0.277   0.000   0.000
  0.000  -0.046   0.000   0.000   0.000   0.000   0.277   0.000
  0.000   0.000  -0.047   0.000   0.000   0.000   0.000   0.277
  0.000   0.000   0.000  -0.044   0.000   0.000   0.000   0.000
  0.000   0.000   0.000   0.000  -0.047   0.000   0.000   0.000
  0.000   0.000  -0.002   0.000   0.003   0.000   0.000   0.000
  0.000   0.000   0.000   0.000   0.000   0.000   0.000   0.000
  0.000   0.000   0.000   0.000   0.000   0.000   0.000   0.000
  0.000   0.000   0.000   0.000   0.000   0.000   0.000   0.000
  0.000   0.000   0.000   0.000   0.000   0.000   0.000   0.000
  0.000   0.000   0.000   0.000   0.000   0.000   0.000   0.000
  0.000   0.000   0.000   0.000   0.000   0.000   0.000   0.000
  0.000   0.000   0.000   0.000   0.000   0.000   0.000   0.000
 total augmentation occupancy for first ion, spin component: 
                        1
  1.801  -0.018  -0.022  -0.007  -0.010   0.022   0.018  -0.016   0.008   0.009   0.046  -0.014   0.000   0.000   0.000   0.000
 -0.018   1.962  -0.002  -0.017   0.001   0.018  -0.086   0.005   0.020  -0.009   0.036   0.002   0.000   0.000   0.000   0.000
 -0.022  -0.002   1.887   0.006  -0.036  -0.016   0.005  -0.027   0.001   0.038  -0.048  -0.069   0.000   0.000   0.000   0.000
 -0.007  -0.017   0.006   1.907   0.000   0.008   0.020   0.001  -0.020   0.019   0.048   0.000   0.000   0.000   0.000   0.000
 -0.010   0.001  -0.036   0.000   1.985   0.009  -0.009   0.038   0.019  -0.120   0.079   0.048   0.000   0.000   0.000   0.000
  0.022   0.018  -0.016   0.008   0.009   0.234  -0.011   0.058  -0.010  -0.005   0.023   0.054   0.000   0.000   0.000   0.000
  0.018  -0.086   0.005   0.020  -0.009  -0.011   0.139  -0.006  -0.014   0.015  -0.007   0.013   0.000   0.000   0.000   0.000
 -0.016   0.005  -0.027   0.001   0.038   0.058  -0.006   0.167  -0.011  -0.003   0.113   0.020   0.000   0.000   0.000   0.000
  0.008   0.020   0.001  -0.020   0.019  -0.010  -0.014  -0.011   0.169  -0.038  -0.004   0.033   0.000   0.000   0.000   0.000
  0.009  -0.009   0.038   0.019  -0.120  -0.005   0.015  -0.003  -0.038   0.124  -0.075  -0.008   0.000   0.000   0.000   0.000
  0.046   0.036  -0.048   0.048   0.079   0.023  -0.007   0.113  -0.004  -0.075   1.147  -0.355   0.000   0.000   0.000   0.000
 -0.014   0.002  -0.069   0.000   0.048   0.054   0.013   0.020   0.033  -0.008  -0.355   0.219   0.000   0.000   0.000   0.000
  0.000   0.000   0.000   0.000   0.000   0.000   0.000   0.000   0.000   0.000   0.000   0.000   0.159   0.013  -0.014  -0.010
  0.000   0.000   0.000   0.000   0.000   0.000   0.000   0.000   0.000   0.000   0.000   0.000   0.013   0.120  -0.001  -0.001
  0.000   0.000   0.000   0.000   0.000   0.000   0.000   0.000   0.000   0.000   0.000   0.000  -0.014  -0.001   0.227  -0.001
  0.000   0.000   0.000   0.000   0.000   0.000   0.000   0.000   0.000   0.000   0.000   0.000  -0.010  -0.001  -0.001   0.001
  0.000   0.000   0.000   0.000   0.000   0.000   0.000   0.000   0.000   0.000   0.000   0.000  -0.001  -0.008  -0.001   0.000
  0.000   0.000   0.000   0.000   0.000   0.000   0.000   0.000   0.000   0.000   0.000   0.000  -0.001  -0.001  -0.016   0.000


------------------------ aborting loop because EDIFF is reached ----------------------------------------





 total charge     

# of ion     s       p       d       tot
----------------------------------------
  1        0.568   0.373   8.663   9.605
  2        0.541   0.366   8.717   9.624
  3        0.577   0.359   8.757   9.693
  4        0.338   0.250   9.257   9.844
------------------------------------------------
tot        2.024   1.348  35.394  38.766



--------------------------------------------------------------------------------------------------------


 d Force = 0.0000000E+00[ 0.000E+00, 0.000E+00]  d Energy =-0.2865130E-03 0.287E-03
 d Force = 0.0000000E+00[ 0.000E+00, 0.000E+00]  d Ewald  = 0.4505157E+01-0.451E+01


--------------------------------------------------------------------------------------------------------



  FREE ENERGIE OF THE ION-ELECTRON SYSTEM (eV)
  ---------------------------------------------------
  free  energy   TOTEN  =       -13.379627 eV

  energy  without entropy=      -13.362983  energy(sigma->0) =      -13.371305


  FORCE on cell =-STRESS in cart. coord.  units (eV/reduce length):
  Direction    X        Y        Z        XY       YZ       ZX
  --------------------------------------------------------------------------------------
  Alpha Z    413.64    413.64    413.64
  Ewald    -1314.40  -1314.40  -1314.40      0.00      0.00      0.00
  Hartree    234.85    234.85    234.85      0.00      0.00      0.00
  E(xc)     -212.10   -212.10   -212.10      0.00      0.00      0.00
  Local      342.57    342.57    342.57      0.00      0.00      0.00
  n-local   -174.49   -187.16   -191.57      1.20      4.46      2.42
  augment    183.65    183.65    183.65      0.00      0.00      0.00
  Kinetic    540.48    536.51    531.69     -4.22     -1.98     -2.80
  -------------------------------------------------------------------------------------
  Total        0.03      0.03      0.03      0.00      0.00      0.00
  in kB        0.76      0.76      0.76      0.00      0.00      0.00
  external pressure =        0.76 kB  Pullay stress =        0.00 kB


 VOLUME and BASIS-vectors are now :
 -----------------------------------------------------------------------------
  energy-cutoff  :      350.00
  volume of cell :       66.52
      direct lattice vectors                 reciprocal lattice vectors
     4.051800512  0.000000000  0.000000000     0.246803858  0.000000000  0.000000000
     0.000000000  4.051800512  0.000000000     0.000000000  0.246803858  0.000000000
     0.000000000  0.000000000  4.051800512     0.000000000  0.000000000  0.246803858

  length of vectors
     4.051800512  4.051800512  4.051800512     0.246803858  0.246803858  0.246803858


 FORCES acting on ions
    electron-ion (+dipol)            ewald-force                    non-local-force                 convergence-correction
 -----------------------------------------------------------------------------------------------
   -.459E-14 0.366E-13 0.421E-13   -.291E-13 -.860E-14 -.520E-14   0.255E-23 0.228E-23 0.000E+00   -.208E-13 -.444E-14 -.215E-13
   -.133E-12 -.451E-13 0.418E-13   0.222E-14 0.826E-14 -.533E-14   0.892E-24 0.579E-24 0.000E+00   0.193E-13 0.620E-14 -.371E-13
   -.128E-12 0.339E-13 -.403E-13   0.488E-14 -.107E-13 0.635E-14   0.101E-23 0.102E-23 0.000E+00   0.162E-13 -.122E-13 0.239E-13
   -.624E-13 -.184E-12 -.196E-12   0.183E-13 0.617E-14 0.622E-14   0.202E-23 0.172E-23 0.000E+00   -.599E-13 0.213E-13 0.484E-13
 -----------------------------------------------------------------------------------------------
   -.328E-12 -.159E-12 -.152E-12   -.374E-14 -.487E-14 0.204E-14   0.647E-23 0.560E-23 0.000E+00   -.452E-13 0.109E-13 0.137E-13


 POSITION                                       TOTAL-FORCE (eV/Angst)
 -----------------------------------------------------------------------------------
      0.00000      0.00000      0.00000         0.000000      0.000000      0.000000
      2.02590      2.02590      0.00000         0.000000      0.000000      0.000000
      2.02590      0.00000      2.02590         0.000000      0.000000      0.000000
      0.00000      2.02590      2.02590         0.000000      0.000000      0.000000
 -----------------------------------------------------------------------------------
    total drift:                                0.000000      0.000000      0.000000


--------------------------------------------------------------------------------------------------------


 Quasi-Newton relaxation of ions (Broydens 2nd method)
  g(Force)  = 0.203E-67   g(Stress)= 0.253E-04

 retain information from N=  1 steps
 eigenvalues of (default step * inverse Hessian matrix)
  average eigenvalue of G=   0.8108
 eigenvalue spectrum of G is  0.8108


--------------------------------------------------------------------------------------------------------


  
 reached required accuracy - stopping structural energy minimisation
     LOOP+:  VPU time   12.56: CPU time   11.78



 total charge     

# of ion     s       p       d       tot
----------------------------------------
  1        0.568   0.373   8.663   9.605
  2        0.541   0.366   8.717   9.624
  3        0.577   0.359   8.757   9.693
  4        0.338   0.250   9.257   9.844
------------------------------------------------
tot        2.024   1.348  35.394  38.766

  
  
 General timing and accounting informations for this job:
 ========================================================
  
                  Total CPU time used (sec):       41.473
                            User time (sec):       37.844
                          System time (sec):        3.628
                         Elapsed time (sec):       39.382
  
                   Maximum memory used (kb):           0.
                   Average memory used (kb):           0.
  
                          Minor page faults:       366846
                          Major page faults:            0
                 Voluntary context switches:       628038
