PROCAR lm decomposed
# of k-points:   10         # of bands:  26         # of ions:   4

 k-point    1 :    0.08333333 0.08333333 0.08333333     weight = 0.03703704

band   1 # energy   -4.32128318 # occ.  2.00000000

ion      s     py     pz     px    dxy    dyz    dz2    dxz    dx2    tot
  1  0.165  0.001  0.001  0.001  0.000  0.000  0.001  0.000  0.003  0.172
  2  0.165  0.001  0.001  0.001  0.000  0.000  0.001  0.000  0.003  0.172
  3  0.165  0.001  0.001  0.001  0.000  0.000  0.004  0.000  0.000  0.172
  4  0.076  0.001  0.001  0.001  0.000  0.000  0.000  0.000  0.000  0.078
tot  0.572  0.003  0.003  0.003  0.000  0.000  0.005  0.000  0.005  0.593

band   2 # energy   -2.06105261 # occ.  2.00000000

ion      s     py     pz     px    dxy    dyz    dz2    dxz    dx2    tot
  1  0.000  0.000  0.000  0.001  0.000  0.000  0.061  0.000  0.184  0.247
  2  0.000  0.001  0.000  0.000  0.000  0.000  0.061  0.000  0.184  0.247
  3  0.000  0.000  0.001  0.000  0.000  0.000  0.245  0.000  0.000  0.247
  4  0.043  0.000  0.000  0.000  0.000  0.000  0.000  0.000  0.000  0.043
tot  0.043  0.001  0.001  0.001  0.001  0.001  0.367  0.001  0.367  0.785

band   3 # energy   -1.39646980 # occ.  2.00000000

ion      s     py     pz     px    dxy    dyz    dz2    dxz    dx2    tot
  1  0.000  0.000  0.000  0.001  0.117  0.046  0.000  0.117  0.001  0.281
  2  0.000  0.001  0.000  0.000  0.117  0.117  0.000  0.046  0.001  0.281
  3  0.000  0.000  0.001  0.000  0.046  0.117  0.001  0.117  0.000  0.281
  4  0.000  0.000  0.000  0.000  0.009  0.009  0.000  0.009  0.000  0.030
tot  0.000  0.001  0.001  0.001  0.289  0.289  0.001  0.289  0.001  0.873

band   4 # energy   -1.35372209 # occ.  2.00000000

ion      s     py     pz     px    dxy    dyz    dz2    dxz    dx2    tot
  1  0.005  0.000  0.000  0.000  0.044  0.075  0.001  0.056  0.001  0.183
  2  0.002  0.000  0.000  0.000  0.050  0.212  0.029  0.021  0.005  0.318
  3  0.001  0.000  0.000  0.000  0.017  0.212  0.001  0.063  0.036  0.329
  4  0.000  0.000  0.000  0.000  0.004  0.020  0.002  0.006  0.006  0.038
tot  0.008  0.001  0.001  0.000  0.115  0.519  0.032  0.145  0.048  0.868

band   5 # energy   -1.35372201 # occ.  2.00000000

ion      s     py     pz     px    dxy    dyz    dz2    dxz    dx2    tot
  1  0.000  0.000  0.000  0.000  0.168  0.000  0.034  0.156  0.012  0.371
  2  0.004  0.000  0.000  0.000  0.162  0.001  0.006  0.054  0.008  0.235
  3  0.004  0.000  0.000  0.000  0.058  0.000  0.002  0.150  0.010  0.225
  4  0.000  0.000  0.000  0.000  0.016  0.000  0.006  0.015  0.002  0.038
tot  0.008  0.000  0.000  0.001  0.404  0.001  0.048  0.374  0.032  0.868

band   6 # energy   -1.22281495 # occ.  2.00000000

ion      s     py     pz     px    dxy    dyz    dz2    dxz    dx2    tot
  1  0.000  0.001  0.001  0.000  0.016  0.000  0.283  0.019  0.087  0.408
  2  0.028  0.000  0.000  0.001  0.017  0.000  0.027  0.009  0.067  0.149
  3  0.024  0.000  0.000  0.001  0.008  0.000  0.018  0.020  0.114  0.185
  4  0.000  0.001  0.001  0.000  0.002  0.000  0.044  0.002  0.020  0.069
tot  0.053  0.002  0.002  0.002  0.043  0.000  0.371  0.049  0.288  0.811

band   7 # energy   -1.22281483 # occ.  2.00000000

ion      s     py     pz     px    dxy    dyz    dz2    dxz    dx2    tot
  1  0.035  0.000  0.000  0.000  0.008  0.011  0.002  0.005  0.025  0.086
  2  0.007  0.000  0.002  0.001  0.007  0.024  0.258  0.002  0.045  0.346
  3  0.011  0.002  0.000  0.000  0.003  0.024  0.008  0.005  0.258  0.310
  4  0.000  0.000  0.000  0.001  0.001  0.002  0.020  0.000  0.044  0.069
tot  0.053  0.002  0.002  0.002  0.019  0.061  0.288  0.012  0.371  0.811

band   8 # energy    0.72701734 # occ.  2.00000000

ion      s     py     pz     px    dxy    dyz    dz2    dxz    dx2    tot
  1  0.000  0.000  0.000  0.000  0.032  0.202  0.000  0.032  0.000  0.267
  2  0.000  0.000  0.000  0.000  0.032  0.032  0.000  0.202  0.000  0.267
  3  0.000  0.000  0.000  0.000  0.202  0.032  0.000  0.032  0.000  0.267
  4  0.000  0.001  0.001  0.001  0.038  0.038  0.000  0.038  0.000  0.119
tot  0.001  0.002  0.002  0.002  0.304  0.304  0.000  0.304  0.000  0.919

band   9 # energy    0.91138518 # occ.  2.00000000

ion      s     py     pz     px    dxy    dyz    dz2    dxz    dx2    tot
  1  0.000  0.000  0.000  0.000  0.013  0.402  0.000  0.014  0.001  0.430
  2  0.000  0.000  0.000  0.000  0.017  0.062  0.000  0.102  0.000  0.182
  3  0.000  0.000  0.000  0.000  0.099  0.062  0.000  0.018  0.000  0.179
  4  0.000  0.000  0.000  0.001  0.022  0.091  0.000  0.023  0.001  0.138
tot  0.000  0.000  0.000  0.001  0.152  0.617  0.001  0.157  0.002  0.930

band  10 # energy    0.91138540 # occ.  2.00000000

ion      s     py     pz     px    dxy    dyz    dz2    dxz    dx2    tot
  1  0.000  0.000  0.000  0.000  0.049  0.000  0.000  0.048  0.000  0.097
  2  0.000  0.000  0.000  0.000  0.045  0.000  0.000  0.300  0.000  0.346
  3  0.000  0.000  0.000  0.000  0.303  0.000  0.001  0.044  0.000  0.349
  4  0.000  0.000  0.000  0.000  0.069  0.000  0.001  0.068  0.000  0.138
tot  0.000  0.001  0.001  0.000  0.466  0.000  0.002  0.460  0.001  0.930

band  11 # energy    1.95636449 # occ.  2.00000000

ion      s     py     pz     px    dxy    dyz    dz2    dxz    dx2    tot
  1  0.000  0.000  0.000  0.000  0.000  0.000  0.050  0.000  0.034  0.084
  2  0.000  0.000  0.000  0.000  0.000  0.000  0.183  0.001  0.239  0.424
  3  0.000  0.000  0.000  0.000  0.001  0.000  0.348  0.000  0.025  0.375
  4  0.000  0.000  0.000  0.000  0.000  0.000  0.054  0.000  0.024  0.079
tot  0.001  0.000  0.000  0.000  0.001  0.000  0.635  0.001  0.323  0.962

band  12 # energy    1.95636465 # occ.  2.00000000

ion      s     py     pz     px    dxy    dyz    dz2    dxz    dx2    tot
  1  0.000  0.000  0.000  0.000  0.000  0.001  0.138  0.000  0.365  0.504
  2  0.000  0.000  0.000  0.000  0.000  0.000  0.004  0.000  0.160  0.165
  3  0.000  0.000  0.000  0.000  0.000  0.000  0.156  0.000  0.056  0.214
  4  0.000  0.000  0.000  0.000  0.000  0.000  0.024  0.000  0.054  0.079
tot  0.001  0.000  0.000  0.000  0.001  0.002  0.323  0.000  0.635  0.962

band  13 # energy    2.68215212 # occ.  2.00000000

ion      s     py     pz     px    dxy    dyz    dz2    dxz    dx2    tot
  1  0.000  0.000  0.000  0.000  0.014  0.000  0.222  0.014  0.074  0.324
  2  0.000  0.000  0.000  0.000  0.014  0.014  0.222  0.000  0.074  0.324
  3  0.000  0.000  0.000  0.000  0.000  0.014  0.000  0.014  0.296  0.324
  4  0.000  0.000  0.000  0.000  0.000  0.000  0.000  0.000  0.000  0.000
tot  0.000  0.001  0.001  0.001  0.028  0.028  0.444  0.028  0.444  0.973

band  14 # energy    2.68394150 # occ.  2.00000000

ion      s     py     pz     px    dxy    dyz    dz2    dxz    dx2    tot
  1  0.000  0.007  0.005  0.000  0.098  0.000  0.004  0.030  0.001  0.145
  2  0.004  0.011  0.007  0.001  0.113  0.264  0.000  0.003  0.002  0.405
  3  0.003  0.009  0.008  0.000  0.002  0.259  0.001  0.041  0.002  0.324
  4  0.000  0.004  0.003  0.000  0.016  0.001  0.003  0.022  0.002  0.050
tot  0.007  0.031  0.022  0.001  0.229  0.523  0.008  0.097  0.007  0.925

band  15 # energy    2.68394158 # occ.  2.00000000

ion      s     py     pz     px    dxy    dyz    dz2    dxz    dx2    tot
  1  0.005  0.002  0.005  0.013  0.171  0.004  0.000  0.238  0.002  0.438
  2  0.001  0.002  0.003  0.009  0.155  0.004  0.004  0.001  0.000  0.178
  3  0.002  0.001  0.005  0.009  0.002  0.009  0.001  0.227  0.003  0.258
  4  0.000  0.001  0.002  0.004  0.010  0.025  0.002  0.003  0.003  0.050
tot  0.007  0.005  0.014  0.035  0.337  0.043  0.007  0.469  0.008  0.925

band  16 # energy    3.07921393 # occ.  2.00000000

ion      s     py     pz     px    dxy    dyz    dz2    dxz    dx2    tot
  1  0.000  0.003  0.003  0.002  0.000  0.044  0.000  0.000  0.000  0.053
  2  0.000  0.002  0.003  0.003  0.000  0.000  0.000  0.044  0.000  0.053
  3  0.000  0.003  0.002  0.003  0.044  0.000  0.000  0.000  0.000  0.053
  4  0.002  0.003  0.003  0.003  0.259  0.259  0.000  0.259  0.000  0.788
tot  0.003  0.011  0.011  0.011  0.303  0.303  0.001  0.303  0.001  0.946

band  17 # energy    3.08942938 # occ.  2.00000000

ion      s     py     pz     px    dxy    dyz    dz2    dxz    dx2    tot
  1  0.000  0.000  0.000  0.000  0.000  0.000  0.023  0.000  0.006  0.029
  2  0.000  0.000  0.000  0.000  0.000  0.000  0.003  0.006  0.068  0.079
  3  0.000  0.000  0.000  0.000  0.006  0.000  0.061  0.000  0.008  0.075
  4  0.000  0.000  0.000  0.000  0.031  0.000  0.527  0.034  0.201  0.794
tot  0.000  0.001  0.001  0.000  0.037  0.001  0.614  0.040  0.284  0.977

band  18 # energy    3.08942966 # occ.  2.00000000

ion      s     py     pz     px    dxy    dyz    dz2    dxz    dx2    tot
  1  0.000  0.000  0.000  0.000  0.000  0.008  0.020  0.000  0.064  0.093
  2  0.000  0.000  0.000  0.000  0.000  0.000  0.039  0.002  0.002  0.043
  3  0.000  0.000  0.000  0.000  0.002  0.000  0.023  0.000  0.021  0.047
  4  0.000  0.000  0.000  0.000  0.012  0.043  0.201  0.010  0.527  0.794
tot  0.000  0.000  0.000  0.001  0.015  0.051  0.284  0.012  0.614  0.977

band  19 # energy    3.12924907 # occ.  2.00000000

ion      s     py     pz     px    dxy    dyz    dz2    dxz    dx2    tot
  1  0.000  0.000  0.000  0.000  0.149  0.000  0.022  0.149  0.007  0.328
  2  0.000  0.000  0.000  0.000  0.149  0.149  0.022  0.000  0.007  0.328
  3  0.000  0.000  0.000  0.000  0.000  0.149  0.000  0.149  0.029  0.328
  4  0.000  0.000  0.000  0.000  0.000  0.000  0.000  0.000  0.000  0.000
tot  0.000  0.000  0.000  0.000  0.299  0.299  0.043  0.299  0.043  0.983

band  20 # energy    3.29040882 # occ.  2.00000000

ion      s     py     pz     px    dxy    dyz    dz2    dxz    dx2    tot
  1  0.000  0.000  0.000  0.000  0.016  0.110  0.003  0.017  0.009  0.155
  2  0.000  0.000  0.000  0.000  0.017  0.000  0.004  0.027  0.001  0.049
  3  0.000  0.000  0.000  0.000  0.028  0.000  0.003  0.018  0.002  0.050
  4  0.000  0.000  0.000  0.000  0.117  0.454  0.013  0.111  0.037  0.731
tot  0.000  0.000  0.000  0.000  0.178  0.564  0.022  0.172  0.048  0.985

band  21 # energy    3.29040897 # occ.  2.00000000

ion      s     py     pz     px    dxy    dyz    dz2    dxz    dx2    tot
  1  0.000  0.000  0.000  0.000  0.006  0.000  0.002  0.006  0.001  0.015
  2  0.000  0.000  0.000  0.000  0.005  0.023  0.001  0.083  0.008  0.121
  3  0.000  0.000  0.000  0.000  0.082  0.023  0.009  0.005  0.001  0.119
  4  0.000  0.000  0.000  0.000  0.338  0.000  0.037  0.344  0.013  0.731
tot  0.000  0.000  0.000  0.000  0.431  0.045  0.048  0.438  0.022  0.985

band  22 # energy    5.98561630 # occ.  0.00000000

ion      s     py     pz     px    dxy    dyz    dz2    dxz    dx2    tot
  1  0.005  0.037  0.037  0.041  0.000  0.013  0.002  0.000  0.007  0.143
  2  0.005  0.041  0.037  0.037  0.000  0.000  0.002  0.013  0.007  0.143
  3  0.005  0.037  0.041  0.037  0.013  0.000  0.010  0.000  0.000  0.143
  4  0.048  0.026  0.026  0.026  0.016  0.016  0.000  0.016  0.000  0.172
tot  0.061  0.141  0.141  0.141  0.029  0.029  0.015  0.029  0.015  0.601

band  23 # energy    6.00042778 # occ.  0.00000000

ion      s     py     pz     px    dxy    dyz    dz2    dxz    dx2    tot
  1  0.000  0.055  0.050  0.000  0.011  0.000  0.017  0.008  0.005  0.147
  2  0.046  0.048  0.043  0.000  0.010  0.036  0.001  0.005  0.006  0.194
  3  0.041  0.049  0.043  0.001  0.004  0.036  0.002  0.007  0.006  0.190
  4  0.000  0.046  0.041  0.000  0.005  0.000  0.007  0.006  0.003  0.108
tot  0.087  0.197  0.178  0.001  0.030  0.072  0.028  0.025  0.021  0.639

band  24 # energy    6.00042786 # occ.  0.00000000

ion      s     py     pz     px    dxy    dyz    dz2    dxz    dx2    tot
  1  0.058  0.011  0.016  0.061  0.025  0.006  0.001  0.028  0.003  0.207
  2  0.012  0.013  0.023  0.066  0.026  0.000  0.016  0.001  0.002  0.160
  3  0.017  0.017  0.018  0.065  0.002  0.000  0.001  0.029  0.016  0.164
  4  0.000  0.012  0.017  0.058  0.002  0.007  0.003  0.001  0.007  0.108
tot  0.087  0.053  0.073  0.250  0.055  0.013  0.021  0.059  0.028  0.639

band  25 # energy   11.03442916 # occ.  0.00000000

ion      s     py     pz     px    dxy    dyz    dz2    dxz    dx2    tot
  1  0.198  0.011  0.002  0.004  0.000  0.001  0.038  0.000  0.001  0.254
  2  0.281  0.005  0.000  0.007  0.000  0.000  0.019  0.001  0.001  0.314
  3  0.012  0.014  0.000  0.011  0.000  0.000  0.000  0.000  0.080  0.118
  4  0.000  0.022  0.001  0.016  0.000  0.000  0.002  0.000  0.042  0.083
tot  0.490  0.052  0.003  0.037  0.000  0.001  0.059  0.001  0.124  0.769

band  26 # energy   11.03443770 # occ.  0.00000000

ion      s     py     pz     px    dxy    dyz    dz2    dxz    dx2    tot
  1  0.129  0.004  0.013  0.002  0.000  0.000  0.027  0.000  0.028  0.203
  2  0.046  0.001  0.014  0.008  0.000  0.000  0.046  0.000  0.027  0.143
  3  0.315  0.001  0.006  0.004  0.001  0.000  0.010  0.000  0.003  0.340
  4  0.000  0.004  0.025  0.010  0.000  0.000  0.042  0.000  0.002  0.083
tot  0.490  0.009  0.059  0.025  0.001  0.001  0.124  0.001  0.059  0.769


 k-point    2 :    0.25000000 0.08333333 0.08333333     weight = 0.11111111

band   1 # energy   -3.72794826 # occ.  2.00000000

ion      s     py     pz     px    dxy    dyz    dz2    dxz    dx2    tot
  1  0.144  0.001  0.001  0.011  0.001  0.000  0.000  0.001  0.001  0.160
  2  0.164  0.001  0.001  0.006  0.001  0.000  0.000  0.000  0.007  0.181
  3  0.164  0.001  0.001  0.006  0.000  0.000  0.006  0.001  0.001  0.181
  4  0.068  0.001  0.001  0.005  0.000  0.000  0.000  0.000  0.000  0.075
tot  0.541  0.003  0.003  0.028  0.003  0.001  0.006  0.003  0.010  0.596

band   2 # energy   -1.73236352 # occ.  2.00000000

ion      s     py     pz     px    dxy    dyz    dz2    dxz    dx2    tot
  1  0.002  0.000  0.000  0.008  0.002  0.001  0.052  0.002  0.156  0.224
  2  0.001  0.001  0.000  0.003  0.001  0.001  0.064  0.003  0.183  0.256
  3  0.001  0.000  0.001  0.003  0.003  0.001  0.247  0.001  0.000  0.256
  4  0.044  0.000  0.000  0.001  0.000  0.000  0.000  0.000  0.000  0.046
tot  0.048  0.001  0.001  0.014  0.006  0.004  0.363  0.006  0.340  0.783

band   3 # energy   -1.24505861 # occ.  2.00000000

ion      s     py     pz     px    dxy    dyz    dz2    dxz    dx2    tot
  1  0.005  0.000  0.000  0.000  0.016  0.082  0.000  0.016  0.000  0.119
  2  0.001  0.001  0.000  0.001  0.009  0.315  0.028  0.009  0.000  0.363
  3  0.001  0.000  0.001  0.001  0.009  0.315  0.007  0.009  0.021  0.363
  4  0.000  0.000  0.000  0.001  0.000  0.018  0.001  0.000  0.003  0.025
tot  0.007  0.002  0.002  0.003  0.034  0.730  0.035  0.034  0.023  0.871

band   4 # energy   -1.19883951 # occ.  2.00000000

ion      s     py     pz     px    dxy    dyz    dz2    dxz    dx2    tot
  1  0.044  0.000  0.000  0.001  0.035  0.002  0.006  0.035  0.018  0.141
  2  0.012  0.001  0.000  0.003  0.051  0.003  0.190  0.015  0.031  0.307
  3  0.012  0.000  0.001  0.003  0.015  0.003  0.004  0.051  0.217  0.307
  4  0.002  0.001  0.001  0.005  0.003  0.000  0.009  0.003  0.028  0.054
tot  0.069  0.003  0.003  0.012  0.105  0.009  0.210  0.105  0.294  0.808

band   5 # energy   -1.08181849 # occ.  2.00000000

ion      s     py     pz     px    dxy    dyz    dz2    dxz    dx2    tot
  1  0.000  0.002  0.002  0.000  0.149  0.000  0.050  0.149  0.017  0.368
  2  0.005  0.002  0.001  0.000  0.148  0.000  0.007  0.060  0.007  0.230
  3  0.005  0.001  0.002  0.000  0.060  0.000  0.001  0.148  0.013  0.230
  4  0.000  0.001  0.001  0.000  0.014  0.000  0.007  0.014  0.002  0.039
tot  0.011  0.005  0.005  0.000  0.370  0.001  0.065  0.370  0.039  0.867

band   6 # energy   -1.00840902 # occ.  2.00000000

ion      s     py     pz     px    dxy    dyz    dz2    dxz    dx2    tot
  1  0.007  0.004  0.004  0.001  0.096  0.009  0.001  0.096  0.002  0.220
  2  0.001  0.001  0.002  0.001  0.114  0.060  0.058  0.060  0.001  0.297
  3  0.001  0.002  0.001  0.001  0.060  0.060  0.010  0.114  0.049  0.297
  4  0.002  0.001  0.001  0.004  0.010  0.005  0.002  0.010  0.007  0.041
tot  0.011  0.006  0.006  0.008  0.280  0.134  0.071  0.280  0.058  0.854

band   7 # energy   -0.76637114 # occ.  2.00000000

ion      s     py     pz     px    dxy    dyz    dz2    dxz    dx2    tot
  1  0.000  0.002  0.002  0.000  0.017  0.000  0.304  0.017  0.101  0.445
  2  0.017  0.000  0.000  0.006  0.021  0.000  0.029  0.017  0.060  0.151
  3  0.017  0.000  0.000  0.006  0.017  0.000  0.016  0.021  0.073  0.151
  4  0.000  0.002  0.002  0.000  0.002  0.000  0.049  0.002  0.016  0.073
tot  0.034  0.004  0.004  0.013  0.057  0.000  0.399  0.057  0.251  0.820

band   8 # energy    0.48346671 # occ.  2.00000000

ion      s     py     pz     px    dxy    dyz    dz2    dxz    dx2    tot
  1  0.001  0.000  0.000  0.000  0.033  0.432  0.000  0.033  0.001  0.500
  2  0.000  0.002  0.000  0.000  0.011  0.044  0.000  0.094  0.000  0.151
  3  0.000  0.000  0.002  0.000  0.094  0.044  0.000  0.011  0.000  0.151
  4  0.000  0.004  0.004  0.000  0.005  0.081  0.000  0.005  0.000  0.100
tot  0.002  0.006  0.006  0.001  0.143  0.600  0.000  0.143  0.001  0.901

band   9 # energy    0.91633973 # occ.  2.00000000

ion      s     py     pz     px    dxy    dyz    dz2    dxz    dx2    tot
  1  0.000  0.001  0.001  0.000  0.099  0.000  0.001  0.099  0.000  0.202
  2  0.000  0.003  0.001  0.000  0.014  0.002  0.002  0.301  0.002  0.325
  3  0.000  0.001  0.003  0.000  0.301  0.002  0.004  0.014  0.000  0.325
  4  0.000  0.005  0.005  0.000  0.023  0.000  0.005  0.023  0.002  0.062
tot  0.001  0.009  0.009  0.000  0.437  0.004  0.012  0.437  0.005  0.915

band  10 # energy    0.98820365 # occ.  2.00000000

ion      s     py     pz     px    dxy    dyz    dz2    dxz    dx2    tot
  1  0.001  0.000  0.000  0.000  0.057  0.200  0.003  0.057  0.008  0.326
  2  0.000  0.001  0.000  0.000  0.018  0.022  0.000  0.201  0.001  0.244
  3  0.000  0.000  0.001  0.000  0.201  0.022  0.001  0.018  0.000  0.244
  4  0.000  0.002  0.002  0.001  0.018  0.066  0.001  0.018  0.004  0.111
tot  0.001  0.003  0.003  0.001  0.295  0.310  0.004  0.295  0.012  0.925

band  11 # energy    1.56511493 # occ.  2.00000000

ion      s     py     pz     px    dxy    dyz    dz2    dxz    dx2    tot
  1  0.009  0.003  0.003  0.004  0.071  0.000  0.103  0.071  0.310  0.572
  2  0.000  0.004  0.002  0.002  0.055  0.001  0.001  0.000  0.093  0.158
  3  0.000  0.002  0.004  0.002  0.000  0.001  0.077  0.055  0.017  0.158
  4  0.000  0.000  0.000  0.000  0.006  0.003  0.005  0.006  0.015  0.037
tot  0.010  0.009  0.009  0.008  0.132  0.005  0.186  0.132  0.436  0.925

band  12 # energy    1.66154457 # occ.  2.00000000

ion      s     py     pz     px    dxy    dyz    dz2    dxz    dx2    tot
  1  0.012  0.005  0.005  0.009  0.082  0.004  0.026  0.082  0.078  0.303
  2  0.011  0.004  0.002  0.007  0.128  0.000  0.016  0.009  0.096  0.273
  3  0.011  0.002  0.004  0.007  0.009  0.000  0.042  0.128  0.070  0.273
  4  0.001  0.001  0.001  0.009  0.003  0.003  0.005  0.003  0.014  0.040
tot  0.035  0.012  0.012  0.032  0.222  0.007  0.089  0.222  0.258  0.890

band  13 # energy    1.75524802 # occ.  2.00000000

ion      s     py     pz     px    dxy    dyz    dz2    dxz    dx2    tot
  1  0.000  0.010  0.010  0.000  0.094  0.000  0.044  0.094  0.015  0.267
  2  0.006  0.009  0.005  0.000  0.190  0.022  0.005  0.006  0.021  0.264
  3  0.006  0.005  0.009  0.000  0.006  0.022  0.008  0.190  0.019  0.264
  4  0.000  0.002  0.002  0.000  0.051  0.000  0.002  0.051  0.001  0.108
tot  0.011  0.026  0.026  0.001  0.341  0.043  0.059  0.341  0.055  0.904

band  14 # energy    2.01429165 # occ.  2.00000000

ion      s     py     pz     px    dxy    dyz    dz2    dxz    dx2    tot
  1  0.000  0.000  0.000  0.000  0.002  0.000  0.048  0.002  0.016  0.069
  2  0.000  0.000  0.000  0.000  0.016  0.001  0.157  0.007  0.249  0.431
  3  0.000  0.000  0.000  0.000  0.007  0.001  0.397  0.016  0.009  0.431
  4  0.000  0.000  0.000  0.000  0.000  0.000  0.023  0.000  0.008  0.031
tot  0.001  0.001  0.001  0.000  0.025  0.003  0.625  0.025  0.282  0.962

band  15 # energy    2.36641183 # occ.  2.00000000

ion      s     py     pz     px    dxy    dyz    dz2    dxz    dx2    tot
  1  0.000  0.001  0.001  0.000  0.002  0.000  0.116  0.002  0.039  0.159
  2  0.000  0.002  0.003  0.002  0.005  0.037  0.241  0.001  0.078  0.368
  3  0.000  0.003  0.002  0.002  0.001  0.037  0.000  0.005  0.318  0.368
  4  0.000  0.001  0.001  0.000  0.020  0.000  0.012  0.020  0.004  0.056
tot  0.000  0.006  0.006  0.003  0.027  0.073  0.368  0.027  0.439  0.952

band  16 # energy    2.62097218 # occ.  2.00000000

ion      s     py     pz     px    dxy    dyz    dz2    dxz    dx2    tot
  1  0.009  0.002  0.002  0.014  0.000  0.001  0.010  0.000  0.029  0.069
  2  0.009  0.002  0.005  0.014  0.002  0.000  0.005  0.014  0.003  0.054
  3  0.009  0.005  0.002  0.014  0.014  0.000  0.000  0.002  0.008  0.054
  4  0.013  0.002  0.002  0.006  0.328  0.026  0.000  0.328  0.000  0.705
tot  0.040  0.011  0.011  0.047  0.345  0.027  0.015  0.345  0.040  0.882

band  17 # energy    2.87972136 # occ.  2.00000000

ion      s     py     pz     px    dxy    dyz    dz2    dxz    dx2    tot
  1  0.000  0.000  0.000  0.000  0.035  0.000  0.010  0.035  0.003  0.083
  2  0.000  0.000  0.002  0.000  0.017  0.025  0.005  0.019  0.013  0.081
  3  0.000  0.002  0.000  0.000  0.019  0.025  0.004  0.017  0.014  0.081
  4  0.000  0.001  0.001  0.000  0.181  0.000  0.268  0.181  0.089  0.721
tot  0.000  0.002  0.002  0.001  0.251  0.051  0.286  0.251  0.119  0.965

band  18 # energy    2.92727718 # occ.  2.00000000

ion      s     py     pz     px    dxy    dyz    dz2    dxz    dx2    tot
  1  0.002  0.001  0.001  0.001  0.005  0.002  0.016  0.005  0.048  0.081
  2  0.000  0.000  0.000  0.000  0.003  0.000  0.029  0.001  0.000  0.033
  3  0.000  0.000  0.000  0.000  0.001  0.000  0.008  0.003  0.021  0.033
  4  0.001  0.000  0.000  0.000  0.011  0.015  0.195  0.011  0.586  0.819
tot  0.003  0.001  0.001  0.001  0.019  0.017  0.249  0.019  0.655  0.966

band  19 # energy    3.06224002 # occ.  2.00000000

ion      s     py     pz     px    dxy    dyz    dz2    dxz    dx2    tot
  1  0.000  0.000  0.000  0.000  0.033  0.000  0.049  0.033  0.016  0.131
  2  0.000  0.000  0.000  0.000  0.027  0.265  0.024  0.001  0.002  0.320
  3  0.000  0.000  0.000  0.000  0.001  0.265  0.014  0.027  0.012  0.320
  4  0.000  0.000  0.000  0.000  0.000  0.000  0.157  0.000  0.052  0.209
tot  0.001  0.001  0.001  0.000  0.061  0.530  0.244  0.061  0.083  0.980

band  20 # energy    3.16421889 # occ.  2.00000000

ion      s     py     pz     px    dxy    dyz    dz2    dxz    dx2    tot
  1  0.000  0.000  0.000  0.000  0.003  0.000  0.016  0.003  0.005  0.029
  2  0.000  0.000  0.000  0.000  0.004  0.122  0.006  0.030  0.024  0.186
  3  0.000  0.000  0.000  0.000  0.030  0.122  0.030  0.004  0.000  0.186
  4  0.000  0.000  0.000  0.000  0.172  0.000  0.176  0.172  0.059  0.581
tot  0.000  0.000  0.000  0.000  0.210  0.243  0.229  0.210  0.089  0.981

band  21 # energy    3.28404222 # occ.  2.00000000

ion      s     py     pz     px    dxy    dyz    dz2    dxz    dx2    tot
  1  0.000  0.000  0.000  0.000  0.003  0.177  0.001  0.003  0.003  0.188
  2  0.000  0.000  0.000  0.000  0.006  0.000  0.001  0.004  0.000  0.012
  3  0.000  0.000  0.000  0.000  0.004  0.000  0.001  0.006  0.001  0.012
  4  0.000  0.000  0.000  0.000  0.009  0.740  0.003  0.009  0.010  0.773
tot  0.000  0.000  0.000  0.000  0.023  0.917  0.006  0.023  0.014  0.984

band  22 # energy    3.87376104 # occ.  2.00000000

ion      s     py     pz     px    dxy    dyz    dz2    dxz    dx2    tot
  1  0.047  0.001  0.001  0.042  0.033  0.000  0.007  0.033  0.022  0.187
  2  0.034  0.001  0.000  0.041  0.039  0.000  0.011  0.027  0.020  0.175
  3  0.034  0.000  0.001  0.041  0.027  0.000  0.005  0.039  0.026  0.175
  4  0.029  0.001  0.001  0.028  0.069  0.001  0.014  0.069  0.042  0.252
tot  0.144  0.004  0.004  0.153  0.168  0.001  0.037  0.168  0.110  0.789

band  23 # energy    7.28477513 # occ.  0.00000000

ion      s     py     pz     px    dxy    dyz    dz2    dxz    dx2    tot
  1  0.000  0.039  0.039  0.000  0.029  0.000  0.021  0.029  0.007  0.165
  2  0.067  0.036  0.042  0.001  0.022  0.016  0.001  0.015  0.007  0.206
  3  0.067  0.042  0.036  0.001  0.015  0.016  0.003  0.022  0.005  0.206
  4  0.000  0.036  0.036  0.000  0.017  0.000  0.009  0.017  0.003  0.117
tot  0.135  0.153  0.153  0.003  0.083  0.031  0.034  0.083  0.022  0.695

band  24 # energy    7.37055201 # occ.  0.00000000

ion      s     py     pz     px    dxy    dyz    dz2    dxz    dx2    tot
  1  0.049  0.037  0.037  0.002  0.028  0.008  0.001  0.028  0.002  0.192
  2  0.000  0.045  0.054  0.000  0.023  0.000  0.014  0.018  0.003  0.157
  3  0.000  0.054  0.045  0.000  0.018  0.000  0.011  0.023  0.006  0.157
  4  0.051  0.033  0.033  0.001  0.017  0.008  0.001  0.017  0.002  0.164
tot  0.100  0.170  0.170  0.003  0.087  0.016  0.026  0.087  0.013  0.671

band  25 # energy   10.79632790 # occ.  0.00000000

ion      s     py     pz     px    dxy    dyz    dz2    dxz    dx2    tot
  1  0.244  0.003  0.003  0.010  0.005  0.000  0.004  0.005  0.011  0.285
  2  0.000  0.021  0.025  0.001  0.000  0.000  0.010  0.001  0.001  0.059
  3  0.000  0.025  0.021  0.001  0.001  0.000  0.006  0.000  0.005  0.059
  4  0.238  0.003  0.003  0.021  0.003  0.000  0.004  0.003  0.012  0.287
tot  0.483  0.052  0.052  0.032  0.009  0.000  0.024  0.009  0.029  0.690

band  26 # energy   10.89948225 # occ.  0.00000000

ion      s     py     pz     px    dxy    dyz    dz2    dxz    dx2    tot
  1  0.000  0.026  0.026  0.000  0.000  0.000  0.014  0.000  0.005  0.072
  2  0.242  0.003  0.004  0.007  0.005  0.000  0.006  0.008  0.016  0.292
  3  0.242  0.004  0.003  0.007  0.008  0.000  0.005  0.005  0.017  0.292
  4  0.000  0.031  0.032  0.000  0.000  0.000  0.007  0.000  0.002  0.073
tot  0.484  0.065  0.065  0.015  0.014  0.000  0.032  0.014  0.040  0.728


 k-point    3 :    0.41666667 0.08333333 0.08333333     weight = 0.11111111

band   1 # energy   -2.73655407 # occ.  2.00000000

ion      s     py     pz     px    dxy    dyz    dz2    dxz    dx2    tot
  1  0.067  0.000  0.000  0.032  0.004  0.000  0.000  0.004  0.000  0.108
  2  0.178  0.001  0.001  0.007  0.002  0.001  0.004  0.000  0.036  0.230
  3  0.178  0.001  0.001  0.007  0.000  0.001  0.017  0.002  0.023  0.230
  4  0.034  0.000  0.000  0.017  0.000  0.000  0.000  0.000  0.000  0.052
tot  0.457  0.002  0.002  0.063  0.007  0.002  0.022  0.007  0.059  0.621

band   2 # energy   -1.46643298 # occ.  2.00000000

ion      s     py     pz     px    dxy    dyz    dz2    dxz    dx2    tot
  1  0.134  0.000  0.000  0.010  0.001  0.002  0.028  0.001  0.084  0.260
  2  0.013  0.000  0.000  0.031  0.005  0.005  0.000  0.004  0.087  0.145
  3  0.013  0.000  0.000  0.031  0.004  0.005  0.062  0.005  0.025  0.145
  4  0.096  0.001  0.001  0.001  0.000  0.001  0.004  0.000  0.012  0.115
tot  0.257  0.001  0.001  0.073  0.010  0.012  0.094  0.010  0.208  0.665

band   3 # energy   -1.15468196 # occ.  2.00000000

ion      s     py     pz     px    dxy    dyz    dz2    dxz    dx2    tot
  1  0.021  0.000  0.000  0.008  0.002  0.000  0.001  0.002  0.004  0.039
  2  0.004  0.000  0.001  0.002  0.007  0.001  0.309  0.001  0.046  0.370
  3  0.004  0.001  0.000  0.002  0.001  0.001  0.215  0.007  0.140  0.370
  4  0.000  0.000  0.000  0.016  0.001  0.000  0.001  0.001  0.004  0.024
tot  0.029  0.001  0.001  0.028  0.010  0.001  0.527  0.010  0.194  0.802

band   4 # energy   -1.03091828 # occ.  2.00000000

ion      s     py     pz     px    dxy    dyz    dz2    dxz    dx2    tot
  1  0.001  0.000  0.000  0.001  0.008  0.021  0.000  0.008  0.001  0.041
  2  0.001  0.002  0.000  0.000  0.003  0.407  0.000  0.002  0.003  0.420
  3  0.001  0.000  0.002  0.000  0.002  0.407  0.001  0.003  0.002  0.420
  4  0.000  0.000  0.000  0.000  0.000  0.004  0.000  0.000  0.000  0.005
tot  0.003  0.003  0.003  0.001  0.014  0.839  0.002  0.014  0.006  0.885

band   5 # energy   -0.58583114 # occ.  2.00000000

ion      s     py     pz     px    dxy    dyz    dz2    dxz    dx2    tot
  1  0.001  0.010  0.010  0.001  0.048  0.014  0.001  0.048  0.004  0.139
  2  0.000  0.001  0.001  0.000  0.169  0.015  0.005  0.146  0.005  0.342
  3  0.000  0.001  0.001  0.000  0.146  0.015  0.010  0.169  0.001  0.342
  4  0.006  0.006  0.006  0.001  0.005  0.000  0.000  0.005  0.000  0.030
tot  0.007  0.019  0.019  0.003  0.368  0.044  0.017  0.368  0.010  0.854

band   6 # energy   -0.51981675 # occ.  2.00000000

ion      s     py     pz     px    dxy    dyz    dz2    dxz    dx2    tot
  1  0.000  0.007  0.007  0.000  0.104  0.000  0.052  0.104  0.017  0.290
  2  0.003  0.003  0.001  0.000  0.159  0.001  0.004  0.097  0.002  0.271
  3  0.003  0.001  0.003  0.000  0.097  0.001  0.000  0.159  0.006  0.271
  4  0.000  0.004  0.004  0.000  0.009  0.000  0.007  0.009  0.002  0.034
tot  0.006  0.015  0.015  0.000  0.368  0.002  0.063  0.368  0.028  0.866

band   7 # energy   -0.14465159 # occ.  2.00000000

ion      s     py     pz     px    dxy    dyz    dz2    dxz    dx2    tot
  1  0.000  0.003  0.003  0.000  0.004  0.000  0.415  0.004  0.138  0.567
  2  0.004  0.000  0.000  0.015  0.012  0.000  0.009  0.031  0.019  0.089
  3  0.004  0.000  0.000  0.015  0.031  0.000  0.005  0.012  0.023  0.089
  4  0.000  0.003  0.003  0.000  0.001  0.000  0.058  0.001  0.019  0.084
tot  0.007  0.006  0.006  0.029  0.047  0.000  0.487  0.047  0.199  0.829

band   8 # energy    0.25893372 # occ.  2.00000000

ion      s     py     pz     px    dxy    dyz    dz2    dxz    dx2    tot
  1  0.003  0.000  0.000  0.000  0.117  0.434  0.001  0.117  0.004  0.676
  2  0.000  0.006  0.002  0.001  0.006  0.002  0.001  0.032  0.005  0.054
  3  0.000  0.002  0.006  0.001  0.032  0.002  0.003  0.006  0.003  0.054