<?xml version="1.0" encoding="ISO-8859-1"?>
<modeling>
 <generator>
  <i name="program"" type=""stringvasp</i>
  <i name="version"" type=""string4.6.26 </i>
  <i name="subversion"" type=""string15Dec04 complex  serial</i>
  <i name="platform"" type=""stringLinuxPgi</i>
  <i name="date"" type=""string2009 11 30</i>
  <i name="time"" type=""string23:39:04</i>
 </generator>
 <incar>
  <i type=""string"" nameSYSTEM"" Au, FCC</i>
  <i type=""int"" nameISTART""     0</i>
  <i type=""string"" namePREC""normal ! set fft mesh, cutoffs</i>
  <i type=""string"" nameALGO"" Fast   ! use fast algorithm for electro</i>
  <i type=""int"" nameISPIN""     1</i>
  <i name="EDIFF""      0.00010000</i>
  <i name="EDIFFG""      0.00100000</i>
  <i type=""int"" nameIBRION""     1</i>
  <i type=""int"" nameNFREE""     5</i>
  <i type=""int"" nameNSW""    10</i>
  <i type=""int"" nameISIF""     3</i>
  <i name="ENCUT""    350.00000000</i>
  <i name="POTIM""      0.35000000</i>
  <i type=""int"" nameISMEAR""     0</i>
  <i name="SIGMA""      0.10000000</i>
  <i type=""int"" nameNWRITE""     1</i>
  <i type=""logical"" nameLWAVE"" F  </i>
  <i type=""logical"" nameLCHARG"" T  </i>
  <i type=""logical"" nameLVTOT"" F  </i>
  <i type=""logical"" nameLORBIT"" F  </i>
 </incar>
 <kpoints>
  <generation param="Monkhorst-Pack">
   <v type=""int"" namedivisions""       6       6       6</v>
   <v name="usershift""      0.00000000      0.00000000      0.00000000</v>
   <v name="genvec1""      0.16666667      0.00000000      0.00000000</v>
   <v name="genvec2""      0.00000000      0.16666667      0.00000000</v>
   <v name="genvec3""      0.00000000      0.00000000      0.16666667</v>
   <v name="shift""      0.50000000      0.50000000      0.50000000</v>
  </generation>
  <varray name="kpointlist"">
   <v>       0.08333333      0.08333333      0.08333333</v>
   <v>       0.25000000      0.08333333      0.08333333</v>
   <v>       0.41666667      0.08333333      0.08333333</v>
   <v>       0.25000000      0.25000000      0.08333333</v>
   <v>       0.41666667      0.25000000      0.08333333</v>
   <v>       0.41666667      0.41666667      0.08333333</v>
   <v>       0.25000000      0.25000000      0.25000000</v>
   <v>       0.41666667      0.25000000      0.25000000</v>
   <v>       0.41666667      0.41666667      0.25000000</v>
   <v>       0.41666667      0.41666667      0.41666667</v>
  </varray>
  <varray name="weights"">
   <v>       0.03703704</v>
   <v>       0.11111111</v>
   <v>       0.11111111</v>
   <v>       0.11111111</v>
   <v>       0.22222222</v>
   <v>       0.11111111</v>
   <v>       0.03703704</v>
   <v>       0.11111111</v>
   <v>       0.11111111</v>
   <v>       0.03703704</v>
  </varray>
 </kpoints>
 <parameters>
  <separator name="general"">
   <i type=""string"" nameSYSTEM""Au, FCC</i>
   <i type=""logical"" nameLCOMPAT"" F  </i>
  </separator>
  <separator name="electronic"">
   <i type=""string"" namePREC""normal</i>
   <i name="ENMAX""    350.00000000</i>
   <i name="ENAUG""    516.45600000</i>
   <i name="EDIFF""      0.00010000</i>
   <i type=""int"" nameIALGO""    68</i>
   <i type=""int"" nameIWAVPR""    11</i>
   <i type=""int"" nameNBANDS""    26</i>
   <i name="NELECT""     44.00000000</i>
   <separator name="electronic smearing"">
    <i type=""int"" nameISMEAR""     0</i>
    <i name="SIGMA""      0.10000000</i>
   </separator>
   <separator name="electronic projectors"">
    <i type=""logical"" nameLREAL"" F  </i>
    <v name="ROPT""      0.00000000      0.00000000</v>
    <i type=""int"" nameLMAXPAW""  -100</i>
    <i type=""int"" nameLMAXMIX""     2</i>
   </separator>
   <separator name="electronic startup"">
    <i type=""int"" nameISTART""     0</i>
    <i type=""int"" nameICHARG""     2</i>
    <i type=""int"" nameINIWAV""     1</i>
   </separator>
   <separator name="electronic spin"">
    <i type=""int"" nameISPIN""     1</i>
    <i type=""logical"" nameLNONCOLLINEAR"" F  </i>
    <v name="MAGMOM""      1.00000000      1.00000000      1.00000000      1.00000000</v>
    <i name="NUPDOWN""     -1.00000000</i>
    <i type=""logical"" nameLSORBIT"" F  </i>
    <v name="SAXIS""      0.00000000      0.00000000      1.00000000</v>
    <i type=""logical"" nameLSPIRAL"" F  </i>
    <v name="QSPIRAL""      0.00000000      0.00000000      0.00000000</v>
    <i type=""logical"" nameLZEROZ"" F  </i>
   </separator>
   <separator name="electronic exchange-correlation"">
    <i type=""string"" nameGGA""--</i>
    <i type=""int"" nameVOSKOWN""     0</i>
    <i type=""logical"" nameLASPH"" F  </i>
    <i type=""logical"" nameLMETAGGA"" F  </i>
    <i type=""string"" nameGGA2""--</i>
   </separator>
   <separator name="electronic convergence"">
    <i type=""int"" nameNELM""    60</i>
    <i type=""int"" nameNELMDL""    -5</i>
    <i type=""int"" nameNELMIN""     2</i>
    <i name="ENINI""    350.00000000</i>
    <separator name="electronic convergence detail"">
     <i type=""logical"" nameLDIAG"" T  </i>
     <i name="WEIMIN""      0.00100000</i>
     <i name="EBREAK""      0.00000096</i>
     <i name="DEPER""      0.30000000</i>
     <i type=""int"" nameNRMM""     4</i>
     <i name="TIME""      0.10000000</i>
    </separator>
   </separator>
   <separator name="electronic mixer"">
    <i name="AMIX""      0.40000000</i>
    <i name="BMIX""      1.00000000</i>
    <i name="AMIN""      0.10000000</i>
    <i name="AMIX_MAG""      1.60000000</i>
    <i name="BMIX_MAG""      1.00000000</i>
    <separator name="electronic mixer details"">
     <i type=""int"" nameIMIX""     4</i>
     <i type=""int"" nameMAXMIX""   -45</i>
     <i name="WC""    100.00000000</i>
     <i type=""int"" nameINIMIX""     1</i>
     <i type=""int"" nameMIXPRE""     1</i>
     <i type=""int"" nameMREMOVE""     5</i>
    </separator>
   </separator>
   <separator name="electronic dipolcorrection"">
    <i type=""int"" nameIDIPOL""     0</i>
    <i type=""logical"" nameLDIPOL"" F  </i>
    <v name="DIPOL""   -100.00000000</v>
    <i name="EFIELD""      0.00000000</i>
   </separator>
  </separator>
  <separator name="grids"">
   <i type=""int"" nameNGX""    20</i>
   <i type=""int"" nameNGY""    20</i>
   <i type=""int"" nameNGZ""    20</i>
   <i type=""int"" nameNGXF""    40</i>
   <i type=""int"" nameNGYF""    40</i>
   <i type=""int"" nameNGZF""    40</i>
   <i type=""logical"" nameADDGRID"" F  </i>
  </separator>
  <separator name="ionic"">
   <i type=""int"" nameNSW""    10</i>
   <i type=""int"" nameIBRION""     1</i>
   <i type=""int"" nameISIF""     3</i>
   <i name="PSTRESS""      0.00000000</i>
   <i name="EDIFFG""      0.00100000</i>
   <i type=""int"" nameNFREE""     5</i>
   <i name="POTIM""      0.35000000</i>
   <i name="SMASS""     -3.00000000</i>
  </separator>
  <separator name="ionic md"">
   <i name="TEBEG""      0.00010000</i>
   <i name="TEEND""      0.00010000</i>
   <i type=""int"" nameNBLOCK""     1</i>
   <i type=""int"" nameKBLOCK""    10</i>
   <i type=""int"" nameNPACO""   256</i>
   <i name="APACO""     16.00000000</i>
  </separator>
  <separator name="symmetry"">
   <i type=""int"" nameISYM""     2</i>
   <i name="SYMPREC""      0.00001000</i>
  </separator>
  <separator name="dos"">
   <i type=""logical"" nameLORBIT"" F  </i>
   <v name="RWIGS""     -1.00000000     -1.00000000</v>
   <i type=""int"" nameNEDOS""   301</i>
   <i name="EMIN""     10.00000000</i>
   <i name="EMAX""    -10.00000000</i>
  </separator>
  <separator name="writing"">
   <i type=""int"" nameNWRITE""     1</i>
   <i type=""logical"" nameLWAVE"" F  </i>
   <i type=""logical"" nameLCHARG"" T  </i>
   <i type=""logical"" nameLPARD"" F  </i>
   <i type=""logical"" nameLVTOT"" F  </i>
   <i type=""logical"" nameLELF"" F  </i>
   <i type=""logical"" nameLOPTICS"" F  </i>
   <i name="STM""      0.00000000</i>
  </separator>
  <separator name="performance"">
   <i type=""int"" nameNPAR""     1</i>
   <i type=""int"" nameNSIM""     4</i>
   <i type=""int"" nameNBLK""    96</i>
   <i type=""logical"" nameLPLANE"" T  </i>
   <i type=""logical"" nameLCRITICAL_MEM"" F  </i>
   <i type=""logical"" nameLSCALAPACK"" F  </i>
   <i type=""logical"" nameLSCALU"" F  </i>
   <i type=""logical"" nameLASYNC"" F  </i>
  </separator>
  <separator name="miscellaneous"">
   <i type=""int"" nameIDIOT""     3</i>
   <i type=""logical"" nameLMUSIC"" F  </i>
   <v name="POMASS""    196.96600000     63.54600000</v>
   <i type=""logical"" nameLCORR"" T  </i>
  </separator>
  <i type=""logical"" nameLREAL_COMPAT"" F  </i>
  <i type=""logical"" nameGGA_COMPAT"" T  </i>
  <i type=""logical"" nameLBERRY"" F  </i>
  <i type=""int"" nameICORELEVEL""     0</i>
  <i type=""logical"" nameLDAU"" F  </i>
  <i type=""int"" nameI_CONSTRAINED_M""     0</i>
 </parameters>
 <atominfo>
  <atoms>       4</atoms>
  <types>       2</types>
  <array name="atoms"">
   <dimension dim="1">ion</dimension>
   <field type="string">element</field>
   <field type="int">atomtype</field>
   <set>
    <rc><c>Au</c><c>   1</c></rc>
    <rc><c>Au</c><c>   1</c></rc>
    <rc><c>Au</c><c>   1</c></rc>
    <rc><c>Cu</c><c>   2</c></rc>
   </set>
  </array>
  <array name="atomtypes"">
   <dimension dim="1">type</dimension>
   <field type="int">atomspertype</field>
   <field type="string">element</field>
   <field>mass</field>
   <field>valence</field>
   <field type="string">pseudopotential</field>
   <set>
    <rc><c>   3</c><c>Au</c><c>    196.96600000</c><c>     11.00000000</c><c> PAW_GGA Au 18Jul2000                   </c></rc>
    <rc><c>   1</c><c>Cu</c><c>     63.54600000</c><c>     11.00000000</c><c> PAW_GGA Cu 05Jan2001                   </c></rc>
   </set>
  </array>
 </atominfo>
 <structure name="initialpos"">
  <crystal>
   <varray name="basis"">
    <v>       4.05643503      0.00000000      0.00000000</v>
    <v>       0.00000000      4.05643503      0.00000000</v>
    <v>       0.00000000      0.00000000      4.05643503</v>
   </varray>
   <i name="volume""     66.74728026</i>
   <varray name="rec_basis"">
    <v>       0.24652188      0.00000000      0.00000000</v>
    <v>       0.00000000      0.24652188      0.00000000</v>
    <v>       0.00000000      0.00000000      0.24652188</v>
   </varray>
  </crystal>
  <varray name="positions"">
   <v>       0.00000000      0.00000000      0.00000000</v>
   <v>       0.50000000      0.50000000      0.00000000</v>
   <v>       0.50000000      0.00000000      0.50000000</v>
   <v>       0.00000000      0.50000000      0.50000000</v>
  </varray>
 </structure>
 <calculation>
  <scstep>
   <time name="dav""    2.04    1.80</time>
   <time name="total""    2.19    1.95</time>
   <energy>
    <i name="alphaZ""    412.22224328</i>
    <i name="ewald""  -3938.70264189</i>
    <i name="hartreedc""   -757.40068192</i>
    <i name="XCdc""     88.65045155</i>
    <i name="pawpsdc""   3325.90099900</i>
    <i name="pawaedc""  -3401.18488486</i>
    <i name="eentropy""     -0.01512074</i>
    <i name="bandstr""    438.96051983</i>
    <i name="atom""   4174.27767686</i>
    <i name="e_fr_energy""    342.70856110</i>
    <i name="e_wo_entrp""    342.72368184</i>
    <i name="e_0_energy""    342.71612147</i>
   </energy>
  </scstep>
  <scstep>
   <time name="dav""    1.88    1.79</time>
   <time name="total""    1.88    1.80</time>
   <energy>
    <i name="e_fr_energy""     12.12657429</i>
    <i name="e_wo_entrp""     12.13735242</i>
    <i name="e_0_energy""     12.13196336</i>
   </energy>
  </scstep>
  <scstep>
   <time name="dav""    1.96    1.89</time>
   <time name="total""    1.97    1.90</time>
   <energy>
    <i name="e_fr_energy""    -13.94067326</i>
    <i name="e_wo_entrp""    -13.92713511</i>
    <i name="e_0_energy""    -13.93390418</i>
   </energy>
  </scstep>
  <scstep>
   <time name="dav""    2.03    1.86</time>
   <time name="total""    2.04    1.86</time>
   <energy>
    <i name="e_fr_energy""    -14.74006330</i>
    <i name="e_wo_entrp""    -14.72860729</i>
    <i name="e_0_energy""    -14.73433529</i>
   </energy>
  </scstep>
  <scstep>
   <time name="dav""    2.03    1.82</time>
   <time name="total""    2.18    1.97</time>
   <energy>
    <i name="e_fr_energy""    -14.75177703</i>
    <i name="e_wo_entrp""    -14.74043378</i>
    <i name="e_0_energy""    -14.74610541</i>
   </energy>
  </scstep>
  <scstep>
   <time name="diag""    0.35    0.33</time>
   <time name="diis""    1.59    1.58</time>
   <time name="orth""    0.04    0.03</time>
   <time name="total""    2.27    2.24</time>
   <energy>
    <i name="e_fr_energy""    -13.77177091</i>
    <i name="e_wo_entrp""    -13.75571195</i>
    <i name="e_0_energy""    -13.76374143</i>
   </energy>
  </scstep>
  <scstep>
   <time name="diag""    0.34    0.33</time>
   <time name="diis""    1.58    1.56</time>
   <time name="orth""    0.04    0.03</time>
   <time name="total""    2.26    2.21</time>
   <energy>
    <i name="e_fr_energy""    -13.56272424</i>
    <i name="e_wo_entrp""    -13.54427740</i>
    <i name="e_0_energy""    -13.55350082</i>
   </energy>
  </scstep>
  <scstep>
   <time name="diag""    0.35    0.33</time>
   <time name="diis""    1.60    1.57</time>
   <time name="orth""    0.04    0.03</time>
   <time name="total""    2.28    2.22</time>
   <energy>
    <i name="e_fr_energy""    -13.39523264</i>
    <i name="e_wo_entrp""    -13.37782455</i>
    <i name="e_0_energy""    -13.38652859</i>
   </energy>
  </scstep>
  <scstep>
   <time name="diag""    0.35    0.33</time>
   <time name="diis""    1.58    1.56</time>
   <time name="orth""    0.04    0.03</time>
   <time name="total""    2.27    2.22</time>
   <energy>
    <i name="e_fr_energy""    -13.38330692</i>
    <i name="e_wo_entrp""    -13.36702087</i>
    <i name="e_0_energy""    -13.37516390</i>
   </energy>
  </scstep>
  <scstep>
   <time name="diag""    0.35    0.33</time>
   <time name="diis""    1.59    1.57</time>
   <time name="orth""    0.04    0.03</time>
   <time name="total""    2.27    2.22</time>
   <energy>
    <i name="e_fr_energy""    -13.38005186</i>
    <i name="e_wo_entrp""    -13.36342790</i>
    <i name="e_0_energy""    -13.37173988</i>
   </energy>
  </scstep>
  <scstep>
   <time name="diag""    0.35    0.33</time>
   <time name="diis""    1.18    1.16</time>
   <time name="orth""    0.03    0.03</time>
   <time name="total""    1.86    1.82</time>
   <energy>
    <i name="e_fr_energy""    -13.37994158</i>
    <i name="e_wo_entrp""    -13.36334349</i>
    <i name="e_0_energy""    -13.37164253</i>
   </energy>
  </scstep>
  <scstep>
   <time name="diag""    0.34    0.34</time>
   <time name="diis""    1.01    0.97</time>
   <time name="orth""    0.03    0.03</time>
   <time name="total""    1.54    1.49</time>
   <energy>
    <i name="alphaZ""    412.22224328</i>
    <i name="ewald""  -3938.70264189</i>
    <i name="hartreedc""   -706.73515228</i>
    <i name="XCdc""     86.28269167</i>
    <i name="pawpsdc""   3337.08722616</i>
    <i name="pawaedc""  -3421.51804161</i>
    <i name="eentropy""     -0.01653209</i>
    <i name="bandstr""     43.72261676</i>
    <i name="atom""   4174.27767686</i>
    <i name="e_fr_energy""    -13.37991315</i>
    <i name="e_wo_entrp""    -13.36338106</i>
    <i name="e_0_energy""    -13.37164710</i>
   </energy>
  </scstep>
  <structure>
   <crystal>
    <varray name="basis"">
     <v>       4.05643503      0.00000000      0.00000000</v>
     <v>       0.00000000      4.05643503      0.00000000</v>
     <v>       0.00000000      0.00000000      4.05643503</v>
    </varray>
    <i name="volume""     66.74728026</i>
    <varray name="rec_basis"">
     <v>       0.24652188      0.00000000      0.00000000</v>
     <v>       0.00000000      0.24652188      0.00000000</v>
     <v>       0.00000000      0.00000000      0.24652188</v>
    </varray>
   </crystal>
   <varray name="positions"">
    <v>       0.00000000      0.00000000      0.00000000</v>
    <v>       0.50000000      0.50000000      0.00000000</v>
    <v>       0.50000000      0.00000000      0.50000000</v>
    <v>       0.00000000      0.50000000      0.50000000</v>
   </varray>
  </structure>
  <varray name="forces"">
   <v>       0.00000000      0.00000000      0.00000000</v>
   <v>       0.00000000      0.00000000      0.00000000</v>
   <v>       0.00000000      0.00000000      0.00000000</v>
   <v>       0.00000000      0.00000000      0.00000000</v>
  </varray>
  <varray name="stress"">
   <v>      -3.24838889      0.00000000      0.00000000</v>
   <v>       0.00000000     -3.24838889      0.00000000</v>
   <v>       0.00000000      0.00000000     -3.24838889</v>
  </varray>
  <energy>
   <i name="e_fr_energy""    -13.37991315</i>
   <i name="e_wo_entrp""    -13.37164710</i>
   <i name="e_0_energy""     -0.01653209</i>
  </energy>
 </calculation>
 <calculation>
  <scstep>
   <time name="dav""    2.01    1.76</time>
   <time name="total""    2.30    2.05</time>
   <energy>
    <i name="alphaZ""    413.63838284</i>
    <i name="ewald""  -3943.20779872</i>
    <i name="hartreedc""   -707.48115446</i>
    <i name="XCdc""     86.45090568</i>
    <i name="pawpsdc""   3337.24492991</i>
    <i name="pawaedc""  -3421.68891574</i>
    <i name="eentropy""     -0.01671204</i>
    <i name="bandstr""     47.39573452</i>
    <i name="atom""   4174.27767686</i>
    <i name="e_fr_energy""    -13.38695117</i>
    <i name="e_wo_entrp""    -13.37023912</i>
    <i name="e_0_energy""    -13.37859515</i>
   </energy>
  </scstep>
  <scstep>
   <time name="diag""    0.34    0.33</time>
   <time name="diis""    1.62    1.53</time>
   <time name="orth""    0.04    0.03</time>
   <time name="total""    2.30    2.18</time>
   <energy>
    <i name="e_fr_energy""    -13.38090729</i>
    <i name="e_wo_entrp""    -13.36378875</i>
    <i name="e_0_energy""    -13.37234802</i>
   </energy>
  </scstep>
  <scstep>
   <time name="diag""    0.35    0.33</time>
   <time name="diis""    1.60    1.52</time>
   <time name="orth""    0.04    0.03</time>
   <time name="total""    2.28    2.18</time>
   <energy>
    <i name="e_fr_energy""    -13.38047082</i>
    <i name="e_wo_entrp""    -13.36415740</i>
    <i name="e_0_energy""    -13.37231411</i>
   </energy>
  </scstep>
  <scstep>
   <time name="diag""    0.35    0.33</time>
   <time name="diis""    1.27    1.21</time>
   <time name="orth""    0.04    0.03</time>
   <time name="total""    1.95    1.86</time>
   <energy>
    <i name="e_fr_energy""    -13.37966932</i>
    <i name="e_wo_entrp""    -13.36310089</i>
    <i name="e_0_energy""    -13.37138510</i>
   </energy>
  </scstep>
  <scstep>
   <time name="diag""    0.34    0.33</time>
   <time name="diis""    0.99    0.96</time>
   <time name="orth""    0.04    0.03</time>
   <time name="total""    1.52    1.47</time>
   <energy>
    <i name="alphaZ""    413.63838284</i>
    <i name="ewald""  -3943.20779872</i>
    <i name="hartreedc""   -704.67392329</i>
    <i name="XCdc""     86.31986563</i>
    <i name="pawpsdc""   3338.67330606</i>
    <i name="pawaedc""  -3423.20048108</i>
    <i name="eentropy""     -0.01664326</i>
    <i name="bandstr""     44.80998834</i>
    <i name="atom""   4174.27767686</i>
    <i name="e_fr_energy""    -13.37962663</i>
    <i name="e_wo_entrp""    -13.36298337</i>
    <i name="e_0_energy""    -13.37130500</i>
   </energy>
  </scstep>
  <structure>
   <crystal>
    <varray name="basis"">
     <v>       4.05180051      0.00000000      0.00000000</v>
     <v>       0.00000000      4.05180051      0.00000000</v>
     <v>       0.00000000      0.00000000      4.05180051</v>
    </varray>
    <i name="volume""     66.51876311</i>
    <varray name="rec_basis"">
     <v>       0.24680386      0.00000000      0.00000000</v>
     <v>       0.00000000      0.24680386      0.00000000</v>
     <v>       0.00000000      0.00000000      0.24680386</v>
    </varray>
   </crystal>
   <varray name="positions"">
    <v>       0.00000000      0.00000000      0.00000000</v>
    <v>       0.50000000      0.50000000      0.00000000</v>
    <v>       0.50000000      0.00000000      0.50000000</v>
    <v>       0.00000000      0.50000000      0.50000000</v>
   </varray>
  </structure>
  <varray name="forces"">
   <v>       0.00000000      0.00000000      0.00000000</v>
   <v>       0.00000000      0.00000000      0.00000000</v>
   <v>       0.00000000      0.00000000      0.00000000</v>
   <v>       0.00000000      0.00000000      0.00000000</v>
  </varray>
  <varray name="stress"">
   <v>       0.76151099      0.00000000      0.00000000</v>
   <v>       0.00000000      0.76151099      0.00000000</v>
   <v>       0.00000000      0.00000000      0.76151099</v>
  </varray>
  <energy>
   <i name="e_fr_energy""    -13.37962663</i>
   <i name="e_wo_entrp""    -13.37130500</i>
   <i name="e_0_energy""     -0.01664326</i>
  </energy>
  <eigenvalues>
   <array>
    <dimension dim="1">band</dimension>
    <dimension dim="2">kpoint</dimension>
    <dimension dim="3">spin</dimension>
    <field>eigene</field>
    <field>occ</field>
    <set>
     <set comment="spin 1">
      <set comment="kpoint 1">
       <r>  -4.3213  1.0000</r>
       <r>  -2.0611  1.0000</r>
       <r>  -1.3965  1.0000</r>
       <r>  -1.3537  1.0000</r>
       <r>  -1.3537  1.0000</r>
       <r>  -1.2228  1.0000</r>
       <r>  -1.2228  1.0000</r>
       <r>   0.7270  1.0000</r>
       <r>   0.9114  1.0000</r>
       <r>   0.9114  1.0000</r>
       <r>   1.9564  1.0000</r>
       <r>   1.9564  1.0000</r>
       <r>   2.6822  1.0000</r>
       <r>   2.6839  1.0000</r>
       <r>   2.6839  1.0000</r>
       <r>   3.0792  1.0000</r>
       <r>   3.0894  1.0000</r>
       <r>   3.0894  1.0000</r>
       <r>   3.1292  1.0000</r>
       <r>   3.2904  1.0000</r>
       <r>   3.2904  1.0000</r>
       <r>   5.9856  0.0000</r>
       <r>   6.0004  0.0000</r>
       <r>   6.0004  0.0000</r>
       <r>  11.0344  0.0000</r>
       <r>  11.0344  0.0000</r>
      </set>
      <set comment="kpoint 2">
       <r>  -3.7279  1.0000</r>
       <r>  -1.7324  1.0000</r>
       <r>  -1.2451  1.0000</r>
       <r>  -1.1988  1.0000</r>
       <r>  -1.0818  1.0000</r>
       <r>  -1.0084  1.0000</r>
       <r>  -0.7664  1.0000</r>
       <r>   0.4835  1.0000</r>
       <r>   0.9163  1.0000</r>
       <r>   0.9882  1.0000</r>
       <r>   1.5651  1.0000</r>
       <r>   1.6615  1.0000</r>
       <r>   1.7552  1.0000</r>
       <r>   2.0143  1.0000</r>
       <r>   2.3664  1.0000</r>
       <r>   2.6210  1.0000</r>
       <r>   2.8797  1.0000</r>
       <r>   2.9273  1.0000</r>
       <r>   3.0622  1.0000</r>
       <r>   3.1642  1.0000</r>
       <r>   3.2840  1.0000</r>
       <r>   3.8738  1.0000</r>
       <r>   7.2848  0.0000</r>
       <r>   7.3706  0.0000</r>
       <r>  10.7963  0.0000</r>
       <r>  10.8995  0.0000</r>
      </set>
      <set comment="kpoint 3">
       <r>  -2.7366  1.0000</r>
       <r>  -1.4664  1.0000</r>
       <r>  -1.1547  1.0000</r>
       <r>  -1.0309  1.0000</r>
       <r>  -0.5858  1.0000</r>
       <r>  -0.5198  1.0000</r>
       <r>  -0.1447  1.0000</r>
       <r>   0.2589  1.0000</r>
       <r>   0.3967  1.0000</r>
       <r>   0.4917  1.0000</r>
       <r>   0.9839  1.0000</r>
       <r>   1.1269  1.0000</r>
       <r>   1.3716  1.0000</r>
       <r>   1.7408  1.0000</r>
       <r>   1.8552  1.0000</r>
       <r>   2.0889  1.0000</r>
       <r>   2.7026  1.0000</r>
       <r>   2.7184  1.0000</r>
       <r>   2.8801  1.0000</r>
       <r>   2.9747  1.0000</r>
       <r>   3.0851  1.0000</r>
       <r>   3.2797  1.0000</r>
       <r>   8.6320  0.0000</r>
       <r>   8.8674  0.0000</r>
       <r>  10.1635  0.0000</r>
       <r>  10.3748  0.0000</r>
      </set>
      <set comment="kpoint 4">
       <r>  -3.1952  1.0000</r>
       <r>  -1.4380  1.0000</r>
       <r>  -1.0684  1.0000</r>
       <r>  -0.9959  1.0000</r>
       <r>  -0.9710  1.0000</r>
       <r>  -0.6645  1.0000</r>
       <r>  -0.4706  1.0000</r>
       <r>   0.2078  1.0000</r>
       <r>   0.6554  1.0000</r>
       <r>   0.8605  1.0000</r>
       <r>   1.1913  1.0000</r>
       <r>   1.3930  1.0000</r>
       <r>   1.5404  1.0000</r>
       <r>   1.7652  1.0000</r>
       <r>   1.9574  1.0000</r>
       <r>   2.4568  1.0000</r>
       <r>   2.7477  1.0000</r>
       <r>   2.8370  1.0000</r>
       <r>   2.8908  1.0000</r>
       <r>   3.0992  1.0000</r>
       <r>   3.1552  1.0000</r>
       <r>   4.9120  0.0146</r>
       <r>   5.1554  0.0000</r>
       <r>   8.3081  0.0000</r>
       <r>   9.4501  0.0000</r>
       <r>  12.5751  0.0000</r>
      </set>
      <set comment="kpoint 5">
       <r>  -2.3039  1.0000</r>
       <r>  -1.2398  1.0000</r>
       <r>  -0.9364  1.0000</r>
       <r>  -0.7696  1.0000</r>
       <r>  -0.6320  1.0000</r>
       <r>  -0.4596  1.0000</r>
       <r>  -0.0828  1.0000</r>
       <r>   0.0271  1.0000</r>
       <r>   0.1479  1.0000</r>
       <r>   0.4901  1.0000</r>
       <r>   0.8903  1.0000</r>
       <r>   1.2362  1.0000</r>
       <r>   1.4028  1.0000</r>
       <r>   1.5509  1.0000</r>
       <r>   1.6806  1.0000</r>
       <r>   2.2172  1.0000</r>
       <r>   2.4676  1.0000</r>
       <r>   2.7959  1.0000</r>
       <r>   2.8983  1.0000</r>
       <r>   2.9680  1.0000</r>
       <r>   3.0846  1.0000</r>
       <r>   3.5222  1.0000</r>
       <r>   6.3073  0.0000</r>
       <r>   7.7611  0.0000</r>
       <r>   9.7415  0.0000</r>
       <r>  11.1034  0.0000</r>
      </set>
      <set comment="kpoint 6">
       <r>  -1.6735  1.0000</r>
       <r>  -1.1533  1.0000</r>
       <r>  -0.9621  1.0000</r>
       <r>  -0.7533  1.0000</r>
       <r>  -0.2853  1.0000</r>
       <r>  -0.1472  1.0000</r>
       <r>  -0.1044  1.0000</r>
       <r>   0.0301  1.0000</r>
       <r>   0.2318  1.0000</r>
       <r>   0.4535  1.0000</r>
       <r>   1.0475  1.0000</r>
       <r>   1.0623  1.0000</r>
       <r>   1.1462  1.0000</r>
       <r>   1.1916  1.0000</r>
       <r>   1.6401  1.0000</r>
       <r>   2.0261  1.0000</r>
       <r>   2.1200  1.0000</r>
       <r>   2.7351  1.0000</r>
       <r>   2.7993  1.0000</r>
       <r>   2.8689  1.0000</r>
       <r>   3.4986  1.0000</r>
       <r>   4.3424  1.0000</r>
       <r>   4.7214  0.6968</r>
       <r>   5.9236  0.0000</r>
       <r>  10.9104  0.0000</r>
       <r>  12.3671  0.0000</r>
      </set>
      <set comment="kpoint 7">
       <r>  -2.8104  1.0000</r>
       <r>  -1.3712  1.0000</r>
       <r>  -1.0156  1.0000</r>
       <r>  -1.0156  1.0000</r>
       <r>  -0.7598  1.0000</r>
       <r>  -0.1632  1.0000</r>
       <r>  -0.1632  1.0000</r>
       <r>   0.1362  1.0000</r>
       <r>   0.5233  1.0000</r>
       <r>   0.5233  1.0000</r>
       <r>   1.1382  1.0000</r>
       <r>   1.1382  1.0000</r>
       <r>   1.3293  1.0000</r>
       <r>   1.6311  1.0000</r>
       <r>   1.6311  1.0000</r>
       <r>   2.3111  1.0000</r>
       <r>   2.7552  1.0000</r>
       <r>   2.7552  1.0000</r>
       <r>   2.9877  1.0000</r>
       <r>   3.2149  1.0000</r>
       <r>   3.2149  1.0000</r>
       <r>   5.7069  0.0000</r>
       <r>   5.8058  0.0000</r>
       <r>   5.8058  0.0000</r>
       <r>  10.2443  0.0000</r>
       <r>  10.2443  0.0000</r>
      </set>
      <set comment="kpoint 8">
       <r>  -2.1899  1.0000</r>
       <r>  -1.4120  1.0000</r>
       <r>  -1.2363  1.0000</r>
       <r>  -0.8738  1.0000</r>
       <r>  -0.4432  1.0000</r>
       <r>  -0.0282  1.0000</r>
       <r>   0.0044  1.0000</r>
       <r>   0.1631  1.0000</r>
       <r>   0.5035  1.0000</r>
       <r>   0.5510  1.0000</r>
       <r>   1.0054  1.0000</r>
       <r>   1.0338  1.0000</r>
       <r>   1.2590  1.0000</r>
       <r>   1.5698  1.0000</r>
       <r>   1.5711  1.0000</r>
       <r>   2.2593  1.0000</r>
       <r>   2.7669  1.0000</r>
       <r>   2.8206  1.0000</r>
       <r>   2.9416  1.0000</r>
       <r>   3.1274  1.0000</r>
       <r>   3.1412  1.0000</r>
       <r>   3.7106  1.0000</r>
       <r>   6.8299  0.0000</r>
       <r>   6.9045  0.0000</r>
       <r>   8.3064  0.0000</r>
       <r>   8.6908  0.0000</r>
      </set>
      <set comment="kpoint 9">
       <r>  -1.9231  1.0000</r>
       <r>  -1.5547  1.0000</r>
       <r>  -1.5218  1.0000</r>
       <r>  -1.3009  1.0000</r>
       <r>  -0.0584  1.0000</r>
       <r>  -0.0455  1.0000</r>
       <r>   0.2888  1.0000</r>
       <r>   0.5570  1.0000</r>
       <r>   0.7412  1.0000</r>
       <r>   0.8057  1.0000</r>
       <r>   0.8858  1.0000</r>
       <r>   1.1521  1.0000</r>
       <r>   1.2442  1.0000</r>
       <r>   1.5887  1.0000</r>
       <r>   1.8259  1.0000</r>
       <r>   2.3086  1.0000</r>
       <r>   2.6125  1.0000</r>
       <r>   2.8693  1.0000</r>
       <r>   3.0343  1.0000</r>
       <r>   3.0900  1.0000</r>
       <r>   3.3306  1.0000</r>
       <r>   4.4429  1.0000</r>
       <r>   4.7369  0.6167</r>
       <r>   6.0079  0.0000</r>
       <r>   8.3242  0.0000</r>
       <r>   9.6161  0.0000</r>
      </set>
      <set comment="kpoint 10">
       <r>  -1.9950  1.0000</r>
       <r>  -1.8817  1.0000</r>
       <r>  -1.7673  1.0000</r>
       <r>  -1.7673  1.0000</r>
       <r>   0.0333  1.0000</r>
       <r>   0.0333  1.0000</r>
       <r>   0.2202  1.0000</r>
       <r>   0.5721  1.0000</r>
       <r>   0.8774  1.0000</r>
       <r>   0.8774  1.0000</r>
       <r>   1.2648  1.0000</r>
       <r>   1.2648  1.0000</r>
       <r>   2.2107  1.0000</r>
       <r>   2.2107  1.0000</r>
       <r>   2.4946  1.0000</r>
       <r>   2.9087  1.0000</r>
       <r>   2.9248  1.0000</r>
       <r>   3.0487  1.0000</r>
       <r>   3.0487  1.0000</r>
       <r>   3.1776  1.0000</r>
       <r>   3.1776  1.0000</r>
       <r>   4.6294  0.9653</r>
       <r>   4.7534  0.5252</r>
       <r>   4.7534  0.5252</r>
       <r>   7.8371  0.0000</r>
       <r>   7.8371  0.0000</r>
      </set>
     </set>
    </set>
   </array>
  </eigenvalues>
  <dos>
   <i name="efermi""      4.75784238</i>
   <total>
    <array>
     <dimension dim="1">gridpoints</dimension>
     <dimension dim="2">spin</dimension>
     <field>energy</field>
     <field>total</field>
     <field>integrated</field>
     <set>
      <set comment="spin 1">
       <r>  -5.3213   0.0000   0.0000 </r>
       <r>  -5.2583   0.0000   0.0000 </r>
       <r>  -5.1953   0.0000   0.0000 </r>
       <r>  -5.1323   0.0000   0.0000 </r>
       <r>  -5.0693   0.0000   0.0000 </r>
       <r>  -5.0063   0.0000   0.0000 </r>
       <r>  -4.9434   0.0000   0.0000 </r>
       <r>  -4.8804   0.0000   0.0000 </r>
       <r>  -4.8174   0.0000   0.0000 </r>
       <r>  -4.7544   0.0000   0.0000 </r>
       <r>  -4.6914   0.0000   0.0000 </r>
       <r>  -4.6284   0.0000   0.0000 </r>
       <r>  -4.5654   0.0003   0.0000 </r>
       <r>  -4.5024   0.0058   0.0004 </r>
       <r>  -4.4395   0.0496   0.0035 </r>
       <r>  -4.3765   0.2002   0.0161 </r>
       <r>  -4.3135   0.3838   0.0403 </r>
       <r>  -4.2505   0.3501   0.0623 </r>
       <r>  -4.1875   0.1518   0.0719 </r>
       <r>  -4.1245   0.0312   0.0739 </r>
       <r>  -4.0615   0.0030   0.0741 </r>
       <r>  -3.9985   0.0004   0.0741 </r>
       <r>  -3.9355   0.0056   0.0744 </r>
       <r>  -3.8726   0.0662   0.0786 </r>
       <r>  -3.8096   0.3661   0.1017 </r>
       <r>  -3.7466   0.9592   0.1621 </r>
       <r>  -3.6836   1.1949   0.2374 </r>
       <r>  -3.6206   0.7082   0.2820 </r>
       <r>  -3.5576   0.1993   0.2945 </r>
       <r>  -3.4946   0.0266   0.2962 </r>
       <r>  -3.4316   0.0031   0.2964 </r>
       <r>  -3.3687   0.0236   0.2979 </r>
       <r>  -3.3057   0.1837   0.3094 </r>
       <r>  -3.2427   0.6772   0.3521 </r>
       <r>  -3.1797   1.1850   0.4267 </r>
       <r>  -3.1167   0.9866   0.4889 </r>
       <r>  -3.0537   0.3909   0.5135 </r>
       <r>  -2.9907   0.0798   0.5185 </r>
       <r>  -2.9277   0.0687   0.5229 </r>
       <r>  -2.8648   0.3142   0.5426 </r>
       <r>  -2.8018   0.8907   0.5988 </r>
       <r>  -2.7388   1.4390   0.6894 </r>
       <r>  -2.6758   1.2695   0.7694 </r>
       <r>  -2.6128   0.5774   0.8057 </r>
       <r>  -2.5498   0.1314   0.8140 </r>
       <r>  -2.4868   0.0464   0.8169 </r>
       <r>  -2.4238   0.2851   0.8349 </r>
       <r>  -2.3608   1.1927   0.9100 </r>
       <r>  -2.2979   2.4808   1.0663 </r>
       <r>  -2.2349   2.8374   1.2450 </r>
       <r>  -2.1719   2.2036   1.3838 </r>
       <r>  -2.1089   1.4580   1.4756 </r>
       <r>  -2.0459   1.1408   1.5475 </r>
       <r>  -1.9829   1.4261   1.6373 </r>
       <r>  -1.9199   1.9062   1.7574 </r>
       <r>  -1.8569   1.9958   1.8831 </r>
       <r>  -1.7940   2.0965   2.0151 </r>
       <r>  -1.7310   2.7449   2.1880 </r>
       <r>  -1.6680   3.0343   2.3792 </r>
       <r>  -1.6050   2.8722   2.5601 </r>
       <r>  -1.5420   3.5093   2.7811 </r>
       <r>  -1.4790   4.8574   3.0871 </r>
       <r>  -1.4160   5.7696   3.4505 </r>
       <r>  -1.3530   5.9894   3.8278 </r>
       <r>  -1.2901   6.9914   4.2681 </r>
       <r>  -1.2271   9.0640   4.8391 </r>
       <r>  -1.1641   9.4743   5.4358 </r>
       <r>  -1.1011   8.4577   5.9686 </r>
       <r>  -1.0381   8.9746   6.5338 </r>
       <r>  -0.9751  10.1933   7.1759 </r>
       <r>  -0.9121   9.1336   7.7512 </r>
       <r>  -0.8491   6.7313   8.1752 </r>
       <r>  -0.7861   6.2626   8.5697 </r>
       <r>  -0.7232   6.9207   9.0056 </r>
       <r>  -0.6602   6.6760   9.4261 </r>
       <r>  -0.5972   6.2052   9.8170 </r>
       <r>  -0.5342   6.0581  10.1985 </r>
       <r>  -0.4712   6.4642  10.6057 </r>
       <r>  -0.4082   5.7080  10.9652 </r>
       <r>  -0.3452   3.3978  11.1793 </r>
       <r>  -0.2822   2.1628  11.3155 </r>
       <r>  -0.2193   2.8527  11.4952 </r>
       <r>  -0.1563   5.4652  11.8394 </r>
       <r>  -0.0933   9.0932  12.4122 </r>
       <r>  -0.0303  11.3352  13.1262 </r>
       <r>   0.0327  10.9300  13.8146 </r>
       <r>   0.0957   8.8577  14.3725 </r>
       <r>   0.1587   7.8274  14.8656 </r>
       <r>   0.2217   7.8354  15.3591 </r>
       <r>   0.2846   6.6373  15.7772 </r>
       <r>   0.3476   4.7882  16.0788 </r>
       <r>   0.4106   5.2125  16.4071 </r>
       <r>   0.4736   8.5127  16.9433 </r>
       <r>   0.5366  10.4608  17.6022 </r>
       <r>   0.5996   8.1184  18.1136 </r>
       <r>   0.6626   4.8194  18.4171 </r>
       <r>   0.7256   3.7143  18.6511 </r>
       <r>   0.7886   4.6637  18.9448 </r>
       <r>   0.8515   7.2660  19.4025 </r>
       <r>   0.9145   9.8716  20.0243 </r>
       <r>   0.9775  10.3714  20.6776 </r>
       <r>   1.0405   9.8328  21.2969 </r>
       <r>   1.1035   9.6422  21.9043 </r>
       <r>   1.1665  10.3886  22.5586 </r>
       <r>   1.2295  10.9606  23.2490 </r>
       <r>   1.2925   9.5308  23.8493 </r>
       <r>   1.3554   7.4917  24.3212 </r>
       <r>   1.4184   6.6049  24.7373 </r>
       <r>   1.4814   6.5701  25.1511 </r>
       <r>   1.5444   8.8172  25.7065 </r>
       <r>   1.6074  11.5228  26.4323 </r>
       <r>   1.6704  11.3072  27.1445 </r>
       <r>   1.7334   9.4146  27.7375 </r>
       <r>   1.7964   7.3932  28.2032 </r>
       <r>   1.8593   5.5157  28.5506 </r>
       <r>   1.9223   4.4800  28.8328 </r>
       <r>   1.9853   4.7852  29.1342 </r>
       <r>   2.0483   5.2925  29.4676 </r>
       <r>   2.1113   5.1392  29.7913 </r>
       <r>   2.1743   5.2009  30.1189 </r>
       <r>   2.2373   5.8932  30.4901 </r>
       <r>   2.3003   5.8969  30.8615 </r>
       <r>   2.3633   5.0543  31.1799 </r>
       <r>   2.4262   4.8277  31.4839 </r>
       <r>   2.4892   5.0250  31.8005 </r>
       <r>   2.5522   4.4768  32.0824 </r>
       <r>   2.6152   4.7794  32.3835 </r>
       <r>   2.6782   7.3965  32.8494 </r>
       <r>   2.7412  11.4154  33.5684 </r>
       <r>   2.8042  15.1210  34.5209 </r>
       <r>   2.8672  17.5763  35.6280 </r>
       <r>   2.9301  17.9024  36.7556 </r>
       <r>   2.9931  16.0635  37.7674 </r>
       <r>   3.0561  15.5047  38.7440 </r>
       <r>   3.1191  16.1740  39.7628 </r>
       <r>   3.1821  13.6691  40.6238 </r>
       <r>   3.2451   9.2674  41.2075 </r>
       <r>   3.3081   6.4406  41.6132 </r>
       <r>   3.3711   4.2973  41.8839 </r>
       <r>   3.4341   2.8136  42.0611 </r>
       <r>   3.4970   3.2677  42.2669 </r>
       <r>   3.5600   3.6309  42.4956 </r>
       <r>   3.6230   2.4143  42.6477 </r>
       <r>   3.6860   1.5130  42.7430 </r>
       <r>   3.7490   1.4124  42.8319 </r>
       <r>   3.8120   1.3108  42.9145 </r>
       <r>   3.8750   1.3459  42.9993 </r>
       <r>   3.9380   1.1311  43.0705 </r>
       <r>   4.0009   0.5171  43.1031 </r>
       <r>   4.0639   0.1147  43.1103 </r>
       <r>   4.1269   0.0160  43.1113 </r>
       <r>   4.1899   0.0520  43.1146 </r>
       <r>   4.2529   0.3204  43.1348 </r>
       <r>   4.3159   1.0012  43.1978 </r>
       <r>   4.3789   1.7273  43.3066 </r>
       <r>   4.4419   1.8908  43.4257 </r>
       <r>   4.5048   1.4029  43.5141 </r>
       <r>   4.5678   0.8373  43.5669 </r>
       <r>   4.6308   1.0906  43.6355 </r>
       <r>   4.6938   2.3512  43.7836 </r>
       <r>   4.7568   3.3796  43.9965 </r>
       <r>   4.8198   2.7947  44.1726 </r>
       <r>   4.8828   1.7989  44.2859 </r>
       <r>   4.9458   1.3901  44.3734 </r>
       <r>   5.0088   0.8919  44.4296 </r>
       <r>   5.0717   0.6112  44.4681 </r>
       <r>   5.1347   0.9800  44.5298 </r>
       <r>   5.1977   1.2031  44.6056 </r>
       <r>   5.2607   0.7288  44.6515 </r>
       <r>   5.3237   0.2101  44.6647 </r>
       <r>   5.3867   0.0287  44.6665 </r>
       <r>   5.4497   0.0020  44.6667 </r>
       <r>   5.5127   0.0035  44.6669 </r>
       <r>   5.5756   0.0350  44.6691 </r>
       <r>   5.6386   0.1793  44.6804 </r>
       <r>   5.7016   0.5036  44.7121 </r>
       <r>   5.7646   0.9162  44.7698 </r>
       <r>   5.8276   1.3065  44.8521 </r>
       <r>   5.8906   1.8548  44.9689 </r>
       <r>   5.9536   2.7876  45.1445 </r>
       <r>   6.0166   3.2438  45.3488 </r>
       <r>   6.0795   2.2711  45.4919 </r>
       <r>   6.1425   0.9086  45.5491 </r>
       <r>   6.2055   0.6164  45.5880 </r>
       <r>   6.2685   1.5424  45.6851 </r>
       <r>   6.3315   2.4155  45.8373 </r>
       <r>   6.3945   1.8159  45.9516 </r>
       <r>   6.4575   0.6490  45.9925 </r>
       <r>   6.5205   0.1098  45.9994 </r>
       <r>   6.5835   0.0096  46.0000 </r>
       <r>   6.6464   0.0166  46.0011 </r>
       <r>   6.7094   0.1491  46.0105 </r>
       <r>   6.7724   0.6772  46.0531 </r>
       <r>   6.8354   1.6096  46.1545 </r>
       <r>   6.8984   2.1304  46.2887 </r>
       <r>   6.9614   1.6183  46.3906 </r>
       <r>   7.0244   0.6852  46.4338 </r>
       <r>   7.0874   0.1607  46.4439 </r>
       <r>   7.1503   0.1117  46.4510 </r>
       <r>   7.2133   0.4937  46.4821 </r>
       <r>   7.2763   1.3212  46.5653 </r>
       <r>   7.3393   1.9943  46.6909 </r>
       <r>   7.4023   1.8205  46.8056 </r>
       <r>   7.4653   0.9861  46.8677 </r>
       <r>   7.5283   0.2940  46.8862 </r>
       <r>   7.5913   0.0978  46.8923 </r>
       <r>   7.6542   0.4175  46.9186 </r>
       <r>   7.7172   1.5206  47.0144 </r>
       <r>   7.7802   2.7820  47.1897 </r>
       <r>   7.8432   2.6717  47.3579 </r>
       <r>   7.9062   1.4335  47.4482 </r>
       <r>   7.9692   0.4438  47.4762 </r>
       <r>   8.0322   0.0772  47.4811 </r>
       <r>   8.0952   0.0182  47.4822 </r>
       <r>   8.1582   0.1454  47.4914 </r>
       <r>   8.2211   0.8872  47.5472 </r>
       <r>   8.2841   2.5875  47.7102 </r>
       <r>   8.3471   3.6163  47.9380 </r>
       <r>   8.4101   2.4294  48.0910 </r>
       <r>   8.4731   0.8248  48.1430 </r>
       <r>   8.5361   0.4321  48.1702 </r>
       <r>   8.5991   1.1243  48.2410 </r>
       <r>   8.6621   2.0836  48.3723 </r>
       <r>   8.7250   2.1351  48.5067 </r>
       <r>   8.7880   1.4776  48.5998 </r>
       <r>   8.8510   1.2810  48.6805 </r>
       <r>   8.9140   1.2298  48.7580 </r>
       <r>   8.9770   0.6886  48.8013 </r>
       <r>   9.0400   0.1880  48.8132 </r>
       <r>   9.1030   0.0244  48.8147 </r>
       <r>   9.1660   0.0016  48.8148 </r>
       <r>   9.2289   0.0031  48.8150 </r>
       <r>   9.2919   0.0416  48.8176 </r>
       <r>   9.3549   0.2704  48.8347 </r>
       <r>   9.4179   0.8390  48.8875 </r>
       <r>   9.4809   1.3039  48.9696 </r>
       <r>   9.5439   1.3044  49.0518 </r>
       <r>   9.6069   1.5001  49.1463 </r>
       <r>   9.6699   2.0977  49.2784 </r>
       <r>   9.7329   2.7043  49.4488 </r>
       <r>   9.7958   2.4666  49.6041 </r>
       <r>   9.8588   1.2370  49.6820 </r>
       <r>   9.9218   0.3069  49.7014 </r>
       <r>   9.9848   0.0555  49.7049 </r>
       <r>  10.0478   0.1675  49.7154 </r>
       <r>  10.1108   0.6885  49.7588 </r>
       <r>  10.1738   1.4764  49.8518 </r>
       <r>  10.2368   1.8139  49.9660 </r>
       <r>  10.2997   1.6196  50.0681 </r>
       <r>  10.3627   1.5012  50.1626 </r>
       <r>  10.4257   1.2780  50.2431 </r>
       <r>  10.4887   0.6545  50.2843 </r>
       <r>  10.5517   0.1689  50.2950 </r>
       <r>  10.6147   0.0378  50.2974 </r>
       <r>  10.6777   0.1525  50.3070 </r>
       <r>  10.7407   0.6636  50.3488 </r>
       <r>  10.8036   1.6182  50.4507 </r>
       <r>  10.8666   2.6138  50.6153 </r>
       <r>  10.9296   3.0580  50.8079 </r>
       <r>  10.9926   2.7530  50.9814 </r>
       <r>  11.0556   2.8030  51.1579 </r>
       <r>  11.1186   3.1017  51.3533 </r>
       <r>  11.1816   2.2188  51.4930 </r>
       <r>  11.2446   0.8273  51.5451 </r>
       <r>  11.3076   0.1514  51.5547 </r>
       <r>  11.3705   0.0133  51.5555 </r>
       <r>  11.4335   0.0005  51.5556 </r>
       <r>  11.4965   0.0000  51.5556 </r>
       <r>  11.5595   0.0000  51.5556 </r>
       <r>  11.6225   0.0000  51.5556 </r>
       <r>  11.6855   0.0000  51.5556 </r>
       <r>  11.7485   0.0000  51.5556 </r>
       <r>  11.8115   0.0000  51.5556 </r>
       <r>  11.8744   0.0000  51.5556 </r>
       <r>  11.9374   0.0000  51.5556 </r>
       <r>  12.0004   0.0000  51.5556 </r>
       <r>  12.0634   0.0000  51.5556 </r>
       <r>  12.1264   0.0011  51.5556 </r>
       <r>  12.1894   0.0199  51.5569 </r>
       <r>  12.2524   0.1637  51.5672 </r>
       <r>  12.3154   0.6350  51.6072 </r>
       <r>  12.3783   1.1770  51.6813 </r>
       <r>  12.4413   1.1164  51.7516 </r>
       <r>  12.5043   0.8814  51.8072 </r>
       <r>  12.5673   1.1342  51.8786 </r>
       <r>  12.6303   1.1593  51.9516 </r>
       <r>  12.6933   0.6010  51.9895 </r>
       <r>  12.7563   0.1487  51.9988 </r>
       <r>  12.8193   0.0174  51.9999 </r>
       <r>  12.8823   0.0010  52.0000 </r>
       <r>  12.9452   0.0000  52.0000 </r>
       <r>  13.0082   0.0000  52.0000 </r>
       <r>  13.0712   0.0000  52.0000 </r>
       <r>  13.1342   0.0000  52.0000 </r>
       <r>  13.1972   0.0000  52.0000 </r>
       <r>  13.2602   0.0000  52.0000 </r>
       <r>  13.3232   0.0000  52.0000 </r>
       <r>  13.3862   0.0000  52.0000 </r>
       <r>  13.4491   0.0000  52.0000 </r>
       <r>  13.5121   0.0000  52.0000 </r>
       <r>  13.5751   0.0000  52.0000 </r>
      </set>
     </set>
    </array>
   </total>
   <partial>
    <array>
     <dimension dim="1">gridpoints</dimension>
     <dimension dim="2">spin</dimension>
     <dimension dim="3">ion</dimension>
     <field>energy</field>
     <field>  s</field>
     <field> py</field>
     <field> pz</field>
     <field> px</field>
     <field>dxy</field>
     <field>dyz</field>
     <field>dz2</field>
     <field>dxz</field>
     <field>dx2</field>
     <set>
      <set comment="ion 1">
       <set comment="spin 1">
        <r>  -5.3213   0.0000   0.0000   0.0000   0.0000   0.0000   0.0000   0.0000   0.0000   0.0000 </r>
        <r>  -5.2583   0.0000   0.0000   0.0000   0.0000   0.0000   0.0000   0.0000   0.0000   0.0000 </r>
        <r>  -5.1953   0.0000   0.0000   0.0000   0.0000   0.0000   0.0000   0.0000   0.0000   0.0000 </r>
        <r>  -5.1323   0.0000   0.0000   0.0000   0.0000   0.0000   0.0000   0.0000   0.0000   0.0000 </r>
        <r>  -5.0693   0.0000   0.0000   0.0000   0.0000   0.0000   0.0000   0.0000   0.0000   0.0000 </r>
        <r>  -5.0063   0.0000   0.0000   0.0000   0.0000   0.0000   0.0000   0.0000   0.0000   0.0000 </r>
        <r>  -4.9434   0.0000   0.0000   0.0000   0.0000   0.0000   0.0000   0.0000   0.0000   0.0000 </r>
        <r>  -4.8804   0.0000   0.0000   0.0000   0.0000   0.0000   0.0000   0.0000   0.0000   0.0000 </r>
        <r>  -4.8174   0.0000   0.0000   0.0000   0.0000   0.0000   0.0000   0.0000   0.0000   0.0000 </r>
        <r>  -4.7544   0.0000   0.0000   0.0000   0.0000   0.0000   0.0000   0.0000   0.0000   0.0000 </r>
        <r>  -4.6914   0.0000   0.0000   0.0000   0.0000   0.0000   0.0000   0.0000   0.0000   0.0000 </r>
        <r>  -4.6284   0.0000   0.0000   0.0000   0.0000   0.0000   0.0000   0.0000   0.0000   0.0000 </r>
        <r>  -4.5654   0.0001   0.0000   0.0000   0.0000   0.0000   0.0000   0.0000   0.0000   0.0000 </r>
        <r>  -4.5024   0.0010   0.0000   0.0000   0.0000   0.0000   0.0000   0.0000   0.0000   0.0000 </r>
        <r>  -4.4395   0.0082   0.0000   0.0000   0.0001   0.0000   0.0000   0.0000   0.0000   0.0001 </r>
        <r>  -4.3765   0.0331   0.0001   0.0001   0.0003   0.0000   0.0000   0.0002   0.0000   0.0005 </r>
        <r>  -4.3135   0.0634   0.0003   0.0003   0.0005   0.0001   0.0000   0.0003   0.0001   0.0010 </r>
        <r>  -4.2505   0.0578   0.0002   0.0002   0.0004   0.0000   0.0000   0.0003   0.0000   0.0009 </r>
        <r>  -4.1875   0.0251   0.0001   0.0001   0.0002   0.0000   0.0000   0.0001   0.0000   0.0004 </r>
        <r>  -4.1245   0.0052   0.0000   0.0000   0.0000   0.0000   0.0000   0.0000   0.0000   0.0001 </r>
        <r>  -4.0615   0.0005   0.0000   0.0000   0.0000   0.0000   0.0000   0.0000   0.0000   0.0000 </r>
        <r>  -3.9985   0.0001   0.0000   0.0000   0.0000   0.0000   0.0000   0.0000   0.0000   0.0000 </r>
        <r>  -3.9355   0.0008   0.0000   0.0000   0.0001   0.0000   0.0000   0.0000   0.0000   0.0000 </r>
        <r>  -3.8726   0.0095   0.0000   0.0000   0.0007   0.0001   0.0000   0.0000   0.0001   0.0001 </r>
        <r>  -3.8096   0.0526   0.0002   0.0002   0.0041   0.0005   0.0000   0.0001   0.0005   0.0004 </r>
        <r>  -3.7466   0.1378   0.0005   0.0005   0.0107   0.0013   0.0000   0.0003   0.0013   0.0009 </r>
        <r>  -3.6836   0.1717   0.0006   0.0006   0.0134   0.0016   0.0000   0.0004   0.0016   0.0011 </r>
        <r>  -3.6206   0.1018   0.0004   0.0004   0.0079   0.0010   0.0000   0.0002   0.0010   0.0007 </r>
        <r>  -3.5576   0.0286   0.0001   0.0001   0.0022   0.0003   0.0000   0.0001   0.0003   0.0002 </r>
        <r>  -3.4946   0.0038   0.0000   0.0000   0.0003   0.0000   0.0000   0.0000   0.0000   0.0000 </r>
        <r>  -3.4316   0.0004   0.0000   0.0000   0.0000   0.0000   0.0000   0.0000   0.0000   0.0000 </r>
        <r>  -3.3687   0.0034   0.0001   0.0000   0.0002   0.0003   0.0000   0.0000   0.0001   0.0001 </r>
        <r>  -3.3057   0.0266   0.0007   0.0001   0.0017   0.0023   0.0000   0.0000   0.0005   0.0007 </r>
        <r>  -3.2427   0.0982   0.0027   0.0003   0.0061   0.0085   0.0001   0.0000   0.0017   0.0025 </r>
        <r>  -3.1797   0.1718   0.0047   0.0006   0.0107   0.0149   0.0002   0.0000   0.0030   0.0043 </r>
        <r>  -3.1167   0.1431   0.0039   0.0005   0.0089   0.0124   0.0002   0.0000   0.0025   0.0036 </r>
        <r>  -3.0537   0.0567   0.0016   0.0002   0.0035   0.0049   0.0001   0.0000   0.0010   0.0014 </r>
        <r>  -2.9907   0.0114   0.0003   0.0001   0.0007   0.0011   0.0000   0.0000   0.0003   0.0003 </r>
        <r>  -2.9277   0.0084   0.0002   0.0002   0.0007   0.0012   0.0001   0.0001   0.0011   0.0002 </r>
        <r>  -2.8648   0.0342   0.0007   0.0007   0.0047   0.0047   0.0003   0.0003   0.0047   0.0009 </r>
        <r>  -2.8018   0.0847   0.0014   0.0014   0.0184   0.0102   0.0006   0.0005   0.0102   0.0016 </r>
        <r>  -2.7388   0.1191   0.0014   0.0014   0.0370   0.0120   0.0005   0.0005   0.0120   0.0015 </r>
        <r>  -2.6758   0.0948   0.0007   0.0007   0.0368   0.0079   0.0002   0.0002   0.0079   0.0007 </r>
        <r>  -2.6128   0.0407   0.0002   0.0002   0.0177   0.0030   0.0001   0.0001   0.0030   0.0002 </r>
        <r>  -2.5498   0.0090   0.0000   0.0000   0.0041   0.0007   0.0000   0.0000   0.0006   0.0000 </r>
        <r>  -2.4868   0.0034   0.0000   0.0000   0.0013   0.0015   0.0000   0.0000   0.0003   0.0000 </r>
        <r>  -2.4238   0.0219   0.0003   0.0000   0.0071   0.0128   0.0001   0.0000   0.0023   0.0000 </r>
        <r>  -2.3608   0.0916   0.0015   0.0001   0.0295   0.0540   0.0004   0.0000   0.0106   0.0001 </r>
        <r>  -2.2979   0.1890   0.0029   0.0003   0.0598   0.1136   0.0010   0.0001   0.0288   0.0004 </r>
        <r>  -2.2349   0.2104   0.0030   0.0006   0.0633   0.1342   0.0018   0.0007   0.0552   0.0022 </r>
        <r>  -2.1719   0.1521   0.0019   0.0008   0.0409   0.1083   0.0024   0.0041   0.0733   0.0122 </r>
        <r>  -2.1089   0.0838   0.0009   0.0006   0.0192   0.0678   0.0024   0.0141   0.0602   0.0424 </r>
        <r>  -2.0459   0.0499   0.0005   0.0004   0.0069   0.0510   0.0052   0.0247   0.0484   0.0745 </r>
        <r>  -1.9829   0.0727   0.0008   0.0003   0.0038   0.0860   0.0217   0.0213   0.0779   0.0655 </r>
        <r>  -1.9199   0.1113   0.0014   0.0004   0.0052   0.1312   0.0613   0.0102   0.1149   0.0335 </r>
        <r>  -1.8569   0.1067   0.0015   0.0005   0.0059   0.1292   0.0909   0.0094   0.1120   0.0309 </r>
        <r>  -1.7940   0.0901   0.0015   0.0008   0.0082   0.1210   0.0670   0.0298   0.0994   0.0905 </r>
        <r>  -1.7310   0.1194   0.0024   0.0010   0.0153   0.1602   0.0289   0.0600   0.0980   0.1804 </r>
        <r>  -1.6680   0.1618   0.0042   0.0009   0.0198   0.2012   0.0397   0.0591   0.0743   0.1785 </r>
        <r>  -1.6050   0.1681   0.0067   0.0009   0.0155   0.2026   0.1325   0.0323   0.0415   0.0973 </r>
        <r>  -1.5420   0.2011   0.0098   0.0016   0.0122   0.2178   0.2502   0.0332   0.0303   0.0889 </r>
        <r>  -1.4790   0.2929   0.0115   0.0028   0.0176   0.2457   0.2759   0.0806   0.0573   0.1939 </r>
        <r>  -1.4160   0.3185   0.0110   0.0043   0.0224   0.2460   0.2613   0.1247   0.1477   0.2767 </r>
        <r>  -1.3530   0.2676   0.0094   0.0056   0.0205   0.2662   0.2592   0.1201   0.2895   0.2246 </r>
        <r>  -1.2901   0.3308   0.0100   0.0074   0.0237   0.2948   0.2561   0.1269   0.3782   0.1611 </r>
        <r>  -1.2271   0.5113   0.0136   0.0093   0.0323   0.3296   0.2664   0.1772   0.3331   0.1751 </r>
        <r>  -1.1641   0.5275   0.0133   0.0087   0.0319   0.4205   0.2176   0.1897   0.2841   0.1632 </r>
        <r>  -1.1011   0.3390   0.0110   0.0074   0.0225   0.5217   0.1596   0.1787   0.4143   0.1073 </r>
        <r>  -1.0381   0.1804   0.0174   0.0092   0.0162   0.6022   0.2006   0.2229   0.6012   0.0996 </r>
        <r>  -0.9751   0.1406   0.0327   0.0117   0.0161   0.6756   0.2784   0.2643   0.5883   0.1389 </r>
        <r>  -0.9121   0.1208   0.0379   0.0105   0.0149   0.6530   0.2664   0.2371   0.4810   0.1472 </r>
        <r>  -0.8491   0.0710   0.0238   0.0070   0.0166   0.5244   0.1705   0.2452   0.4934   0.1338 </r>
        <r>  -0.7861   0.0357   0.0101   0.0066   0.0308   0.3807   0.1258   0.3942   0.5949   0.1767 </r>
        <r>  -0.7232   0.0278   0.0087   0.0101   0.0421   0.2851   0.1368   0.4920   0.6319   0.2028 </r>
        <r>  -0.6602   0.0230   0.0176   0.0164   0.0367   0.2513   0.1344   0.3815   0.5156   0.1318 </r>
        <r>  -0.5972   0.0147   0.0303   0.0238   0.0266   0.2888   0.1115   0.2492   0.3785   0.0693 </r>
        <r>  -0.5342   0.0085   0.0366   0.0283   0.0190   0.3994   0.0772   0.2480   0.3186   0.0996 </r>
        <r>  -0.4712   0.0073   0.0346   0.0276   0.0185   0.5316   0.0603   0.3328   0.2911   0.1798 </r>
        <r>  -0.4082   0.0070   0.0239   0.0199   0.0208   0.4804   0.0592   0.3156   0.2087   0.1873 </r>
        <r>  -0.3452   0.0056   0.0103   0.0091   0.0193   0.2382   0.0642   0.2131   0.0941   0.1107 </r>
        <r>  -0.2822   0.0058   0.0041   0.0035   0.0196   0.0725   0.0842   0.2370   0.0347   0.0699 </r>
        <r>  -0.2193   0.0078   0.0059   0.0048   0.0196   0.0940   0.0926   0.5245   0.0490   0.1165 </r>
        <r>  -0.1563   0.0129   0.0135   0.0097   0.0222   0.3294   0.1113   1.1597   0.1360   0.2318 </r>
        <r>  -0.0933   0.0204   0.0242   0.0137   0.0315   0.7044   0.1825   1.8416   0.2629   0.3375 </r>
        <r>  -0.0303   0.0233   0.0357   0.0169   0.0325   0.8303   0.2650   2.2094   0.3507   0.4171 </r>
        <r>   0.0327   0.0227   0.0443   0.0204   0.0217   0.5739   0.3735   2.1286   0.4042   0.4548 </r>
        <r>   0.0957   0.0272   0.0381   0.0191   0.0148   0.3605   0.6320   1.4275   0.5325   0.3581 </r>
        <r>   0.1587   0.0364   0.0214   0.0174   0.0172   0.3808   1.0481   0.5968   0.7408   0.2432 </r>
        <r>   0.2217   0.0375   0.0097   0.0217   0.0180   0.4177   1.2865   0.2104   0.7664   0.2421 </r>
        <r>   0.2846   0.0263   0.0047   0.0226   0.0136   0.3722   1.0745   0.1059   0.5648   0.2977 </r>
        <r>   0.3476   0.0144   0.0050   0.0198   0.0094   0.3647   0.6236   0.0568   0.4477   0.2956 </r>
        <r>   0.4106   0.0188   0.0106   0.0317   0.0103   0.4776   0.5013   0.0589   0.6254   0.3302 </r>
        <r>   0.4736   0.0469   0.0214   0.0597   0.0197   0.6023   0.8687   0.1351   0.9643   0.5653 </r>
        <r>   0.5366   0.0709   0.0333   0.0720   0.0269   0.5944   1.0241   0.2468   1.0402   0.7172 </r>
        <r>   0.5996   0.0668   0.0345   0.0504   0.0237   0.4876   0.6104   0.2838   0.6675   0.5218 </r>
        <r>   0.6626   0.0586   0.0260   0.0217   0.0188   0.4314   0.2257   0.2386   0.2634   0.2769 </r>
        <r>   0.7256   0.0511   0.0187   0.0103   0.0140   0.3411   0.1782   0.2053   0.1126   0.2639 </r>
        <r>   0.7886   0.0366   0.0179   0.0113   0.0120   0.2102   0.3087   0.2002   0.1100   0.4555 </r>
        <r>   0.8515   0.0293   0.0183   0.0158   0.0201   0.2132   0.4923   0.2292   0.1765   0.8700 </r>
        <r>   0.9145   0.0328   0.0135   0.0186   0.0271   0.2976   0.6805   0.2942   0.2772   1.3100 </r>
        <r>   0.9775   0.0345   0.0082   0.0146   0.0217   0.2939   0.8362   0.3427   0.2988   1.3997 </r>
        <r>   1.0405   0.0287   0.0065   0.0103   0.0191   0.2056   0.8795   0.3373   0.2474   1.3182 </r>
        <r>   1.1035   0.0201   0.0056   0.0127   0.0369   0.1405   0.7661   0.2706   0.2512   1.2117 </r>
        <r>   1.1665   0.0151   0.0044   0.0205   0.0668   0.1472   0.7504   0.2267   0.3353   1.0301 </r>
        <r>   1.2295   0.0111   0.0047   0.0265   0.0789   0.1812   0.8712   0.2375   0.3773   0.7476 </r>
        <r>   1.2925   0.0070   0.0062   0.0262   0.0574   0.1711   0.7816   0.2193   0.3047   0.4234 </r>
        <r>   1.3554   0.0061   0.0084   0.0261   0.0242   0.1184   0.5117   0.1555   0.2083   0.2132 </r>
        <r>   1.4184   0.0081   0.0096   0.0272   0.0068   0.0813   0.3653   0.1009   0.1636   0.2027 </r>
        <r>   1.4814   0.0117   0.0084   0.0221   0.0069   0.0957   0.3868   0.1128   0.1616   0.4807 </r>
        <r>   1.5444   0.0204   0.0093   0.0194   0.0177   0.1874   0.6306   0.2197   0.2465   1.0120 </r>
        <r>   1.6074   0.0290   0.0126   0.0220   0.0274   0.2814   0.9654   0.3075   0.3606   1.2212 </r>
        <r>   1.6704   0.0284   0.0152   0.0216   0.0257   0.2867   0.9370   0.2959   0.3757   0.8379 </r>
        <r>   1.7334   0.0233   0.0196   0.0214   0.0214   0.2625   0.5202   0.3022   0.3180   0.4043 </r>
        <r>   1.7964   0.0301   0.0251   0.0223   0.0277   0.2458   0.1632   0.3380   0.2425   0.2591 </r>
        <r>   1.8593   0.0474   0.0242   0.0187   0.0354   0.1859   0.0406   0.3165   0.1688   0.3023 </r>
        <r>   1.9223   0.0445   0.0149   0.0115   0.0266   0.0919   0.0214   0.3022   0.1747   0.3534 </r>
        <r>   1.9853   0.0222   0.0077   0.0064   0.0115   0.0304   0.0210   0.3128   0.3152   0.3276 </r>
        <r>   2.0483   0.0086   0.0146   0.0049   0.0044   0.0174   0.0228   0.2385   0.4233   0.2333 </r>
        <r>   2.1113   0.0130   0.0379   0.0062   0.0040   0.0308   0.0203   0.1272   0.3123   0.1972 </r>
        <r>   2.1743   0.0368   0.0665   0.0141   0.0086   0.0556   0.0254   0.1102   0.1450   0.3253 </r>
        <r>   2.2373   0.0624   0.0873   0.0271   0.0153   0.0682   0.0412   0.1584   0.0803   0.4786 </r>
        <r>   2.3003   0.0556   0.0866   0.0310   0.0172   0.0498   0.0428   0.1786   0.0610   0.4174 </r>
        <r>   2.3633   0.0274   0.0607   0.0212   0.0146   0.0324   0.0261   0.1807   0.0964   0.2328 </r>
        <r>   2.4262   0.0124   0.0315   0.0106   0.0188   0.0507   0.0142   0.1547   0.2644   0.1340 </r>
        <r>   2.4892   0.0131   0.0167   0.0066   0.0307   0.0795   0.0119   0.0898   0.4481   0.1035 </r>
        <r>   2.5522   0.0155   0.0100   0.0060   0.0347   0.0854   0.0090   0.0568   0.4621   0.0775 </r>
        <r>   2.6152   0.0165   0.0071   0.0077   0.0306   0.1223   0.0062   0.0897   0.4558   0.0728 </r>
        <r>   2.6782   0.0160   0.0078   0.0101   0.0252   0.2419   0.0094   0.1489   0.5408   0.0931 </r>
        <r>   2.7412   0.0124   0.0080   0.0106   0.0165   0.3581   0.0222   0.1789   0.6120   0.1093 </r>
        <r>   2.8042   0.0108   0.0077   0.0096   0.0095   0.3582   0.0487   0.2009   0.5510   0.1284 </r>
        <r>   2.8672   0.0143   0.0102   0.0106   0.0083   0.2930   0.0792   0.2941   0.3913   0.1775 </r>
        <r>   2.9301   0.0184   0.0138   0.0132   0.0097   0.2720   0.0938   0.4619   0.2731   0.2398 </r>
        <r>   2.9931   0.0164   0.0125   0.0123   0.0091   0.2714   0.1622   0.5450   0.2067   0.2735 </r>
        <r>   3.0561   0.0099   0.0079   0.0092   0.0063   0.2407   0.3954   0.4415   0.1884   0.2835 </r>
        <r>   3.1191   0.0059   0.0047   0.0072   0.0038   0.2045   0.6340   0.2942   0.1947   0.2737 </r>
        <r>   3.1821   0.0049   0.0027   0.0047   0.0023   0.1617   0.6418   0.1900   0.1603   0.2115 </r>
        <r>   3.2451   0.0066   0.0023   0.0027   0.0022   0.1149   0.5910   0.1129   0.0907   0.1172 </r>
        <r>   3.3081   0.0126   0.0040   0.0027   0.0042   0.1076   0.5707   0.0828   0.0403   0.0471 </r>
        <r>   3.3711   0.0193   0.0053   0.0028   0.0065   0.1177   0.3758   0.0831   0.0167   0.0148 </r>
        <r>   3.4341   0.0326   0.0062   0.0019   0.0108   0.1430   0.1297   0.1008   0.0059   0.0042 </r>
        <r>   3.4970   0.0639   0.0095   0.0014   0.0211   0.2310   0.0234   0.1617   0.0032   0.0029 </r>
        <r>   3.5600   0.0789   0.0110   0.0016   0.0265   0.2652   0.0045   0.1836   0.0049   0.0047 </r>
        <r>   3.6230   0.0572   0.0081   0.0026   0.0208   0.1659   0.0035   0.1096   0.0139   0.0116 </r>
        <r>   3.6860   0.0441   0.0069   0.0054   0.0196   0.0781   0.0056   0.0392   0.0350   0.0281 </r>
        <r>   3.7490   0.0476   0.0073   0.0071   0.0251   0.0555   0.0069   0.0171   0.0497   0.0391 </r>
        <r>   3.8120   0.0507   0.0051   0.0051   0.0347   0.0472   0.0044   0.0119   0.0469   0.0348 </r>
        <r>   3.8750   0.0599   0.0028   0.0028   0.0500   0.0460   0.0014   0.0104   0.0459   0.0313 </r>
        <r>   3.9380   0.0526   0.0016   0.0016   0.0461   0.0379   0.0003   0.0083   0.0379   0.0250 </r>
        <r>   4.0009   0.0242   0.0007   0.0007   0.0214   0.0173   0.0001   0.0038   0.0173   0.0113 </r>
        <r>   4.0639   0.0054   0.0002   0.0002   0.0048   0.0038   0.0000   0.0008   0.0038   0.0025 </r>
        <r>   4.1269   0.0006   0.0001   0.0000   0.0006   0.0004   0.0000   0.0001   0.0004   0.0003 </r>
        <r>   4.1899   0.0003   0.0011   0.0000   0.0008   0.0006   0.0000   0.0002   0.0000   0.0003 </r>
        <r>   4.2529   0.0018   0.0071   0.0000   0.0051   0.0036   0.0000   0.0011   0.0002   0.0016 </r>
        <r>   4.3159   0.0052   0.0232   0.0002   0.0170   0.0105   0.0000   0.0033   0.0008   0.0058 </r>
        <r>   4.3789   0.0078   0.0443   0.0005   0.0335   0.0154   0.0001   0.0048   0.0022   0.0134 </r>
        <r>   4.4419   0.0065   0.0554   0.0010   0.0439   0.0123   0.0002   0.0038   0.0038   0.0204 </r>
        <r>   4.5048   0.0040   0.0447   0.0016   0.0387   0.0072   0.0004   0.0026   0.0037   0.0190 </r>
        <r>   4.5678   0.0078   0.0228   0.0043   0.0298   0.0167   0.0013   0.0089   0.0024   0.0126 </r>
        <r>   4.6308   0.0413   0.0140   0.0134   0.0327   0.0960   0.0042   0.0487   0.0043   0.0114 </r>
        <r>   4.6938   0.1271   0.0214   0.0336   0.0299   0.2987   0.0099   0.1475   0.0138   0.0123 </r>
        <r>   4.7568   0.1906   0.0339   0.0532   0.0165   0.4489   0.0155   0.2213   0.0251   0.0122 </r>
        <r>   4.8198   0.1384   0.0383   0.0450   0.0137   0.3251   0.0135   0.1617   0.0234   0.0165 </r>
        <r>   4.8828   0.0494   0.0412   0.0189   0.0292   0.1138   0.0070   0.0574   0.0132   0.0303 </r>
        <r>   4.9458   0.0104   0.0430   0.0040   0.0403   0.0207   0.0033   0.0103   0.0071   0.0392 </r>
        <r>   5.0088   0.0075   0.0278   0.0005   0.0275   0.0119   0.0017   0.0038   0.0039   0.0260 </r>
        <r>   5.0717   0.0323   0.0114   0.0005   0.0118   0.0552   0.0014   0.0158   0.0028   0.0083 </r>
        <r>   5.1347   0.0855   0.0089   0.0012   0.0098   0.1476   0.0026   0.0422   0.0046   0.0013 </r>
        <r>   5.1977   0.1090   0.0098   0.0015   0.0109   0.1883   0.0032   0.0538   0.0057   0.0001 </r>
        <r>   5.2607   0.0662   0.0059   0.0009   0.0066   0.1143   0.0020   0.0327   0.0035   0.0000 </r>
        <r>   5.3237   0.0191   0.0017   0.0003   0.0019   0.0330   0.0006   0.0094   0.0010   0.0000 </r>
        <r>   5.3867   0.0026   0.0002   0.0000   0.0003   0.0045   0.0001   0.0013   0.0001   0.0000 </r>
        <r>   5.4497   0.0002   0.0000   0.0000   0.0000   0.0003   0.0000   0.0001   0.0000   0.0000 </r>
        <r>   5.5127   0.0000   0.0001   0.0001   0.0001   0.0000   0.0001   0.0000   0.0000   0.0001 </r>
        <r>   5.5756   0.0004   0.0007   0.0007   0.0014   0.0001   0.0010   0.0003   0.0001   0.0009 </r>
        <r>   5.6386   0.0030   0.0033   0.0033   0.0066   0.0009   0.0050   0.0018   0.0009   0.0043 </r>
        <r>   5.7016   0.0128   0.0091   0.0090   0.0154   0.0065   0.0122   0.0063   0.0062   0.0107 </r>
        <r>   5.7646   0.0365   0.0165   0.0154   0.0183   0.0247   0.0163   0.0155   0.0212   0.0150 </r>
        <r>   5.8276   0.0680   0.0259   0.0186   0.0146   0.0584   0.0137   0.0288   0.0348   0.0138 </r>
        <r>   5.8906   0.0969   0.0469   0.0227   0.0195   0.1081   0.0089   0.0478   0.0291   0.0094 </r>
        <r>   5.9536   0.1187   0.0848   0.0428   0.0428   0.1577   0.0075   0.0722   0.0184   0.0072 </r>
        <r>   6.0166   0.1082   0.1071   0.0655   0.0632   0.1571   0.0083   0.0804   0.0164   0.0074 </r>
        <r>   6.0795   0.0634   0.0776   0.0529   0.0487   0.0984   0.0059   0.0555   0.0122   0.0053 </r>
        <r>   6.1425   0.0237   0.0308   0.0208   0.0190   0.0421   0.0022   0.0223   0.0047   0.0025 </r>
        <r>   6.2055   0.0195   0.0162   0.0042   0.0062   0.0567   0.0008   0.0129   0.0009   0.0043 </r>
        <r>   6.2685   0.0524   0.0359   0.0012   0.0096   0.1674   0.0015   0.0298   0.0002   0.0132 </r>
        <r>   6.3315   0.0823   0.0560   0.0013   0.0147   0.2636   0.0024   0.0464   0.0001   0.0208 </r>
        <r>   6.3945   0.0619   0.0421   0.0010   0.0111   0.1982   0.0018   0.0349   0.0001   0.0157 </r>
        <r>   6.4575   0.0221   0.0151   0.0004   0.0040   0.0708   0.0006   0.0125   0.0000   0.0056 </r>
        <r>   6.5205   0.0037   0.0025   0.0001   0.0007   0.0120   0.0001   0.0021   0.0000   0.0009 </r>
        <r>   6.5835   0.0003   0.0002   0.0000   0.0001   0.0010   0.0000   0.0002   0.0000   0.0001 </r>
        <r>   6.6464   0.0000   0.0007   0.0007   0.0000   0.0004   0.0000   0.0008   0.0003   0.0003 </r>
        <r>   6.7094   0.0005   0.0059   0.0059   0.0003   0.0031   0.0001   0.0071   0.0031   0.0024 </r>
        <r>   6.7724   0.0051   0.0246   0.0246   0.0026   0.0150   0.0013   0.0296   0.0150   0.0100 </r>
        <r>   6.8354   0.0241   0.0496   0.0496   0.0126   0.0388   0.0062   0.0585   0.0388   0.0201 </r>
        <r>   6.8984   0.0544   0.0492   0.0492   0.0285   0.0573   0.0140   0.0551   0.0573   0.0197 </r>
        <r>   6.9614   0.0585   0.0248   0.0248   0.0307   0.0480   0.0150   0.0249   0.0480   0.0097 </r>
        <r>   7.0244   0.0299   0.0068   0.0068   0.0157   0.0217   0.0077   0.0054   0.0217   0.0025 </r>
        <r>   7.0874   0.0073   0.0014   0.0014   0.0038   0.0052   0.0019   0.0008   0.0052   0.0004 </r>
        <r>   7.1503   0.0010   0.0038   0.0038   0.0004   0.0033   0.0002   0.0019   0.0033   0.0007 </r>
        <r>   7.2133   0.0022   0.0194   0.0194   0.0001   0.0144   0.0003   0.0094   0.0144   0.0032 </r>
        <r>   7.2763   0.0137   0.0516   0.0516   0.0005   0.0383   0.0021   0.0219   0.0383   0.0078 </r>
        <r>   7.3393   0.0415   0.0770   0.0770   0.0014   0.0572   0.0064   0.0246   0.0572   0.0098 </r>
        <r>   7.4023   0.0600   0.0694   0.0694   0.0020   0.0516   0.0093   0.0135   0.0516   0.0067 </r>
        <r>   7.4653   0.0413   0.0372   0.0372   0.0014   0.0277   0.0064   0.0037   0.0277   0.0028 </r>
        <r>   7.5283   0.0138   0.0110   0.0109   0.0005   0.0083   0.0021   0.0006   0.0081   0.0007 </r>
        <r>   7.5913   0.0074   0.0037   0.0017   0.0004   0.0031   0.0004   0.0008   0.0013   0.0005 </r>
        <r>   7.6542   0.0407   0.0160   0.0006   0.0022   0.0146   0.0004   0.0053   0.0009   0.0031 </r>
        <r>   7.7172   0.1514   0.0563   0.0020   0.0078   0.0540   0.0014   0.0187   0.0054   0.0111 </r>
        <r>   7.7802   0.2868   0.0957   0.0047   0.0132   0.1013   0.0024   0.0315   0.0198   0.0188 </r>
        <r>   7.8432   0.2931   0.0790   0.0063   0.0106   0.1019   0.0020   0.0253   0.0368   0.0152 </r>
        <r>   7.9062   0.1709   0.0323   0.0047   0.0041   0.0582   0.0009   0.0097   0.0335   0.0060 </r>
        <r>   7.9692   0.0572   0.0069   0.0019   0.0008   0.0191   0.0002   0.0018   0.0147   0.0012 </r>
        <r>   8.0322   0.0104   0.0008   0.0004   0.0001   0.0035   0.0000   0.0002   0.0031   0.0001 </r>
        <r>   8.0952   0.0014   0.0002   0.0005   0.0000   0.0005   0.0001   0.0001   0.0007   0.0000 </r>
        <r>   8.1582   0.0060   0.0015   0.0059   0.0002   0.0028   0.0016   0.0017   0.0051   0.0003 </r>
        <r>   8.2211   0.0389   0.0084   0.0356   0.0015   0.0169   0.0103   0.0104   0.0311   0.0016 </r>
        <r>   8.2841   0.1217   0.0231   0.1022   0.0050   0.0483   0.0308   0.0295   0.0906   0.0045 </r>
        <r>   8.3471   0.1823   0.0302   0.1401   0.0079   0.0662   0.0444   0.0400   0.1266   0.0059 </r>
        <r>   8.4101   0.1310   0.0188   0.0920   0.0059   0.0437   0.0307   0.0260   0.0850   0.0037 </r>
        <r>   8.4731   0.0457   0.0062   0.0295   0.0022   0.0151   0.0102   0.0085   0.0287   0.0012 </r>
        <r>   8.5361   0.0162   0.0052   0.0087   0.0011   0.0109   0.0023   0.0044   0.0130   0.0013 </r>
        <r>   8.5991   0.0556   0.0150   0.0152   0.0047   0.0282   0.0041   0.0102   0.0284   0.0035 </r>
        <r>   8.6621   0.1634   0.0258   0.0258   0.0138   0.0433   0.0118   0.0150   0.0433   0.0054 </r>
        <r>   8.7250   0.2380   0.0248   0.0248   0.0196   0.0341   0.0168   0.0108   0.0341   0.0047 </r>
        <r>   8.7880   0.2055   0.0199   0.0199   0.0137   0.0190   0.0123   0.0046   0.0190   0.0046 </r>
        <r>   8.8510   0.1837   0.0253   0.0253   0.0061   0.0186   0.0066   0.0032   0.0186   0.0081 </r>
        <r>   8.9140   0.1715   0.0276   0.0276   0.0030   0.0198   0.0043   0.0032   0.0198   0.0095 </r>
        <r>   8.9770   0.0953   0.0157   0.0157   0.0014   0.0113   0.0022   0.0018   0.0113   0.0055 </r>
        <r>   9.0400   0.0260   0.0043   0.0043   0.0004   0.0031   0.0006   0.0005   0.0031   0.0015 </r>
        <r>   9.1030   0.0034   0.0006   0.0006   0.0000   0.0004   0.0001   0.0001   0.0004   0.0002 </r>
        <r>   9.1660   0.0002   0.0000   0.0000   0.0000   0.0000   0.0000   0.0000   0.0000   0.0000 </r>
        <r>   9.2289   0.0002   0.0001   0.0001   0.0000   0.0001   0.0000   0.0000   0.0000   0.0000 </r>
        <r>   9.2919   0.0028   0.0011   0.0009   0.0007   0.0010   0.0000   0.0001   0.0000   0.0000 </r>
        <r>   9.3549   0.0180   0.0071   0.0057   0.0045   0.0067   0.0003   0.0005   0.0002   0.0001 </r>
        <r>   9.4179   0.0564   0.0218   0.0180   0.0137   0.0208   0.0009   0.0017   0.0007   0.0002 </r>
        <r>   9.4809   0.0934   0.0319   0.0303   0.0201   0.0323   0.0015   0.0029   0.0011   0.0003 </r>
        <r>   9.5439   0.1198   0.0225   0.0420   0.0142   0.0318   0.0016   0.0048   0.0014   0.0003 </r>
        <r>   9.6069   0.1727   0.0094   0.0709   0.0062   0.0324   0.0033   0.0115   0.0063   0.0003 </r>
        <r>   9.6699   0.1978   0.0095   0.1142   0.0081   0.0298   0.0102   0.0296   0.0281   0.0006 </r>
        <r>   9.7329   0.1573   0.0185   0.1551   0.0169   0.0160   0.0213   0.0558   0.0647   0.0010 </r>
        <r>   9.7958   0.0990   0.0202   0.1443   0.0186   0.0048   0.0230   0.0586   0.0714   0.0010 </r>
        <r>   9.8588   0.0432   0.0106   0.0728   0.0098   0.0010   0.0120   0.0305   0.0376   0.0005 </r>
        <r>   9.9218   0.0104   0.0026   0.0180   0.0025   0.0002   0.0030   0.0076   0.0094   0.0001 </r>
        <r>   9.9848   0.0034   0.0003   0.0021   0.0006   0.0005   0.0004   0.0009   0.0016   0.0002 </r>
        <r>  10.0478   0.0185   0.0002   0.0003   0.0025   0.0045   0.0001   0.0004   0.0045   0.0012 </r>
        <r>  10.1108   0.0755   0.0020   0.0020   0.0096   0.0181   0.0003   0.0016   0.0181   0.0046 </r>
        <r>  10.1738   0.1570   0.0100   0.0100   0.0180   0.0363   0.0016   0.0035   0.0363   0.0088 </r>
        <r>  10.2368   0.1766   0.0268   0.0268   0.0162   0.0383   0.0037   0.0053   0.0383   0.0085 </r>
        <r>  10.2997   0.1155   0.0497   0.0497   0.0072   0.0233   0.0041   0.0107   0.0233   0.0065 </r>
        <r>  10.3627   0.0445   0.0752   0.0752   0.0016   0.0093   0.0021   0.0212   0.0093   0.0077 </r>
        <r>  10.4257   0.0095   0.0755   0.0756   0.0002   0.0031   0.0005   0.0235   0.0031   0.0079 </r>
        <r>  10.4887   0.0010   0.0401   0.0401   0.0000   0.0010   0.0001   0.0128   0.0010   0.0043 </r>
        <r>  10.5517   0.0003   0.0104   0.0104   0.0000   0.0002   0.0000   0.0033   0.0002   0.0011 </r>
        <r>  10.6147   0.0042   0.0013   0.0013   0.0002   0.0001   0.0000   0.0005   0.0001   0.0003 </r>
        <r>  10.6777   0.0359   0.0006   0.0006   0.0016   0.0007   0.0000   0.0007   0.0007   0.0017 </r>
        <r>  10.7407   0.1468   0.0030   0.0039   0.0065   0.0029   0.0005   0.0033   0.0033   0.0070 </r>
        <r>  10.8036   0.2907   0.0130   0.0196   0.0140   0.0059   0.0038   0.0118   0.0084   0.0144 </r>
        <r>  10.8666   0.2961   0.0350   0.0586   0.0179   0.0062   0.0131   0.0293   0.0150   0.0161 </r>
        <r>  10.9296   0.1977   0.0523   0.0922   0.0173   0.0040   0.0221   0.0461   0.0198   0.0129 </r>
        <r>  10.9926   0.1728   0.0454   0.0808   0.0174   0.0020   0.0186   0.0522   0.0225   0.0120 </r>
        <r>  11.0556   0.2334   0.0380   0.0650   0.0278   0.0010   0.0105   0.0608   0.0382   0.0128 </r>
        <r>  11.1186   0.2500   0.0408   0.0695   0.0409   0.0008   0.0077   0.0645   0.0591   0.0091 </r>
        <r>  11.1816   0.1590   0.0304   0.0527   0.0328   0.0005   0.0055   0.0431   0.0486   0.0033 </r>
        <r>  11.2446   0.0547   0.0116   0.0205   0.0129   0.0002   0.0021   0.0154   0.0193   0.0006 </r>
        <r>  11.3076   0.0096   0.0022   0.0038   0.0024   0.0000   0.0004   0.0028   0.0036   0.0000 </r>
        <r>  11.3705   0.0008   0.0002   0.0003   0.0002   0.0000   0.0000   0.0002   0.0003   0.0000 </r>
        <r>  11.4335   0.0000   0.0000   0.0000   0.0000   0.0000   0.0000   0.0000   0.0000   0.0000 </r>
        <r>  11.4965   0.0000   0.0000   0.0000   0.0000   0.0000   0.0000   0.0000   0.0000   0.0000 </r>
        <r>  11.5595   0.0000   0.0000   0.0000   0.0000   0.0000   0.0000   0.0000   0.0000   0.0000 </r>
        <r>  11.6225   0.0000   0.0000   0.0000   0.0000   0.0000   0.0000   0.0000   0.0000   0.0000 </r>
        <r>  11.6855   0.0000   0.0000   0.0000   0.0000   0.0000   0.0000   0.0000   0.0000   0.0000 </r>
        <r>  11.7485   0.0000   0.0000   0.0000   0.0000   0.0000   0.0000   0.0000   0.0000   0.0000 </r>
        <r>  11.8115   0.0000   0.0000   0.0000   0.0000   0.0000   0.0000   0.0000   0.0000   0.0000 </r>
        <r>  11.8744   0.0000   0.0000   0.0000   0.0000   0.0000   0.0000   0.0000   0.0000   0.0000 </r>
        <r>  11.9374   0.0000   0.0000   0.0000   0.0000   0.0000   0.0000   0.0000   0.0000   0.0000 </r>
        <r>  12.0004   0.0000   0.0000   0.0000   0.0000   0.0000   0.0000   0.0000   0.0000   0.0000 </r>
        <r>  12.0634   0.0000   0.0000   0.0000   0.0000   0.0000   0.0000   0.0000   0.0000   0.0000 </r>
        <r>  12.1264   0.0001   0.0000   0.0001   0.0000   0.0000   0.0000   0.0000   0.0000   0.0000 </r>
        <r>  12.1894   0.0020   0.0000   0.0014   0.0000   0.0002   0.0000   0.0004   0.0000   0.0000 </r>
        <r>  12.2524   0.0161   0.0000   0.0117   0.0001   0.0016   0.0001   0.0030   0.0001   0.0000 </r>
        <r>  12.3154   0.0624   0.0001   0.0455   0.0003   0.0063   0.0003   0.0116   0.0003   0.0000 </r>
        <r>  12.3783   0.1153   0.0006   0.0840   0.0006   0.0116   0.0005   0.0216   0.0007   0.0001 </r>
        <r>  12.4413   0.1053   0.0046   0.0755   0.0006   0.0105   0.0005   0.0218   0.0016   0.0001 </r>
        <r>  12.5043   0.0649   0.0218   0.0407   0.0004   0.0059   0.0006   0.0231   0.0053   0.0001 </r>
        <r>  12.5673   0.0614   0.0500   0.0295   0.0003   0.0046   0.0009   0.0368   0.0118   0.0001 </r>
        <r>  12.6303   0.0590   0.0548   0.0263   0.0003   0.0042   0.0009   0.0388   0.0129   0.0001 </r>
        <r>  12.6933   0.0304   0.0286   0.0134   0.0002   0.0021   0.0005   0.0202   0.0067   0.0000 </r>
        <r>  12.7563   0.0075   0.0071   0.0033   0.0000   0.0005   0.0001   0.0050   0.0017   0.0000 </r>
        <r>  12.8193   0.0009   0.0008   0.0004   0.0000   0.0001   0.0000   0.0006   0.0002   0.0000 </r>
        <r>  12.8823   0.0000   0.0000   0.0000   0.0000   0.0000   0.0000   0.0000   0.0000   0.0000 </r>
        <r>  12.9452   0.0000   0.0000   0.0000   0.0000   0.0000   0.0000   0.0000   0.0000   0.0000 </r>
        <r>  13.0082   0.0000   0.0000   0.0000   0.0000   0.0000   0.0000   0.0000   0.0000   0.0000 </r>
        <r>  13.0712   0.0000   0.0000   0.0000   0.0000   0.0000   0.0000   0.0000   0.0000   0.0000 </r>
        <r>  13.1342   0.0000   0.0000   0.0000   0.0000   0.0000   0.0000   0.0000   0.0000   0.0000 </r>
        <r>  13.1972   0.0000   0.0000   0.0000   0.0000   0.0000   0.0000   0.0000   0.0000   0.0000 </r>
        <r>  13.2602   0.0000   0.0000   0.0000   0.0000   0.0000   0.0000   0.0000   0.0000   0.0000 </r>
        <r>  13.3232   0.0000   0.0000   0.0000   0.0000   0.0000   0.0000   0.0000   0.0000   0.0000 </r>
        <r>  13.3862   0.0000   0.0000   0.0000   0.0000   0.0000   0.0000   0.0000   0.0000   0.0000 </r>
        <r>  13.4491   0.0000   0.0000   0.0000   0.0000   0.0000   0.0000   0.0000   0.0000   0.0000 </r>
        <r>  13.5121   0.0000   0.0000   0.0000   0.0000   0.0000   0.0000   0.0000   0.0000   0.0000 </r>
        <r>  13.5751   0.0000   0.0000   0.0000   0.0000   0.0000   0.0000   0.0000   0.0000   0.0000 </r>
       </set>
      </set>
      <set comment="ion 2">
       <set comment="spin 1">
        <r>  -5.3213   0.0000   0.0000   0.0000   0.0000   0.0000   0.0000   0.0000   0.0000   0.0000 </r>
        <r>  -5.2583   0.0000   0.0000   0.0000   0.0000   0.0000   0.0000   0.0000   0.0000   0.0000 </r>
        <r>  -5.1953   0.0000   0.0000   0.0000   0.0000   0.0000   0.0000   0.0000   0.0000   0.0000 </r>
        <r>  -5.1323   0.0000   0.0000   0.0000   0.0000   0.0000   0.0000   0.0000   0.0000   0.0000 </r>
        <r>  -5.0693   0.0000   0.0000   0.0000   0.0000   0.0000   0.0000   0.0000   0.0000   0.0000 </r>
        <r>  -5.0063   0.0000   0.0000   0.0000   0.0000   0.0000   0.0000   0.0000   0.0000   0.0000 </r>
        <r>  -4.9434   0.0000   0.0000   0.0000   0.0000   0.0000   0.0000   0.0000   0.0000   0.0000 </r>
        <r>  -4.8804   0.0000   0.0000   0.0000   0.0000   0.0000   0.0000   0.0000   0.0000   0.0000 </r>
        <r>  -4.8174   0.0000   0.0000   0.0000   0.0000   0.0000   0.0000   0.0000   0.0000   0.0000 </r>
        <r>  -4.7544   0.0000   0.0000   0.0000   0.0000   0.0000   0.0000   0.0000   0.0000   0.0000 </r>
        <r>  -4.6914   0.0000   0.0000   0.0000   0.0000   0.0000   0.0000   0.0000   0.0000   0.0000 </r>
        <r>  -4.6284   0.0000   0.0000   0.0000   0.0000   0.0000   0.0000   0.0000   0.0000   0.0000 </r>
        <r>  -4.5654   0.0001   0.0000   0.0000   0.0000   0.0000   0.0000   0.0000   0.0000   0.0000 </r>
        <r>  -4.5024   0.0010   0.0000   0.0000   0.0000   0.0000   0.0000   0.0000   0.0000   0.0000 </r>
        <r>  -4.4395   0.0082   0.0001   0.0000   0.0000   0.0000   0.0000   0.0000   0.0000   0.0001 </r>
        <r>  -4.3765   0.0331   0.0003   0.0001   0.0001   0.0000   0.0000   0.0002   0.0000   0.0005 </r>
        <r>  -4.3135   0.0634   0.0005   0.0003   0.0003   0.0001   0.0001   0.0003   0.0000   0.0010 </r>
        <r>  -4.2505   0.0578   0.0004   0.0002   0.0002   0.0000   0.0000   0.0003   0.0000   0.0009 </r>
        <r>  -4.1875   0.0251   0.0002   0.0001   0.0001   0.0000   0.0000   0.0001   0.0000   0.0004 </r>
        <r>  -4.1245   0.0052   0.0000   0.0000   0.0000   0.0000   0.0000   0.0000   0.0000   0.0001 </r>
        <r>  -4.0615   0.0005   0.0000   0.0000   0.0000   0.0000   0.0000   0.0000   0.0000   0.0000 </r>
        <r>  -3.9985   0.0001   0.0000   0.0000   0.0000   0.0000   0.0000   0.0000   0.0000   0.0000 </r>
        <r>  -3.9355   0.0009   0.0000   0.0000   0.0000   0.0000   0.0000   0.0000   0.0000   0.0000 </r>
        <r>  -3.8726   0.0109   0.0001   0.0001   0.0004   0.0001   0.0000   0.0000   0.0000   0.0005 </r>
        <r>  -3.8096   0.0602   0.0004   0.0003   0.0020   0.0004   0.0001   0.0000   0.0000   0.0026 </r>
        <r>  -3.7466   0.1577   0.0010   0.0008   0.0053   0.0012   0.0003   0.0000   0.0001   0.0069 </r>
        <r>  -3.6836   0.1965   0.0012   0.0009   0.0066   0.0015   0.0003   0.0000   0.0001   0.0086 </r>
        <r>  -3.6206   0.1164   0.0007   0.0006   0.0039   0.0009   0.0002   0.0000   0.0001   0.0051 </r>
        <r>  -3.5576   0.0328   0.0002   0.0002   0.0011   0.0002   0.0001   0.0000   0.0000   0.0014 </r>
        <r>  -3.4946   0.0044   0.0000   0.0000   0.0001   0.0000   0.0000   0.0000   0.0000   0.0002 </r>
        <r>  -3.4316   0.0005   0.0000   0.0000   0.0000   0.0000   0.0000   0.0000   0.0000   0.0000 </r>
        <r>  -3.3687   0.0034   0.0002   0.0000   0.0001   0.0003   0.0001   0.0000   0.0000   0.0001 </r>
        <r>  -3.3057   0.0266   0.0017   0.0001   0.0007   0.0023   0.0005   0.0000   0.0000   0.0007 </r>
        <r>  -3.2427   0.0982   0.0061   0.0003   0.0027   0.0085   0.0017   0.0000   0.0001   0.0025 </r>
        <r>  -3.1797   0.1718   0.0107   0.0006   0.0047   0.0149   0.0030   0.0000   0.0002   0.0043 </r>
        <r>  -3.1167   0.1431   0.0089   0.0005   0.0039   0.0124   0.0025   0.0000   0.0002   0.0036 </r>
        <r>  -3.0537   0.0567   0.0035   0.0002   0.0016   0.0049   0.0010   0.0000   0.0001   0.0014 </r>
        <r>  -2.9907   0.0115   0.0007   0.0001   0.0003   0.0010   0.0003   0.0000   0.0000   0.0003 </r>
[...]
        <r>  0.0000  0.0008  0.0000  0.0008  0.0000  0.0011  0.0000  0.0011  0.0027 </r>
       </set>
       <set comment="band 6">
        <r>  0.0022  0.0000  0.0001  0.0021  0.0453  0.0048  0.2506  0.0019  0.0028 </r>
        <r>  0.0022  0.0021  0.0001  0.0000  0.0453  0.0019  0.2506  0.0048  0.0028 </r>
        <r>  0.0000  0.0034  0.0000  0.0034  0.0008  0.0688  0.0987  0.0688  0.0000 </r>
        <r>  0.0005  0.0024  0.0006  0.0024  0.0023  0.0033  0.0032  0.0033  0.0000 </r>
       </set>
       <set comment="band 7">
        <r>  0.0011  0.0004  0.0018  0.0053  0.0206  0.0013  0.0000  0.0136  0.1970 </r>
        <r>  0.0011  0.0053  0.0018  0.0004  0.0206  0.0136  0.0000  0.0013  0.1970 </r>
        <r>  0.0022  0.0002  0.0073  0.0002  0.0056  0.0346  0.2701  0.0346  0.0000 </r>
        <r>  0.0010  0.0030  0.0008  0.0030  0.0225  0.0018  0.0027  0.0018  0.0000 </r>
       </set>
       <set comment="band 8">
        <r>  0.0000  0.0001  0.0014  0.0006  0.0169  0.0005  0.0386  0.1080  0.0316 </r>
        <r>  0.0000  0.0006  0.0014  0.0001  0.0169  0.1080  0.0386  0.0005  0.0316 </r>
        <r>  0.0000  0.0003  0.0000  0.0003  0.0000  0.0493  0.0000  0.0493  0.4298 </r>
        <r>  0.0000  0.0000  0.0000  0.0000  0.0000  0.0005  0.0000  0.0005  0.0000 </r>
       </set>
       <set comment="band 9">
        <r>  0.0138  0.0001  0.0052  0.0000  0.0084  0.0034  0.0904  0.0416  0.1849 </r>
        <r>  0.0138  0.0000  0.0052  0.0001  0.0084  0.0416  0.0904  0.0034  0.1849 </r>
        <r>  0.0000  0.0085  0.0000  0.0085  0.0000  0.0486  0.0000  0.0486  0.0018 </r>
        <r>  0.0000  0.0100  0.0000  0.0100  0.0000  0.0111  0.0000  0.0111  0.0042 </r>
       </set>
       <set comment="band 10">
        <r>  0.0000  0.0122  0.0012  0.0002  0.0027  0.1567  0.0158  0.0004  0.0073 </r>
        <r>  0.0000  0.0002  0.0012  0.0122  0.0027  0.0004  0.0158  0.1567  0.0073 </r>
        <r>  0.0021  0.0009  0.0002  0.0009  0.3955  0.0075  0.0006  0.0075  0.0000 </r>
        <r>  0.0072  0.0016  0.0177  0.0016  0.0000  0.0012  0.0302  0.0012  0.0000 </r>
       </set>
       <set comment="band 11">
        <r>  0.0147  0.0016  0.0035  0.0146  0.0014  0.0085  0.0541  0.0212  0.0721 </r>
        <r>  0.0147  0.0146  0.0035  0.0016  0.0014  0.0212  0.0541  0.0085  0.0721 </r>
        <r>  0.0070  0.0056  0.0093  0.0056  0.0013  0.0474  0.2851  0.0474  0.0000 </r>
        <r>  0.0035  0.0049  0.0025  0.0049  0.0183  0.0063  0.0008  0.0063  0.0000 </r>
       </set>
       <set comment="band 12">
        <r>  0.0044  0.0001  0.0085  0.0133  0.0058  0.0101  0.0000  0.0364  0.0906 </r>
        <r>  0.0044  0.0133  0.0085  0.0001  0.0058  0.0364  0.0000  0.0101  0.0906 </r>
        <r>  0.0573  0.0054  0.0137  0.0054  0.0121  0.0915  0.0794  0.0915  0.0000 </r>
        <r>  0.0007  0.0035  0.0000  0.0035  0.0842  0.0152  0.0217  0.0152  0.0000 </r>
       </set>
       <set comment="band 13">
        <r>  0.0019  0.0000  0.0075  0.0000  0.0088  0.1905  0.0057  0.0223  0.1087 </r>
        <r>  0.0019  0.0000  0.0075  0.0000  0.0088  0.0223  0.0057  0.1905  0.1087 </r>
        <r>  0.0000  0.0077  0.0000  0.0077  0.0000  0.0277  0.0000  0.0277  0.0276 </r>
        <r>  0.0000  0.0035  0.0000  0.0035  0.0000  0.0374  0.0000  0.0374  0.0267 </r>
       </set>
       <set comment="band 14">
        <r>  0.0011  0.0001  0.0046  0.0000  0.0108  0.2016  0.0022  0.0331  0.0716 </r>
        <r>  0.0011  0.0000  0.0046  0.0001  0.0108  0.0331  0.0022  0.2016  0.0716 </r>
        <r>  0.0000  0.0039  0.0000  0.0039  0.0000  0.0517  0.0000  0.0517  0.0320 </r>
        <r>  0.0000  0.0005  0.0000  0.0005  0.0000  0.0066  0.0000  0.0066  0.1179 </r>
       </set>
       <set comment="band 15">
        <r>  0.0022  0.0090  0.0034  0.0204  0.0724  0.0004  0.0423  0.0347  0.0099 </r>
        <r>  0.0022  0.0204  0.0034  0.0090  0.0724  0.0347  0.0423  0.0004  0.0099 </r>
        <r>  0.0268  0.0037  0.0175  0.0037  0.0207  0.0304  0.0052  0.0304  0.0000 </r>
        <r>  0.0009  0.0005  0.0031  0.0005  0.1629  0.0152  0.1196  0.0152  0.0000 </r>
       </set>
       <set comment="band 16">
        <r>  0.0025  0.0283  0.0044  0.0030  0.0009  0.0047  0.0000  0.0035  0.0116 </r>
        <r>  0.0025  0.0030  0.0044  0.0283  0.0009  0.0035  0.0000  0.0047  0.0116 </r>
        <r>  0.0027  0.0038  0.0022  0.0038  0.0105  0.0004  0.0033  0.0004  0.0000 </r>
        <r>  0.0230  0.0013  0.0085  0.0013  0.0666  0.1249  0.3384  0.1249  0.0000 </r>
       </set>
       <set comment="band 17">
        <r>  0.0002  0.0000  0.0016  0.0005  0.0220  0.0002  0.0273  0.2184  0.0041 </r>
        <r>  0.0002  0.0005  0.0016  0.0000  0.0220  0.2184  0.0273  0.0002  0.0041 </r>
        <r>  0.0000  0.0012  0.0000  0.0012  0.0000  0.0277  0.0000  0.0277  0.2651 </r>
        <r>  0.0000  0.0008  0.0000  0.0008  0.0000  0.0237  0.0000  0.0237  0.0412 </r>
       </set>
       <set comment="band 18">
        <r>  0.0000  0.0003  0.0004  0.0000  0.0018  0.0122  0.0072  0.0078  0.0361 </r>
        <r>  0.0000  0.0000  0.0004  0.0003  0.0018  0.0078  0.0072  0.0122  0.0361 </r>
        <r>  0.0000  0.0000  0.0000  0.0000  0.0000  0.0568  0.0000  0.0568  0.0053 </r>
        <r>  0.0000  0.0002  0.0000  0.0002  0.0000  0.1978  0.0000  0.1978  0.3216 </r>
       </set>
       <set comment="band 19">
        <r>  0.0001  0.0009  0.0003  0.0006  0.0005  0.0073  0.0000  0.0098  0.0482 </r>
        <r>  0.0001  0.0006  0.0003  0.0009  0.0005  0.0098  0.0000  0.0073  0.0482 </r>
        <r>  0.0011  0.0000  0.0005  0.0000  0.0129  0.0464  0.0166  0.0464  0.0000 </r>
        <r>  0.0000  0.0003  0.0006  0.0003  0.0536  0.2683  0.1201  0.2683  0.0000 </r>
       </set>
       <set comment="band 20">
        <r>  0.0001  0.0001  0.0002  0.0000  0.0101  0.0608  0.0109  0.0001  0.0138 </r>
        <r>  0.0001  0.0000  0.0002  0.0001  0.0101  0.0001  0.0109  0.0608  0.0138 </r>
        <r>  0.0000  0.0000  0.0000  0.0000  0.0000  0.0065  0.0000  0.0065  0.0000 </r>
        <r>  0.0000  0.0002  0.0000  0.0002  0.0000  0.1704  0.0000  0.1704  0.4302 </r>
       </set>
       <set comment="band 21">
        <r>  0.0120  0.0035  0.0019  0.0041  0.0711  0.0012  0.0525  0.0009  0.0001 </r>
        <r>  0.0120  0.0041  0.0019  0.0035  0.0711  0.0009  0.0525  0.0012  0.0001 </r>
        <r>  0.0100  0.0048  0.0015  0.0048  0.0551  0.0007  0.0552  0.0007  0.0000 </r>
        <r>  0.0068  0.0036  0.0009  0.0036  0.2927  0.0013  0.1942  0.0013  0.0000 </r>
       </set>
       <set comment="band 22">
        <r>  0.0019  0.0348  0.0007  0.0285  0.0029  0.0001  0.0009  0.0031  0.0152 </r>
        <r>  0.0019  0.0285  0.0007  0.0348  0.0029  0.0031  0.0009  0.0001  0.0152 </r>
        <r>  0.0636  0.0032  0.0159  0.0032  0.1059  0.0076  0.0444  0.0076  0.0000 </r>
        <r>  0.0437  0.0000  0.0130  0.0000  0.1972  0.0102  0.0957  0.0102  0.0000 </r>
       </set>
       <set comment="band 23">
        <r>  0.0656  0.0005  0.0168  0.0006  0.1547  0.0047  0.0752  0.0069  0.0000 </r>
        <r>  0.0656  0.0006  0.0168  0.0005  0.1547  0.0069  0.0752  0.0047  0.0000 </r>
        <r>  0.0000  0.0320  0.0000  0.0320  0.0000  0.0007  0.0000  0.0007  0.0143 </r>
        <r>  0.0000  0.0246  0.0000  0.0246  0.0000  0.0005  0.0000  0.0005  0.0139 </r>
       </set>
       <set comment="band 24">
        <r>  0.0240  0.0359  0.0194  0.0149  0.0591  0.0003  0.0381  0.0002  0.0004 </r>
        <r>  0.0240  0.0149  0.0194  0.0359  0.0591  0.0002  0.0381  0.0003  0.0004 </r>
        <r>  0.0199  0.0278  0.0121  0.0278  0.0486  0.0006  0.0143  0.0006  0.0000 </r>
        <r>  0.0205  0.0221  0.0206  0.0221  0.0317  0.0000  0.0333  0.0000  0.0000 </r>
       </set>
       <set comment="band 25">
        <r>  0.1002  0.0005  0.0243  0.0059  0.0151  0.0168  0.0059  0.0354  0.0001 </r>
        <r>  0.1002  0.0059  0.0243  0.0005  0.0151  0.0354  0.0058  0.0168  0.0001 </r>
        <r>  0.0961  0.0047  0.0202  0.0047  0.0110  0.0388  0.0118  0.0388  0.0000 </r>
        <r>  0.0726  0.0046  0.0073  0.0046  0.0059  0.0228  0.0020  0.0228  0.0000 </r>
       </set>
       <set comment="band 26">
        <r>  0.1425  0.0005  0.0522  0.0002  0.0245  0.0012  0.0062  0.0004  0.0002 </r>
        <r>  0.1415  0.0002  0.0517  0.0004  0.0247  0.0005  0.0061  0.0009  0.0002 </r>
        <r>  0.0000  0.0232  0.0000  0.0234  0.0000  0.0543  0.0000  0.0546  0.0005 </r>
        <r>  0.0001  0.0238  0.0000  0.0234  0.0000  0.0300  0.0000  0.0297  0.0004 </r>
       </set>
      </set>
      <set comment="kpoint 10">
       <set comment="band 1">
        <r>  0.0642  0.0004  0.0004  0.0005  0.0859  0.0077  0.0018  0.0859  0.0053 </r>
        <r>  0.0642  0.0005  0.0004  0.0004  0.0859  0.0859  0.0018  0.0077  0.0053 </r>
        <r>  0.0642  0.0004  0.0005  0.0004  0.0077  0.0859  0.0070  0.0859  0.0000 </r>
        <r>  0.0068  0.0007  0.0007  0.0007  0.0097  0.0097  0.0000  0.0097  0.0000 </r>
       </set>
       <set comment="band 2">
        <r>  0.0017  0.0005  0.0005  0.0000  0.0045  0.2136  0.0002  0.0045  0.0007 </r>
        <r>  0.0017  0.0000  0.0005  0.0005  0.0045  0.0045  0.0002  0.2136  0.0007 </r>
        <r>  0.0017  0.0005  0.0000  0.0005  0.2136  0.0045  0.0009  0.0045  0.0000 </r>
        <r>  0.0993  0.0006  0.0006  0.0006  0.0002  0.0002  0.0000  0.0002  0.0000 </r>
       </set>
       <set comment="band 3">
        <r>  0.0000  0.0006  0.0006  0.0000  0.1495  0.0000  0.0005  0.1520  0.0001 </r>
        <r>  0.0849  0.0016  0.0011  0.0001  0.0005  0.1380  0.0035  0.0000  0.0059 </r>
        <r>  0.0864  0.0011  0.0017  0.0001  0.0000  0.1353  0.0094  0.0002  0.0002 </r>
        <r>  0.0000  0.0003  0.0003  0.0000  0.0185  0.0000  0.0000  0.0181  0.0000 </r>
       </set>
       <set comment="band 4">
        <r>  0.1142  0.0006  0.0005  0.0022  0.0423  0.0000  0.0031  0.0399  0.0093 </r>
        <r>  0.0293  0.0006  0.0001  0.0011  0.1914  0.0538  0.0001  0.0000  0.0036 </r>
        <r>  0.0278  0.0001  0.0005  0.0011  0.0000  0.0565  0.0030  0.1916  0.0005 </r>
        <r>  0.0000  0.0001  0.0001  0.0005  0.0059  0.0244  0.0000  0.0063  0.0000 </r>
       </set>
       <set comment="band 5">
        <r>  0.0000  0.0000  0.0000  0.0000  0.0236  0.0000  0.2711  0.0241  0.0903 </r>
        <r>  0.0000  0.0002  0.0002  0.0002  0.1226  0.0386  0.0571  0.0003  0.0341 </r>
        <r>  0.0000  0.0002  0.0002  0.0002  0.0003  0.0380  0.0016  0.1226  0.0912 </r>
        <r>  0.0000  0.0001  0.0001  0.0000  0.0000  0.0000  0.0006  0.0000  0.0002 </r>
       </set>
       <set comment="band 6">
        <r>  0.0000  0.0002  0.0002  0.0003  0.0995  0.0004  0.0005  0.0990  0.0017 </r>
        <r>  0.0000  0.0001  0.0001  0.0001  0.0005  0.0846  0.2145  0.0001  0.0579 </r>
        <r>  0.0000  0.0001  0.0001  0.0001  0.0001  0.0852  0.0005  0.0006  0.2703 </r>
        <r>  0.0000  0.0000  0.0000  0.0001  0.0000  0.0000  0.0002  0.0000  0.0006 </r>
       </set>
       <set comment="band 7">
        <r>  0.0000  0.0002  0.0002  0.0000  0.0633  0.0000  0.1357  0.0633  0.0452 </r>
        <r>  0.0000  0.0000  0.0002  0.0002  0.0633  0.0633  0.1357  0.0000  0.0452 </r>
        <r>  0.0000  0.0002  0.0000  0.0002  0.0000  0.0633  0.0000  0.0633  0.1809 </r>
        <r>  0.0000  0.0000  0.0000  0.0000  0.0000  0.0000  0.0000  0.0000  0.0000 </r>
       </set>
       <set comment="band 8">
        <r>  0.0041  0.0006  0.0006  0.0024  0.0000  0.0008  0.0638  0.0000  0.1915 </r>
        <r>  0.0041  0.0024  0.0006  0.0006  0.0000  0.0000  0.0638  0.0008  0.1915 </r>
        <r>  0.0041  0.0006  0.0024  0.0006  0.0008  0.0000  0.2554  0.0000  0.0000 </r>
        <r>  0.0005  0.0022  0.0022  0.0022  0.0285  0.0285  0.0000  0.0285  0.0000 </r>
       </set>
       <set comment="band 9">
        <r>  0.0093  0.0000  0.0000  0.0000  0.0008  0.0004  0.1251  0.0006  0.3742 </r>
        <r>  0.0021  0.0000  0.0005  0.0004  0.0007  0.0025  0.0245  0.0001  0.0863 </r>
        <r>  0.0027  0.0005  0.0000  0.0004  0.0001  0.0026  0.1425  0.0005  0.0001 </r>
        <r>  0.0000  0.0003  0.0004  0.0012  0.0248  0.0868  0.0004  0.0192  0.0011 </r>
       </set>
       <set comment="band 10">
        <r>  0.0000  0.0006  0.0006  0.0000  0.0018  0.0000  0.0004  0.0020  0.0021 </r>
        <r>  0.0073  0.0000  0.0001  0.0002  0.0019  0.0000  0.1011  0.0003  0.2900 </r>
        <r>  0.0067  0.0001  0.0000  0.0002  0.0003  0.0000  0.3592  0.0020  0.0000 </r>
        <r>  0.0000  0.0010  0.0009  0.0000  0.0624  0.0004  0.0011  0.0680  0.0004 </r>
       </set>
       <set comment="band 11">
        <r>  0.0002  0.0003  0.0002  0.0000  0.0005  0.5022  0.0002  0.0005  0.0006 </r>
        <r>  0.0001  0.0000  0.0015  0.0005  0.0000  0.0004  0.0028  0.1194  0.0002 </r>
        <r>  0.0001  0.0015  0.0000  0.0005  0.1318  0.0005  0.0002  0.0000  0.0028 </r>
        <r>  0.0000  0.0007  0.0007  0.0028  0.0001  0.0004  0.0404  0.0001  0.1136 </r>
       </set>
       <set comment="band 12">
        <r>  0.0000  0.0012  0.0013  0.0000  0.0001  0.0001  0.0029  0.0001  0.0009 </r>
        <r>  0.0002  0.0000  0.0000  0.0010  0.0006  0.0002  0.0002  0.3829  0.0013 </r>
        <r>  0.0002  0.0000  0.0000  0.0010  0.3705  0.0002  0.0006  0.0006  0.0010 </r>
        <r>  0.0000  0.0021  0.0021  0.0000  0.0003  0.0000  0.1136  0.0003  0.0404 </r>
       </set>
       <set comment="band 13">
        <r>  0.0000  0.0169  0.0170  0.0000  0.0419  0.0000  0.1241  0.0423  0.0414 </r>
        <r>  0.0014  0.0000  0.0000  0.0171  0.1399  0.0287  0.0393  0.0000  0.0039 </r>
        <r>  0.0014  0.0000  0.0000  0.0172  0.0000  0.0284  0.0020  0.1400  0.0416 </r>
        <r>  0.0000  0.0098  0.0098  0.0000  0.0073  0.0000  0.0635  0.0073  0.0213 </r>
       </set>
       <set comment="band 14">
        <r>  0.0018  0.0058  0.0058  0.0001  0.0985  0.0000  0.0007  0.0981  0.0020 </r>
        <r>  0.0005  0.0000  0.0227  0.0056  0.0005  0.1117  0.0855  0.0000  0.0394 </r>
        <r>  0.0005  0.0227  0.0000  0.0055  0.0000  0.1120  0.0007  0.0004  0.1239 </r>
        <r>  0.0000  0.0033  0.0033  0.0131  0.0025  0.0098  0.0213  0.0024  0.0635 </r>
       </set>
       <set comment="band 15">
        <r>  0.0207  0.0020  0.0020  0.0583  0.0335  0.0010  0.0028  0.0335  0.0085 </r>
        <r>  0.0207  0.0583  0.0020  0.0020  0.0335  0.0335  0.0028  0.0010  0.0085 </r>
        <r>  0.0207  0.0020  0.0583  0.0020  0.0010  0.0335  0.0114  0.0335  0.0000 </r>
        <r>  0.0010  0.0018  0.0018  0.0018  0.0934  0.0934  0.0000  0.0934  0.0000 </r>
       </set>
       <set comment="band 16">
        <r>  0.0000  0.0000  0.0000  0.0000  0.0968  0.0000  0.0996  0.0968  0.0332 </r>
        <r>  0.0000  0.0000  0.0000  0.0000  0.0968  0.0968  0.0996  0.0000  0.0332 </r>
        <r>  0.0000  0.0000  0.0000  0.0000  0.0000  0.0968  0.0000  0.0968  0.1328 </r>
        <r>  0.0000  0.0000  0.0000  0.0000  0.0000  0.0000  0.0000  0.0000  0.0000 </r>
       </set>
       <set comment="band 17">
        <r>  0.0135  0.0252  0.0252  0.0048  0.0017  0.0063  0.0005  0.0017  0.0014 </r>
        <r>  0.0135  0.0048  0.0252  0.0252  0.0017  0.0017  0.0005  0.0063  0.0014 </r>
        <r>  0.0135  0.0252  0.0048  0.0252  0.0063  0.0017  0.0018  0.0017  0.0000 </r>
        <r>  0.0198  0.0175  0.0175  0.0175  0.1313  0.1313  0.0000  0.1313  0.0000 </r>
       </set>
       <set comment="band 18">
        <r>  0.0000  0.0006  0.0006  0.0000  0.0260  0.0000  0.0262  0.0262  0.0089 </r>
        <r>  0.0000  0.0000  0.0001  0.0012  0.0207  0.0003  0.0260  0.0389  0.0087 </r>
        <r>  0.0000  0.0001  0.0000  0.0012  0.0386  0.0003  0.0258  0.0209  0.0089 </r>
        <r>  0.0000  0.0010  0.0010  0.0000  0.1506  0.0000  0.2878  0.1519  0.0976 </r>
       </set>
       <set comment="band 19">
        <r>  0.0000  0.0007  0.0006  0.0001  0.0055  0.0517  0.0087  0.0053  0.0258 </r>
        <r>  0.0000  0.0000  0.0012  0.0001  0.0108  0.0312  0.0090  0.0128  0.0260 </r>
        <r>  0.0000  0.0012  0.0000  0.0001  0.0131  0.0311  0.0087  0.0106  0.0262 </r>
        <r>  0.0000  0.0003  0.0003  0.0013  0.0511  0.2017  0.0976  0.0498  0.2878 </r>
       </set>
       <set comment="band 20">
        <r>  0.0000  0.0001  0.0001  0.0000  0.0083  0.0000  0.0050  0.0081  0.0016 </r>
        <r>  0.0003  0.0000  0.0000  0.0001  0.0045  0.0246  0.0053  0.0423  0.0428 </r>
        <r>  0.0003  0.0000  0.0000  0.0001  0.0419  0.0246  0.0460  0.0043  0.0017 </r>
        <r>  0.0000  0.0001  0.0001  0.0000  0.2122  0.0000  0.2185  0.2143  0.0743 </r>
       </set>
       <set comment="band 21">
        <r>  0.0004  0.0000  0.0000  0.0000  0.0165  0.0562  0.0153  0.0167  0.0463 </r>
        <r>  0.0001  0.0000  0.0001  0.0001  0.0203  0.0002  0.0151  0.0138  0.0051 </r>
        <r>  0.0001  0.0001  0.0000  0.0001  0.0143  0.0002  0.0157  0.0205  0.0049 </r>
        <r>  0.0000  0.0000  0.0000  0.0001  0.0721  0.2843  0.0743  0.0700  0.2185 </r>
       </set>
       <set comment="band 22">
        <r>  0.0025  0.0165  0.0165  0.0775  0.0013  0.0056  0.0079  0.0013  0.0237 </r>
        <r>  0.0025  0.0775  0.0165  0.0165  0.0013  0.0013  0.0079  0.0056  0.0237 </r>
        <r>  0.0025  0.0165  0.0775  0.0165  0.0056  0.0013  0.0315  0.0013  0.0000 </r>
        <r>  0.0192  0.0085  0.0085  0.0085  0.0502  0.0502  0.0000  0.0502  0.0000 </r>
       </set>
       <set comment="band 23">
        <r>  0.0000  0.0594  0.0584  0.0000  0.0003  0.0000  0.0387  0.0004  0.0130 </r>
        <r>  0.0147  0.0002  0.0002  0.0542  0.0278  0.0344  0.0043  0.0164  0.0137 </r>
        <r>  0.0149  0.0001  0.0002  0.0532  0.0167  0.0349  0.0048  0.0284  0.0126 </r>
        <r>  0.0000  0.0454  0.0461  0.0000  0.0002  0.0000  0.0335  0.0002  0.0108 </r>
       </set>
       <set comment="band 24">
        <r>  0.0197  0.0158  0.0167  0.0002  0.0418  0.0221  0.0017  0.0416  0.0046 </r>
        <r>  0.0051  0.0001  0.0750  0.0209  0.0142  0.0077  0.0361  0.0057  0.0040 </r>
        <r>  0.0048  0.0751  0.0001  0.0219  0.0054  0.0072  0.0015  0.0137  0.0391 </r>
        <r>  0.0000  0.0156  0.0149  0.0610  0.0001  0.0002  0.0108  0.0001  0.0335 </r>
       </set>
       <set comment="band 25">
        <r>  0.0500  0.0091  0.0020  0.0001  0.0408  0.0001  0.0006  0.0879  0.0000 </r>
        <r>  0.1114  0.0002  0.0007  0.0105  0.0196  0.0855  0.0006  0.0002  0.0001 </r>
        <r>  0.2660  0.0044  0.0005  0.0072  0.0005  0.0321  0.0011  0.0134  0.0000 </r>
        <r>  0.0000  0.0026  0.0063  0.0012  0.0476  0.0090  0.0004  0.0199  0.0000 </r>
       </set>
       <set comment="band 26">
        <r>  0.2345  0.0022  0.0092  0.0004  0.0524  0.0004  0.0001  0.0052  0.0010 </r>
        <r>  0.1739  0.0003  0.0106  0.0007  0.0733  0.0077  0.0000  0.0003  0.0009 </r>
        <r>  0.0191  0.0069  0.0000  0.0041  0.0000  0.0611  0.0001  0.0796  0.0005 </r>
        <r>  0.0000  0.0041  0.0004  0.0056  0.0034  0.0420  0.0000  0.0311  0.0004 </r>
       </set>
      </set>
     </set>
    </set>
   </array>
  </projected>
 </calculation>
 <structure name="finalpos"">
  <crystal>
   <varray name="basis"">
    <v>       4.05180051      0.00000000      0.00000000</v>
    <v>       0.00000000      4.05180051      0.00000000</v>
    <v>       0.00000000      0.00000000      4.05180051</v>
   </varray>
   <i name="volume""     66.51876311</i>
   <varray name="rec_basis"">
    <v>       0.24680386      0.00000000      0.00000000</v>
    <v>       0.00000000      0.24680386      0.00000000</v>
    <v>       0.00000000      0.00000000      0.24680386</v>
   </varray>
  </crystal>
  <varray name="positions"">
   <v>       0.00000000      0.00000000      0.00000000</v>
   <v>       0.50000000      0.50000000      0.00000000</v>
   <v>       0.50000000      0.00000000      0.50000000</v>
   <v>       0.00000000      0.50000000      0.50000000</v>
  </varray>
 </structure>
</modeling>
