  12  12   1   0
  0.2131048E+02  0.5635338E-09  0.5635338E-09  0.9298308E-09  0.3500000E-15
  1.000000000000000E-004
  CAR 
 Pt(111)                                 
     10.57128659     -5.96819563  301      3.70090327      1.00000000
     -5.968  0.0000E+00  0.0000E+00
     -5.913  0.0000E+00  0.0000E+00
     -5.858  0.0000E+00  0.0000E+00
     -5.803  0.0000E+00  0.0000E+00
     -5.748  0.0000E+00  0.0000E+00
     -5.693  0.0000E+00  0.0000E+00
     -5.637  0.0000E+00  0.0000E+00
     -5.582  0.0000E+00  0.0000E+00
     -5.527  0.9863E-15  0.5438E-16
     -5.472  0.3842E-12  0.2124E-13
     -5.417  0.8176E-10  0.4529E-11
     -5.362  0.9585E-08  0.5330E-09
     -5.307  0.6202E-06  0.3472E-07
     -5.251  0.2220E-04  0.1259E-05
     -5.196  0.4409E-03  0.2556E-04
     -5.141  0.4872E-02  0.2941E-03
     -5.086  0.3009E-01  0.1953E-02
     -5.031  0.1053E+00  0.7758E-02
     -4.976  0.2222E+00  0.2001E-01
     -4.921  0.3653E+00  0.4015E-01
     -4.866  0.6823E+00  0.7777E-01
     -4.810  0.1186E+01  0.1431E+00
     -4.755  0.1334E+01  0.2167E+00
     -4.700  0.8663E+00  0.2644E+00
     -4.645  0.3369E+00  0.2830E+00
     -4.590  0.2075E+00  0.2944E+00
     -4.535  0.5460E+00  0.3245E+00
     -4.480  0.1157E+01  0.3883E+00
     -4.425  0.1508E+01  0.4714E+00
     -4.369  0.1497E+01  0.5540E+00
     -4.314  0.1522E+01  0.6379E+00
     -4.259  0.1367E+01  0.7132E+00
     -4.204  0.8005E+00  0.7574E+00
     -4.149  0.2717E+00  0.7723E+00
     -4.094  0.5468E-01  0.7753E+00
     -4.039  0.4082E-01  0.7776E+00
     -3.983  0.2491E+00  0.7913E+00
     -3.928  0.9807E+00  0.8454E+00
     -3.873  0.2166E+01  0.9648E+00
     -3.818  0.2685E+01  0.1113E+01
     -3.763  0.1901E+01  0.1218E+01
     -3.708  0.9390E+00  0.1269E+01
     -3.653  0.8455E+00  0.1316E+01
     -3.598  0.1263E+01  0.1386E+01
     -3.542  0.1264E+01  0.1455E+01
     -3.487  0.7199E+00  0.1495E+01
     -3.432  0.2328E+00  0.1508E+01
     -3.377  0.6852E-01  0.1512E+01
     -3.322  0.1653E+00  0.1521E+01
     -3.267  0.6338E+00  0.1556E+01
     -3.212  0.1737E+01  0.1651E+01
     -3.156  0.3393E+01  0.1839E+01
     -3.101  0.4661E+01  0.2096E+01
     -3.046  0.4332E+01  0.2334E+01
     -2.991  0.2771E+01  0.2487E+01
     -2.936  0.1705E+01  0.2581E+01
     -2.881  0.1642E+01  0.2672E+01
     -2.826  0.1783E+01  0.2770E+01
     -2.771  0.1921E+01  0.2876E+01
     -2.715  0.2301E+01  0.3003E+01
     -2.660  0.2921E+01  0.3164E+01
     -2.605  0.3903E+01  0.3379E+01
     -2.550  0.5455E+01  0.3680E+01
     -2.495  0.7300E+01  0.4082E+01
     -2.440  0.8153E+01  0.4532E+01
     -2.385  0.7637E+01  0.4953E+01
     -2.330  0.7494E+01  0.5366E+01
     -2.274  0.8552E+01  0.5837E+01
     -2.219  0.9353E+01  0.6353E+01
     -2.164  0.8888E+01  0.6843E+01
     -2.109  0.8164E+01  0.7293E+01
     -2.054  0.8825E+01  0.7780E+01
     -1.999  0.1068E+02  0.8369E+01
     -1.944  0.1223E+02  0.9043E+01
     -1.888  0.1309E+02  0.9765E+01
     -1.833  0.1385E+02  0.1053E+02
     -1.778  0.1528E+02  0.1137E+02
     -1.723  0.1646E+02  0.1228E+02
     -1.668  0.1627E+02  0.1318E+02
     -1.613  0.1604E+02  0.1406E+02
     -1.558  0.1750E+02  0.1502E+02
     -1.503  0.2150E+02  0.1621E+02
     -1.447  0.2677E+02  0.1769E+02
     -1.392  0.2806E+02  0.1923E+02
     -1.337  0.2296E+02  0.2050E+02
     -1.282  0.1719E+02  0.2145E+02
     -1.227  0.1426E+02  0.2223E+02
     -1.172  0.1217E+02  0.2290E+02
     -1.117  0.1131E+02  0.2353E+02
     -1.061  0.1240E+02  0.2421E+02
     -1.006  0.1317E+02  0.2494E+02
     -0.951  0.1198E+02  0.2560E+02
     -0.896  0.9373E+01  0.2611E+02
     -0.841  0.7164E+01  0.2651E+02
     -0.786  0.6817E+01  0.2689E+02
     -0.731  0.7565E+01  0.2730E+02
     -0.676  0.8518E+01  0.2777E+02
     -0.620  0.1068E+02  0.2836E+02
     -0.565  0.1338E+02  0.2910E+02
     -0.510  0.1395E+02  0.2987E+02
     -0.455  0.1186E+02  0.3052E+02
     -0.400  0.9238E+01  0.3103E+02
     -0.345  0.8742E+01  0.3151E+02
     -0.290  0.1159E+02  0.3215E+02
     -0.235  0.1680E+02  0.3308E+02
     -0.179  0.2281E+02  0.3433E+02
     -0.124  0.2733E+02  0.3584E+02
     -0.069  0.2787E+02  0.3738E+02
     -0.014  0.2313E+02  0.3865E+02
      0.041  0.1522E+02  0.3949E+02
      0.096  0.1018E+02  0.4005E+02
      0.151  0.1224E+02  0.4073E+02
      0.207  0.1905E+02  0.4178E+02
      0.262  0.2463E+02  0.4314E+02
      0.317  0.2720E+02  0.4464E+02
      0.372  0.2850E+02  0.4621E+02
      0.427  0.2809E+02  0.4776E+02
      0.482  0.2553E+02  0.4916E+02
      0.537  0.2213E+02  0.5038E+02
      0.592  0.1890E+02  0.5143E+02
      0.648  0.1729E+02  0.5238E+02
      0.703  0.1895E+02  0.5342E+02
      0.758  0.2363E+02  0.5473E+02
      0.813  0.2677E+02  0.5620E+02
      0.868  0.2582E+02  0.5763E+02
      0.923  0.2496E+02  0.5900E+02
      0.978  0.2564E+02  0.6042E+02
      1.034  0.2588E+02  0.6184E+02
      1.089  0.2638E+02  0.6330E+02
      1.144  0.2866E+02  0.6488E+02
      1.199  0.3162E+02  0.6662E+02
      1.254  0.3106E+02  0.6833E+02
      1.309  0.2688E+02  0.6981E+02
      1.364  0.2365E+02  0.7112E+02
      1.419  0.2300E+02  0.7239E+02
      1.475  0.2355E+02  0.7368E+02
      1.530  0.2110E+02  0.7485E+02
      1.585  0.1461E+02  0.7565E+02
      1.640  0.1009E+02  0.7621E+02
      1.695  0.1082E+02  0.7681E+02
      1.750  0.1360E+02  0.7756E+02
      1.805  0.1505E+02  0.7839E+02
      1.860  0.1512E+02  0.7922E+02
      1.916  0.1543E+02  0.8007E+02
      1.971  0.1577E+02  0.8094E+02
      2.026  0.1614E+02  0.8183E+02
      2.081  0.1816E+02  0.8283E+02
      2.136  0.2197E+02  0.8404E+02
      2.191  0.2660E+02  0.8551E+02
      2.246  0.2891E+02  0.8710E+02
      2.302  0.2808E+02  0.8865E+02
      2.357  0.2924E+02  0.9026E+02
      2.412  0.3209E+02  0.9203E+02
      2.467  0.2968E+02  0.9367E+02
      2.522  0.2188E+02  0.9487E+02
      2.577  0.1534E+02  0.9572E+02
      2.632  0.1338E+02  0.9646E+02
      2.687  0.1438E+02  0.9725E+02
      2.743  0.1476E+02  0.9806E+02
      2.798  0.1274E+02  0.9877E+02
      2.853  0.1123E+02  0.9939E+02
      2.908  0.1391E+02  0.1002E+03
      2.963  0.1902E+02  0.1012E+03
      3.018  0.2180E+02  0.1024E+03
      3.073  0.2108E+02  0.1036E+03
      3.129  0.1854E+02  0.1046E+03
      3.184  0.1583E+02  0.1055E+03
      3.239  0.1553E+02  0.1063E+03
      3.294  0.1966E+02  0.1074E+03
      3.349  0.2475E+02  0.1088E+03
      3.404  0.2737E+02  0.1103E+03
      3.459  0.2910E+02  0.1119E+03
      3.514  0.3086E+02  0.1136E+03
      3.570  0.3321E+02  0.1154E+03
      3.625  0.3582E+02  0.1174E+03
      3.680  0.3506E+02  0.1193E+03
      3.735  0.3103E+02  0.1210E+03
      3.790  0.2705E+02  0.1225E+03
      3.845  0.2284E+02  0.1238E+03
      3.900  0.1876E+02  0.1248E+03
      3.955  0.1668E+02  0.1257E+03
      4.011  0.1537E+02  0.1266E+03
      4.066  0.1267E+02  0.1273E+03
      4.121  0.8835E+01  0.1278E+03
      4.176  0.5607E+01  0.1281E+03
      4.231  0.3588E+01  0.1283E+03
      4.286  0.2691E+01  0.1284E+03
      4.341  0.2799E+01  0.1286E+03
      4.397  0.3077E+01  0.1287E+03
      4.452  0.2757E+01  0.1289E+03
      4.507  0.3013E+01  0.1291E+03
      4.562  0.4898E+01  0.1293E+03
      4.617  0.6349E+01  0.1297E+03
      4.672  0.5312E+01  0.1300E+03
      4.727  0.3266E+01  0.1302E+03
      4.782  0.2206E+01  0.1303E+03
      4.838  0.2146E+01  0.1304E+03
      4.893  0.2746E+01  0.1305E+03
      4.948  0.3646E+01  0.1307E+03
      5.003  0.3994E+01  0.1310E+03
      5.058  0.4082E+01  0.1312E+03
      5.113  0.5159E+01  0.1315E+03
      5.168  0.6919E+01  0.1319E+03
      5.224  0.7294E+01  0.1323E+03
      5.279  0.5333E+01  0.1326E+03
      5.334  0.2793E+01  0.1327E+03
      5.389  0.2029E+01  0.1328E+03
      5.444  0.3181E+01  0.1330E+03
      5.499  0.4073E+01  0.1332E+03
      5.554  0.3216E+01  0.1334E+03
      5.609  0.1978E+01  0.1335E+03
      5.665  0.2110E+01  0.1336E+03
      5.720  0.3414E+01  0.1338E+03
      5.775  0.4701E+01  0.1341E+03
      5.830  0.5526E+01  0.1344E+03
      5.885  0.5949E+01  0.1347E+03
      5.940  0.5713E+01  0.1350E+03
      5.995  0.4491E+01  0.1353E+03
      6.050  0.2654E+01  0.1354E+03
      6.106  0.1503E+01  0.1355E+03
      6.161  0.1913E+01  0.1356E+03
      6.216  0.3361E+01  0.1358E+03
      6.271  0.4475E+01  0.1360E+03
      6.326  0.4082E+01  0.1363E+03
      6.381  0.2441E+01  0.1364E+03
      6.436  0.1146E+01  0.1365E+03
      6.492  0.1303E+01  0.1365E+03
      6.547  0.2658E+01  0.1367E+03
      6.602  0.3725E+01  0.1369E+03
      6.657  0.3366E+01  0.1371E+03
      6.712  0.2754E+01  0.1372E+03
      6.767  0.3327E+01  0.1374E+03
      6.822  0.4835E+01  0.1377E+03
      6.877  0.6963E+01  0.1381E+03
      6.933  0.8607E+01  0.1385E+03
      6.988  0.8056E+01  0.1390E+03
      7.043  0.6710E+01  0.1393E+03
      7.098  0.6500E+01  0.1397E+03
      7.153  0.5942E+01  0.1400E+03
      7.208  0.3768E+01  0.1402E+03
      7.263  0.1723E+01  0.1403E+03
      7.319  0.1440E+01  0.1404E+03
      7.374  0.2514E+01  0.1405E+03
      7.429  0.3478E+01  0.1407E+03
      7.484  0.3172E+01  0.1409E+03
      7.539  0.1851E+01  0.1410E+03
      7.594  0.6682E+00  0.1411E+03
      7.649  0.1444E+00  0.1411E+03
      7.704  0.1823E-01  0.1411E+03
      7.760  0.1319E-02  0.1411E+03
      7.815  0.5621E-04  0.1411E+03
      7.870  0.8471E-04  0.1411E+03
      7.925  0.1817E-02  0.1411E+03
      7.980  0.2227E-01  0.1411E+03
      8.035  0.1566E+00  0.1411E+03
      8.090  0.6591E+00  0.1411E+03
      8.145  0.1791E+01  0.1412E+03
      8.201  0.3507E+01  0.1414E+03
      8.256  0.5458E+01  0.1417E+03
      8.311  0.7153E+01  0.1421E+03
      8.366  0.8114E+01  0.1425E+03
      8.421  0.7689E+01  0.1430E+03
      8.476  0.5591E+01  0.1433E+03
      8.531  0.2927E+01  0.1434E+03
      8.587  0.1058E+01  0.1435E+03
      8.642  0.2515E+00  0.1435E+03
      8.697  0.3711E-01  0.1435E+03
      8.752  0.3244E-02  0.1435E+03
      8.807  0.1628E-03  0.1435E+03
      8.862  0.4608E-05  0.1435E+03
      8.917  0.7288E-07  0.1435E+03
      8.972  0.1657E-07  0.1435E+03
      9.028  0.1219E-05  0.1435E+03
      9.083  0.5154E-04  0.1435E+03
      9.138  0.1208E-02  0.1435E+03
      9.193  0.1574E-01  0.1435E+03
      9.248  0.1143E+00  0.1435E+03
      9.303  0.4644E+00  0.1435E+03
      9.358  0.1060E+01  0.1436E+03
      9.414  0.1396E+01  0.1437E+03
      9.469  0.1231E+01  0.1437E+03
      9.524  0.1175E+01  0.1438E+03
      9.579  0.1384E+01  0.1439E+03
      9.634  0.1209E+01  0.1440E+03
      9.689  0.6211E+00  0.1440E+03
      9.744  0.1800E+00  0.1440E+03
      9.799  0.2922E-01  0.1440E+03
      9.855  0.2645E-02  0.1440E+03
      9.910  0.1332E-03  0.1440E+03
      9.965  0.3721E-05  0.1440E+03
     10.020  0.5751E-07  0.1440E+03
     10.075  0.4906E-09  0.1440E+03
     10.130  0.2305E-11  0.1440E+03
     10.185  0.5918E-14  0.1440E+03
     10.240  0.0000E+00  0.1440E+03
     10.296  0.0000E+00  0.1440E+03
     10.351  0.0000E+00  0.1440E+03
     10.406  0.0000E+00  0.1440E+03
     10.461  0.0000E+00  0.1440E+03
     10.516  0.0000E+00  0.1440E+03
     10.571  0.0000E+00  0.1440E+03
     10.57128659     -5.96819563  301      3.70090327      1.00000000
     -5.968  0.0000E+00  0.0000E+00  0.0000E+00  0.0000E+00  0.0000E+00  0.0000E+00  0.0000E+00  0.0000E+00  0.0000E+00
     -5.913  0.0000E+00  0.0000E+00  0.0000E+00  0.0000E+00  0.0000E+00  0.0000E+00  0.0000E+00  0.0000E+00  0.0000E+00
     -5.858  0.0000E+00  0.0000E+00  0.0000E+00  0.0000E+00  0.0000E+00  0.0000E+00  0.0000E+00  0.0000E+00  0.0000E+00
     -5.803  0.0000E+00  0.0000E+00  0.0000E+00  0.0000E+00  0.0000E+00  0.0000E+00  0.0000E+00  0.0000E+00  0.0000E+00
     -5.748  0.0000E+00  0.0000E+00  0.0000E+00  0.0000E+00  0.0000E+00  0.0000E+00  0.0000E+00  0.0000E+00  0.0000E+00
     -5.693  0.0000E+00  0.0000E+00  0.0000E+00  0.0000E+00  0.0000E+00  0.0000E+00  0.0000E+00  0.0000E+00  0.0000E+00
     -5.637  0.0000E+00  0.0000E+00  0.0000E+00  0.0000E+00  0.0000E+00  0.0000E+00  0.0000E+00  0.0000E+00  0.0000E+00
     -5.582  0.0000E+00  0.0000E+00  0.0000E+00  0.0000E+00  0.0000E+00  0.0000E+00  0.0000E+00  0.0000E+00  0.0000E+00
     -5.527  0.3102E-16  0.1777E-29  0.2232E-17  0.7388E-29  0.2801E-28  0.6303E-30  0.1306E-18  0.8369E-31  0.4944E-29
     -5.472  0.1208E-13  0.6921E-27  0.8695E-15  0.2878E-26  0.1091E-25  0.2455E-27  0.5089E-16  0.3260E-28  0.1926E-26
     -5.417  0.2572E-11  0.1473E-24  0.1850E-12  0.6124E-24  0.2322E-23  0.5225E-25  0.1083E-13  0.6938E-26  0.4099E-24
     -5.362  0.3015E-09  0.1726E-22  0.2169E-10  0.1022E-17  0.2722E-21  0.6125E-23  0.1269E-11  0.4322E-18  0.3323E-19
     -5.307  0.1951E-07  0.1117E-20  0.1403E-08  0.4363E-15  0.1761E-19  0.3963E-21  0.8213E-10  0.1846E-15  0.1418E-16
     -5.251  0.6983E-06  0.4000E-19  0.5024E-07  0.9981E-13  0.6304E-18  0.1419E-19  0.2940E-08  0.4222E-13  0.3242E-14
     -5.196  0.1387E-04  0.7960E-18  0.9977E-06  0.1257E-10  0.1252E-16  0.2817E-18  0.5839E-07  0.5319E-11  0.4084E-12
     -5.141  0.1532E-03  0.8905E-17  0.1102E-04  0.8739E-09  0.1383E-15  0.3113E-17  0.6451E-06  0.3697E-09  0.2839E-10
     -5.086  0.9464E-03  0.5920E-16  0.6810E-04  0.3360E-07  0.8545E-15  0.1923E-16  0.3982E-05  0.1421E-07  0.1091E-08
     -5.031  0.3311E-02  0.2968E-15  0.2383E-03  0.7163E-06  0.2990E-14  0.6760E-16  0.1386E-04  0.3030E-06  0.2327E-07
     -4.976  0.6978E-02  0.1933E-14  0.5035E-03  0.8492E-05  0.6380E-14  0.2788E-15  0.2848E-04  0.3592E-05  0.2758E-06
     -4.921  0.1142E-01  0.7181E-13  0.8314E-03  0.5614E-04  0.2734E-13  0.3209E-13  0.4210E-04  0.2375E-04  0.1824E-05
     -4.866  0.2121E-01  0.8071E-11  0.1561E-02  0.2075E-03  0.2193E-11  0.4078E-11  0.6717E-04  0.8778E-04  0.6740E-05
     -4.810  0.3677E-01  0.5678E-09  0.2719E-02  0.4297E-03  0.1535E-09  0.2879E-09  0.1090E-03  0.1818E-03  0.1396E-04
     -4.755  0.4135E-01  0.2217E-07  0.3060E-02  0.4992E-03  0.5996E-08  0.1125E-07  0.1208E-03  0.2112E-03  0.1621E-04
     -4.700  0.2685E-01  0.4802E-06  0.1988E-02  0.3267E-03  0.1299E-06  0.2436E-06  0.7818E-04  0.1383E-03  0.1061E-04
     -4.645  0.1042E-01  0.5783E-05  0.7743E-03  0.1362E-03  0.1564E-05  0.2933E-05  0.2916E-04  0.5902E-04  0.4438E-05
     -4.590  0.6294E-02  0.3883E-04  0.4845E-03  0.1409E-03  0.1050E-04  0.1970E-04  0.1017E-04  0.6903E-04  0.4686E-05
     -4.535  0.1640E-01  0.1458E-03  0.1285E-02  0.4435E-03  0.3942E-04  0.7394E-04  0.1698E-04  0.2234E-03  0.1517E-04
     -4.480  0.3472E-01  0.3066E-03  0.2723E-02  0.9599E-03  0.8289E-04  0.1555E-03  0.3467E-04  0.4857E-03  0.3672E-04
     -4.425  0.4519E-01  0.3616E-03  0.3554E-02  0.1335E-02  0.9778E-04  0.1834E-03  0.4279E-04  0.6861E-03  0.7422E-04
     -4.369  0.4462E-01  0.2394E-03  0.3538E-02  0.1586E-02  0.6473E-04  0.1214E-03  0.3502E-04  0.8454E-03  0.1560E-03
     -4.314  0.4504E-01  0.8884E-04  0.3611E-02  0.1949E-02  0.2402E-04  0.4506E-04  0.2597E-04  0.1072E-02  0.2649E-03
     -4.259  0.4034E-01  0.1846E-04  0.3250E-02  0.1885E-02  0.4991E-05  0.9361E-05  0.1951E-04  0.1048E-02  0.2802E-03
     -4.204  0.2360E-01  0.2142E-05  0.1903E-02  0.1123E-02  0.5795E-06  0.1087E-05  0.1089E-04  0.6253E-03  0.1700E-03
     -4.149  0.8010E-02  0.1697E-06  0.6461E-03  0.3824E-03  0.5890E-07  0.9235E-07  0.3657E-05  0.2131E-03  0.5814E-04
     -4.094  0.1607E-02  0.7177E-06  0.1302E-03  0.7878E-04  0.4904E-06  0.5071E-06  0.7201E-06  0.4492E-04  0.1227E-04
     -4.039  0.1143E-02  0.9016E-05  0.9953E-04  0.8018E-04  0.6187E-05  0.6383E-05  0.3628E-06  0.5754E-04  0.1587E-04
     -3.983  0.6919E-02  0.6359E-04  0.6098E-03  0.5109E-03  0.4364E-04  0.4502E-04  0.2038E-05  0.3754E-03  0.1036E-03
     -3.928  0.2724E-01  0.2507E-03  0.2401E-02  0.2012E-02  0.1720E-03  0.1775E-03  0.8018E-05  0.1479E-02  0.4083E-03
     -3.873  0.6015E-01  0.5535E-03  0.5301E-02  0.4443E-02  0.3798E-03  0.3918E-03  0.1771E-04  0.3266E-02  0.9017E-03
     -3.818  0.7458E-01  0.6855E-03  0.6574E-02  0.5512E-02  0.4704E-03  0.4853E-03  0.2212E-04  0.4053E-02  0.1121E-02
     -3.763  0.5273E-01  0.4764E-03  0.4653E-02  0.3923E-02  0.3269E-03  0.3373E-03  0.1726E-04  0.2902E-02  0.8243E-03
     -3.708  0.2574E-01  0.1856E-03  0.2298E-02  0.2062E-02  0.1274E-03  0.1314E-03  0.1762E-04  0.1623E-02  0.5818E-03
     -3.653  0.2238E-01  0.4050E-04  0.2068E-02  0.2172E-02  0.2779E-04  0.2867E-04  0.3903E-04  0.1942E-02  0.9684E-03
     -3.598  0.3308E-01  0.4936E-05  0.3089E-02  0.3382E-02  0.3387E-05  0.3494E-05  0.6847E-04  0.3112E-02  0.1642E-02
     -3.542  0.3309E-01  0.3356E-06  0.3092E-02  0.3397E-02  0.2305E-06  0.2377E-06  0.6952E-04  0.3133E-02  0.1659E-02
     -3.487  0.1885E-01  0.3380E-07  0.1760E-02  0.1934E-02  0.3418E-07  0.3381E-07  0.4281E-04  0.1784E-02  0.9453E-03
     -3.432  0.6171E-02  0.5671E-06  0.5643E-03  0.6195E-03  0.6833E-06  0.6662E-06  0.5675E-04  0.5717E-03  0.3022E-03
     -3.377  0.2370E-02  0.8473E-05  0.1292E-03  0.1371E-03  0.1020E-04  0.9947E-05  0.3336E-03  0.1329E-03  0.5908E-04
     -3.322  0.6670E-02  0.7120E-04  0.2456E-03  0.2482E-03  0.8547E-04  0.8342E-04  0.1403E-02  0.2892E-03  0.5937E-04
     -3.267  0.2184E-01  0.3401E-03  0.1174E-02  0.1257E-02  0.4062E-03  0.3970E-03  0.3471E-02  0.1502E-02  0.3597E-03
     -3.212  0.5260E-01  0.9412E-03  0.3643E-02  0.4129E-02  0.1113E-02  0.1091E-02  0.5900E-02  0.5027E-02  0.1520E-02
     -3.156  0.9942E-01  0.1551E-02  0.7233E-02  0.8711E-02  0.1803E-02  0.1776E-02  0.1018E-01  0.1073E-01  0.3981E-02
     -3.101  0.1452E+00  0.1577E-02  0.9272E-02  0.1189E-01  0.1786E-02  0.1773E-02  0.1884E-01  0.1454E-01  0.6264E-02
     -3.046  0.1495E+00  0.1018E-02  0.7614E-02  0.1040E-01  0.1118E-02  0.1120E-02  0.2528E-01  0.1241E-01  0.5932E-02
     -2.991  0.1025E+00  0.4190E-03  0.4310E-02  0.6254E-02  0.4470E-03  0.4515E-03  0.2030E-01  0.7653E-02  0.4185E-02
     -2.936  0.5470E-01  0.1133E-03  0.2852E-02  0.4220E-02  0.1157E-03  0.1139E-03  0.1010E-01  0.6608E-02  0.4418E-02
     -2.881  0.4030E-01  0.6840E-04  0.3135E-02  0.4599E-02  0.4922E-04  0.1904E-04  0.6283E-02  0.8376E-02  0.6002E-02
     -2.826  0.4949E-01  0.2393E-03  0.2891E-02  0.4592E-02  0.1493E-03  0.9708E-05  0.1203E-01  0.7568E-02  0.5499E-02
     -2.771  0.7375E-01  0.6092E-03  0.1819E-02  0.3948E-02  0.3787E-03  0.2146E-04  0.2512E-01  0.3992E-02  0.3012E-02
     -2.715  0.1008E+00  0.8797E-03  0.1121E-02  0.3922E-02  0.5473E-03  0.4020E-04  0.4108E-01  0.1408E-02  0.1370E-02
     -2.660  0.1168E+00  0.7734E-03  0.1304E-02  0.4875E-02  0.4817E-03  0.1537E-03  0.5617E-01  0.1831E-02  0.2121E-02
     -2.605  0.1315E+00  0.8142E-03  0.2849E-02  0.7668E-02  0.4829E-03  0.9890E-03  0.6299E-01  0.8262E-02  0.6942E-02
     -2.550  0.1449E+00  0.2175E-02  0.6783E-02  0.1253E-01  0.1161E-02  0.4347E-02  0.5190E-01  0.2540E-01  0.1780E-01
     -2.495  0.1444E+00  0.5197E-02  0.1208E-01  0.1688E-01  0.2626E-02  0.1136E-01  0.3166E-01  0.4758E-01  0.3012E-01
     -2.440  0.1255E+00  0.7560E-02  0.1424E-01  0.1669E-01  0.3871E-02  0.1811E-01  0.2198E-01  0.5726E-01  0.3271E-01
     -2.385  0.9432E-01  0.6953E-02  0.1153E-01  0.1219E-01  0.4408E-02  0.2085E-01  0.3054E-01  0.5024E-01  0.2459E-01
     -2.330  0.7759E-01  0.5483E-02  0.8299E-02  0.8489E-02  0.6094E-02  0.2607E-01  0.5019E-01  0.4043E-01  0.1768E-01
     -2.274  0.9674E-01  0.5544E-02  0.7509E-02  0.8974E-02  0.1026E-01  0.3644E-01  0.6815E-01  0.3535E-01  0.1943E-01
     -2.219  0.1498E+00  0.5660E-02  0.7188E-02  0.1300E-01  0.1660E-01  0.3765E-01  0.8119E-01  0.2839E-01  0.3144E-01
     -2.164  0.1977E+00  0.4655E-02  0.5908E-02  0.1631E-01  0.2775E-01  0.2535E-01  0.8371E-01  0.1725E-01  0.5874E-01
     -2.109  0.1962E+00  0.4388E-02  0.5284E-02  0.1503E-01  0.5134E-01  0.1888E-01  0.6475E-01  0.9984E-02  0.9934E-01
     -2.054  0.1751E+00  0.7084E-02  0.6817E-02  0.1201E-01  0.9018E-01  0.3264E-01  0.3967E-01  0.9887E-02  0.1352E+00
     -1.999  0.1675E+00  0.1154E-01  0.9376E-02  0.1043E-01  0.1204E+00  0.5825E-01  0.2822E-01  0.1414E-01  0.1587E+00
     -1.944  0.1553E+00  0.1444E-01  0.1081E-01  0.9216E-02  0.1166E+00  0.7950E-01  0.2902E-01  0.2020E-01  0.1789E+00
     -1.888  0.1467E+00  0.1552E-01  0.1110E-01  0.9714E-02  0.9278E-01  0.9027E-01  0.4219E-01  0.2445E-01  0.1888E+00
     -1.833  0.1730E+00  0.1565E-01  0.1121E-01  0.1514E-01  0.7436E-01  0.8588E-01  0.7080E-01  0.2527E-01  0.1928E+00
     -1.778  0.2292E+00  0.1464E-01  0.1162E-01  0.2427E-01  0.7810E-01  0.7044E-01  0.9905E-01  0.3002E-01  0.2172E+00
     -1.723  0.2621E+00  0.1335E-01  0.1198E-01  0.3037E-01  0.9931E-01  0.6297E-01  0.1074E+00  0.4475E-01  0.2356E+00
     -1.668  0.2376E+00  0.1321E-01  0.1177E-01  0.2929E-01  0.1193E+00  0.7448E-01  0.1073E+00  0.6336E-01  0.2109E+00
     -1.613  0.1878E+00  0.1556E-01  0.1207E-01  0.2388E-01  0.1396E+00  0.1020E+00  0.1101E+00  0.7651E-01  0.1830E+00
     -1.558  0.1583E+00  0.2131E-01  0.1434E-01  0.1953E-01  0.1665E+00  0.1425E+00  0.1096E+00  0.8491E-01  0.2017E+00
     -1.503  0.1703E+00  0.2954E-01  0.1864E-01  0.2066E-01  0.2130E+00  0.1949E+00  0.1165E+00  0.9515E-01  0.2583E+00
     -1.447  0.2096E+00  0.3551E-01  0.2331E-01  0.2677E-01  0.2959E+00  0.2320E+00  0.1456E+00  0.1035E+00  0.3045E+00
     -1.392  0.2223E+00  0.3282E-01  0.2382E-01  0.3053E-01  0.3444E+00  0.2090E+00  0.1757E+00  0.9486E-01  0.2921E+00
     -1.337  0.1785E+00  0.2310E-01  0.1808E-01  0.2633E-01  0.2882E+00  0.1397E+00  0.1748E+00  0.6996E-01  0.2430E+00
     -1.282  0.1181E+00  0.1596E-01  0.1114E-01  0.1852E-01  0.2081E+00  0.9413E-01  0.1535E+00  0.5411E-01  0.2346E+00
     -1.227  0.7700E-01  0.1459E-01  0.7042E-02  0.1340E-01  0.1692E+00  0.9477E-01  0.1274E+00  0.5504E-01  0.2523E+00
     -1.172  0.4844E-01  0.1453E-01  0.4992E-02  0.1200E-01  0.1474E+00  0.1016E+00  0.9668E-01  0.5517E-01  0.2127E+00
     -1.117  0.3090E-01  0.1385E-01  0.4211E-02  0.1374E-01  0.1606E+00  0.8758E-01  0.8386E-01  0.4898E-01  0.1460E+00
     -1.061  0.3133E-01  0.1313E-01  0.4190E-02  0.1637E-01  0.2277E+00  0.6197E-01  0.9579E-01  0.4280E-01  0.1419E+00
     -1.006  0.4204E-01  0.1161E-01  0.3851E-02  0.1631E-01  0.2980E+00  0.3885E-01  0.1036E+00  0.4055E-01  0.2083E+00
     -0.951  0.4702E-01  0.8923E-02  0.3101E-02  0.1305E-01  0.3010E+00  0.2341E-01  0.9366E-01  0.4245E-01  0.2713E+00
     -0.896  0.3833E-01  0.5921E-02  0.2566E-02  0.8626E-02  0.2259E+00  0.1731E-01  0.7615E-01  0.4207E-01  0.2532E+00
     -0.841  0.2675E-01  0.4055E-02  0.2338E-02  0.6104E-02  0.1632E+00  0.1985E-01  0.6019E-01  0.3768E-01  0.1751E+00
     -0.786  0.2466E-01  0.4207E-02  0.2276E-02  0.7117E-02  0.1832E+00  0.2967E-01  0.5126E-01  0.3505E-01  0.1079E+00
     -0.731  0.2543E-01  0.4915E-02  0.2548E-02  0.9372E-02  0.2177E+00  0.3827E-01  0.5448E-01  0.3600E-01  0.7550E-01
     -0.676  0.2065E-01  0.4717E-02  0.3412E-02  0.1136E-01  0.2056E+00  0.3856E-01  0.7616E-01  0.4205E-01  0.8069E-01
     -0.620  0.1613E-01  0.4882E-02  0.4631E-02  0.1586E-01  0.2089E+00  0.4440E-01  0.1134E+00  0.6017E-01  0.1236E+00
     -0.565  0.1709E-01  0.6458E-02  0.5018E-02  0.2335E-01  0.2748E+00  0.6347E-01  0.1349E+00  0.8129E-01  0.1665E+00
     -0.510  0.2142E-01  0.8411E-02  0.4309E-02  0.2780E-01  0.3391E+00  0.7316E-01  0.1273E+00  0.8232E-01  0.1749E+00
     -0.455  0.2599E-01  0.9669E-02  0.3734E-02  0.2391E-01  0.3111E+00  0.5769E-01  0.1225E+00  0.6347E-01  0.1679E+00
     -0.400  0.2644E-01  0.9198E-02  0.3525E-02  0.1525E-01  0.2052E+00  0.3607E-01  0.1268E+00  0.4682E-01  0.1534E+00
     -0.345  0.2327E-01  0.6841E-02  0.3646E-02  0.9683E-02  0.1204E+00  0.4264E-01  0.1287E+00  0.5035E-01  0.1271E+00
     -0.290  0.2608E-01  0.5522E-02  0.4864E-02  0.1025E-01  0.1224E+00  0.1190E+00  0.1363E+00  0.7830E-01  0.1184E+00
     -0.235  0.3668E-01  0.7322E-02  0.7156E-02  0.1457E-01  0.1960E+00  0.3084E+00  0.1421E+00  0.1381E+00  0.1398E+00
     -0.179  0.4328E-01  0.1033E-01  0.9848E-02  0.1929E-01  0.2756E+00  0.5667E+00  0.1414E+00  0.2619E+00  0.1744E+00
     -0.124  0.3913E-01  0.1166E-01  0.1256E-01  0.2245E-01  0.3108E+00  0.6946E+00  0.1558E+00  0.4402E+00  0.2214E+00
     -0.069  0.3147E-01  0.1061E-01  0.1452E-01  0.2317E-01  0.2988E+00  0.5698E+00  0.1938E+00  0.5460E+00  0.2701E+00
     -0.014  0.2636E-01  0.8029E-02  0.1354E-01  0.1982E-01  0.2441E+00  0.3320E+00  0.2100E+00  0.4620E+00  0.2635E+00
      0.041  0.2075E-01  0.4931E-02  0.9465E-02  0.1287E-01  0.1579E+00  0.1552E+00  0.1706E+00  0.2643E+00  0.1943E+00
      0.096  0.1594E-01  0.2867E-02  0.6381E-02  0.8226E-02  0.1048E+00  0.9531E-01  0.1352E+00  0.1183E+00  0.1443E+00
      0.151  0.1888E-01  0.3036E-02  0.7836E-02  0.1056E-01  0.1439E+00  0.1455E+00  0.1858E+00  0.8694E-01  0.1721E+00
      0.207  0.2692E-01  0.4674E-02  0.1297E-01  0.1653E-01  0.2346E+00  0.2324E+00  0.3166E+00  0.1333E+00  0.2588E+00
      0.262  0.3094E-01  0.6561E-02  0.1803E-01  0.2018E-01  0.2809E+00  0.2528E+00  0.4489E+00  0.1978E+00  0.3471E+00
      0.317  0.3644E-01  0.9779E-02  0.2093E-01  0.2301E-01  0.2794E+00  0.2187E+00  0.5405E+00  0.2544E+00  0.3981E+00
      0.372  0.5467E-01  0.1503E-01  0.2170E-01  0.2763E-01  0.2881E+00  0.2103E+00  0.5865E+00  0.3007E+00  0.4090E+00
      0.427  0.7534E-01  0.1882E-01  0.2000E-01  0.3068E-01  0.3008E+00  0.2202E+00  0.5617E+00  0.3105E+00  0.4019E+00
      0.482  0.8125E-01  0.1779E-01  0.1632E-01  0.3199E-01  0.2912E+00  0.1993E+00  0.4717E+00  0.2752E+00  0.4291E+00
      0.537  0.7260E-01  0.1452E-01  0.1228E-01  0.3258E-01  0.2650E+00  0.1519E+00  0.3623E+00  0.2258E+00  0.4901E+00
      0.592  0.5787E-01  0.1406E-01  0.9159E-02  0.2806E-01  0.2373E+00  0.1117E+00  0.2680E+00  0.1966E+00  0.5090E+00
      0.648  0.4737E-01  0.1655E-01  0.8015E-02  0.1980E-01  0.2252E+00  0.9779E-01  0.2218E+00  0.2056E+00  0.4786E+00
      0.703  0.4736E-01  0.1732E-01  0.8595E-02  0.1614E-01  0.2522E+00  0.1118E+00  0.2312E+00  0.2613E+00  0.4628E+00
      0.758  0.5281E-01  0.1517E-01  0.9760E-02  0.1905E-01  0.3366E+00  0.1489E+00  0.2689E+00  0.3525E+00  0.4985E+00
      0.813  0.5012E-01  0.1255E-01  0.1010E-01  0.2146E-01  0.4235E+00  0.1936E+00  0.2890E+00  0.3927E+00  0.5421E+00
      0.868  0.3812E-01  0.1142E-01  0.9514E-02  0.1902E-01  0.4148E+00  0.2694E+00  0.2889E+00  0.3417E+00  0.5514E+00
      0.923  0.3208E-01  0.1250E-01  0.9872E-02  0.1651E-01  0.3187E+00  0.4117E+00  0.3202E+00  0.3123E+00  0.5474E+00
      0.978  0.3327E-01  0.1357E-01  0.1055E-01  0.1775E-01  0.2702E+00  0.5431E+00  0.3500E+00  0.3737E+00  0.4891E+00
      1.034  0.3092E-01  0.1536E-01  0.9613E-02  0.1969E-01  0.3494E+00  0.5885E+00  0.3121E+00  0.4533E+00  0.3648E+00
      1.089  0.2904E-01  0.2717E-01  0.8035E-02  0.2054E-01  0.4578E+00  0.5824E+00  0.2576E+00  0.4847E+00  0.3109E+00
      1.144  0.3897E-01  0.5299E-01  0.7443E-02  0.2387E-01  0.4536E+00  0.5595E+00  0.2794E+00  0.4867E+00  0.4187E+00
      1.199  0.5476E-01  0.7382E-01  0.7700E-02  0.2992E-01  0.3612E+00  0.5291E+00  0.3757E+00  0.4834E+00  0.5505E+00
      1.254  0.6428E-01  0.7088E-01  0.7534E-02  0.3328E-01  0.3023E+00  0.4560E+00  0.4449E+00  0.4442E+00  0.5243E+00
      1.309  0.7324E-01  0.5804E-01  0.6924E-02  0.3488E-01  0.3274E+00  0.3388E+00  0.4394E+00  0.3888E+00  0.4065E+00
      1.364  0.8413E-01  0.4899E-01  0.7211E-02  0.3891E-01  0.3881E+00  0.2589E+00  0.4125E+00  0.3808E+00  0.3256E+00
      1.419  0.9194E-01  0.3952E-01  0.8313E-02  0.4782E-01  0.4200E+00  0.2474E+00  0.3940E+00  0.4207E+00  0.2805E+00
      1.475  0.9746E-01  0.3535E-01  0.8707E-02  0.5860E-01  0.4153E+00  0.2675E+00  0.3585E+00  0.4749E+00  0.2647E+00
      1.530  0.8710E-01  0.3627E-01  0.7462E-02  0.5496E-01  0.3457E+00  0.2521E+00  0.2673E+00  0.4652E+00  0.2429E+00
      1.585  0.5737E-01  0.2920E-01  0.6162E-02  0.3384E-01  0.2210E+00  0.1766E+00  0.1576E+00  0.3572E+00  0.1744E+00
      1.640  0.3437E-01  0.1972E-01  0.7463E-02  0.1580E-01  0.1397E+00  0.1065E+00  0.1105E+00  0.2720E+00  0.1231E+00
      1.695  0.3105E-01  0.2388E-01  0.1038E-01  0.1414E-01  0.1415E+00  0.8954E-01  0.1298E+00  0.2906E+00  0.1538E+00
      1.750  0.3594E-01  0.3829E-01  0.1149E-01  0.2382E-01  0.1900E+00  0.1073E+00  0.1535E+00  0.3467E+00  0.2176E+00
      1.805  0.3808E-01  0.4514E-01  0.1062E-01  0.3176E-01  0.2683E+00  0.1306E+00  0.1444E+00  0.3817E+00  0.2256E+00
      1.860  0.3550E-01  0.3910E-01  0.9375E-02  0.3159E-01  0.3413E+00  0.1506E+00  0.1297E+00  0.4098E+00  0.1726E+00
      1.916  0.3306E-01  0.2988E-01  0.8471E-02  0.2851E-01  0.3504E+00  0.1705E+00  0.1490E+00  0.4640E+00  0.1145E+00
      1.971  0.3026E-01  0.2223E-01  0.7409E-02  0.2358E-01  0.3168E+00  0.1798E+00  0.1794E+00  0.5145E+00  0.7980E-01
      2.026  0.2426E-01  0.1570E-01  0.6454E-02  0.1488E-01  0.2903E+00  0.1862E+00  0.1935E+00  0.5588E+00  0.6837E-01
      2.081  0.2222E-01  0.1351E-01  0.8138E-02  0.8499E-02  0.2582E+00  0.2133E+00  0.2241E+00  0.6627E+00  0.7597E-01
      2.136  0.2791E-01  0.2103E-01  0.1180E-01  0.1045E-01  0.2223E+00  0.2672E+00  0.2889E+00  0.8258E+00  0.1083E+00
      2.191  0.3436E-01  0.3747E-01  0.1289E-01  0.1967E-01  0.2193E+00  0.3510E+00  0.3556E+00  0.1007E+01  0.1658E+00
      2.246  0.3399E-01  0.4628E-01  0.1007E-01  0.2874E-01  0.2342E+00  0.4287E+00  0.3687E+00  0.1086E+01  0.1956E+00
      2.302  0.2880E-01  0.3603E-01  0.6486E-02  0.3191E-01  0.2430E+00  0.5144E+00  0.3359E+00  0.9910E+00  0.1613E+00
      2.357  0.2832E-01  0.2113E-01  0.5640E-02  0.3287E-01  0.2670E+00  0.6980E+00  0.3600E+00  0.8897E+00  0.1206E+00
      2.412  0.3345E-01  0.1718E-01  0.7441E-02  0.3825E-01  0.3050E+00  0.8890E+00  0.4389E+00  0.8312E+00  0.1198E+00
      2.467  0.3490E-01  0.2282E-01  0.8521E-02  0.4537E-01  0.3465E+00  0.8553E+00  0.4364E+00  0.6540E+00  0.1336E+00
      2.522  0.3090E-01  0.3063E-01  0.7242E-02  0.4793E-01  0.4108E+00  0.5870E+00  0.3274E+00  0.3696E+00  0.1447E+00
      2.577  0.2749E-01  0.3439E-01  0.4883E-02  0.4413E-01  0.4831E+00  0.3335E+00  0.2060E+00  0.1639E+00  0.1588E+00
      2.632  0.2651E-01  0.2902E-01  0.3337E-02  0.3271E-01  0.5338E+00  0.2660E+00  0.1252E+00  0.1110E+00  0.1571E+00