   12   12    1    1
  0.2131048E+02  0.5635338E-09  0.5635338E-09  0.9298308E-09  0.3500000E-15
  1.000000000000000E-004
  CAR 
 Pt(111)                                 
  120    8   72
 
  0.0000000E+00  0.0000000E+00  0.0000000E+00  0.2040816E-01
   1       -4.968196
   2       -3.240721
   3       -2.801338
   4       -2.390743
   5       -2.390742
   6       -2.390734
   7       -2.147883
   8       -2.147882
   9       -2.147877
  10       -1.685414
  11       -1.685413
  12       -1.685409
  13       -1.577349
  14       -1.577349
  15       -1.577339
  16       -0.129099
  17       -0.129098
  18       -0.129097
  19        0.173453
  20        0.173453
  21        0.173463
  22        0.304343
  23        0.428422
  24        0.428439
  25        0.750380
  26        0.750395
  27        0.861567
  28        0.931774
  29        0.931775
  30        0.931776
  31        0.955949
  32        0.955967
  33        1.506780
  34        1.506780
  35        1.506781
  36        2.390356
  37        2.390361
  38        2.425890
  39        2.425890
  40        2.425890
  41        2.473357
  42        2.473357
  43        2.473358
  44        2.523787
  45        3.063140
  46        3.063141
  47        3.543232
  48        3.543234
  49        3.543234
  50        3.636138
  51        3.636141
  52        3.636141
  53        3.684853
  54        3.684855
  55        3.884127
  56        3.884137
  57        3.884137
  58        4.217524
  59        4.217534
  60        4.217534
  61        4.264682
  62        4.264693
  63        4.264693
  64        5.079100
  65        5.079105
  66        5.079108
  67        5.590315
  68        6.531053
  69        6.531055
  70        6.563834
  71        6.564423
  72        6.564426
 
  0.1428571E+00  0.0000000E+00  0.0000000E+00  0.1224490E+00
   1       -4.796140
   2       -3.066125
   3       -2.636201
   4       -2.387809
   5       -2.258749
   6       -2.258741
   7       -2.090977
   8       -2.027354
   9       -2.027350
  10       -1.657113
  11       -1.619859
  12       -1.619853
  13       -1.480716
  14       -1.413331
  15       -1.413321
  16       -0.128680
  17       -0.128680
  18       -0.101133
  19        0.243649
  20        0.243658
  21        0.249388
  22        0.285234
  23        0.308204
  24        0.524433
  25        0.551078
  26        0.793054
  27        0.793055
  28        0.846895
  29        0.898298
  30        0.952066
  31        0.969344
  32        1.082500
  33        1.340116
  34        1.446552
  35        1.446553
  36        2.128107
  37        2.206521
  38        2.206523
  39        2.301548
  40        2.334568
  41        2.405142
  42        2.432108
  43        2.444011
  44        2.444011
  45        3.060269
  46        3.272918
  47        3.293384
  48        3.293391
  49        3.430986
  50        3.433945
  51        3.433950
  52        3.484946
  53        3.541605
  54        3.607013
  55        3.607019
  56        3.689498
  57        3.730733
  58        3.768733
  59        3.768739
  60        4.016630
  61        4.016636
  62        4.029208
  63        4.068109
  64        4.131661
  65        5.008250
  66        5.478197
  67        5.478201
  68        6.187034
  69        6.293173
  70        6.293176
  71        7.126017
  72        7.460396
 
  0.2857143E+00  0.0000000E+00  0.0000000E+00  0.1224490E+00
   1       -4.306267
   2       -2.588838
   3       -2.479241
   4       -2.187229
   5       -1.943855
   6       -1.899548
   7       -1.899544
   8       -1.717549
   9       -1.717547
  10       -1.552951
  11       -1.407244
  12       -1.407235
  13       -1.229613
  14       -0.962608
  15       -0.962599
  16       -0.174487
  17       -0.174486
  18       -0.055730
  19       -0.020879
  20        0.126974
  21        0.342378
  22        0.386961
  23        0.425686
  24        0.425686
  25        0.465611
  26        0.465619
  27        0.781032
  28        0.898485
  29        0.933398
  30        0.982622
  31        1.071817
  32        1.093948
  33        1.208525
  34        1.208527
  35        1.450044
  36        1.691933
  37        1.784814
  38        1.797044
  39        1.797047
  40        2.206906
  41        2.206907
  42        2.214464
  43        2.214471
  44        2.219114
  45        2.245711
  46        2.399282
  47        2.429097
  48        2.934965
  49        2.934976
  50        2.997258
  51        3.033338
  52        3.058909
  53        3.134095
  54        3.142220
  55        3.142222
  56        3.402752
  57        3.499186
  58        3.609492
  59        3.609492
  60        3.701767
  61        3.785831
  62        3.853575
  63        3.925976
  64        3.925977
  65        4.143315
  66        5.716485
  67        5.716486
  68        6.240478
  69        6.591730
  70        6.591731
  71        7.367369
  72        8.160970
 
  0.4285714E+00  0.0000000E+00  0.0000000E+00  0.1224490E+00
   1       -3.596063
   2       -2.887792
   3       -2.028642
   4       -1.824656
   5       -1.649832
   6       -1.507477
   7       -1.507477
   8       -1.441168
   9       -1.424505
  10       -1.424505
  11       -1.027503
  12       -1.027493
  13       -0.865194
  14       -0.493270
  15       -0.493269
  16       -0.449365
  17       -0.172367
  18       -0.172367
  19       -0.171298
  20       -0.065736
  21       -0.034552
  22       -0.034550
  23        0.344250
  24        0.415292
  25        0.590573
  26        0.747717
  27        0.747722
  28        0.924517
  29        0.924518
  30        0.964892
  31        0.977941
  32        1.186965
  33        1.186971
  34        1.188535
  35        1.198777
  36        1.228549
  37        1.319803
  38        1.338279
  39        1.338285
  40        1.407840
  41        1.487262
  42        1.941051
  43        2.019289
  44        2.074111
  45        2.098963
  46        2.098965
  47        2.225563
  48        2.347293
  49        2.397607
  50        2.397613
  51        2.688540
  52        2.764623
  53        2.909928
  54        2.909928
  55        2.987934
  56        3.049717
  57        3.138335
  58        3.423725
  59        3.606801
  60        3.606801
  61        3.714027
  62        3.726014
  63        3.938747
  64        3.938747
  65        4.786602
  66        5.454419
  67        5.812852
  68        5.812853
  69        6.773342
  70        6.773343
  71        8.307861
  72        8.308723
 
  0.1428571E+00  0.1428571E+00  0.0000000E+00  0.1224490E+00
   1       -4.463876
   2       -2.736079
   3       -2.325045
   4       -2.277411
   5       -2.277410
   6       -1.915970
   7       -1.915969
   8       -1.901594
   9       -1.772578
  10       -1.541280
  11       -1.541279
  12       -1.447990
  13       -1.252388
  14       -1.252387
  15       -1.032819
  16       -0.180903
  17       -0.088633
  18       -0.088632
  19        0.042536
  20        0.270797
  21        0.285425
  22        0.363027
  23        0.372163
  24        0.372164
  25        0.511386
  26        0.758853
  27        0.758854
  28        0.785773
  29        0.829702
  30        0.900683
  31        1.037220
  32        1.233747
  33        1.233747
  34        1.321214
  35        1.345119
  36        1.799902
  37        1.885427
  38        1.930517
  39        1.930517
  40        2.209001
  41        2.285241
  42        2.353549
  43        2.353549
  44        2.429275
  45        2.549821
  46        2.549821
  47        2.581974
  48        2.780266
  49        3.065335
  50        3.065335
  51        3.170104
  52        3.295870
  53        3.295870
  54        3.309461
  55        3.429004
  56        3.515617
  57        3.564416
  58        3.646084
  59        3.646084
  60        3.796215
  61        3.796215
  62        3.850263
  63        4.013978
  64        4.377588
  65        4.377589
  66        4.931576
  67        4.931576
  68        6.878225
  69        6.940394
  70        6.940405
  71        7.029754
  72        7.420460
 
  0.2857143E+00  0.1428571E+00  0.0000000E+00  0.2448980E+00
   1       -3.852784
   2       -2.509332
   3       -2.177790
   4       -2.006247
   5       -1.795576
   6       -1.750681
   7       -1.573864
   8       -1.459416
   9       -1.428548
  10       -1.393043
  11       -1.275090
  12       -1.103254
  13       -0.961178
  14       -0.765825
  15       -0.544969
  16       -0.301717
  17       -0.260773
  18       -0.170913
  19       -0.074145
  20       -0.070692
  21        0.182751
  22        0.199510
  23        0.219863
  24        0.315946
  25        0.605474
  26        0.652102
  27        0.662171
  28        0.778905
  29        0.784417
  30        0.948098
  31        1.056564
  32        1.069057
  33        1.198910
  34        1.265784
  35        1.335601
  36        1.457559
  37        1.498462
  38        1.512980
  39        1.514914
  40        1.672098
  41        1.738777
  42        1.848246
  43        1.928505
  44        2.036519
  45        2.199261
  46        2.214317
  47        2.391136
  48        2.422415
  49        2.455694
  50        2.681589
  51        2.728655
  52        2.942926
  53        2.991269
  54        3.169797
  55        3.310106
  56        3.331161
  57        3.473054
  58        3.473689
  59        3.599173
  60        3.603189
  61        3.663551
  62        3.787549
  63        3.790065
  64        3.913129
  65        4.582569
  66        4.584247
  67        5.144754
  68        5.966851
  69        6.909504
  70        7.121515
  71        8.245800
  72        8.388694
 
  0.4285714E+00  0.1428571E+00  0.0000000E+00  0.1224490E+00
   1       -3.106810
   2       -3.106809
   3       -1.834992
   4       -1.744649
   5       -1.744649
   6       -1.389327
   7       -1.358214
   8       -1.358214
   9       -1.264070
  10       -1.209004
  11       -0.897838
  12       -0.756167
  13       -0.646117
  14       -0.603627
  15       -0.603626
  16       -0.584090
  17       -0.307363
  18       -0.307355
  19       -0.221535
  20       -0.083545
  21       -0.019644
  22        0.189413
  23        0.384679
  24        0.384679
  25        0.417675
  26        0.530993
  27        0.531000
  28        0.643878
  29        0.751524
  30        0.751527
  31        0.846671
  32        1.006165
  33        1.087539
  34        1.147345
  35        1.149007
  36        1.174830
  37        1.199761
  38        1.199762
  39        1.460619
  40        1.460621
  41        1.750779
  42        1.750784
  43        2.077498
  44        2.099308
  45        2.099312
  46        2.153054
  47        2.260228
  48        2.308185
  49        2.536721
  50        2.536731
  51        2.653732
  52        2.653735
  53        2.821512
  54        2.965309
  55        2.965315
  56        3.058604
  57        3.377893
  58        3.377894
  59        3.493489
  60        3.598840
  61        3.667240
  62        3.667240
  63        3.774736
  64        3.804354
  65        4.653998
  66        5.220328
  67        5.220329
  68        5.226149
  69        6.911897
  70        7.088161
  71        8.471451
  72        9.571287
 
  0.2857143E+00  0.2857143E+00  0.0000000E+00  0.1224490E+00
   1       -3.176295
   2       -2.457686
   3       -2.457686
   4       -1.657043
   5       -1.453461
   6       -1.453461
   7       -1.256916
   8       -1.167332
   9       -1.095868
  10       -1.064387
  11       -1.064387
  12       -0.749645
  13       -0.658217
  14       -0.584406
  15       -0.541944
  16       -0.541944
  17       -0.428101
  18       -0.428100
  19       -0.219459
  20       -0.177851
  21        0.000830
  22        0.213909
  23        0.213909
  24        0.325894
  25        0.389476
  26        0.389476
  27        0.479418
  28        0.502686
  29        0.502686
  30        0.503041
  31        0.812272
  32        1.005881
  33        1.099071
  34        1.099071
  35        1.174125
  36        1.218758
  37        1.219863
  38        1.366070
  39        1.366070
  40        1.520419
  41        1.651243
  42        1.940088
  43        1.940088
  44        2.055070
  45        2.180300
  46        2.349739
  47        2.372847
  48        2.372847
  49        2.455123
  50        2.643434
  51        2.741500
  52        2.741500
  53        2.909779
  54        3.297927
  55        3.328039
  56        3.358986
  57        3.358986
  58        3.447215
  59        3.491276
  60        3.491277
  61        3.559344
  62        3.576055
  63        3.656214
  64        3.656215
  65        4.007148
  66        4.007148
  67        5.157710
  68        5.889305
  69        5.889306
  70        8.367092
  71        8.415467
  72        9.381574
