Pt(111)                                 
   5.63533800000000     
     0.866025   -0.500000    0.000000
     0.000000    1.000000    0.000000
     0.000000    0.000000    1.650000
  12
Direct
  0.333333  0.666667  0.000000
  0.333333  0.166667  0.000000
  0.833333  0.166667  0.000000
  0.833333  0.666667  0.000000
  0.000000  0.500000  0.248957
  0.000000  0.000000  0.248957
  0.500000  0.500000  0.248957
  0.500000  0.000000  0.248957
  0.166667  0.333333  0.498023
  0.666667  0.333333  0.498023
  0.666667  0.833333  0.498023
  0.166667  0.833333  0.498023
 
   48   48   72
 0.56422333019E+01 0.54546018884E+01 0.48943135204E+01 0.38787059740E+01 0.24075710551E+01
 0.21331297045E+00 -.25095422793E+01 -.59260295451E+01 -.96172515891E+01 -.12663181459E+02
 -.15033376781E+02 -.16507613527E+02 -.17043065248E+02 -.16527346624E+02 -.15059128237E+02
 -.12677660362E+02 -.95304980227E+01 -.59542518981E+01 -.25268118101E+01 0.24122081546E+00
 0.23708086924E+01 0.38894068923E+01 0.48762947945E+01 0.54503822712E+01 0.56422333019E+01
 0.54546018884E+01 0.48943135204E+01 0.38787059740E+01 0.24075710551E+01 0.21331297044E+00
 -.25095422793E+01 -.59260295451E+01 -.96172515891E+01 -.12663181459E+02 -.15033376781E+02
 -.16507613527E+02 -.17043065248E+02 -.16527346624E+02 -.15059128237E+02 -.12677660362E+02
 -.95304980227E+01 -.59542518981E+01 -.25268118101E+01 0.24122081546E+00 0.23708086924E+01
 0.38894068923E+01 0.48762947945E+01 0.54503822712E+01 0.54504013878E+01 0.54507988028E+01
 0.49458874985E+01 0.38792762127E+01 0.21609589471E+01 -.42033977426E+00 -.38633678689E+01
 -.82986891198E+01 -.12673289005E+02 -.16518933929E+02 -.19715991088E+02 -.21937581159E+02
 -.23091261038E+02 -.23077085770E+02 -.21925025291E+02 -.19687066925E+02 -.16583130808E+02
 -.12680383501E+02 -.82701931633E+01 -.38856527780E+01 -.39292221984E+00 0.21584306415E+01
 0.38904101484E+01 0.49497047992E+01 0.54504013878E+01 0.54507988028E+01 0.49458874985E+01
 0.38792762127E+01 0.21609589471E+01 -.42033977426E+00 -.38633678689E+01 -.82986891198E+01
 -.12673289005E+02 -.16518933929E+02 -.19715991088E+02 -.21937581159E+02 -.23091261038E+02
 -.23077085770E+02 -.21925025291E+02 -.19687066925E+02 -.16583130808E+02 -.12680383501E+02
 -.82701931633E+01 -.38856527780E+01 -.39292221984E+00 0.21584306415E+01 0.38904101484E+01
 0.49497047992E+01 0.48762859032E+01 0.52297108093E+01 0.48743480483E+01 0.38924469182E+01
 0.20578071286E+01 -.76117291785E+00 -.48115491672E+01 -.99779666593E+01 -.15049274360E+02
 -.19724247921E+02 -.23690207308E+02 -.26678228181E+02 -.28568128343E+02 -.29192002032E+02
 -.28579376155E+02 -.26692352503E+02 -.23658997686E+02 -.19699566260E+02 -.15076659756E+02
 -.99543625469E+01 -.48421426971E+01 -.75571492877E+00 0.20448405804E+01 0.38904024113E+01
 0.48762859032E+01 0.52297108093E+01 0.48743480483E+01 0.38924469182E+01 0.20578071286E+01
 -.76117291785E+00 -.48115491672E+01 -.99779666593E+01 -.15049274360E+02 -.19724247921E+02
 -.23690207308E+02 -.26678228181E+02 -.28568128343E+02 -.29192002032E+02 -.28579376155E+02
 -.26692352503E+02 -.23658997686E+02 -.19699566260E+02 -.15076659756E+02 -.99543625469E+01
 -.48421426971E+01 -.75571492877E+00 0.20448405804E+01 0.38904024113E+01 0.38893758430E+01
 0.47059781523E+01 0.47008872795E+01 0.39004802523E+01 0.21449009904E+01 -.75537328069E+00
 -.51535252656E+01 -.10853537494E+02 -.16528331290E+02 -.21951554020E+02 -.26683687953E+02
 -.30480326556E+02 -.33076460419E+02 -.34392354609E+02 -.34383013790E+02 -.33072567969E+02
 -.30505944911E+02 -.26697051981E+02 -.21936639412E+02 -.16544499556E+02 -.10837835199E+02
 -.51436036550E+01 -.75571073316E+00 0.21584258558E+01 0.38893758430E+01 0.47059781523E+01
 0.47008872795E+01 0.39004802523E+01 0.21449009904E+01 -.75537328069E+00 -.51535252656E+01
 -.10853537494E+02 -.16528331290E+02 -.21951554020E+02 -.26683687953E+02 -.30480326556E+02
 -.33076460419E+02 -.34392354609E+02 -.34383013790E+02 -.33072567969E+02 -.30505944911E+02
 -.26697051981E+02 -.21936639412E+02 -.16544499556E+02 -.10837835199E+02 -.51436036550E+01
 -.75571073316E+00 0.21584258558E+01 0.23708096456E+01 0.39049425831E+01 0.43487157694E+01
 0.39012769717E+01 0.23690827897E+01 -.38753568857E+00 -.48339819738E+01 -.10832478954E+02
 -.17064659093E+02 -.23108210460E+02 -.28578015339E+02 -.33080974474E+02 -.36383209579E+02
 -.38323123806E+02 -.39003728395E+02 -.38324764751E+02 -.36355270171E+02 -.33070613998E+02
 -.28595636023E+02 -.23091019726E+02 -.17075220660E+02 -.10837846195E+02 -.48421347590E+01
 -.39289929083E+00 0.23708096456E+01 0.39049425831E+01 0.43487157694E+01 0.39012769717E+01
 0.23690827897E+01 -.38753568857E+00 -.48339819738E+01 -.10832478954E+02 -.17064659093E+02
 -.23108210460E+02 -.28578015339E+02 -.33080974474E+02 -.36383209579E+02 -.38323123806E+02
 -.39003728395E+02 -.38324764751E+02 -.36355270171E+02 -.33070613998E+02 -.28595636023E+02
 -.23091019726E+02 -.17075220660E+02 -.10837846195E+02 -.48421347590E+01 -.39289929083E+00
 0.24125100635E+00 0.26956194779E+01 0.38054742613E+01 0.38123875139E+01 0.26927138092E+01
 0.24898514830E+00 -.38988458580E+01 -.99581939003E+01 -.16548035675E+02 -.23094129273E+02
 -.29202512769E+02 -.34398917122E+02 -.38325398393E+02 -.40913871460E+02 -.42167414890E+02
 -.42181141134E+02 -.40936630620E+02 -.38338252134E+02 -.34383912903E+02 -.29211049064E+02
 -.23091031580E+02 -.16544521855E+02 -.99543658842E+01 -.38856256934E+01 0.24125100635E+00
 0.26956194779E+01 0.38054742613E+01 0.38123875139E+01 0.26927138092E+01 0.24898514830E+00
 -.38988458580E+01 -.99581939003E+01 -.16548035675E+02 -.23094129273E+02 -.29202512769E+02
 -.34398917122E+02 -.38325398393E+02 -.40913871460E+02 -.42167414890E+02 -.42181141134E+02
 -.40936630620E+02 -.38338252134E+02 -.34383912903E+02 -.29211049064E+02 -.23091031580E+02
 -.16544521855E+02 -.99543658842E+01 -.38856256934E+01 -.25268086632E+01 0.10520062933E+01
 0.30098159104E+01 0.35838363511E+01 0.30092657314E+01 0.10483132543E+01 -.25268462043E+01
 -.82596119359E+01 -.15075428834E+02 -.21938959720E+02 -.28589243292E+02 -.34389582483E+02
 -.39006998689E+02 -.42168716940E+02 -.44096735946E+02 -.44717197129E+02 -.44058259886E+02
 -.42166662125E+02 -.39013783385E+02 -.34383908033E+02 -.28595631923E+02 -.21936645140E+02
 -.15076671794E+02 -.82701993672E+01 -.25268086632E+01 0.10520062933E+01 0.30098159104E+01
 0.35838363511E+01 0.30092657314E+01 0.10483132543E+01 -.25268462043E+01 -.82596119359E+01
 -.15075428834E+02 -.21938959720E+02 -.28589243292E+02 -.34389582483E+02 -.39006998689E+02
 -.42168716940E+02 -.44096735946E+02 -.44717197129E+02 -.44058259886E+02 -.42166662125E+02
 -.39013783385E+02 -.34383908033E+02 -.28595631923E+02 -.21936645140E+02 -.15076671794E+02
 -.82701993672E+01 -.59542773666E+01 -.97092672444E+00 0.19012288641E+01 0.32261682238E+01
 0.32216296650E+01 0.19064202014E+01 -.97185694786E+00 -.59543840281E+01 -.12688349044E+02
 -.19694756210E+02 -.26697937760E+02 -.33077090127E+02 -.38327066891E+02 -.42182392567E+02
 -.44717408987E+02 -.46377371381E+02 -.46401974625E+02 -.44732821831E+02 -.42166661977E+02
 -.38338245424E+02 -.33070597421E+02 -.26697036393E+02 -.19699567645E+02 -.12680403875E+02
 -.59542773666E+01 -.97092672444E+00 0.19012288641E+01 0.32261682238E+01 0.32216296650E+01
 0.19064202014E+01 -.97185694786E+00 -.59543840281E+01 -.12688349044E+02 -.19694756210E+02
 -.26697937760E+02 -.33077090127E+02 -.38327066891E+02 -.42182392567E+02 -.44717408987E+02
 -.46377371381E+02 -.46401974625E+02 -.44732821831E+02 -.42166661977E+02 -.38338245424E+02
 -.33070597421E+02 -.26697036393E+02 -.19699567645E+02 -.12680403875E+02 -.95304985719E+01
 -.33954785271E+01 0.56733355122E+00 0.26548564800E+01 0.33228124270E+01 0.26549103312E+01
 0.56692989530E+00 -.33960854737E+01 -.95302319719E+01 -.16582693624E+02 -.23659628128E+02
 -.30505687438E+02 -.36355408853E+02 -.40936607408E+02 -.44058319963E+02 -.46402038141E+02
 -.47586963538E+02 -.46401974510E+02 -.44058262484E+02 -.40936635457E+02 -.36355271673E+02
 -.30505939216E+02 -.23658988246E+02 -.16583124571E+02 -.95304985719E+01 -.33954785271E+01
 0.56733355122E+00 0.26548564800E+01 0.33228124270E+01 0.26549103312E+01 0.56692989530E+00
 -.33960854737E+01 -.95302319719E+01 -.16582693624E+02 -.23659628128E+02 -.30505687438E+02
 -.36355408853E+02 -.40936607408E+02 -.44058319963E+02 -.46402038141E+02 -.47586963538E+02
 -.46401974510E+02 -.44058262484E+02 -.40936635457E+02 -.36355271673E+02 -.30505939216E+02
 -.23658988246E+02 -.16583124571E+02 -.12677634294E+02 -.59445892027E+01 -.96240767115E+00
 0.19174753071E+01 0.32334419812E+01 0.32379734540E+01 0.19125119846E+01 -.96029459556E+00
 -.59439477331E+01 -.12670834876E+02 -.19691382847E+02 -.26691127199E+02 -.33066286590E+02
 -.38335706089E+02 -.42165520052E+02 -.44732340437E+02 -.46402037427E+02 -.46377369842E+02
 -.44717197876E+02 -.42181149384E+02 -.38324780729E+02 -.33072582018E+02 -.26692351717E+02
 -.19687048090E+02 -.12677634294E+02 -.59445892027E+01 -.96240767115E+00 0.19174753071E+01
 0.32334419812E+01 0.32379734540E+01 0.19125119846E+01 -.96029459556E+00 -.59439477331E+01
 -.12670834876E+02 -.19691382847E+02 -.26691127199E+02 -.33066286590E+02 -.38335706089E+02
 -.42165520052E+02 -.44732340437E+02 -.46402037427E+02 -.46377369842E+02 -.44717197876E+02
 -.42181149384E+02 -.38324780729E+02 -.33072582018E+02 -.26692351717E+02 -.19687048090E+02
 -.15059127571E+02 -.82420127077E+01 -.25042063688E+01 0.10734117954E+01 0.30354401923E+01
 0.36100932783E+01 0.30357659721E+01 0.10766733111E+01 -.25053052857E+01 -.82520574542E+01
 -.15060346724E+02 -.21922750937E+02 -.28585971252E+02 -.34377420031E+02 -.39010536422E+02
 -.42165520346E+02 -.44058319846E+02 -.44717408093E+02 -.44096733465E+02 -.42167411061E+02
 -.39003726776E+02 -.34383018478E+02 -.28579385712E+02 -.21925032536E+02 -.15059127571E+02
 -.82420127077E+01 -.25042063688E+01 0.10734117954E+01 0.30354401923E+01 0.36100932783E+01
 0.30357659721E+01 0.10766733111E+01 -.25053052857E+01 -.82520574542E+01 -.15060346724E+02
 -.21922750937E+02 -.28585971252E+02 -.34377420031E+02 -.39010536422E+02 -.42165520346E+02
 -.44058319846E+02 -.44717408093E+02 -.44096733465E+02 -.42167411061E+02 -.39003726776E+02
 -.34383018478E+02 -.28579385712E+02 -.21925032536E+02 -.16527372174E+02 -.99333896936E+01
 -.38684736716E+01 0.28117722712E+00 0.27255502335E+01 0.38453996653E+01 0.38387601723E+01
 0.27286234712E+01 0.27415913459E+00 -.38551406253E+01 -.99294279954E+01 -.16523996462E+02
 -.23074178796E+02 -.29200102510E+02 -.34377420843E+02 -.38335707492E+02 -.40936607605E+02
 -.42182392704E+02 -.42168716710E+02 -.40913864613E+02 -.38323107310E+02 -.34392339158E+02
 -.29192003336E+02 -.23077106008E+02 -.16527372174E+02 -.99333896936E+01 -.38684736716E+01
 0.28117722712E+00 0.27255502335E+01 0.38453996653E+01 0.38387601723E+01 0.27286234712E+01
 0.27415913459E+00 -.38551406253E+01 -.99294279954E+01 -.16523996462E+02 -.23074178796E+02
 -.29200102510E+02 -.34377420843E+02 -.38335707492E+02 -.40936607605E+02 -.42182392704E+02
 -.42168716710E+02 -.40913864613E+02 -.38323107310E+02 -.34392339158E+02 -.29192003336E+02
 -.23077106008E+02 -.17043065323E+02 -.10804001083E+02 -.47982204678E+01 -.35029765420E+00
 0.24086521900E+01 0.39423454237E+01 0.43906720555E+01 0.39458773520E+01 0.24098149309E+01
 -.35570816421E+00 -.48068118565E+01 -.10809440211E+02 -.17053199335E+02 -.23074176725E+02
 -.28585971843E+02 -.33066289179E+02 -.36355408379E+02 -.38327064901E+02 -.39007001760E+02
 -.38325405105E+02 -.36383210608E+02 -.33076452849E+02 -.28568119377E+02 -.23091256675E+02
 -.17043065323E+02 -.10804001083E+02 -.47982204678E+01 -.35029765420E+00 0.24086521900E+01
 0.39423454237E+01 0.43906720555E+01 0.39458773520E+01 0.24098149309E+01 -.35570816421E+00
 -.48068118565E+01 -.10809440211E+02 -.17053199335E+02 -.23074176725E+02 -.28585971843E+02
 -.33066289179E+02 -.36355408379E+02 -.38327064901E+02 -.39007001760E+02 -.38325405105E+02
 -.36383210608E+02 -.33076452849E+02 -.28568119377E+02 -.23091256675E+02 -.16507587968E+02
 -.10824972341E+02 -.51170864804E+01 -.71591756547E+00 0.21883019724E+01 0.39475700247E+01
 0.47503994433E+01 0.47554001868E+01 0.39369442536E+01 0.22019451458E+01 -.71606859383E+00
 -.51067597435E+01 -.10809438131E+02 -.16523992757E+02 -.21922750134E+02 -.26691129502E+02
 -.30505687233E+02 -.33077086285E+02 -.34389582722E+02 -.34398927675E+02 -.33080990961E+02
 -.30480338303E+02 -.26678226887E+02 -.21937564627E+02 -.16507587968E+02 -.10824972341E+02
 -.51170864804E+01 -.71591756547E+00 0.21883019724E+01 0.39475700247E+01 0.47503994433E+01
 0.47554001868E+01 0.39369442536E+01 0.22019451458E+01 -.71606859383E+00 -.51067597435E+01
 -.10809438131E+02 -.16523992757E+02 -.21922750134E+02 -.26691129502E+02 -.30505687233E+02
 -.33077086285E+02 -.34389582722E+02 -.34398927675E+02 -.33080990961E+02 -.30480338303E+02
 -.26678226887E+02 -.21937564627E+02 -.15033377256E+02 -.99529722601E+01 -.47760325305E+01
 -.72143840027E+00 0.21031497380E+01 0.39434114797E+01 0.49288487007E+01 0.52855557165E+01
 0.49305984109E+01 0.39413165498E+01 0.20899268994E+01 -.71606941661E+00 -.48068124065E+01
 -.99294271631E+01 -.15060345583E+02 -.19691383161E+02 -.23659629152E+02 -.26697936847E+02
 -.28589239670E+02 -.29202508960E+02 -.28578014861E+02 -.26683692620E+02 -.23690215724E+02
 -.19715998353E+02 -.15033377256E+02 -.99529722601E+01 -.47760325305E+01 -.72143840027E+00
 0.21031497380E+01 0.39434114797E+01 0.49288487007E+01 0.52855557165E+01 0.49305984109E+01
 0.39413165498E+01 0.20899268994E+01 -.71606941661E+00 -.48068124065E+01 -.99294271631E+01
 -.15060345583E+02 -.19691383161E+02 -.23659629152E+02 -.26697936847E+02 -.28589239670E+02
 -.29202508960E+02 -.28578014861E+02 -.26683692620E+02 -.23690215724E+02 -.19715998353E+02
 -.12663207470E+02 -.82804742490E+01 -.38333019407E+01 -.38292779547E+00 0.22042519844E+01
 0.39300993682E+01 0.50020402905E+01 0.55092220894E+01 0.55091026251E+01 0.50058220488E+01
 0.39413161788E+01 0.22019436149E+01 -.35571069616E+00 -.38551427996E+01 -.82520578050E+01
 -.12670834104E+02 -.16582694281E+02 -.19694758521E+02 -.21938959030E+02 -.23094120251E+02
 -.23108194426E+02 -.21951540743E+02 -.19724248764E+02 -.16518951992E+02 -.12663207470E+02
 -.82804742490E+01 -.38333019407E+01 -.38292779547E+00 0.22042519844E+01 0.39300993682E+01
 0.50020402905E+01 0.55092220894E+01 0.55091026251E+01 0.50058220488E+01 0.39413161788E+01
 0.22019436149E+01 -.35571069616E+00 -.38551427996E+01 -.82520578050E+01 -.12670834104E+02
 -.16582694281E+02 -.19694758521E+02 -.21938959030E+02 -.23094120251E+02 -.23108194426E+02
 -.21951540743E+02 -.19724248764E+02 -.16518951992E+02 -.96172511825E+01 -.59161371272E+01
 -.24874083478E+01 0.24596382576E+00 0.24467149441E+01 0.39262509706E+01 0.49486860955E+01
 0.55133666131E+01 0.57014445684E+01 0.55091035120E+01 0.49305984792E+01 0.39369438186E+01
 0.24098154125E+01 0.27415956022E+00 -.25053063581E+01 -.59439486769E+01 -.95302310161E+01
 -.12688348700E+02 -.15075432387E+02 -.16548040741E+02 -.17064659639E+02 -.16528325365E+02
 -.15049265875E+02 -.12673282997E+02 -.96172511825E+01 -.59161371272E+01 -.24874083478E+01
 0.24596382576E+00 0.24467149441E+01 0.39262509706E+01 0.49486860955E+01 0.55133666131E+01
 0.57014445684E+01 0.55091035120E+01 0.49305984792E+01 0.39369438186E+01 0.24098154125E+01
 0.27415956022E+00 -.25053063581E+01 -.59439486769E+01 -.95302310161E+01 -.12688348700E+02
 -.15075432387E+02 -.16548040741E+02 -.17064659639E+02 -.16528325365E+02 -.15049265875E+02
 -.12673282997E+02 -.59260041058E+01 -.33269246276E+01 -.10176661505E+01 0.10968194623E+01
 0.27346959506E+01 0.39181313734E+01 0.47654589919E+01 0.52556297460E+01 0.55133669282E+01
 0.55092239066E+01 0.52855566593E+01 0.47553999005E+01 0.39458793121E+01 0.27286274627E+01
 0.10766742338E+01 -.96029718452E+00 -.33960853878E+01 -.59543799000E+01 -.82596120547E+01
 -.99582047391E+01 -.10832495560E+02 -.10853548954E+02 -.99779652448E+01 -.82986728740E+01
 -.59260041058E+01 -.33269246276E+01 -.10176661505E+01 0.10968194623E+01 0.27346959506E+01
 0.39181313734E+01 0.47654589919E+01 0.52556297460E+01 0.55133669282E+01 0.55092239066E+01
 0.52855566593E+01 0.47553999005E+01 0.39458793121E+01 0.27286274627E+01 0.10766742338E+01
 -.96029718452E+00 -.33960853878E+01 -.59543799000E+01 -.82596120547E+01 -.99582047391E+01
 -.10832495560E+02 -.10853548954E+02 -.99779652448E+01 -.82986728740E+01 -.25095452070E+01
 -.10277252899E+01 0.55263288112E+00 0.19453710201E+01 0.30067895221E+01 0.38487118909E+01
 0.43995277109E+01 0.47654590357E+01 0.49486835744E+01 0.50020396749E+01 0.49288511534E+01
 0.47503996072E+01 0.43906690528E+01 0.38387600180E+01 0.30357695657E+01 0.19125126572E+01
 0.56692641848E+00 -.97185702084E+00 -.25268401296E+01 -.38988410626E+01 -.48339839482E+01
 -.51535309194E+01 -.48115551308E+01 -.38633741477E+01 -.25095452070E+01 -.10277252899E+01
 0.55263288112E+00 0.19453710201E+01 0.30067895221E+01 0.38487118909E+01 0.43995277109E+01
 0.47654590357E+01 0.49486835744E+01 0.50020396749E+01 0.49288511534E+01 0.47503996072E+01
 0.43906690528E+01 0.38387600180E+01 0.30357695657E+01 0.19125126572E+01 0.56692641848E+00
 -.97185702085E+00 -.25268401296E+01 -.38988410626E+01 -.48339839482E+01 -.51535309194E+01
 -.48115551308E+01 -.38633741477E+01 0.21328297119E+00 0.10720457510E+01 0.19341018157E+01
 0.26507052994E+01 0.32344193256E+01 0.36255254121E+01 0.38487164946E+01 0.39181375616E+01
 0.39262460955E+01 0.39300913628E+01 0.39434150968E+01 0.39475764991E+01 0.39423389036E+01
 0.38453894856E+01 0.36100969156E+01 0.32379822313E+01 0.26549056854E+01 0.19064098853E+01
 0.10483179331E+01 0.24900217537E+00 -.38752364219E+00 -.75536800877E+00 -.76116977225E+00
 -.42034983184E+00 0.21328297119E+00 0.10720457510E+01 0.19341018157E+01 0.26507052994E+01
 0.32344193256E+01 0.36255254121E+01 0.38487164946E+01 0.39181375616E+01 0.39262460955E+01
 0.39300913628E+01 0.39434150968E+01 0.39475764991E+01 0.39423389036E+01 0.38453894856E+01
 0.36100969156E+01 0.32379822313E+01 0.26549056854E+01 0.19064098853E+01 0.10483179331E+01
 0.24900217537E+00 -.38752364219E+00 -.75536800877E+00 -.76116977225E+00 -.42034983184E+00
 0.24075700344E+01 0.27016958402E+01 0.29808233391E+01 0.32225822666E+01 0.33170378675E+01
 0.32344081051E+01 0.30067934705E+01 0.27347117312E+01 0.24467135168E+01 0.22042367757E+01
 0.21031512337E+01 0.21883176329E+01 0.24086512443E+01 0.27255345635E+01 0.30354405472E+01
 0.32334571330E+01 0.33228119554E+01 0.32216139137E+01 0.30092636052E+01 0.26927248381E+01
 0.23690808158E+01 0.21448908200E+01 0.20578170407E+01 0.21609810504E+01 0.24075700344E+01
 0.27016958402E+01 0.29808233391E+01 0.32225822666E+01 0.33170378675E+01 0.32344081051E+01
 0.30067934705E+01 0.27347117312E+01 0.24467135168E+01 0.22042367757E+01 0.21031512337E+01
 0.21883176329E+01 0.24086512443E+01 0.27255345635E+01 0.30354405472E+01 0.32334571330E+01
 0.33228119554E+01 0.32216139137E+01 0.30092636052E+01 0.26927248381E+01 0.23690808158E+01
 0.21448908200E+01 0.20578170407E+01 0.21609810504E+01 0.38787368222E+01 0.38772198238E+01
 0.38154384859E+01 0.35992991923E+01 0.32225718950E+01 0.26506841064E+01 0.19453655674E+01
 0.10968344671E+01 0.24596954972E+00 -.38294098314E+00 -.72144286631E+00 -.71590284683E+00
 -.35029028517E+00 0.28116621380E+00 0.10734073092E+01 0.19174877230E+01 0.26548619747E+01
 0.32261573469E+01 0.35838308234E+01 0.38123916799E+01 0.39012657743E+01 0.39004537874E+01
 0.38924429237E+01 0.38793074634E+01 0.38787368222E+01 0.38772198238E+01 0.38154384859E+01
 0.35992991923E+01 0.32225718950E+01 0.26506841064E+01 0.19453655674E+01 0.10968344671E+01
 0.24596954972E+00 -.38294098314E+00 -.72144286631E+00 -.71590284683E+00 -.35029028517E+00
 0.28116621380E+00 0.10734073092E+01 0.19174877230E+01 0.26548619747E+01 0.32261573469E+01
 0.35838308234E+01 0.38123916799E+01 0.39012657743E+01 0.39004537874E+01 0.38924429237E+01
 0.38793074634E+01 0.48943222866E+01 0.47158448634E+01 0.43578040847E+01 0.38154424256E+01
 0.29808310846E+01 0.19340987250E+01 0.55262118719E+00 -.10176676197E+01 -.24873991749E+01
 -.38333010432E+01 -.47760417716E+01 -.51170878296E+01 -.47982117765E+01 -.38684723129E+01
 -.25042144692E+01 -.96240851168E+00 0.56734176834E+00 0.19012303041E+01 0.30098102912E+01
 0.38054775437E+01 0.43487254889E+01 0.47008831388E+01 0.48743303907E+01 0.49458797065E+01
 0.48943222866E+01 0.47158448634E+01 0.43578040847E+01 0.38154424256E+01 0.29808310846E+01
 0.19340987250E+01 0.55262118719E+00 -.10176676197E+01 -.24873991749E+01 -.38333010432E+01
 -.47760417716E+01 -.51170878296E+01 -.47982117765E+01 -.38684723129E+01 -.25042144692E+01
 -.96240851168E+00 0.56734176834E+00 0.19012303041E+01 0.30098102912E+01 0.38054775437E+01
 0.43487254889E+01 0.47008831388E+01 0.48743303907E+01 0.49458797065E+01 0.54545827442E+01
 0.52000901131E+01 0.47158370991E+01 0.38772146439E+01 0.27017179158E+01 0.10720721239E+01
 -.10277315412E+01 -.33269448123E+01 -.59161311472E+01 -.82804558814E+01 -.99529794979E+01
 -.10824992239E+02 -.10803996748E+02 -.99333735004E+01 -.82420199254E+01 -.59446067984E+01
 -.33954723179E+01 -.97091066767E+00 0.10520001171E+01 0.26956101320E+01 0.39049654845E+01
 0.47060097971E+01 0.52297030998E+01 0.54507623723E+01 0.54545827442E+01 0.52000901131E+01
 0.47158370991E+01 0.38772146439E+01 0.27017179158E+01 0.10720721239E+01 -.10277315412E+01
 -.33269448123E+01 -.59161311472E+01 -.82804558814E+01 -.99529794979E+01 -.10824992239E+02
 -.10803996748E+02 -.99333735004E+01 -.82420199254E+01 -.59446067984E+01 -.33954723179E+01
 -.97091066767E+00 0.10520001171E+01 0.26956101320E+01 0.39049654845E+01 0.47060097971E+01
 0.52297030998E+01 0.54507623723E+01 0.56422333019E+01 0.54546018884E+01 0.48943135204E+01
 0.38787059740E+01 0.24075710551E+01 0.21331297045E+00 -.25095422793E+01 -.59260295451E+01
 -.96172515891E+01 -.12663181459E+02 -.15033376781E+02 -.16507613527E+02 -.17043065248E+02
 -.16527346624E+02 -.15059128237E+02 -.12677660362E+02 -.95304980227E+01 -.59542518981E+01
 -.25268118101E+01 0.24122081546E+00 0.23708086924E+01 0.38894068923E+01 0.48762947945E+01
 0.54503822712E+01 0.56422333019E+01 0.54546018884E+01 0.48943135204E+01 0.38787059740E+01
 0.24075710551E+01 0.21331297045E+00 -.25095422793E+01 -.59260295451E+01 -.96172515891E+01
 -.12663181459E+02 -.15033376781E+02 -.16507613527E+02 -.17043065248E+02 -.16527346624E+02
 -.15059128237E+02 -.12677660362E+02 -.95304980227E+01 -.59542518981E+01 -.25268118101E+01
 0.24122081546E+00 0.23708086924E+01 0.38894068923E+01 0.48762947945E+01 0.54503822712E+01
 0.54504013878E+01 0.54507988028E+01 0.49458874985E+01 0.38792762127E+01 0.21609589471E+01
 -.42033977426E+00 -.38633678689E+01 -.82986891198E+01 -.12673289005E+02 -.16518933929E+02
 -.19715991088E+02 -.21937581159E+02 -.23091261038E+02 -.23077085770E+02 -.21925025291E+02
 -.19687066925E+02 -.16583130808E+02 -.12680383501E+02 -.82701931633E+01 -.38856527780E+01
 -.39292221984E+00 0.21584306415E+01 0.38904101484E+01 0.49497047992E+01 0.54504013878E+01
 0.54507988028E+01 0.49458874985E+01 0.38792762127E+01 0.21609589471E+01 -.42033977426E+00
 -.38633678689E+01 -.82986891198E+01 -.12673289005E+02 -.16518933929E+02 -.19715991088E+02
 -.21937581159E+02 -.23091261038E+02 -.23077085770E+02 -.21925025291E+02 -.19687066925E+02
 -.16583130808E+02 -.12680383501E+02 -.82701931633E+01 -.38856527780E+01 -.39292221984E+00
 0.21584306415E+01 0.38904101484E+01 0.49497047992E+01 0.48762859032E+01 0.52297108093E+01
 0.48743480483E+01 0.38924469182E+01 0.20578071286E+01 -.76117291785E+00 -.48115491672E+01
 -.99779666593E+01 -.15049274360E+02 -.19724247921E+02 -.23690207308E+02 -.26678228181E+02
 -.28568128343E+02 -.29192002032E+02 -.28579376155E+02 -.26692352503E+02 -.23658997686E+02
 -.19699566260E+02 -.15076659756E+02 -.99543625469E+01 -.48421426971E+01 -.75571492877E+00
 0.20448405804E+01 0.38904024113E+01 0.48762859032E+01 0.52297108093E+01 0.48743480483E+01
 0.38924469182E+01 0.20578071286E+01 -.76117291785E+00 -.48115491672E+01 -.99779666593E+01
 -.15049274360E+02 -.19724247921E+02 -.23690207308E+02 -.26678228181E+02 -.28568128343E+02
 -.29192002032E+02 -.28579376155E+02 -.26692352503E+02 -.23658997686E+02 -.19699566260E+02
 -.15076659756E+02 -.99543625469E+01 -.48421426971E+01 -.75571492877E+00 0.20448405804E+01
 0.38904024113E+01 0.38893758430E+01 0.47059781523E+01 0.47008872795E+01 0.39004802523E+01
 0.21449009904E+01 -.75537328069E+00 -.51535252656E+01 -.10853537494E+02 -.16528331290E+02
 -.21951554020E+02 -.26683687953E+02 -.30480326556E+02 -.33076460419E+02 -.34392354609E+02
 -.34383013790E+02 -.33072567969E+02 -.30505944911E+02 -.26697051981E+02 -.21936639412E+02
 -.16544499556E+02 -.10837835199E+02 -.51436036550E+01 -.75571073316E+00 0.21584258558E+01
 0.38893758430E+01 0.47059781523E+01 0.47008872795E+01 0.39004802523E+01 0.21449009904E+01
 -.75537328069E+00 -.51535252656E+01 -.10853537494E+02 -.16528331290E+02 -.21951554020E+02
 -.26683687953E+02 -.30480326556E+02 -.33076460419E+02 -.34392354609E+02 -.34383013790E+02
 -.33072567969E+02 -.30505944911E+02 -.26697051981E+02 -.21936639412E+02 -.16544499556E+02
 -.10837835199E+02 -.51436036550E+01 -.75571073316E+00 0.21584258558E+01 0.23708096456E+01
 0.39049425831E+01 0.43487157694E+01 0.39012769717E+01 0.23690827897E+01 -.38753568857E+00
 -.48339819738E+01 -.10832478954E+02 -.17064659093E+02 -.23108210460E+02 -.28578015339E+02
 -.33080974474E+02 -.36383209579E+02 -.38323123806E+02 -.39003728395E+02 -.38324764751E+02
 -.36355270171E+02 -.33070613998E+02 -.28595636023E+02 -.23091019726E+02 -.17075220660E+02
 -.10837846195E+02 -.48421347590E+01 -.39289929083E+00 0.23708096456E+01 0.39049425831E+01
 0.43487157694E+01 0.39012769717E+01 0.23690827897E+01 -.38753568857E+00 -.48339819738E+01
 -.10832478954E+02 -.17064659093E+02 -.23108210460E+02 -.28578015339E+02 -.33080974474E+02
 -.36383209579E+02 -.38323123806E+02 -.39003728395E+02 -.38324764751E+02 -.36355270171E+02
 -.33070613998E+02 -.28595636023E+02 -.23091019726E+02 -.17075220660E+02 -.10837846195E+02
 -.48421347590E+01 -.39289929083E+00 0.24125100635E+00 0.26956194779E+01 0.38054742613E+01
 0.38123875139E+01 0.26927138092E+01 0.24898514830E+00 -.38988458580E+01 -.99581939003E+01
 -.16548035675E+02 -.23094129273E+02 -.29202512769E+02 -.34398917122E+02 -.38325398393E+02
 -.40913871460E+02 -.42167414890E+02 -.42181141134E+02 -.40936630620E+02 -.38338252134E+02
 -.34383912903E+02 -.29211049064E+02 -.23091031580E+02 -.16544521855E+02 -.99543658842E+01
 -.38856256934E+01 0.24125100635E+00 0.26956194779E+01 0.38054742613E+01 0.38123875139E+01
 0.26927138092E+01 0.24898514830E+00 -.38988458580E+01 -.99581939003E+01 -.16548035675E+02
 -.23094129273E+02 -.29202512769E+02 -.34398917122E+02 -.38325398393E+02 -.40913871460E+02
 -.42167414890E+02 -.42181141134E+02 -.40936630620E+02 -.38338252134E+02 -.34383912903E+02
 -.29211049064E+02 -.23091031580E+02 -.16544521855E+02 -.99543658842E+01 -.38856256934E+01
 -.25268086632E+01 0.10520062933E+01 0.30098159104E+01 0.35838363511E+01 0.30092657314E+01
 0.10483132543E+01 -.25268462043E+01 -.82596119359E+01 -.15075428834E+02 -.21938959720E+02
 -.28589243292E+02 -.34389582483E+02 -.39006998689E+02 -.42168716940E+02 -.44096735946E+02
 -.44717197129E+02 -.44058259886E+02 -.42166662125E+02 -.39013783385E+02 -.34383908033E+02
 -.28595631923E+02 -.21936645140E+02 -.15076671794E+02 -.82701993672E+01 -.25268086632E+01
 0.10520062933E+01 0.30098159104E+01 0.35838363511E+01 0.30092657314E+01 0.10483132543E+01
 -.25268462043E+01 -.82596119359E+01 -.15075428834E+02 -.21938959720E+02 -.28589243292E+02
 -.34389582483E+02 -.39006998689E+02 -.42168716940E+02 -.44096735946E+02 -.44717197129E+02
 -.44058259886E+02 -.42166662125E+02 -.39013783385E+02 -.34383908033E+02 -.28595631923E+02
 -.21936645140E+02 -.15076671794E+02 -.82701993672E+01 -.59542773666E+01 -.97092672444E+00
 0.19012288641E+01 0.32261682238E+01 0.32216296650E+01 0.19064202014E+01 -.97185694786E+00
 -.59543840281E+01 -.12688349044E+02 -.19694756210E+02 -.26697937760E+02 -.33077090127E+02
 -.38327066891E+02 -.42182392567E+02 -.44717408987E+02 -.46377371381E+02 -.46401974625E+02
 -.44732821831E+02 -.42166661977E+02 -.38338245424E+02 -.33070597421E+02 -.26697036393E+02
 -.19699567645E+02 -.12680403875E+02 -.59542773666E+01 -.97092672444E+00 0.19012288641E+01
 0.32261682238E+01 0.32216296650E+01 0.19064202014E+01 -.97185694786E+00 -.59543840281E+01
 -.12688349044E+02 -.19694756210E+02 -.26697937760E+02 -.33077090127E+02 -.38327066891E+02
 -.42182392567E+02 -.44717408987E+02 -.46377371381E+02 -.46401974625E+02 -.44732821831E+02
 -.42166661977E+02 -.38338245424E+02 -.33070597421E+02 -.26697036393E+02 -.19699567645E+02
 -.12680403875E+02 -.95304985719E+01 -.33954785271E+01 0.56733355122E+00 0.26548564800E+01
 0.33228124270E+01 0.26549103312E+01 0.56692989530E+00 -.33960854737E+01 -.95302319719E+01
 -.16582693624E+02 -.23659628128E+02 -.30505687438E+02 -.36355408853E+02 -.40936607408E+02
 -.44058319963E+02 -.46402038141E+02 -.47586963538E+02 -.46401974510E+02 -.44058262484E+02
 -.40936635457E+02 -.36355271673E+02 -.30505939216E+02 -.23658988246E+02 -.16583124571E+02
 -.95304985719E+01 -.33954785271E+01 0.56733355122E+00 0.26548564800E+01 0.33228124270E+01
 0.26549103312E+01 0.56692989530E+00 -.33960854737E+01 -.95302319719E+01 -.16582693624E+02
 -.23659628128E+02 -.30505687438E+02 -.36355408853E+02 -.40936607408E+02 -.44058319963E+02
 -.46402038141E+02 -.47586963538E+02 -.46401974510E+02 -.44058262484E+02 -.40936635457E+02
 -.36355271673E+02 -.30505939216E+02 -.23658988246E+02 -.16583124571E+02 -.12677634294E+02
 -.59445892027E+01 -.96240767115E+00 0.19174753071E+01 0.32334419812E+01 0.32379734540E+01
 0.19125119846E+01 -.96029459556E+00 -.59439477331E+01 -.12670834876E+02 -.19691382847E+02
 -.26691127199E+02 -.33066286590E+02 -.38335706089E+02 -.42165520052E+02 -.44732340437E+02
 -.46402037427E+02 -.46377369842E+02 -.44717197876E+02 -.42181149384E+02 -.38324780729E+02
 -.33072582018E+02 -.26692351717E+02 -.19687048090E+02 -.12677634294E+02 -.59445892027E+01
 -.96240767115E+00 0.19174753071E+01 0.32334419812E+01 0.32379734540E+01 0.19125119846E+01