 running on    1 nodes
 distr:  one band on    1 nodes,    1 groups
 vasp.5.2.2 15Apr09 complex 
 POSCAR found :  1 types and   12 ions
 LDA part: xc-table for Ceperly-Alder, standard interpolation
 POSCAR, INCAR and KPOINTS ok, starting setup
 WARNING: small aliasing (wrap around) errors must be expected
 FFT: planning ...(           1 )
 reading WAVECAR
 entering main loop
       N       E                     dE             d eps       ncg     rms          rms(c)
DAV:   1     0.949331443357E+03    0.94933E+03   -0.40686E+04  1152   0.106E+03
DAV:   2     0.333120988163E+02   -0.91602E+03   -0.84065E+03  1200   0.426E+02
DAV:   3    -0.660068784439E+02   -0.99319E+02   -0.91011E+02  1544   0.109E+02
DAV:   4    -0.714593918725E+02   -0.54525E+01   -0.50229E+01  1416   0.328E+01
DAV:   5    -0.716777845388E+02   -0.21839E+00   -0.21471E+00  1584   0.502E+00    0.130E+01
RMM:   6    -0.683462835161E+02    0.33315E+01   -0.11922E+01  1196   0.200E+01    0.681E+00
RMM:   7    -0.697684917682E+02   -0.14222E+01   -0.64609E+00  1195   0.107E+01    0.106E+01
RMM:   8    -0.673764803879E+02    0.23920E+01   -0.15627E+00  1184   0.563E+00    0.133E+00
RMM:   9    -0.674072492359E+02   -0.30769E-01   -0.23596E-01  1346   0.168E+00    0.184E+00
RMM:  10    -0.673652298692E+02    0.42019E-01   -0.43166E-02  1300   0.871E-01    0.946E-01
RMM:  11    -0.673490237231E+02    0.16206E-01   -0.91748E-03  1206   0.531E-01    0.238E-01
RMM:  12    -0.673474710773E+02    0.15526E-02   -0.28423E-03  1393   0.170E-01    0.557E-02
RMM:  13    -0.673471334517E+02    0.33763E-03   -0.42981E-04  1372   0.707E-02    0.255E-02
RMM:  14    -0.673470044673E+02    0.12898E-03   -0.13138E-04  1077   0.373E-02    0.926E-03
RMM:  15    -0.673471068004E+02   -0.10233E-03   -0.11268E-04   903   0.268E-02    0.709E-03
RMM:  16    -0.673473096540E+02   -0.20285E-03   -0.70059E-05   767   0.234E-02    0.411E-03
RMM:  17    -0.673473577011E+02   -0.48047E-04   -0.33988E-05   714   0.148E-02
   1 F= -.67347358E+02 E0= -.67270623E+02  d E =-.153470E+00
