       N       E                     dE             d eps       ncg     rms          rms(c)
DAV:   1     0.727949255106E+03    0.72795E+03   -0.36968E+04  1152   0.902E+02
DAV:   2    -0.232967922397E+02   -0.75125E+03   -0.70520E+03  1248   0.391E+02
DAV:   3    -0.698777108699E+02   -0.46581E+02   -0.42400E+02  1504   0.831E+01
DAV:   4    -0.715406085733E+02   -0.16629E+01   -0.16377E+01  1284   0.181E+01
DAV:   5    -0.716251689443E+02   -0.84560E-01   -0.84379E-01  1584   0.293E+00    0.127E+01
RMM:   6    -0.683150198568E+02    0.33101E+01   -0.11386E+01  1183   0.179E+01    0.665E+00
RMM:   7    -0.687770194028E+02   -0.46200E+00   -0.44811E+00  1187   0.845E+00    0.806E+00
RMM:   8    -0.674209506103E+02    0.13561E+01   -0.10929E+00  1183   0.425E+00    0.120E+00
RMM:   9    -0.674014741490E+02    0.19476E-01   -0.15224E-01  1256   0.142E+00    0.733E-01
RMM:  10    -0.674047947922E+02   -0.33206E-02   -0.19944E-02  1314   0.534E-01    0.831E-01
RMM:  11    -0.673940843567E+02    0.10710E-01   -0.70274E-03  1203   0.393E-01    0.190E-01
RMM:  12    -0.673938366934E+02    0.24766E-03   -0.13994E-03  1285   0.113E-01    0.377E-02
RMM:  13    -0.673938251528E+02    0.11541E-04   -0.13905E-04  1206   0.479E-02
   1 F= -.67393825E+02 E0= -.67315035E+02  d E =-.157581E+00
