 vasp.5.2.2 15Apr09 complex 
 executed on             LinuxIFC date 2009.12.07  23:26:16
 running on    1 nodes
 distr:  one band on    1 nodes,    1 groups


--------------------------------------------------------------------------------------------------------


 INCAR:
 POTCAR:   PAW_GGA Pt 05Jan2001                   
 POTCAR:   PAW_GGA Pt 05Jan2001                   
  local pseudopotential read in
  partial core-charges read in
  atomic valenz-charges read in
  non local Contribution for L=           2  read in
    real space projection operators read in
  non local Contribution for L=           2  read in
    real space projection operators read in
  non local Contribution for L=           0  read in
    real space projection operators read in
  non local Contribution for L=           0  read in
    real space projection operators read in
  non local Contribution for L=           1  read in
    real space projection operators read in
  non local Contribution for L=           1  read in
    real space projection operators read in
    PAW grid and wavefunctions read in
 
   number of l-projection  operators is LMAX  =           6
   number of lm-projection operators is LMMAX =          18
 
 PAW_GGA Pt 05Jan2001                   :
 energy of atom  1       EATOM= -730.0441
 kinetic energy error for atom=    0.0535 (will be added to EATOM!!)
 
 
 POSCAR: Pt(111) 3 layer slab, rt3 x rt3         
  positions in direct lattice
  velocities in cartesian coordinates
  No initial velocities read in
 exchange correlation table for  LEXCH =        7
   RHO(1)=    0.500       N(1)  =     2000
   RHO(2)=  100.500       N(2)  =     4000
 


--------------------------------------------------------------------------------------------------------


 ion  position               nearest neighbor table
   1  0.333  0.667  0.000-   3 2.82   4 2.82   4 2.82   3 2.82   2 2.82   2 2.82   5 2.83   7 2.83
                             8 2.83
   2  0.333  0.167  0.000-   3 2.82   4 2.82   3 2.82   4 2.82   1 2.82   1 2.82   6 2.83   8 2.83
                             7 2.83
   3  0.833  0.167  0.000-   1 2.82   2 2.82   2 2.82   1 2.82   4 2.82   4 2.82   8 2.83   6 2.83
                             5 2.83
   4  0.833  0.667  0.000-   1 2.82   2 2.82   1 2.82   2 2.82   3 2.82   3 2.82   7 2.83   5 2.83
                             6 2.83
   5  0.000  0.500  0.249-   7 2.82   8 2.82   7 2.82   8 2.82   6 2.82   6 2.82   1 2.83   4 2.83
                             3 2.83  10 2.83   9 2.83  12 2.83
   6  0.000  0.000  0.249-   7 2.82   8 2.82   8 2.82   7 2.82   5 2.82   5 2.82   2 2.83   3 2.83
                             4 2.83  11 2.83  12 2.83   9 2.83
   7  0.500  0.500  0.249-   5 2.82   6 2.82   5 2.82   6 2.82   8 2.82   8 2.82   4 2.83   1 2.83
                             2 2.83   9 2.83  10 2.83  11 2.83
   8  0.500  0.000  0.249-   5 2.82   6 2.82   6 2.82   5 2.82   7 2.82   7 2.82   3 2.83   2 2.83
                             1 2.83  12 2.83  11 2.83  10 2.83
   9  0.167  0.333  0.498-  10 2.82  11 2.82  10 2.82  11 2.82  12 2.82  12 2.82   7 2.83   5 2.83
                             6 2.83
  10  0.667  0.333  0.498-   9 2.82  12 2.82   9 2.82  12 2.82  11 2.82  11 2.82   5 2.83   7 2.83
                             8 2.83
  11  0.667  0.833  0.498-   9 2.82  12 2.82  12 2.82   9 2.82  10 2.82  10 2.82   6 2.83   8 2.83
                             7 2.83
  12  0.167  0.833  0.498-  10 2.82  11 2.82  11 2.82  10 2.82   9 2.82   9 2.82   8 2.83   6 2.83
                             5 2.83
 
  LATTYP: Found a hexagonal cell.
 ALAT       =     5.6353380000
 C/A-ratio  =     1.6500000000
  
  Lattice vectors:
  
 A1 = (   4.8803458669,  -2.8176690000,   0.0000000000)
 A2 = (   0.0000000000,   5.6353380000,   0.0000000000)
 A3 = (   0.0000000000,   0.0000000000,   9.2983077000)
 Subroutine PRICEL returns following result:
 
  LATTYP: Found a hexagonal cell.
 ALAT       =     2.8176690000
 C/A-ratio  =     3.3000000000
  
  Lattice vectors:
  
 A1 = (   2.4401729335,  -1.4088345000,   0.0000000000)
 A2 = (   0.0000000000,   2.8176690000,   0.0000000000)
 A3 = (   0.0000000000,   0.0000000000,   9.2983077000)
 
   4 primitive cells build up your supercell.
 

Analysis of symmetry for initial positions (statically):

 Routine SETGRP: Setting up the symmetry group for a 
 hexagonal supercell.


 Subroutine GETGRP returns: Found  6 space group operations
 (whereof  6 operations were pure point group operations)
 out of a pool of 24 trial point group operations.


The static configuration has the point symmetry C_3v.

Analysis of symmetry for dynamics (positions and initial velocities):

 Subroutine DYNSYM returns: Found  6 space group operations
 (whereof  6 operations were pure point group operations)
 out of a pool of  6 trial space group operations
 (whereof  6 operations were pure point group operations)
 and found also     4 'primitive' translations


The dynamic configuration has the point symmetry C_3v.

Analysis of constrained symmetry for selective dynamics:

 Subroutine DYNSYM returns: Found  6 space group operations
 (whereof  6 operations were pure point group operations)
 out of a pool of  6 trial space group operations
 (whereof  6 operations were pure point group operations)
 and found also     4 'primitive' translations


The constrained configuration has the point symmetry C_3v.
 
 
 KPOINTS: 7x7x1                                   

Automatic generation of k-mesh.
 
 Subroutine IBZKPT returns following result:
 ===========================================
 
 Found      8 irreducible k-points:
 
 Following reciprocal coordinates:
            Coordinates               Weight
  0.000000  0.000000  0.000000      1.000000
  0.142857  0.000000  0.000000      6.000000
  0.285714  0.000000  0.000000      6.000000
  0.428571  0.000000  0.000000      6.000000
  0.142857  0.142857  0.000000      6.000000
  0.285714  0.142857  0.000000     12.000000
  0.428571  0.142857  0.000000      6.000000
  0.285714  0.285714  0.000000      6.000000
 
 Following cartesian coordinates:
            Coordinates               Weight
  0.000000  0.000000  0.000000      1.000000
  0.164957  0.000000  0.000000      6.000000
  0.329914  0.000000  0.000000      6.000000
  0.494872  0.000000  0.000000      6.000000
  0.247436  0.142857  0.000000      6.000000
  0.412393  0.142857  0.000000     12.000000
  0.577350  0.142857  0.000000      6.000000
  0.494872  0.285714  0.000000      6.000000
 


--------------------------------------------------------------------------------------------------------




 Dimension of arrays:
   k-points           NKPTS =      8   k-points in BZ     NKDIM =      8   number of bands    NBANDS=     72
   number of dos      NEDOS =    301   number of ions     NIONS =     12
   non local maximal  LDIM  =      6   non local SUM 2l+1 LMDIM =     18
   total plane-waves  NPLWV =  20736
   max r-space proj   IRMAX =      1   max aug-charges    IRDMAX=   5110
   dimension x,y,z NGX =    24 NGY =   24 NGZ =   36
   dimension x,y,z NGXF=    48 NGYF=   48 NGZF=   72
   support grid    NGXF=    48 NGYF=   48 NGZF=   72
   ions per type =              12
 NGX,Y,Z   is equivalent  to a cutoff of   7.08,  7.08,  6.44 a.u.
 NGXF,Y,Z  is equivalent  to a cutoff of  14.16, 14.16, 12.87 a.u.


 I would recommend the setting:
   dimension x,y,z NGX =    22 NGY =   22 NGZ =   36
 SYSTEM =  Pt(111)                                 
 POSCAR =  Pt(111) 3 layer slab, rt3 x rt3         

 Startparameter for this run:
   NWRITE =      1    write-flag & timer
   PREC   = normal    medium, high low
   ISTART =      0    job   : 0-new  1-cont  2-samecut
   ICHARG =      2    charge: 1-file 2-atom 10-const
   ISPIN  =      1    spin polarized calculation?
   LNONCOLLINEAR =      F non collinear calculations
   LSORBIT =      F    spin-orbit coupling
   INIWAV =      1    electr: 0-lowe 1-rand  2-diag
   LASPH  =      F    aspherical Exc in radial PAW
   METAGGA=      F    non-selfconsistent MetaGGA calc.

 Electronic Relaxation 1
   ENCUT  =  250.0 eV  18.37 Ry    4.29 a.u.   7.27  7.27 11.99*2*pi/ulx,y,z
   ENINI  =  250.0     initial cutoff
   ENAUG  =  359.0 eV  augmentation charge cutoff
   NELM   =     60;   NELMIN=  2; NELMDL= -5     # of ELM steps 
   EDIFF  = 0.1E-03   stopping-criterion for ELM
   LREAL  =      F    real-space projection
   LCOMPAT=      F    compatible to vasp.4.4
   LREAL_COMPAT= F    compatible to vasp.4.5.1-3
   GGA_COMPAT  = T    GGA compatible to vasp.4.4-vasp.4.6
   LMAXPAW     = -100 max onsite density
   LMAXMIX     =    2 max onsite mixed and CHGCAR
   VOSKOWN=      0    Vosko Wilk Nusair interpolation
   ROPT   =    0.00000
 Ionic relaxation
   EDIFFG = 0.1E-03   stopping-criterion for IOM
   NSW    =      0    number of steps for IOM
   NBLOCK =      1;   KBLOCK =      1    inner block; outer block 
   IBRION =     -1    ionic relax: 0-MD 1-quasi-New 2-CG
   NFREE  =     10    steps in history (QN), initial steepest desc. (CG)
   ISIF   =      0    stress and relaxation
   IWAVPR =     10    prediction:  0-non 1-charg 2-wave 3-comb
   ISYM   =      2    0-nonsym 1-usesym 2-fastsym
   LCORR  =      T    Harris-Foulkes like correction to forces

   POTIM  = 0.3500    time-step for ionic-motion
   TEIN   =    0.0    initial temperature
   TEBEG  =    0.0;   TEEND  =   0.0 temperature during run
   SMASS  =  -3.00    Nose mass-parameter (am)
   estimated Nose-frequenzy (Omega)   =  0.10E-29 period in steps =****** mass=  -0.726E-27a.u.
   NPACO  =    256;   APACO  = 16.0  distance and # of slots for P.C.
   PSTRESS=    0.0 pullay stress

  Mass of Ions in am
   POMASS = 195.08
  Ionic Valenz
   ZVAL   =  10.00
  Atomic Wigner-Seitz radii
   RWIGS  =  -1.00
   NELECT =     120.0000    total number of electrons
   NUPDOWN=      -1.0000    fix difference up-down

 DOS related values:
   EMIN   =  10.00;   EMAX   =-10.00  energy-range for DOS
   EFERMI =   0.00
   ISMEAR =     0;   SIGMA  =   0.10  broadening in eV -4-tet -1-fermi 0-gaus

 Electronic relaxation 2 (details)
   IALGO  =     68    algorithm
   LDIAG  =      T    sub-space diagonalisation
   IMIX   =      4    mixing-type and parameters
     AMIX     =   0.40;   BMIX     =  1.00
     AMIX_MAG =   1.60;   BMIX_MAG =  1.00
     AMIN     =   0.10
     WC   =   100.;   INIMIX=   1;  MIXPRE=   1

 Intra band minimization:
   WEIMIN = 0.0000     energy-eigenvalue tresh-hold
   EBREAK =  0.35E-07  absolut break condition
   DEPER  =   0.30     relativ break condition  

   TIME   =   0.40     timestep for ELM

  volume/ion in A,a.u.               =      21.31       143.81
  Fermi-wavevector in a.u.,A,eV,Ry     =   1.272166  2.404045 22.019752  1.618406
  Thomas-Fermi vector in A             =   2.405059
 
 Write flags
   LWAVE  =      F    write WAVECAR
   LCHARG =      T    write CHGCAR
   LVTOT  =      T    write LOCPOT, local potential
   LELF   =      F    write electronic localiz. function (ELF)
   LORBIT =     11    0 simple, 1 ext, 2 COOP (PROOUT)


 Dipole corrections
   LMONO  =      F    monopole corrections only (constant potential shift)
   LDIPOL =      F    correct potential (dipole corrections)
   IDIPOL =      0    1-x, 2-y, 3-z, 4-all directions 
   EPSILON=  1.0000000 bulk dielectric constant

 Exchange correlation treatment:
   GGA     =    --    GGA type
   LEXCH   =     7    internal setting for exchange type
   VOSKOWN=      0    Vosko Wilk Nusair interpolation
   LHFCALC =     F    Hartree Fock is set to
   LHFONE  =     F    Hartree Fock one center treatment
   AEXX    =    0.0000 exact exchange contribution

 Linear response parameters
   LEPSILON=     F    determine dielectric tensor
   LRPA    =     F    only Hartree local field effects (RPA)
   LNABLA  =     F    use nabla operator in PAW spheres
   LVEL    =     F    velocity operator in full k-point grid
   LINTERFAST=   F  fast interpolation
   KINTER  =     0    interpolate to denser k-point grid
   CSHIFT  =0.1000    complex shift for real part using Kramers Kronig
   OMEGAMAX=  -1.0    maximum frequency

 Orbital magnetization related:
   ORBITALMAG=     F  switch on orbital magnetization
   LCHIMAG   =     F  perturbation theory with respect to B field



--------------------------------------------------------------------------------------------------------


 Static calculation
 charge density and potential will be updated during run
 non-spin polarized calculation
 RMM-DIIS sequential band-by-band and
  variant of blocked Davidson during initial phase
 perform sub-space diagonalisation
    before iterative eigenvector-optimisation
 modified Broyden-mixing scheme, WC =      100.0
 initial mixing is a Kerker type mixing with AMIX =  0.4000 and BMIX =      1.0000
 Hartree-type preconditioning will be used
 using additional bands           12
 reciprocal scheme for non local part
 use partial core corrections
 calculate Harris-corrections to forces 
   (improved forces if not selfconsistent)
 use gradient corrections 
 use of overlap-Matrix (Vanderbilt PP)
 Gauss-broadening in eV      SIGMA  =   0.10


--------------------------------------------------------------------------------------------------------


  energy-cutoff  :      250.00
  volume of cell :      255.73
      direct lattice vectors                 reciprocal lattice vectors
     4.880345867 -2.817669000  0.000000000     0.204903510  0.000000000  0.000000000
     0.000000000  5.635338000  0.000000000     0.102451755  0.177451645  0.000000000
     0.000000000  0.000000000  9.298307700     0.000000000  0.000000000  0.107546452

  length of vectors
     5.635338000  5.635338000  9.298307700     0.204903510  0.204903510  0.107546452


 
 k-points in units of 2pi/SCALE and weight: 7x7x1                                   
   0.00000000  0.00000000  0.00000000       0.020
   0.16495722  0.00000000  0.00000000       0.122
   0.32991444  0.00000000  0.00000000       0.122
   0.49487166  0.00000000  0.00000000       0.122
   0.24743583  0.14285714  0.00000000       0.122
   0.41239305  0.14285714  0.00000000       0.245
   0.57735027  0.14285714  0.00000000       0.122
   0.49487166  0.28571429  0.00000000       0.122
 
 k-points in reciprocal lattice and weights: 7x7x1                                   
   0.00000000  0.00000000  0.00000000       0.020
   0.14285714  0.00000000  0.00000000       0.122
   0.28571429  0.00000000  0.00000000       0.122
   0.42857143  0.00000000  0.00000000       0.122
   0.14285714  0.14285714  0.00000000       0.122
   0.28571429  0.14285714  0.00000000       0.245
   0.42857143  0.14285714  0.00000000       0.122
   0.28571429  0.28571429  0.00000000       0.122
 
 position of ions in fractional coordinates (direct lattice) 
   0.33333333  0.66666667  0.00000000
   0.33333333  0.16666667  0.00000000
   0.83333333  0.16666667  0.00000000
   0.83333333  0.66666667  0.00000000
   0.00000000  0.50000000  0.24895723
   0.00000000  0.00000000  0.24895723
   0.50000000  0.50000000  0.24895723
   0.50000000  0.00000000  0.24895723
   0.16666667  0.33333333  0.49802281
   0.66666667  0.33333333  0.49802281
   0.66666667  0.83333333  0.49802281
   0.16666667  0.83333333  0.49802281
 
 position of ions in cartesian coordinates  (Angst):
   1.62678196  2.81766900  0.00000000
   1.62678196  0.00000000  0.00000000
   4.06695489 -1.40883450  0.00000000
   4.06695489  1.40883450  0.00000000
   0.00000000  2.81766900  2.31488089
   0.00000000  0.00000000  2.31488089
   2.44017293  1.40883450  2.31488089
   2.44017293 -1.40883450  2.31488089
   0.81339098  1.40883450  4.63076935
   3.25356391  0.00000000  4.63076935
   3.25356391  2.81766900  4.63076935
   0.81339098  4.22650350  4.63076935
 


--------------------------------------------------------------------------------------------------------


 k-point  1 :  0.00000.00000.0000  plane waves:    2309
 k-point  2 :  0.14290.00000.0000  plane waves:    2291
 k-point  3 :  0.28570.00000.0000  plane waves:    2291
 k-point  4 :  0.42860.00000.0000  plane waves:    2280
 k-point  5 :  0.14290.14290.0000  plane waves:    2285
 k-point  6 :  0.28570.14290.0000  plane waves:    2292
 k-point  7 :  0.42860.14290.0000  plane waves:    2304
 k-point  8 :  0.28570.28570.0000  plane waves:    2293

 maximum and minimum number of plane-waves per node :    2309   2280

 maximum number of plane-waves:    2309
 maximal index in each direction: 
   IXMAX=  7   IYMAX=  7   IZMAX= 11
   IXMIN= -7   IYMIN= -7   IZMIN=-11

 WARNING: aliasing errors must be expected set NGX to  30 to avoid them
 WARNING: aliasing errors must be expected set NGY to  30 to avoid them
 WARNING: aliasing errors must be expected set NGZ to  46 to avoid them
 aliasing errors are usually negligible using standard VASP settings
 and one can safely disregard these warnings

 serial   3D FFT for wavefunctions
 parallel 3D FFT for charge:
    minimum data exchange during FFTs selected (reduces bandwidth)


 total amount of memory used by VASP on root node  71311. kBytes
========================================================================

   base      :    30000. kBytes
   nonl-proj :     3103. kBytes
   fftplans  :     5804. kBytes
   grid      :     8948. kBytes
   one-center:      186. kBytes
   wavefun   :    23270. kBytes
 
 Broyden mixing: mesh for mixing (old mesh)
   NGX = 15   NGY = 15   NGZ = 23
  (NGX  = 48   NGY  = 48   NGZ  = 72)
  gives a total of   5175 points

 initial charge density was supplied:
 charge density of overlapping atoms calculated
 number of electron  120.0000000 magnetization 
 keeping initial charge density in first step


--------------------------------------------------------------------------------------------------------


 Maximum index for augmentation-charges         4789 (set IRDMAX)


--------------------------------------------------------------------------------------------------------


 First call to EWALD:  gamma=   0.279
 Maximum number of real-space cells 3x 3x 2
 Maximum number of reciprocal cells 2x 2x 4

    FEWALD:  cpu time    0.01: real time    0.01
   RESPFUN:  cpu time    0.00: real time    0.00


----------------------------------------- Iteration    1(   1)  ---------------------------------------


    POTLOK:  cpu time    0.33: real time    0.33
    SETDIJ:  cpu time    0.06: real time    0.06
     EDDAV:  cpu time   10.67: real time   10.70
       DOS:  cpu time    0.00: real time    0.00
    --------------------------------------------
      LOOP:  cpu time   11.07: real time   11.10

 eigenvalue-minimisations  :  1152
 total energy-change (2. order) : 0.7279493E+03  (-0.3696755E+04)
 number of electron  120.0000000 magnetization 
 augmentation part   120.0000000 magnetization 

 Free energy of the ion-electron system (eV)
  ---------------------------------------------------
  alpha Z        PSCENC =       816.75334083
  Ewald energy   TEWEN  =     -6784.41055178
  -1/2 Hartree   DENC   =     -3413.05678325
  -exchange  EXHF       =         0.00000000
  -V(xc)+E(xc)   XCENC  =        32.24855473
  PAW double counting   =      6881.46741456    -6540.60144789
  entropy T*S    EENTRO =        -0.01704935
  eigenvalues    EBANDS =       975.67912477
  atomic energy  EATOM  =      8759.88665249
  ---------------------------------------------------
  free energy    TOTEN  =       727.94925511 eV

  energy without entropy =      727.96630446  energy(sigma->0) =      727.95777978


--------------------------------------------------------------------------------------------------------




----------------------------------------- Iteration    1(   2)  ---------------------------------------


     EDDAV:  cpu time   11.21: real time   11.22
       DOS:  cpu time    0.00: real time    0.00
    --------------------------------------------
      LOOP:  cpu time   11.22: real time   11.23

 eigenvalue-minimisations  :  1248
 total energy-change (2. order) :-0.7512460E+03  (-0.7051951E+03)
 number of electron  120.0000000 magnetization 
 augmentation part   120.0000000 magnetization 

 Free energy of the ion-electron system (eV)
  ---------------------------------------------------
  alpha Z        PSCENC =       816.75334083
  Ewald energy   TEWEN  =     -6784.41055178
  -1/2 Hartree   DENC   =     -3413.05678325
  -exchange  EXHF       =         0.00000000
  -V(xc)+E(xc)   XCENC  =        32.24855473
  PAW double counting   =      6881.46741456    -6540.60144789
  entropy T*S    EENTRO =        -0.06609700
  eigenvalues    EBANDS =       224.48212507
  atomic energy  EATOM  =      8759.88665249
  ---------------------------------------------------
  free energy    TOTEN  =       -23.29679224 eV

  energy without entropy =      -23.23069524  energy(sigma->0) =      -23.26374374


--------------------------------------------------------------------------------------------------------




----------------------------------------- Iteration    1(   3)  ---------------------------------------


     EDDAV:  cpu time   13.53: real time   13.63
       DOS:  cpu time    0.01: real time    0.01
    --------------------------------------------
      LOOP:  cpu time   13.54: real time   13.64

 eigenvalue-minimisations  :  1504
 total energy-change (2. order) :-0.4658092E+02  (-0.4239993E+02)
 number of electron  120.0000000 magnetization 
 augmentation part   120.0000000 magnetization 

 Free energy of the ion-electron system (eV)
  ---------------------------------------------------
  alpha Z        PSCENC =       816.75334083
  Ewald energy   TEWEN  =     -6784.41055178
  -1/2 Hartree   DENC   =     -3413.05678325
  -exchange  EXHF       =         0.00000000
  -V(xc)+E(xc)   XCENC  =        32.24855473
  PAW double counting   =      6881.46741456    -6540.60144789
  entropy T*S    EENTRO =        -0.10842536
  eigenvalues    EBANDS =       177.94353480
  atomic energy  EATOM  =      8759.88665249
  ---------------------------------------------------
  free energy    TOTEN  =       -69.87771087 eV

  energy without entropy =      -69.76928551  energy(sigma->0) =      -69.82349819


--------------------------------------------------------------------------------------------------------




----------------------------------------- Iteration    1(   4)  ---------------------------------------


     EDDAV:  cpu time   11.60: real time   11.60
       DOS:  cpu time    0.00: real time    0.01
    --------------------------------------------
      LOOP:  cpu time   11.60: real time   11.61

 eigenvalue-minimisations  :  1284
 total energy-change (2. order) :-0.1662898E+01  (-0.1637684E+01)
 number of electron  120.0000000 magnetization 
 augmentation part   120.0000000 magnetization 

 Free energy of the ion-electron system (eV)
  ---------------------------------------------------
  alpha Z        PSCENC =       816.75334083
  Ewald energy   TEWEN  =     -6784.41055178
  -1/2 Hartree   DENC   =     -3413.05678325
  -exchange  EXHF       =         0.00000000
  -V(xc)+E(xc)   XCENC  =        32.24855473
  PAW double counting   =      6881.46741456    -6540.60144789
  entropy T*S    EENTRO =        -0.10594330
  eigenvalues    EBANDS =       176.27815503
  atomic energy  EATOM  =      8759.88665249
  ---------------------------------------------------
  free energy    TOTEN  =       -71.54060857 eV

  energy without entropy =      -71.43466528  energy(sigma->0) =      -71.48763693


--------------------------------------------------------------------------------------------------------




----------------------------------------- Iteration    1(   5)  ---------------------------------------


     EDDAV:  cpu time   13.92: real time   13.92
       DOS:  cpu time    0.00: real time    0.01
    CHARGE:  cpu time    0.61: real time    0.61
    MIXING:  cpu time    0.01: real time    0.01
    --------------------------------------------
      LOOP:  cpu time   14.55: real time   14.55

 eigenvalue-minimisations  :  1584
 total energy-change (2. order) :-0.8456037E-01  (-0.8437871E-01)
 number of electron  120.0000115 magnetization 
 augmentation part    35.3731519 magnetization 

 Broyden mixing:
  rms(total) = 0.12732E+01    rms(broyden)= 0.12696E+01
  rms(prec ) = 0.18279E+01
  weight for this iteration     100.00

 Free energy of the ion-electron system (eV)
  ---------------------------------------------------
  alpha Z        PSCENC =       816.75334083
  Ewald energy   TEWEN  =     -6784.41055178
  -1/2 Hartree   DENC   =     -3413.05678325
  -exchange  EXHF       =         0.00000000
  -V(xc)+E(xc)   XCENC  =        32.24855473
  PAW double counting   =      6881.46741456    -6540.60144789
  entropy T*S    EENTRO =        -0.10586680
  eigenvalues    EBANDS =       176.19351817
  atomic energy  EATOM  =      8759.88665249
  ---------------------------------------------------
  free energy    TOTEN  =       -71.62516894 eV

  energy without entropy =      -71.51930214  energy(sigma->0) =      -71.57223554


--------------------------------------------------------------------------------------------------------




----------------------------------------- Iteration    1(   6)  ---------------------------------------


    POTLOK:  cpu time    0.31: real time    0.31
    SETDIJ:  cpu time    0.06: real time    0.06
    EDDIAG:  cpu time    1.64: real time    1.64
  RMM-DIIS:  cpu time    8.01: real time    8.01
    ORTHCH:  cpu time    0.27: real time    0.27
       DOS:  cpu time    0.00: real time    0.01
    CHARGE:  cpu time    0.61: real time    0.61
    MIXING:  cpu time    0.01: real time    0.01
    --------------------------------------------
      LOOP:  cpu time   10.91: real time   10.91

 eigenvalue-minimisations  :  1183
 total energy-change (2. order) : 0.3310149E+01  (-0.1138557E+01)
 number of electron  120.0000115 magnetization 
 augmentation part    37.3544068 magnetization 

 Broyden mixing:
  rms(total) = 0.66453E+00    rms(broyden)= 0.66210E+00
  rms(prec ) = 0.13479E+01
  weight for this iteration     100.00

 eigenvalues of (default mixing * dielectric matrix)
  average eigenvalue GAMMA=   0.9008
  0.9008

 Free energy of the ion-electron system (eV)
  ---------------------------------------------------
  alpha Z        PSCENC =       816.75334083
  Ewald energy   TEWEN  =     -6784.41055178
  -1/2 Hartree   DENC   =     -3315.71257895
  -exchange  EXHF       =         0.00000000
  -V(xc)+E(xc)   XCENC  =        28.96746582
  PAW double counting   =      6816.66179437    -6489.89460136
  entropy T*S    EENTRO =        -0.20319503
  eigenvalues    EBANDS =        99.63665377
  atomic energy  EATOM  =      8759.88665249
  ---------------------------------------------------
  free energy    TOTEN  =       -68.31501986 eV

  energy without entropy =      -68.11182482  energy(sigma->0) =      -68.21342234


--------------------------------------------------------------------------------------------------------




----------------------------------------- Iteration    1(   7)  ---------------------------------------


    POTLOK:  cpu time    0.31: real time    0.31
    SETDIJ:  cpu time    0.06: real time    0.06
    EDDIAG:  cpu time    1.64: real time    1.64
  RMM-DIIS:  cpu time    7.94: real time    7.96
    ORTHCH:  cpu time    0.26: real time    0.26
       DOS:  cpu time    0.00: real time    0.01
    CHARGE:  cpu time    0.60: real time    0.60
    MIXING:  cpu time    0.01: real time    0.01
    --------------------------------------------
      LOOP:  cpu time   10.83: real time   10.85

 eigenvalue-minimisations  :  1187
 total energy-change (2. order) :-0.4619995E+00  (-0.4481146E+00)
 number of electron  120.0000107 magnetization 
 augmentation part    37.5202173 magnetization 

 Broyden mixing:
  rms(total) = 0.80579E+00    rms(broyden)= 0.80351E+00
  rms(prec ) = 0.16497E+01
  weight for this iteration     100.00

 eigenvalues of (default mixing * dielectric matrix)
  average eigenvalue GAMMA=   0.7720
  1.2650  0.2790

 Free energy of the ion-electron system (eV)
  ---------------------------------------------------
  alpha Z        PSCENC =       816.75334083
  Ewald energy   TEWEN  =     -6784.41055178
  -1/2 Hartree   DENC   =     -3313.54345668
  -exchange  EXHF       =         0.00000000
  -V(xc)+E(xc)   XCENC  =        28.38074051
  PAW double counting   =      6847.21872305    -6523.98607611
  entropy T*S    EENTRO =        -0.12956763
  eigenvalues    EBANDS =       101.05317592
  atomic energy  EATOM  =      8759.88665249
  ---------------------------------------------------
  free energy    TOTEN  =       -68.77701940 eV

  energy without entropy =      -68.64745177  energy(sigma->0) =      -68.71223559


--------------------------------------------------------------------------------------------------------




----------------------------------------- Iteration    1(   8)  ---------------------------------------


    POTLOK:  cpu time    0.31: real time    0.31
    SETDIJ:  cpu time    0.06: real time    0.06
    EDDIAG:  cpu time    1.61: real time    1.61
  RMM-DIIS:  cpu time    7.86: real time    7.86
    ORTHCH:  cpu time    0.26: real time    0.26
       DOS:  cpu time    0.00: real time    0.01
    CHARGE:  cpu time    0.61: real time    0.61
    MIXING:  cpu time    0.01: real time    0.01
    --------------------------------------------
      LOOP:  cpu time   10.73: real time   10.73

 eigenvalue-minimisations  :  1183
 total energy-change (2. order) : 0.1356069E+01  (-0.1092886E+00)
 number of electron  120.0000113 magnetization 
 augmentation part    37.8411455 magnetization 

 Broyden mixing:
  rms(total) = 0.11951E+00    rms(broyden)= 0.11748E+00
  rms(prec ) = 0.14083E+00
  weight for this iteration     100.00

 eigenvalues of (default mixing * dielectric matrix)
  average eigenvalue GAMMA=   1.0390
  0.2877  1.2234  1.6059

 Free energy of the ion-electron system (eV)
  ---------------------------------------------------
  alpha Z        PSCENC =       816.75334083
  Ewald energy   TEWEN  =     -6784.41055178
  -1/2 Hartree   DENC   =     -3299.52193782
  -exchange  EXHF       =         0.00000000
  -V(xc)+E(xc)   XCENC  =        28.01626135
  PAW double counting   =      6887.52772180    -6568.29779077
  entropy T*S    EENTRO =        -0.16275655
  eigenvalues    EBANDS =        92.78810984
  atomic energy  EATOM  =      8759.88665249
  ---------------------------------------------------
  free energy    TOTEN  =       -67.42095061 eV

  energy without entropy =      -67.25819406  energy(sigma->0) =      -67.33957233


--------------------------------------------------------------------------------------------------------




----------------------------------------- Iteration    1(   9)  ---------------------------------------


    POTLOK:  cpu time    0.30: real time    0.31
    SETDIJ:  cpu time    0.06: real time    0.06
    EDDIAG:  cpu time    1.61: real time    1.61
  RMM-DIIS:  cpu time    8.31: real time    8.31
    ORTHCH:  cpu time    0.26: real time    0.26
       DOS:  cpu time    0.00: real time    0.01
    CHARGE:  cpu time    0.61: real time    0.61
    MIXING:  cpu time    0.01: real time    0.01
    --------------------------------------------
      LOOP:  cpu time   11.18: real time   11.18

 eigenvalue-minimisations  :  1256
 total energy-change (2. order) : 0.1947646E-01  (-0.1522402E-01)
 number of electron  120.0000111 magnetization 
 augmentation part    37.7901197 magnetization 

 Broyden mixing:
  rms(total) = 0.73307E-01    rms(broyden)= 0.73167E-01
  rms(prec ) = 0.14132E+00
  weight for this iteration     100.00

 eigenvalues of (default mixing * dielectric matrix)
  average eigenvalue GAMMA=   1.0899
  2.0219  1.1158  0.9332  0.2885

 Free energy of the ion-electron system (eV)
  ---------------------------------------------------
  alpha Z        PSCENC =       816.75334083
  Ewald energy   TEWEN  =     -6784.41055178
  -1/2 Hartree   DENC   =     -3302.41488341
  -exchange  EXHF       =         0.00000000
  -V(xc)+E(xc)   XCENC  =        28.04619562
  PAW double counting   =      6954.02085788    -6637.18588841
  entropy T*S    EENTRO =        -0.16544252
  eigenvalues    EBANDS =        98.06824515
  atomic energy  EATOM  =      8759.88665249
  ---------------------------------------------------
  free energy    TOTEN  =       -67.40147415 eV

  energy without entropy =      -67.23603163  energy(sigma->0) =      -67.31875289


--------------------------------------------------------------------------------------------------------




----------------------------------------- Iteration    1(  10)  ---------------------------------------


    POTLOK:  cpu time    0.30: real time    0.31
    SETDIJ:  cpu time    0.06: real time    0.06
    EDDIAG:  cpu time    1.62: real time    1.62
  RMM-DIIS:  cpu time    8.81: real time    8.81
    ORTHCH:  cpu time    0.26: real time    0.26
       DOS:  cpu time    0.00: real time    0.01
    CHARGE:  cpu time    0.61: real time    0.61
    MIXING:  cpu time    0.01: real time    0.01
    --------------------------------------------
      LOOP:  cpu time   11.68: real time   11.68

 eigenvalue-minimisations  :  1314
 total energy-change (2. order) :-0.3320643E-02  (-0.1994380E-02)
 number of electron  120.0000112 magnetization 
 augmentation part    37.7848549 magnetization 

 Broyden mixing:
  rms(total) = 0.83131E-01    rms(broyden)= 0.83018E-01
  rms(prec ) = 0.19505E+00
  weight for this iteration     100.00

 eigenvalues of (default mixing * dielectric matrix)
  average eigenvalue GAMMA=   1.0121
  2.2821  1.1489  1.1489  0.2886  0.1920

 Free energy of the ion-electron system (eV)
  ---------------------------------------------------
  alpha Z        PSCENC =       816.75334083
  Ewald energy   TEWEN  =     -6784.41055178
  -1/2 Hartree   DENC   =     -3302.33155684
  -exchange  EXHF       =         0.00000000
  -V(xc)+E(xc)   XCENC  =        28.03107707
  PAW double counting   =      6967.81548160    -6651.55236664
  entropy T*S    EENTRO =        -0.16204892
  eigenvalues    EBANDS =        98.56517740
  atomic energy  EATOM  =      8759.88665249
  ---------------------------------------------------
  free energy    TOTEN  =       -67.40479479 eV

  energy without entropy =      -67.24274588  energy(sigma->0) =      -67.32377033


--------------------------------------------------------------------------------------------------------




----------------------------------------- Iteration    1(  11)  ---------------------------------------


    POTLOK:  cpu time    0.31: real time    0.31
    SETDIJ:  cpu time    0.06: real time    0.06
    EDDIAG:  cpu time    1.61: real time    1.61
  RMM-DIIS:  cpu time    8.21: real time    8.21
    ORTHCH:  cpu time    0.26: real time    0.26
       DOS:  cpu time    0.00: real time    0.01
    CHARGE:  cpu time    0.61: real time    0.61
    MIXING:  cpu time    0.01: real time    0.01
    --------------------------------------------
      LOOP:  cpu time   11.08: real time   11.08

 eigenvalue-minimisations  :  1203
 total energy-change (2. order) : 0.1071044E-01  (-0.7027365E-03)
 number of electron  120.0000112 magnetization 
 augmentation part    37.7882944 magnetization 

 Broyden mixing:
  rms(total) = 0.19033E-01    rms(broyden)= 0.18793E-01
  rms(prec ) = 0.33505E-01
  weight for this iteration     100.00

 eigenvalues of (default mixing * dielectric matrix)
  average eigenvalue GAMMA=   1.0988
  2.5292  1.3229  1.3229  0.9397  0.2884  0.1898

 Free energy of the ion-electron system (eV)
  ---------------------------------------------------
  alpha Z        PSCENC =       816.75334083
  Ewald energy   TEWEN  =     -6784.41055178
  -1/2 Hartree   DENC   =     -3301.69312253
  -exchange  EXHF       =         0.00000000
  -V(xc)+E(xc)   XCENC  =        27.99623031
  PAW double counting   =      6986.75129463    -6671.30429259
  entropy T*S    EENTRO =        -0.15467441
  eigenvalues    EBANDS =        98.78103871
  atomic energy  EATOM  =      8759.88665249
  ---------------------------------------------------
  free energy    TOTEN  =       -67.39408436 eV

  energy without entropy =      -67.23940995  energy(sigma->0) =      -67.31674715


--------------------------------------------------------------------------------------------------------




----------------------------------------- Iteration    1(  12)  ---------------------------------------


    POTLOK:  cpu time    0.30: real time    0.30
    SETDIJ:  cpu time    0.06: real time    0.06
    EDDIAG:  cpu time    1.61: real time    1.61
  RMM-DIIS:  cpu time    8.73: real time    8.73
    ORTHCH:  cpu time    0.26: real time    0.26
       DOS:  cpu time    0.00: real time    0.01
    CHARGE:  cpu time    0.61: real time    0.61
    MIXING:  cpu time    0.01: real time    0.01
    --------------------------------------------
      LOOP:  cpu time   11.59: real time   11.61

 eigenvalue-minimisations  :  1285
 total energy-change (2. order) : 0.2476633E-03  (-0.1399446E-03)
 number of electron  120.0000112 magnetization 
 augmentation part    37.7982795 magnetization 

 Broyden mixing:
  rms(total) = 0.37699E-02    rms(broyden)= 0.37291E-02
  rms(prec ) = 0.57420E-02
  weight for this iteration     100.00

 eigenvalues of (default mixing * dielectric matrix)
  average eigenvalue GAMMA=   1.0938
  2.4871  1.6136  1.0673  1.0673  0.2884  0.1897  0.9434

 Free energy of the ion-electron system (eV)
  ---------------------------------------------------
  alpha Z        PSCENC =       816.75334083
  Ewald energy   TEWEN  =     -6784.41055178
  -1/2 Hartree   DENC   =     -3301.35451343
  -exchange  EXHF       =         0.00000000
  -V(xc)+E(xc)   XCENC  =        27.98673061
  PAW double counting   =      6996.29880705    -6681.15066089
  entropy T*S    EENTRO =        -0.15782892
  eigenvalues    EBANDS =        98.75418736
  atomic energy  EATOM  =      8759.88665249
  ---------------------------------------------------
  free energy    TOTEN  =       -67.39383669 eV

  energy without entropy =      -67.23600777  energy(sigma->0) =      -67.31492223


--------------------------------------------------------------------------------------------------------




----------------------------------------- Iteration    1(  13)  ---------------------------------------


    POTLOK:  cpu time    0.31: real time    0.31
    SETDIJ:  cpu time    0.06: real time    0.06
    EDDIAG:  cpu time    1.61: real time    1.61
  RMM-DIIS:  cpu time    8.27: real time    8.27
    ORTHCH:  cpu time    0.28: real time    0.28
       DOS:  cpu time    0.01: real time    0.01
    --------------------------------------------
      LOOP:  cpu time   10.54: real time   10.54

 eigenvalue-minimisations  :  1206
 total energy-change (2. order) : 0.1154055E-04  (-0.1390534E-04)
 number of electron  120.0000112 magnetization 
 augmentation part    37.7982795 magnetization 

 Free energy of the ion-electron system (eV)
  ---------------------------------------------------
  alpha Z        PSCENC =       816.75334083
  Ewald energy   TEWEN  =     -6784.41055178
  -1/2 Hartree   DENC   =     -3301.73985756
  -exchange  EXHF       =         0.00000000
  -V(xc)+E(xc)   XCENC  =        27.99748532
  PAW double counting   =      6996.99099305    -6681.75820180
  entropy T*S    EENTRO =        -0.15758077
  eigenvalues    EBANDS =        99.04389508
  atomic energy  EATOM  =      8759.88665249
  ---------------------------------------------------
  free energy    TOTEN  =       -67.39382515 eV

  energy without entropy =      -67.23624438  energy(sigma->0) =      -67.31503477


--------------------------------------------------------------------------------------------------------




 average (electrostatic) potential at core
  the test charge radii are     1.2059
  (the norm of the test charge is              1.0000)
       1 -52.4440       2 -52.4440       3 -52.4440       4 -52.4440       5 -52.9092
       6 -52.9092       7 -52.9092       8 -52.9092       9 -52.4435      10 -52.4435
      11 -52.4435      12 -52.4435
 
 
 
 E-fermi :   3.7009     XC(G=0): -10.9663     alpha+bet : -9.4168
   add alpha+bet to get absolut eigen values

 k-point   1 :       0.0000    0.0000    0.0000
  band No.  band energies     occupation 
      1      -4.9682      2.00000
      2      -3.2407      2.00000
      3      -2.8013      2.00000
      4      -2.3907      2.00000
      5      -2.3907      2.00000
      6      -2.3907      2.00000
      7      -2.1479      2.00000
      8      -2.1479      2.00000
      9      -2.1479      2.00000
     10      -1.6854      2.00000
     11      -1.6854      2.00000
     12      -1.6854      2.00000
     13      -1.5773      2.00000
     14      -1.5773      2.00000
     15      -1.5773      2.00000
     16      -0.1291      2.00000
     17      -0.1291      2.00000
     18      -0.1291      2.00000
     19       0.1735      2.00000
     20       0.1735      2.00000
     21       0.1735      2.00000
     22       0.3043      2.00000
     23       0.4284      2.00000
     24       0.4284      2.00000
     25       0.7504      2.00000
     26       0.7504      2.00000
     27       0.8616      2.00000
     28       0.9318      2.00000
     29       0.9318      2.00000
     30       0.9318      2.00000
     31       0.9559      2.00000
     32       0.9560      2.00000
     33       1.5068      2.00000
     34       1.5068      2.00000
     35       1.5068      2.00000
     36       2.3904      2.00000
     37       2.3904      2.00000
     38       2.4259      2.00000
     39       2.4259      2.00000
     40       2.4259      2.00000
     41       2.4734      2.00000
     42       2.4734      2.00000
     43       2.4734      2.00000
     44       2.5238      2.00000
     45       3.0631      2.00000
     46       3.0631      2.00000
     47       3.5432      1.97424
     48       3.5432      1.97424
     49       3.5432      1.97424
     50       3.6361      1.64029
     51       3.6361      1.64027
     52       3.6361      1.64027
     53       3.6849      1.17956
     54       3.6849      1.17955
     55       3.8841      0.00956
     56       3.8841      0.00956
     57       3.8841      0.00956
     58       4.2175      0.00000
     59       4.2175      0.00000
     60       4.2175      0.00000
     61       4.2647      0.00000
     62       4.2647      0.00000
     63       4.2647      0.00000
     64       5.0791      0.00000
     65       5.0791      0.00000
     66       5.0791      0.00000
     67       5.5903      0.00000
     68       6.5311      0.00000
     69       6.5311      0.00000
     70       6.5638      0.00000
     71       6.5644      0.00000
     72       6.5644      0.00000

 k-point   2 :       0.1429    0.0000    0.0000
  band No.  band energies     occupation 
      1      -4.7961      2.00000
      2      -3.0661      2.00000
      3      -2.6362      2.00000
      4      -2.3878      2.00000
      5      -2.2587      2.00000
      6      -2.2587      2.00000
      7      -2.0910      2.00000
      8      -2.0274      2.00000
      9      -2.0273      2.00000
     10      -1.6571      2.00000
     11      -1.6199      2.00000
     12      -1.6199      2.00000
     13      -1.4807      2.00000
     14      -1.4133      2.00000
     15      -1.4133      2.00000
     16      -0.1287      2.00000
     17      -0.1287      2.00000
     18      -0.1011      2.00000
     19       0.2436      2.00000
     20       0.2437      2.00000
     21       0.2494      2.00000
     22       0.2852      2.00000
     23       0.3082      2.00000
     24       0.5244      2.00000
     25       0.5511      2.00000
     26       0.7931      2.00000
     27       0.7931      2.00000
     28       0.8469      2.00000
     29       0.8983      2.00000
     30       0.9521      2.00000
     31       0.9693      2.00000
     32       1.0825      2.00000
     33       1.3401      2.00000
     34       1.4466      2.00000
     35       1.4466      2.00000
     36       2.1281      2.00000
     37       2.2065      2.00000
     38       2.2065      2.00000
     39       2.3015      2.00000
     40       2.3346      2.00000
     41       2.4051      2.00000
     42       2.4321      2.00000
     43       2.4440      2.00000
     44       2.4440      2.00000
     45       3.0603      2.00000
     46       3.2729      2.00000
     47       3.2934      2.00000
     48       3.2934      2.00000
     49       3.4310      1.99987
     50       3.4339      1.99984
     51       3.4339      1.99984
     52       3.4849      1.99774
     53       3.5416      1.97573
     54       3.6070      1.81576
     55       3.6070      1.81573
     56       3.6895      1.12814
     57       3.7307      0.67313
     58       3.7687      0.33743
     59       3.7687      0.33739
     60       4.0166      0.00001
     61       4.0166      0.00001
     62       4.0292      0.00000
     63       4.0681      0.00000
     64       4.1317      0.00000
     65       5.0082      0.00000
     66       5.4782      0.00000
     67       5.4782      0.00000
     68       6.1870      0.00000
     69       6.2932      0.00000
     70       6.2932      0.00000
     71       7.1260      0.00000
     72       7.4604      0.00000

 k-point   3 :       0.2857    0.0000    0.0000
  band No.  band energies     occupation 
      1      -4.3063      2.00000
      2      -2.5888      2.00000
      3      -2.4792      2.00000
      4      -2.1872      2.00000
      5      -1.9439      2.00000
      6      -1.8995      2.00000
      7      -1.8995      2.00000
      8      -1.7175      2.00000
      9      -1.7175      2.00000
     10      -1.5530      2.00000
     11      -1.4072      2.00000
     12      -1.4072      2.00000
     13      -1.2296      2.00000
     14      -0.9626      2.00000
     15      -0.9626      2.00000
     16      -0.1745      2.00000
     17      -0.1745      2.00000
     18      -0.0557      2.00000
     19      -0.0209      2.00000
     20       0.1270      2.00000
     21       0.3424      2.00000
     22       0.3870      2.00000
     23       0.4257      2.00000
     24       0.4257      2.00000
     25       0.4656      2.00000
     26       0.4656      2.00000
     27       0.7810      2.00000
     28       0.8985      2.00000
     29       0.9334      2.00000
     30       0.9826      2.00000
     31       1.0718      2.00000
     32       1.0939      2.00000
     33       1.2085      2.00000
     34       1.2085      2.00000
     35       1.4500      2.00000
     36       1.6919      2.00000
     37       1.7848      2.00000
     38       1.7970      2.00000
     39       1.7970      2.00000
     40       2.2069      2.00000
     41       2.2069      2.00000
     42       2.2145      2.00000
     43       2.2145      2.00000
     44       2.2191      2.00000
     45       2.2457      2.00000
     46       2.3993      2.00000
     47       2.4291      2.00000
     48       2.9350      2.00000
     49       2.9350      2.00000
     50       2.9973      2.00000
     51       3.0333      2.00000
     52       3.0589      2.00000
     53       3.1341      2.00000
     54       3.1422      2.00000
     55       3.1422      2.00000
     56       3.4028      1.99998
     57       3.4992      1.99567
     58       3.6095      1.80390
     59       3.6095      1.80390
     60       3.7018      0.99025
     61       3.7858      0.22973
     62       3.8536      0.03084
     63       3.9260      0.00146
     64       3.9260      0.00146
     65       4.1433      0.00000
     66       5.7165      0.00000
     67       5.7165      0.00000
     68       6.2405      0.00000
     69       6.5917      0.00000
     70       6.5917      0.00000
     71       7.3674      0.00000
     72       8.1610      0.00000

 k-point   4 :       0.4286    0.0000    0.0000
  band No.  band energies     occupation 
      1      -3.5961      2.00000
      2      -2.8878      2.00000
      3      -2.0286      2.00000
      4      -1.8247      2.00000
      5      -1.6498      2.00000
      6      -1.5075      2.00000
      7      -1.5075      2.00000
      8      -1.4412      2.00000
      9      -1.4245      2.00000
     10      -1.4245      2.00000
     11      -1.0275      2.00000
     12      -1.0275      2.00000
     13      -0.8652      2.00000
     14      -0.4933      2.00000
     15      -0.4933      2.00000
     16      -0.4494      2.00000
     17      -0.1724      2.00000
     18      -0.1724      2.00000
     19      -0.1713      2.00000
     20      -0.0657      2.00000
     21      -0.0346      2.00000
     22      -0.0346      2.00000
     23       0.3443      2.00000
     24       0.4153      2.00000
     25       0.5906      2.00000
     26       0.7477      2.00000
     27       0.7477      2.00000
     28       0.9245      2.00000
     29       0.9245      2.00000
     30       0.9649      2.00000
     31       0.9779      2.00000
     32       1.1870      2.00000
     33       1.1870      2.00000
     34       1.1885      2.00000
     35       1.1988      2.00000
     36       1.2285      2.00000
     37       1.3198      2.00000
     38       1.3383      2.00000
     39       1.3383      2.00000
     40       1.4078      2.00000
     41       1.4873      2.00000
     42       1.9411      2.00000
     43       2.0193      2.00000
     44       2.0741      2.00000
     45       2.0990      2.00000
     46       2.0990      2.00000
     47       2.2256      2.00000
     48       2.3473      2.00000
     49       2.3976      2.00000
     50       2.3976      2.00000
     51       2.6885      2.00000
     52       2.7646      2.00000
     53       2.9099      2.00000
     54       2.9099      2.00000
     55       2.9879      2.00000
     56       3.0497      2.00000
     57       3.1383      2.00000
     58       3.4237      1.99991
     59       3.6068      1.81675
     60       3.6068      1.81675
     61       3.7140      0.85276
     62       3.7260      0.72249
     63       3.9387      0.00077
     64       3.9387      0.00077
     65       4.7866      0.00000
     66       5.4544      0.00000
     67       5.8129      0.00000
     68       5.8129      0.00000
     69       6.7733      0.00000
     70       6.7733      0.00000
     71       8.3079      0.00000
     72       8.3087      0.00000

 k-point   5 :       0.1429    0.1429    0.0000
  band No.  band energies     occupation 
      1      -4.4639      2.00000
      2      -2.7361      2.00000
      3      -2.3250      2.00000
      4      -2.2774      2.00000
      5      -2.2774      2.00000
      6      -1.9160      2.00000
      7      -1.9160      2.00000
      8      -1.9016      2.00000
      9      -1.7726      2.00000
     10      -1.5413      2.00000
     11      -1.5413      2.00000
     12      -1.4480      2.00000
     13      -1.2524      2.00000
     14      -1.2524      2.00000
     15      -1.0328      2.00000
     16      -0.1809      2.00000
     17      -0.0886      2.00000
     18      -0.0886      2.00000
     19       0.0425      2.00000
     20       0.2708      2.00000
     21       0.2854      2.00000
     22       0.3630      2.00000
     23       0.3722      2.00000
     24       0.3722      2.00000
     25       0.5114      2.00000
     26       0.7589      2.00000
     27       0.7589      2.00000
     28       0.7858      2.00000
     29       0.8297      2.00000
     30       0.9007      2.00000
     31       1.0372      2.00000
     32       1.2337      2.00000
     33       1.2337      2.00000
     34       1.3212      2.00000
     35       1.3451      2.00000
     36       1.7999      2.00000
     37       1.8854      2.00000
     38       1.9305      2.00000
     39       1.9305      2.00000
     40       2.2090      2.00000
     41       2.2852      2.00000
     42       2.3535      2.00000
     43       2.3535      2.00000
     44       2.4293      2.00000
     45       2.5498      2.00000
     46       2.5498      2.00000
     47       2.5820      2.00000
     48       2.7803      2.00000
     49       3.0653      2.00000
     50       3.0653      2.00000
     51       3.1701      2.00000
     52       3.2959      2.00000
     53       3.2959      2.00000
     54       3.3095      2.00000
     55       3.4290      1.99988
     56       3.5156      1.99122
     57       3.5644      1.94642
     58       3.6461      1.56182
     59       3.6461      1.56182
     60       3.7962      0.17769
     61       3.7962      0.17769
     62       3.8503      0.03466
     63       4.0140      0.00001
     64       4.3776      0.00000
     65       4.3776      0.00000
     66       4.9316      0.00000
     67       4.9316      0.00000
     68       6.8782      0.00000
     69       6.9404      0.00000
     70       6.9404      0.00000
     71       7.0298      0.00000
     72       7.4205      0.00000

 k-point   6 :       0.2857    0.1429    0.0000
  band No.  band energies     occupation 
      1      -3.8528      2.00000
      2      -2.5093      2.00000
      3      -2.1778      2.00000
      4      -2.0062      2.00000
      5      -1.7956      2.00000
      6      -1.7507      2.00000
      7      -1.5739      2.00000
      8      -1.4594      2.00000
      9      -1.4285      2.00000
     10      -1.3930      2.00000
     11      -1.2751      2.00000
     12      -1.1033      2.00000
     13      -0.9612      2.00000
     14      -0.7658      2.00000
     15      -0.5450      2.00000
     16      -0.3017      2.00000
     17      -0.2608      2.00000
     18      -0.1709      2.00000
     19      -0.0741      2.00000
     20      -0.0707      2.00000
     21       0.1828      2.00000
     22       0.1995      2.00000
     23       0.2199      2.00000
     24       0.3159      2.00000
     25       0.6055      2.00000
     26       0.6521      2.00000
     27       0.6622      2.00000
     28       0.7789      2.00000
     29       0.7844      2.00000
     30       0.9481      2.00000
     31       1.0566      2.00000
     32       1.0691      2.00000
     33       1.1989      2.00000
     34       1.2658      2.00000
     35       1.3356      2.00000
     36       1.4576      2.00000
     37       1.4985      2.00000
     38       1.5130      2.00000
     39       1.5149      2.00000
     40       1.6721      2.00000
     41       1.7388      2.00000
     42       1.8482      2.00000
     43       1.9285      2.00000
     44       2.0365      2.00000
     45       2.1993      2.00000
     46       2.2143      2.00000
     47       2.3911      2.00000
     48       2.4224      2.00000
     49       2.4557      2.00000
     50       2.6816      2.00000
     51       2.7287      2.00000
     52       2.9429      2.00000
     53       2.9913      2.00000
     54       3.1698      2.00000
     55       3.3101      2.00000
     56       3.3312      2.00000
     57       3.4731      1.99873
     58       3.4737      1.99869
     59       3.5992      1.84976
     60       3.6032      1.83299
     61       3.6636      1.40267
     62       3.7875      0.22044
     63       3.7901      0.20733
     64       3.9131      0.00269
     65       4.5826      0.00000
     66       4.5842      0.00000
     67       5.1448      0.00000
     68       5.9669      0.00000
     69       6.9095      0.00000
     70       7.1215      0.00000
     71       8.2458      0.00000
     72       8.3887      0.00000

 k-point   7 :       0.4286    0.1429    0.0000
  band No.  band energies     occupation 
      1      -3.1068      2.00000
      2      -3.1068      2.00000
      3      -1.8350      2.00000
      4      -1.7446      2.00000
      5      -1.7446      2.00000
      6      -1.3893      2.00000
      7      -1.3582      2.00000
      8      -1.3582      2.00000
      9      -1.2641      2.00000
     10      -1.2090      2.00000
     11      -0.8978      2.00000
     12      -0.7562      2.00000
     13      -0.6461      2.00000
     14      -0.6036      2.00000
     15      -0.6036      2.00000
     16      -0.5841      2.00000
     17      -0.3074      2.00000
     18      -0.3074      2.00000
     19      -0.2215      2.00000
     20      -0.0835      2.00000
     21      -0.0196      2.00000
     22       0.1894      2.00000
     23       0.3847      2.00000
     24       0.3847      2.00000
     25       0.4177      2.00000
     26       0.5310      2.00000
     27       0.5310      2.00000
     28       0.6439      2.00000
     29       0.7515      2.00000
     30       0.7515      2.00000
     31       0.8467      2.00000
     32       1.0062      2.00000
     33       1.0875      2.00000
     34       1.1473      2.00000
     35       1.1490      2.00000
     36       1.1748      2.00000
     37       1.1998      2.00000
     38       1.1998      2.00000
     39       1.4606      2.00000
     40       1.4606      2.00000
     41       1.7508      2.00000
     42       1.7508      2.00000
     43       2.0775      2.00000
     44       2.0993      2.00000
     45       2.0993      2.00000
     46       2.1531      2.00000
     47       2.2602      2.00000
     48       2.3082      2.00000
     49       2.5367      2.00000
     50       2.5367      2.00000
     51       2.6537      2.00000
     52       2.6537      2.00000
     53       2.8215      2.00000
     54       2.9653      2.00000
     55       2.9653      2.00000
     56       3.0586      2.00000
     57       3.3779      2.00000
     58       3.3779      2.00000
     59       3.4935      1.99665
     60       3.5988      1.85109
     61       3.6672      1.36598
     62       3.6672      1.36598
     63       3.7747      0.29641
     64       3.8044      0.14346
     65       4.6540      0.00000
     66       5.2203      0.00000
     67       5.2203      0.00000
     68       5.2261      0.00000
     69       6.9119      0.00000
     70       7.0882      0.00000
     71       8.4715      0.00000
     72       9.5713      0.00000

 k-point   8 :       0.2857    0.2857    0.0000
  band No.  band energies     occupation 
      1      -3.1763      2.00000
      2      -2.4577      2.00000
      3      -2.4577      2.00000
      4      -1.6570      2.00000
      5      -1.4535      2.00000
      6      -1.4535      2.00000
      7      -1.2569      2.00000
      8      -1.1673      2.00000
      9      -1.0959      2.00000
     10      -1.0644      2.00000
     11      -1.0644      2.00000
     12      -0.7496      2.00000
     13      -0.6582      2.00000
     14      -0.5844      2.00000
     15      -0.5419      2.00000
     16      -0.5419      2.00000
     17      -0.4281      2.00000
     18      -0.4281      2.00000
     19      -0.2195      2.00000
     20      -0.1779      2.00000
     21       0.0008      2.00000
     22       0.2139      2.00000
     23       0.2139      2.00000
     24       0.3259      2.00000
     25       0.3895      2.00000
     26       0.3895      2.00000
     27       0.4794      2.00000
     28       0.5027      2.00000
     29       0.5027      2.00000
     30       0.5030      2.00000
     31       0.8123      2.00000
     32       1.0059      2.00000
     33       1.0991      2.00000
     34       1.0991      2.00000
     35       1.1741      2.00000
     36       1.2188      2.00000
     37       1.2199      2.00000
     38       1.3661      2.00000
     39       1.3661      2.00000
     40       1.5204      2.00000
     41       1.6512      2.00000
     42       1.9401      2.00000
     43       1.9401      2.00000
     44       2.0551      2.00000
     45       2.1803      2.00000
     46       2.3497      2.00000
     47       2.3728      2.00000
     48       2.3728      2.00000
     49       2.4551      2.00000
     50       2.6434      2.00000
     51       2.7415      2.00000
     52       2.7415      2.00000
     53       2.9098      2.00000
     54       3.2979      2.00000
     55       3.3280      2.00000
     56       3.3590      2.00000
     57       3.3590      2.00000
     58       3.4472      1.99967
     59       3.4913      1.99697
     60       3.4913      1.99697
     61       3.5593      1.95471
     62       3.5761      1.92254
     63       3.6562      1.47261
     64       3.6562      1.47261
     65       4.0071      0.00001
     66       4.0071      0.00001
     67       5.1577      0.00000
     68       5.8893      0.00000
     69       5.8893      0.00000
     70       8.3671      0.00000
     71       8.4155      0.00000
     72       9.3816      0.00000


--------------------------------------------------------------------------------------------------------


 soft charge-density along one line, spin component           1
         0         1         2         3         4         5         6         7         8         9
 total charge-density along one line
 
 pseudopotential strength for first ion, spin component:           1
 -8.860  -0.015   0.000   0.000   0.000  -0.067   0.002   0.000
 -0.015  -8.752   0.000   0.000   0.000   0.002  -0.080   0.000
  0.000   0.000  -8.739   0.000   0.000   0.000   0.000  -0.082
  0.000   0.000   0.000  -8.752   0.015   0.000   0.000   0.000
  0.000   0.000   0.000   0.015  -8.860   0.000   0.000   0.000
 -0.067   0.002   0.000   0.000   0.000   0.207   0.000   0.000
  0.002  -0.080   0.000   0.000   0.000   0.000   0.208   0.000
  0.000   0.000  -0.082   0.000   0.000   0.000   0.000   0.208
  0.000   0.000   0.000  -0.080  -0.002   0.000   0.000   0.000
  0.000   0.000   0.000  -0.002  -0.067   0.000   0.000   0.000
  0.000   0.000  -0.033   0.000   0.000   0.000   0.000   0.003
  0.000   0.000   0.002   0.000   0.000   0.000   0.000   0.000
  0.000  -0.004   0.000   0.000   0.000   0.000   0.001   0.000
  0.000   0.000  -0.007   0.000   0.000   0.000   0.000   0.001
  0.000   0.000   0.000  -0.004   0.000   0.000   0.000   0.000
  0.000   0.005   0.000   0.000   0.000   0.000  -0.001   0.000
  0.000   0.000   0.006   0.000   0.000   0.000   0.000  -0.001
  0.000   0.000   0.000   0.005   0.000   0.000   0.000   0.000
 total augmentation occupancy for first ion, spin component:           1
  1.646  -0.067   0.000   0.000   0.000   0.083   0.045   0.000   0.000   0.000   0.000   0.000   0.003   0.000   0.000   0.000
 -0.067   1.809   0.000   0.000   0.000   0.048  -0.065   0.000   0.000   0.000   0.000   0.000  -0.011   0.000   0.000  -0.003
  0.000   0.000   1.778   0.000   0.000   0.000   0.000  -0.029   0.000   0.000   0.039  -0.006   0.000   0.027   0.000   0.000
  0.000   0.000   0.000   1.809   0.067   0.000   0.000   0.000  -0.065  -0.048   0.000   0.000   0.000   0.000  -0.011   0.000
  0.000   0.000   0.000   0.067   1.646   0.000   0.000   0.000  -0.045   0.083   0.000   0.000   0.000   0.000  -0.003   0.000
  0.083   0.048   0.000   0.000   0.000   0.202  -0.003   0.000   0.000   0.000   0.000   0.000   0.010   0.000   0.000  -0.001
  0.045  -0.065   0.000   0.000   0.000  -0.003   0.175   0.000   0.000   0.000   0.000   0.000   0.054   0.000   0.000  -0.003
  0.000   0.000  -0.029   0.000   0.000   0.000   0.000   0.238   0.000   0.000  -0.173   0.035   0.000   0.085   0.000   0.000
  0.000   0.000   0.000  -0.065  -0.045   0.000   0.000   0.000   0.175   0.003   0.000   0.000   0.000   0.000   0.054   0.000
  0.000   0.000   0.000  -0.048   0.083   0.000   0.000   0.000   0.003   0.202   0.000   0.000   0.000   0.000  -0.010   0.000
  0.000   0.000   0.039   0.000   0.000   0.000   0.000  -0.173   0.000   0.000   1.108  -0.325   0.000   0.061   0.000   0.000
  0.000   0.000  -0.006   0.000   0.000   0.000   0.000   0.035   0.000   0.000  -0.325   0.142   0.000  -0.054   0.000   0.000
  0.003  -0.011   0.000   0.000   0.000   0.010   0.054   0.000   0.000   0.000   0.000   0.000   0.170   0.000   0.000  -0.007
  0.000   0.000   0.027   0.000   0.000   0.000   0.000   0.085   0.000   0.000   0.061  -0.054   0.000   0.097   0.000   0.000
  0.000   0.000   0.000  -0.011  -0.003   0.000   0.000   0.000   0.054  -0.010   0.000   0.000   0.000   0.000   0.170   0.000
  0.000  -0.003   0.000   0.000   0.000  -0.001  -0.003   0.000   0.000   0.000   0.000   0.000  -0.007   0.000   0.000   0.000
  0.000   0.000  -0.010   0.000   0.000   0.000   0.000  -0.003   0.000   0.000  -0.006   0.004   0.000  -0.005   0.000   0.000
  0.000   0.000   0.000  -0.003   0.000   0.000   0.000   0.000  -0.003   0.001   0.000   0.000   0.000   0.000  -0.007   0.000


------------------------ aborting loop because EDIFF is reached ----------------------------------------


 


 total charge     
 
# of ion     s       p       d       tot
----------------------------------------
  1        0.519   0.311   7.686   8.516
  2        0.519   0.311   7.686   8.516
  3        0.519   0.311   7.686   8.516
  4        0.519   0.311   7.686   8.516
  5        0.506   0.395   7.674   8.575
  6        0.506   0.395   7.674   8.575
  7        0.506   0.395   7.674   8.575
  8        0.506   0.395   7.674   8.575
  9        0.518   0.311   7.686   8.515
 10        0.518   0.311   7.686   8.515
 11        0.518   0.311   7.686   8.515
 12        0.518   0.311   7.686   8.515
------------------------------------------------
tot        6.173   4.068  92.185 102.425
 


--------------------------------------------------------------------------------------------------------



  FREE ENERGIE OF THE ION-ELECTRON SYSTEM (eV)
  ---------------------------------------------------
  free  energy   TOTEN  =       -67.393825 eV

  energy  without entropy=      -67.236244  energy(sigma->0) =      -67.315035
 
    CHARGE:  cpu time    0.62: real time    0.62
    FORLOC:  cpu time    0.04: real time    0.04
    FORNL :  cpu time    6.82: real time    6.83
    FORCOR:  cpu time    0.37: real time    0.37
    FORHAR:  cpu time    0.09: real time    0.10
    MIXING:  cpu time    0.01: real time    0.01

 VOLUME and BASIS-vectors are now :
 -----------------------------------------------------------------------------
  energy-cutoff  :      250.00
  volume of cell :      255.73
      direct lattice vectors                 reciprocal lattice vectors
     4.880345867 -2.817669000  0.000000000     0.204903510  0.000000000  0.000000000
     0.000000000  5.635338000  0.000000000     0.102451755  0.177451645  0.000000000
     0.000000000  0.000000000  9.298307700     0.000000000  0.000000000  0.107546452

  length of vectors
     5.635338000  5.635338000  9.298307700     0.204903510  0.204903510  0.107546452


 FORCES acting on ions
    electron-ion (+dipol)            ewald-force                    non-local-force                 convergence-correction
 -----------------------------------------------------------------------------------------------
   -.106E-05 -.488E-06 0.656E+03   0.147E-10 0.101E-11 -.656E+03   -.260E-17 0.152E-17 0.100E+00   -.523E-07 0.909E-07 -.445E-01
   -.106E-05 -.488E-06 0.656E+03   0.147E-10 0.100E-11 -.656E+03   -.239E-17 0.108E-17 0.100E+00   -.523E-07 0.909E-07 -.445E-01
   -.106E-05 -.488E-06 0.656E+03   0.147E-10 0.101E-11 -.656E+03   -.195E-17 -.108E-17 0.100E+00   -.523E-07 0.909E-07 -.445E-01
   -.106E-05 -.488E-06 0.656E+03   0.147E-10 0.996E-12 -.656E+03   -.239E-17 0.239E-17 0.100E+00   -.523E-07 0.909E-07 -.445E-01
   -.861E-08 0.136E-07 -.254E+00   0.545E-13 0.105E-13 0.260E+00   0.000E+00 0.296E-20 0.479E-02   0.155E-07 -.274E-07 -.305E-02
   -.861E-08 0.136E-07 -.254E+00   0.532E-13 -.333E-14 0.260E+00   0.169E-20 0.847E-21 0.479E-02   0.155E-07 -.274E-07 -.305E-02
   -.861E-08 0.136E-07 -.254E+00   0.539E-13 0.136E-13 0.260E+00   0.000E+00 -.122E-20 0.479E-02   0.155E-07 -.274E-07 -.305E-02
   -.861E-08 0.136E-07 -.254E+00   0.384E-13 0.198E-14 0.260E+00   -.424E-21 -.699E-20 0.479E-02   0.155E-07 -.274E-07 -.305E-02
   0.109E-05 0.540E-06 -.656E+03   -.147E-10 -.999E-12 0.656E+03   0.152E-17 -.173E-17 -.973E-01   0.497E-07 -.861E-07 0.519E-01
   0.109E-05 0.540E-06 -.656E+03   -.147E-10 -.995E-12 0.656E+03   -.217E-18 0.260E-17 -.973E-01   0.497E-07 -.861E-07 0.519E-01
   0.109E-05 0.540E-06 -.656E+03   -.147E-10 -.103E-11 0.656E+03   0.184E-17 0.217E-18 -.973E-01   0.497E-07 -.861E-07 0.519E-01
   0.109E-05 0.540E-06 -.656E+03   -.147E-10 -.102E-11 0.656E+03   0.163E-17 0.325E-17 -.973E-01   0.497E-07 -.861E-07 0.519E-01
 -----------------------------------------------------------------------------------------------
   0.728E-07 0.262E-06 -.318E-01   -.313E-14 -.466E-14 0.455E-12   -.455E-17 0.824E-17 0.313E-01   0.516E-07 -.906E-07 0.172E-01
 
 
 POSITION                                       TOTAL-FORCE (eV/Angst)
 -----------------------------------------------------------------------------------
      1.62678      2.81767      0.00000         0.000000      0.000000      0.003862
      1.62678      0.00000      0.00000         0.000000      0.000000      0.003862
      4.06695     -1.40883      0.00000         0.000000      0.000000      0.003862
      4.06695      1.40883      0.00000         0.000000      0.000000      0.003862
      0.00000      2.81767      2.31488         0.000000      0.000000      0.006059
      0.00000      0.00000      2.31488         0.000000      0.000000      0.006059
      2.44017      1.40883      2.31488         0.000000      0.000000      0.006059
      2.44017     -1.40883      2.31488         0.000000      0.000000      0.006059
      0.81339      1.40883      4.63077         0.000000      0.000000     -0.009921
      3.25356      0.00000      4.63077         0.000000      0.000000     -0.009921
      3.25356      2.81767      4.63077         0.000000      0.000000     -0.009921
      0.81339      4.22650      4.63077         0.000000      0.000000     -0.009921
 -----------------------------------------------------------------------------------
    total drift:                                0.000000      0.000000      0.016728


--------------------------------------------------------------------------------------------------------


    POTLOK:  cpu time    0.38: real time    0.38


--------------------------------------------------------------------------------------------------------


     LOOP+:  cpu time  159.28: real time  159.68
    4ORBIT:  cpu time    0.00: real time    0.00
 


 total charge     
 
# of ion     s       p       d       tot
----------------------------------------
  1        0.519   0.311   7.686   8.516
  2        0.519   0.311   7.686   8.516
  3        0.519   0.311   7.686   8.516
  4        0.519   0.311   7.686   8.516
  5        0.506   0.395   7.674   8.575
  6        0.506   0.395   7.674   8.575
  7        0.506   0.395   7.674   8.575
  8        0.506   0.395   7.674   8.575
  9        0.518   0.311   7.686   8.515
 10        0.518   0.311   7.686   8.515
 11        0.518   0.311   7.686   8.515
 12        0.518   0.311   7.686   8.515
------------------------------------------------
tot        6.173   4.068  92.185 102.425
 

 total amount of memory used by VASP on root node  71311. kBytes
========================================================================

   base      :    30000. kBytes
   nonl-proj :     3103. kBytes
   fftplans  :     5804. kBytes
   grid      :     8948. kBytes
   one-center:      186. kBytes
   wavefun   :    23270. kBytes
 
  
  
 General timing and accounting informations for this job:
 ========================================================
  
                  Total CPU time used (sec):      162.197
                            User time (sec):      161.097
                          System time (sec):        1.101
                         Elapsed time (sec):      163.227
  
                   Maximum memory used (kb):           0.
                   Average memory used (kb):           0.
  
                          Minor page faults:        22352
                          Major page faults:         1072
                 Voluntary context switches:         8129
