PROCAR lm decomposed
# of k-points:    8         # of bands:  72         # of ions:  12

 k-point    1 :    0.00000000 0.00000000 0.00000000     weight = 0.02040816

band   1 # energy   -4.96819563 # occ.  2.00000000
 
ion      s     py     pz     px    dxy    dyz    dz2    dxz    dx2    tot
  1  0.031  0.000  0.002  0.000  0.000  0.000  0.000  0.000  0.000  0.034
  2  0.031  0.000  0.002  0.000  0.000  0.000  0.000  0.000  0.000  0.034
  3  0.031  0.000  0.002  0.000  0.000  0.000  0.000  0.000  0.000  0.034
  4  0.031  0.000  0.002  0.000  0.000  0.000  0.000  0.000  0.000  0.034
  5  0.088  0.000  0.000  0.000  0.000  0.000  0.002  0.000  0.000  0.090
  6  0.088  0.000  0.000  0.000  0.000  0.000  0.002  0.000  0.000  0.090
  7  0.088  0.000  0.000  0.000  0.000  0.000  0.002  0.000  0.000  0.090
  8  0.088  0.000  0.000  0.000  0.000  0.000  0.002  0.000  0.000  0.090
  9  0.031  0.000  0.002  0.000  0.000  0.000  0.000  0.000  0.000  0.034
 10  0.031  0.000  0.002  0.000  0.000  0.000  0.000  0.000  0.000  0.034
 11  0.031  0.000  0.002  0.000  0.000  0.000  0.000  0.000  0.000  0.034
 12  0.031  0.000  0.002  0.000  0.000  0.000  0.000  0.000  0.000  0.034
tot  0.604  0.000  0.018  0.000  0.000  0.000  0.008  0.000  0.000  0.631
 
band   2 # energy   -3.24072082 # occ.  2.00000000
 
ion      s     py     pz     px    dxy    dyz    dz2    dxz    dx2    tot
  1  0.060  0.000  0.000  0.000  0.000  0.000  0.019  0.000  0.000  0.079
  2  0.060  0.000  0.000  0.000  0.000  0.000  0.019  0.000  0.000  0.079
  3  0.060  0.000  0.000  0.000  0.000  0.000  0.019  0.000  0.000  0.079
  4  0.060  0.000  0.000  0.000  0.000  0.000  0.019  0.000  0.000  0.079
  5  0.000  0.000  0.008  0.000  0.000  0.000  0.000  0.000  0.000  0.008
  6  0.000  0.000  0.008  0.000  0.000  0.000  0.000  0.000  0.000  0.008
  7  0.000  0.000  0.008  0.000  0.000  0.000  0.000  0.000  0.000  0.008
  8  0.000  0.000  0.008  0.000  0.000  0.000  0.000  0.000  0.000  0.008
  9  0.060  0.000  0.000  0.000  0.000  0.000  0.019  0.000  0.000  0.079
 10  0.060  0.000  0.000  0.000  0.000  0.000  0.019  0.000  0.000  0.079
 11  0.060  0.000  0.000  0.000  0.000  0.000  0.019  0.000  0.000  0.079
 12  0.060  0.000  0.000  0.000  0.000  0.000  0.019  0.000  0.000  0.079
tot  0.481  0.000  0.035  0.000  0.000  0.000  0.151  0.000  0.000  0.667
 
band   3 # energy   -2.80133804 # occ.  2.00000000
 
ion      s     py     pz     px    dxy    dyz    dz2    dxz    dx2    tot
  1  0.021  0.000  0.000  0.000  0.000  0.000  0.027  0.000  0.000  0.049
  2  0.021  0.000  0.000  0.000  0.000  0.000  0.027  0.000  0.000  0.049
  3  0.021  0.000  0.000  0.000  0.000  0.000  0.027  0.000  0.000  0.049
  4  0.021  0.000  0.000  0.000  0.000  0.000  0.027  0.000  0.000  0.049
  5  0.024  0.000  0.000  0.000  0.000  0.000  0.070  0.000  0.000  0.094
  6  0.024  0.000  0.000  0.000  0.000  0.000  0.070  0.000  0.000  0.094
  7  0.024  0.000  0.000  0.000  0.000  0.000  0.070  0.000  0.000  0.094
  8  0.024  0.000  0.000  0.000  0.000  0.000  0.070  0.000  0.000  0.094
  9  0.022  0.000  0.000  0.000  0.000  0.000  0.027  0.000  0.000  0.049
 10  0.022  0.000  0.000  0.000  0.000  0.000  0.027  0.000  0.000  0.049
 11  0.022  0.000  0.000  0.000  0.000  0.000  0.027  0.000  0.000  0.049
 12  0.022  0.000  0.000  0.000  0.000  0.000  0.027  0.000  0.000  0.049
tot  0.268  0.000  0.003  0.000  0.000  0.000  0.495  0.000  0.000  0.766
 
band   4 # energy   -2.39074349 # occ.  2.00000000
 
ion      s     py     pz     px    dxy    dyz    dz2    dxz    dx2    tot
  1  0.002  0.000  0.001  0.001  0.000  0.000  0.003  0.011  0.001  0.019
  2  0.002  0.000  0.001  0.001  0.000  0.000  0.003  0.011  0.001  0.019
  3  0.002  0.000  0.001  0.001  0.000  0.000  0.003  0.011  0.001  0.019
  4  0.002  0.000  0.001  0.001  0.000  0.000  0.003  0.011  0.001  0.019
  5  0.030  0.000  0.000  0.000  0.000  0.000  0.000  0.001  0.130  0.161
  6  0.031  0.000  0.000  0.000  0.000  0.000  0.000  0.001  0.129  0.161
  7  0.030  0.000  0.000  0.000  0.000  0.000  0.000  0.001  0.129  0.161
  8  0.030  0.000  0.000  0.000  0.000  0.000  0.000  0.001  0.130  0.161
  9  0.002  0.000  0.001  0.001  0.000  0.000  0.003  0.011  0.001  0.019
 10  0.002  0.000  0.001  0.001  0.000  0.000  0.003  0.011  0.001  0.019
 11  0.002  0.000  0.001  0.001  0.000  0.000  0.003  0.011  0.001  0.019
 12  0.002  0.000  0.001  0.001  0.000  0.000  0.003  0.011  0.001  0.019
tot  0.140  0.000  0.006  0.007  0.000  0.000  0.027  0.091  0.525  0.796
 
band   5 # energy   -2.39074242 # occ.  2.00000000
 
ion      s     py     pz     px    dxy    dyz    dz2    dxz    dx2    tot
  1  0.002  0.001  0.001  0.000  0.001  0.008  0.003  0.003  0.000  0.019
  2  0.002  0.001  0.001  0.000  0.001  0.008  0.003  0.003  0.000  0.019
  3  0.002  0.001  0.001  0.000  0.001  0.008  0.003  0.003  0.000  0.019
  4  0.002  0.001  0.001  0.000  0.001  0.008  0.003  0.003  0.000  0.019
  5  0.030  0.000  0.000  0.000  0.097  0.001  0.000  0.000  0.032  0.161
  6  0.030  0.000  0.000  0.000  0.097  0.001  0.000  0.000  0.033  0.161
  7  0.030  0.000  0.000  0.000  0.097  0.001  0.000  0.000  0.033  0.161
  8  0.031  0.000  0.000  0.000  0.097  0.001  0.000  0.000  0.032  0.161
  9  0.002  0.001  0.001  0.000  0.001  0.008  0.003  0.003  0.000  0.019
 10  0.002  0.001  0.001  0.000  0.001  0.008  0.003  0.003  0.000  0.019
 11  0.002  0.001  0.001  0.000  0.001  0.008  0.003  0.003  0.000  0.019
 12  0.002  0.001  0.001  0.000  0.001  0.008  0.003  0.003  0.000  0.019
tot  0.140  0.005  0.006  0.002  0.394  0.068  0.027  0.023  0.131  0.796
 
band   6 # energy   -2.39073364 # occ.  2.00000000
 
ion      s     py     pz     px    dxy    dyz    dz2    dxz    dx2    tot
  1  0.002  0.001  0.001  0.000  0.001  0.008  0.003  0.003  0.000  0.019
  2  0.002  0.001  0.001  0.000  0.001  0.008  0.003  0.003  0.000  0.019
  3  0.002  0.001  0.001  0.000  0.001  0.008  0.003  0.003  0.000  0.019
  4  0.002  0.001  0.001  0.000  0.001  0.008  0.003  0.003  0.000  0.019
  5  0.030  0.000  0.000  0.000  0.097  0.001  0.000  0.000  0.032  0.161
  6  0.030  0.000  0.000  0.000  0.097  0.001  0.000  0.000  0.032  0.161
  7  0.030  0.000  0.000  0.000  0.097  0.001  0.000  0.000  0.032  0.161
  8  0.030  0.000  0.000  0.000  0.097  0.001  0.000  0.000  0.032  0.161
  9  0.002  0.001  0.001  0.000  0.001  0.008  0.003  0.003  0.000  0.019
 10  0.002  0.001  0.001  0.000  0.001  0.008  0.003  0.003  0.000  0.019
 11  0.002  0.001  0.001  0.000  0.001  0.008  0.003  0.003  0.000  0.019
 12  0.002  0.001  0.001  0.000  0.001  0.008  0.003  0.003  0.000  0.019
tot  0.140  0.005  0.006  0.002  0.394  0.068  0.027  0.023  0.131  0.796
 
band   7 # energy   -2.14788259 # occ.  2.00000000
 
ion      s     py     pz     px    dxy    dyz    dz2    dxz    dx2    tot
  1  0.012  0.000  0.001  0.000  0.000  0.000  0.000  0.002  0.050  0.064
  2  0.011  0.000  0.001  0.000  0.000  0.000  0.000  0.002  0.050  0.064
  3  0.012  0.000  0.001  0.000  0.000  0.000  0.000  0.002  0.050  0.064
  4  0.011  0.000  0.001  0.000  0.000  0.000  0.000  0.002  0.050  0.064
  5  0.000  0.000  0.000  0.000  0.000  0.000  0.008  0.059  0.004  0.071
  6  0.000  0.000  0.000  0.000  0.000  0.000  0.008  0.059  0.004  0.071
  7  0.000  0.000  0.000  0.000  0.000  0.000  0.008  0.059  0.004  0.071
  8  0.000  0.000  0.000  0.000  0.000  0.000  0.008  0.059  0.004  0.071
  9  0.011  0.000  0.001  0.000  0.000  0.000  0.000  0.002  0.049  0.063
 10  0.011  0.000  0.001  0.000  0.000  0.000  0.000  0.002  0.049  0.063
 11  0.011  0.000  0.001  0.000  0.000  0.000  0.000  0.002  0.049  0.063
 12  0.011  0.000  0.001  0.000  0.000  0.000  0.000  0.002  0.049  0.063
tot  0.092  0.000  0.005  0.001  0.000  0.000  0.031  0.251  0.414  0.793
 
band   8 # energy   -2.14788212 # occ.  2.00000000
 
ion      s     py     pz     px    dxy    dyz    dz2    dxz    dx2    tot
  1  0.011  0.000  0.001  0.000  0.037  0.001  0.000  0.000  0.012  0.064
  2  0.011  0.000  0.001  0.000  0.037  0.001  0.000  0.000  0.012  0.064
  3  0.011  0.000  0.001  0.000  0.037  0.001  0.000  0.000  0.012  0.064
  4  0.012  0.000  0.001  0.000  0.037  0.001  0.000  0.000  0.012  0.064
  5  0.000  0.000  0.000  0.000  0.003  0.044  0.008  0.015  0.001  0.071
  6  0.000  0.000  0.000  0.000  0.003  0.044  0.008  0.015  0.001  0.071
  7  0.000  0.000  0.000  0.000  0.003  0.044  0.008  0.015  0.001  0.071
  8  0.000  0.000  0.000  0.000  0.003  0.044  0.008  0.015  0.001  0.071
  9  0.011  0.000  0.001  0.000  0.037  0.001  0.000  0.000  0.012  0.063
 10  0.011  0.000  0.001  0.000  0.037  0.001  0.000  0.000  0.012  0.063
 11  0.011  0.000  0.001  0.000  0.037  0.001  0.000  0.000  0.012  0.063
 12  0.011  0.000  0.001  0.000  0.037  0.001  0.000  0.000  0.012  0.063
tot  0.092  0.001  0.005  0.000  0.310  0.188  0.031  0.063  0.103  0.793
 
band   9 # energy   -2.14787710 # occ.  2.00000000
 
ion      s     py     pz     px    dxy    dyz    dz2    dxz    dx2    tot
  1  0.011  0.000  0.001  0.000  0.037  0.001  0.000  0.000  0.012  0.064
  2  0.011  0.000  0.001  0.000  0.037  0.001  0.000  0.000  0.012  0.064
  3  0.011  0.000  0.001  0.000  0.037  0.001  0.000  0.000  0.012  0.064
  4  0.011  0.000  0.001  0.000  0.037  0.001  0.000  0.000  0.012  0.064
  5  0.000  0.000  0.000  0.000  0.003  0.044  0.008  0.015  0.001  0.071
  6  0.000  0.000  0.000  0.000  0.003  0.044  0.008  0.015  0.001  0.071
  7  0.000  0.000  0.000  0.000  0.003  0.044  0.008  0.015  0.001  0.071
  8  0.000  0.000  0.000  0.000  0.003  0.044  0.008  0.015  0.001  0.071
  9  0.011  0.000  0.001  0.000  0.037  0.001  0.000  0.000  0.012  0.063
 10  0.011  0.000  0.001  0.000  0.037  0.001  0.000  0.000  0.012  0.063
 11  0.011  0.000  0.001  0.000  0.037  0.001  0.000  0.000  0.012  0.063
 12  0.011  0.000  0.001  0.000  0.037  0.001  0.000  0.000  0.012  0.063
tot  0.092  0.001  0.005  0.000  0.310  0.188  0.031  0.063  0.103  0.793
 
band  10 # energy   -1.68541403 # occ.  2.00000000
 
ion      s     py     pz     px    dxy    dyz    dz2    dxz    dx2    tot
  1  0.000  0.001  0.001  0.000  0.011  0.020  0.009  0.006  0.003  0.052
  2  0.000  0.001  0.001  0.000  0.011  0.020  0.009  0.007  0.004  0.053
  3  0.000  0.001  0.001  0.000  0.011  0.020  0.010  0.006  0.004  0.052
  4  0.000  0.001  0.001  0.000  0.011  0.020  0.009  0.007  0.004  0.053
  5  0.003  0.000  0.000  0.000  0.008  0.043  0.034  0.015  0.003  0.104
  6  0.003  0.000  0.000  0.000  0.008  0.043  0.035  0.014  0.002  0.104
  7  0.003  0.000  0.000  0.000  0.008  0.043  0.035  0.014  0.002  0.104
  8  0.003  0.000  0.000  0.000  0.008  0.043  0.034  0.015  0.003  0.104
  9  0.000  0.001  0.001  0.000  0.010  0.020  0.009  0.007  0.004  0.052
 10  0.000  0.001  0.001  0.000  0.011  0.020  0.009  0.006  0.003  0.052
 11  0.000  0.001  0.001  0.000  0.011  0.020  0.009  0.007  0.004  0.052
 12  0.000  0.001  0.001  0.000  0.010  0.020  0.009  0.006  0.003  0.052
tot  0.010  0.009  0.004  0.003  0.115  0.331  0.212  0.110  0.038  0.833
 
band  11 # energy   -1.68541324 # occ.  2.00000000
 
ion      s     py     pz     px    dxy    dyz    dz2    dxz    dx2    tot
  1  0.000  0.000  0.001  0.001  0.000  0.000  0.009  0.027  0.014  0.053
  2  0.000  0.000  0.001  0.001  0.000  0.000  0.009  0.027  0.014  0.052
  3  0.000  0.000  0.001  0.001  0.000  0.000  0.009  0.027  0.015  0.053
  4  0.000  0.000  0.001  0.001  0.000  0.000  0.010  0.026  0.014  0.052
  5  0.003  0.000  0.000  0.000  0.000  0.000  0.035  0.057  0.010  0.104
  6  0.003  0.000  0.000  0.000  0.000  0.000  0.034  0.057  0.010  0.104
  7  0.003  0.000  0.000  0.000  0.000  0.000  0.034  0.058  0.010  0.104
  8  0.003  0.000  0.000  0.000  0.000  0.000  0.035  0.057  0.010  0.104
  9  0.000  0.000  0.001  0.001  0.000  0.000  0.009  0.026  0.014  0.052
 10  0.000  0.000  0.001  0.001  0.000  0.000  0.009  0.027  0.014  0.052
 11  0.000  0.000  0.001  0.001  0.000  0.000  0.009  0.026  0.014  0.052
 12  0.000  0.000  0.001  0.001  0.000  0.000  0.009  0.027  0.014  0.052
tot  0.010  0.000  0.004  0.012  0.000  0.000  0.212  0.441  0.154  0.833
 
band  12 # energy   -1.68540895 # occ.  2.00000000
 
ion      s     py     pz     px    dxy    dyz    dz2    dxz    dx2    tot
  1  0.000  0.001  0.001  0.000  0.011  0.020  0.009  0.007  0.004  0.052
  2  0.000  0.001  0.001  0.000  0.011  0.020  0.009  0.007  0.004  0.052
  3  0.000  0.001  0.001  0.000  0.011  0.020  0.009  0.007  0.004  0.052
  4  0.000  0.001  0.001  0.000  0.011  0.020  0.009  0.007  0.004  0.053
  5  0.003  0.000  0.000  0.000  0.008  0.043  0.035  0.014  0.003  0.104
  6  0.003  0.000  0.000  0.000  0.008  0.043  0.034  0.014  0.003  0.104
  7  0.003  0.000  0.000  0.000  0.008  0.043  0.034  0.014  0.002  0.104
  8  0.003  0.000  0.000  0.000  0.008  0.043  0.034  0.014  0.003  0.104
  9  0.000  0.001  0.001  0.000  0.011  0.020  0.009  0.007  0.004  0.052
 10  0.000  0.001  0.001  0.000  0.010  0.020  0.009  0.007  0.004  0.052
 11  0.000  0.001  0.001  0.000  0.010  0.020  0.009  0.007  0.003  0.052
 12  0.000  0.001  0.001  0.000  0.011  0.020  0.009  0.007  0.003  0.052
tot  0.010  0.009  0.004  0.003  0.115  0.331  0.212  0.110  0.038  0.833
 
band  13 # energy   -1.57734942 # occ.  2.00000000
 
ion      s     py     pz     px    dxy    dyz    dz2    dxz    dx2    tot
  1  0.011  0.000  0.000  0.000  0.000  0.000  0.004  0.000  0.085  0.100
  2  0.011  0.000  0.000  0.000  0.000  0.000  0.004  0.000  0.086  0.101
  3  0.011  0.000  0.000  0.000  0.000  0.000  0.004  0.000  0.085  0.100
  4  0.011  0.000  0.000  0.000  0.000  0.000  0.004  0.000  0.086  0.101
  5  0.000  0.000  0.001  0.001  0.000  0.000  0.000  0.000  0.000  0.003
  6  0.000  0.000  0.001  0.001  0.000  0.000  0.000  0.000  0.000  0.003
  7  0.000  0.000  0.001  0.001  0.000  0.000  0.000  0.000  0.000  0.003
  8  0.000  0.000  0.001  0.001  0.000  0.000  0.000  0.000  0.000  0.003
  9  0.011  0.000  0.000  0.000  0.000  0.000  0.004  0.000  0.086  0.102
 10  0.011  0.000  0.000  0.000  0.000  0.000  0.005  0.000  0.086  0.101
 11  0.011  0.000  0.000  0.000  0.000  0.000  0.004  0.000  0.086  0.102
 12  0.011  0.000  0.000  0.000  0.000  0.000  0.005  0.000  0.086  0.101
tot  0.085  0.000  0.005  0.005  0.000  0.000  0.036  0.000  0.685  0.817
 
band  14 # energy   -1.57734871 # occ.  2.00000000
 
ion      s     py     pz     px    dxy    dyz    dz2    dxz    dx2    tot
  1  0.011  0.000  0.000  0.000  0.064  0.000  0.004  0.000  0.022  0.101
  2  0.011  0.000  0.000  0.000  0.064  0.000  0.004  0.000  0.021  0.100
  3  0.011  0.000  0.000  0.000  0.064  0.000  0.004  0.000  0.022  0.101
  4  0.011  0.000  0.000  0.000  0.064  0.000  0.004  0.000  0.021  0.100
  5  0.000  0.001  0.001  0.000  0.000  0.000  0.000  0.000  0.000  0.003
  6  0.000  0.001  0.001  0.000  0.000  0.000  0.000  0.000  0.000  0.003
  7  0.000  0.001  0.001  0.000  0.000  0.000  0.000  0.000  0.000  0.003
  8  0.000  0.001  0.001  0.000  0.000  0.000  0.000  0.000  0.000  0.003
  9  0.011  0.000  0.000  0.000  0.065  0.000  0.005  0.000  0.021  0.101
 10  0.011  0.000  0.000  0.000  0.065  0.000  0.004  0.000  0.022  0.102
 11  0.011  0.000  0.000  0.000  0.065  0.000  0.005  0.000  0.021  0.101
 12  0.011  0.000  0.000  0.000  0.065  0.000  0.004  0.000  0.022  0.102
tot  0.085  0.004  0.005  0.001  0.514  0.000  0.036  0.000  0.171  0.817
 
band  15 # energy   -1.57733852 # occ.  2.00000000
 
ion      s     py     pz     px    dxy    dyz    dz2    dxz    dx2    tot
  1  0.011  0.000  0.000  0.000  0.064  0.000  0.004  0.000  0.021  0.100
  2  0.011  0.000  0.000  0.000  0.064  0.000  0.004  0.000  0.021  0.100
  3  0.011  0.000  0.000  0.000  0.064  0.000  0.004  0.000  0.021  0.100
  4  0.011  0.000  0.000  0.000  0.064  0.000  0.004  0.000  0.021  0.100
  5  0.000  0.001  0.001  0.000  0.000  0.000  0.000  0.000  0.000  0.003
  6  0.000  0.001  0.001  0.000  0.000  0.000  0.000  0.000  0.000  0.003
  7  0.000  0.001  0.001  0.000  0.000  0.000  0.000  0.000  0.000  0.003
  8  0.000  0.001  0.001  0.000  0.000  0.000  0.000  0.000  0.000  0.003
  9  0.011  0.000  0.000  0.000  0.065  0.000  0.005  0.000  0.022  0.101
 10  0.011  0.000  0.000  0.000  0.065  0.000  0.005  0.000  0.022  0.101
 11  0.011  0.000  0.000  0.000  0.065  0.000  0.005  0.000  0.022  0.101
 12  0.011  0.000  0.000  0.000  0.065  0.000  0.004  0.000  0.022  0.101
tot  0.085  0.004  0.005  0.001  0.514  0.000  0.036  0.000  0.171  0.817
 
band  16 # energy   -0.12909871 # occ.  2.00000000
 
ion      s     py     pz     px    dxy    dyz    dz2    dxz    dx2    tot
  1  0.000  0.000  0.000  0.000  0.000  0.070  0.000  0.023  0.000  0.095
  2  0.000  0.000  0.000  0.000  0.000  0.070  0.000  0.023  0.000  0.095
  3  0.000  0.000  0.000  0.000  0.000  0.070  0.000  0.024  0.000  0.095
  4  0.000  0.000  0.000  0.000  0.000  0.070  0.000  0.023  0.000  0.095
  5  0.000  0.004  0.006  0.001  0.000  0.000  0.000  0.000  0.000  0.011
  6  0.000  0.004  0.006  0.001  0.000  0.000  0.000  0.000  0.000  0.011
  7  0.000  0.004  0.006  0.001  0.000  0.000  0.000  0.000  0.000  0.011
  8  0.000  0.004  0.006  0.001  0.000  0.000  0.000  0.000  0.000  0.011
  9  0.000  0.000  0.000  0.000  0.000  0.070  0.000  0.023  0.000  0.095
 10  0.000  0.000  0.000  0.000  0.000  0.071  0.000  0.023  0.000  0.095
 11  0.000  0.000  0.000  0.000  0.000  0.071  0.000  0.023  0.000  0.095
 12  0.000  0.000  0.000  0.000  0.000  0.070  0.000  0.024  0.000  0.095
tot  0.001  0.020  0.024  0.007  0.000  0.562  0.004  0.187  0.000  0.804
 
band  17 # energy   -0.12909784 # occ.  2.00000000
 
ion      s     py     pz     px    dxy    dyz    dz2    dxz    dx2    tot
  1  0.000  0.000  0.000  0.000  0.000  0.070  0.000  0.023  0.000  0.094
  2  0.000  0.000  0.000  0.000  0.000  0.070  0.000  0.024  0.000  0.095
  3  0.000  0.000  0.000  0.000  0.000  0.070  0.000  0.023  0.000  0.095
  4  0.000  0.000  0.000  0.000  0.000  0.070  0.000  0.023  0.000  0.095
  5  0.000  0.004  0.006  0.001  0.000  0.000  0.000  0.000  0.000  0.011
  6  0.000  0.004  0.006  0.001  0.000  0.000  0.000  0.000  0.000  0.011
  7  0.000  0.004  0.006  0.001  0.000  0.000  0.000  0.000  0.000  0.011
  8  0.000  0.004  0.006  0.001  0.000  0.000  0.000  0.000  0.000  0.011
  9  0.000  0.000  0.000  0.000  0.000  0.071  0.000  0.023  0.000  0.095
 10  0.000  0.000  0.000  0.000  0.000  0.070  0.000  0.023  0.000  0.095
 11  0.000  0.000  0.000  0.000  0.000  0.070  0.000  0.024  0.000  0.095
 12  0.000  0.000  0.000  0.000  0.000  0.071  0.000  0.023  0.000  0.095
tot  0.001  0.020  0.024  0.007  0.000  0.562  0.004  0.187  0.000  0.804
 
band  18 # energy   -0.12909724 # occ.  2.00000000
 
ion      s     py     pz     px    dxy    dyz    dz2    dxz    dx2    tot
  1  0.000  0.000  0.000  0.001  0.000  0.000  0.000  0.094  0.000  0.095
  2  0.000  0.000  0.000  0.001  0.000  0.000  0.000  0.093  0.000  0.095
  3  0.000  0.000  0.000  0.001  0.000  0.000  0.000  0.094  0.000  0.095
  4  0.000  0.000  0.000  0.001  0.000  0.000  0.000  0.094  0.000  0.095
  5  0.000  0.000  0.006  0.005  0.000  0.000  0.000  0.000  0.000  0.011
  6  0.000  0.000  0.006  0.006  0.000  0.000  0.000  0.000  0.000  0.011
  7  0.000  0.000  0.006  0.006  0.000  0.000  0.000  0.000  0.000  0.011
  8  0.000  0.000  0.006  0.005  0.000  0.000  0.000  0.000  0.000  0.011
  9  0.000  0.000  0.000  0.001  0.000  0.000  0.000  0.094  0.000  0.095
 10  0.000  0.000  0.000  0.001  0.000  0.000  0.000  0.094  0.000  0.095
 11  0.000  0.000  0.000  0.001  0.000  0.000  0.000  0.094  0.000  0.095
 12  0.000  0.000  0.000  0.001  0.000  0.000  0.000  0.094  0.000  0.095
tot  0.001  0.000  0.024  0.027  0.000  0.000  0.004  0.749  0.000  0.804
 
band  19 # energy    0.17345291 # occ.  2.00000000
 
ion      s     py     pz     px    dxy    dyz    dz2    dxz    dx2    tot
  1  0.000  0.000  0.001  0.000  0.002  0.002  0.025  0.013  0.012  0.055
  2  0.000  0.000  0.000  0.000  0.002  0.002  0.006  0.026  0.024  0.060
  3  0.000  0.000  0.001  0.000  0.002  0.002  0.024  0.014  0.012  0.055
  4  0.000  0.000  0.000  0.000  0.002  0.002  0.007  0.026  0.024  0.060
  5  0.000  0.000  0.000  0.000  0.002  0.003  0.019  0.047  0.025  0.096
  6  0.001  0.000  0.000  0.000  0.002  0.003  0.074  0.024  0.013  0.117
  7  0.001  0.000  0.000  0.000  0.002  0.003  0.073  0.024  0.013  0.117
  8  0.000  0.000  0.000  0.000  0.002  0.003  0.020  0.047  0.025  0.096
  9  0.000  0.000  0.000  0.000  0.002  0.002  0.007  0.026  0.024  0.060
 10  0.000  0.000  0.001  0.000  0.002  0.002  0.025  0.013  0.012  0.055
 11  0.000  0.000  0.000  0.000  0.002  0.002  0.006  0.026  0.024  0.060
 12  0.000  0.000  0.001  0.000  0.002  0.002  0.024  0.014  0.012  0.055
tot  0.003  0.000  0.005  0.001  0.019  0.026  0.310  0.301  0.221  0.885
 
band  20 # energy    0.17345308 # occ.  2.00000000
 
ion      s     py     pz     px    dxy    dyz    dz2    dxz    dx2    tot
  1  0.000  0.000  0.000  0.000  0.014  0.015  0.006  0.013  0.012  0.060
  2  0.000  0.000  0.001  0.000  0.014  0.015  0.024  0.001  0.001  0.055
  3  0.000  0.000  0.000  0.000  0.013  0.014  0.007  0.014  0.012  0.060
  4  0.000  0.000  0.001  0.000  0.013  0.014  0.025  0.001  0.001  0.055
  5  0.001  0.000  0.000  0.000  0.014  0.027  0.072  0.001  0.001  0.116
  6  0.000  0.000  0.000  0.000  0.014  0.027  0.019  0.024  0.013  0.096
  7  0.000  0.000  0.000  0.000  0.014  0.025  0.020  0.024  0.013  0.097
  8  0.001  0.000  0.000  0.000  0.014  0.025  0.075  0.001  0.001  0.118
  9  0.000  0.000  0.001  0.000  0.013  0.014  0.025  0.001  0.001  0.055
 10  0.000  0.000  0.000  0.000  0.013  0.015  0.006  0.013  0.012  0.060
 11  0.000  0.000  0.001  0.000  0.013  0.015  0.024  0.001  0.001  0.055
 12  0.000  0.000  0.000  0.000  0.013  0.014  0.007  0.014  0.012  0.060
tot  0.003  0.000  0.005  0.000  0.161  0.219  0.310  0.108  0.079  0.885
 
band  21 # energy    0.17346283 # occ.  2.00000000
 
ion      s     py     pz     px    dxy    dyz    dz2    dxz    dx2    tot
  1  0.000  0.000  0.001  0.000  0.014  0.016  0.016  0.006  0.005  0.057
  2  0.000  0.000  0.001  0.000  0.014  0.016  0.016  0.005  0.005  0.057
  3  0.000  0.000  0.001  0.000  0.015  0.016  0.015  0.005  0.005  0.057
  4  0.000  0.000  0.001  0.000  0.015  0.016  0.015  0.005  0.005  0.058
  5  0.001  0.000  0.000  0.000  0.015  0.028  0.048  0.009  0.005  0.107
  6  0.001  0.000  0.000  0.000  0.015  0.028  0.047  0.010  0.006  0.107
  7  0.001  0.000  0.000  0.000  0.016  0.030  0.046  0.009  0.005  0.107
  8  0.001  0.000  0.000  0.000  0.016  0.030  0.045  0.010  0.005  0.106
  9  0.000  0.000  0.001  0.000  0.015  0.017  0.015  0.006  0.005  0.058
 10  0.000  0.000  0.001  0.000  0.014  0.016  0.015  0.006  0.005  0.057
 11  0.000  0.000  0.001  0.000  0.014  0.016  0.016  0.005  0.005  0.057
 12  0.000  0.000  0.001  0.000  0.015  0.017  0.015  0.005  0.005  0.057
tot  0.003  0.000  0.005  0.000  0.180  0.245  0.310  0.082  0.060  0.885
 
band  22 # energy    0.30434345 # occ.  2.00000000
 
ion      s     py     pz     px    dxy    dyz    dz2    dxz    dx2    tot
  1  0.000  0.000  0.002  0.000  0.000  0.000  0.051  0.000  0.000  0.053
  2  0.000  0.000  0.002  0.000  0.000  0.000  0.051  0.000  0.000  0.053
  3  0.000  0.000  0.002  0.000  0.000  0.000  0.051  0.000  0.000  0.053
  4  0.000  0.000  0.002  0.000  0.000  0.000  0.051  0.000  0.000  0.053
  5  0.002  0.000  0.000  0.000  0.000  0.000  0.117  0.000  0.000  0.118
  6  0.002  0.000  0.000  0.000  0.000  0.000  0.117  0.000  0.000  0.118
  7  0.002  0.000  0.000  0.000  0.000  0.000  0.117  0.000  0.000  0.118
  8  0.002  0.000  0.000  0.000  0.000  0.000  0.117  0.000  0.000  0.118
  9  0.000  0.000  0.002  0.000  0.000  0.000  0.051  0.000  0.000  0.053
 10  0.000  0.000  0.002  0.000  0.000  0.000  0.051  0.000  0.000  0.053
 11  0.000  0.000  0.002  0.000  0.000  0.000  0.051  0.000  0.000  0.053
 12  0.000  0.000  0.002  0.000  0.000  0.000  0.051  0.000  0.000  0.053
tot  0.009  0.000  0.015  0.000  0.000  0.000  0.876  0.000  0.000  0.899
 
band  23 # energy    0.42842167 # occ.  2.00000000
 
ion      s     py     pz     px    dxy    dyz    dz2    dxz    dx2    tot
  1  0.000  0.000  0.000  0.000  0.002  0.001  0.000  0.004  0.005  0.013
  2  0.000  0.000  0.000  0.000  0.002  0.001  0.000  0.004  0.005  0.013
  3  0.000  0.000  0.000  0.000  0.002  0.001  0.000  0.004  0.005  0.013
  4  0.000  0.000  0.000  0.000  0.002  0.001  0.000  0.004  0.005  0.013
  5  0.000  0.000  0.000  0.000  0.051  0.000  0.000  0.000  0.152  0.204
  6  0.000  0.000  0.000  0.000  0.051  0.000  0.000  0.000  0.152  0.204
  7  0.000  0.000  0.000  0.000  0.051  0.000  0.000  0.000  0.152  0.204
  8  0.000  0.000  0.000  0.000  0.051  0.000  0.000  0.000  0.152  0.204
  9  0.000  0.000  0.000  0.000  0.002  0.001  0.000  0.004  0.005  0.013
 10  0.000  0.000  0.000  0.000  0.002  0.001  0.000  0.004  0.005  0.013
 11  0.000  0.000  0.000  0.000  0.002  0.001  0.000  0.004  0.005  0.013
 12  0.000  0.000  0.000  0.000  0.002  0.001  0.000  0.004  0.005  0.013
tot  0.000  0.000  0.000  0.001  0.220  0.011  0.000  0.033  0.650  0.916
 
band  24 # energy    0.42843948 # occ.  2.00000000
 
ion      s     py     pz     px    dxy    dyz    dz2    dxz    dx2    tot
  1  0.000  0.000  0.000  0.000  0.005  0.004  0.000  0.001  0.002  0.013
  2  0.000  0.000  0.000  0.000  0.005  0.004  0.000  0.001  0.002  0.013
  3  0.000  0.000  0.000  0.000  0.005  0.004  0.000  0.001  0.002  0.013
  4  0.000  0.000  0.000  0.000  0.005  0.004  0.000  0.001  0.002  0.013
  5  0.000  0.000  0.000  0.000  0.152  0.000  0.000  0.000  0.051  0.204
  6  0.000  0.000  0.000  0.000  0.152  0.000  0.000  0.000  0.051  0.204
  7  0.000  0.000  0.000  0.000  0.152  0.000  0.000  0.000  0.051  0.204
  8  0.000  0.000  0.000  0.000  0.152  0.000  0.000  0.000  0.051  0.204
  9  0.000  0.000  0.000  0.000  0.005  0.004  0.000  0.001  0.002  0.013
 10  0.000  0.000  0.000  0.000  0.005  0.004  0.000  0.001  0.002  0.013
 11  0.000  0.000  0.000  0.000  0.005  0.004  0.000  0.001  0.002  0.013
 12  0.000  0.000  0.000  0.000  0.005  0.004  0.000  0.001  0.002  0.013
tot  0.000  0.001  0.000  0.000  0.650  0.033  0.000  0.011  0.220  0.916
 
band  25 # energy    0.75038034 # occ.  2.00000000
 
ion      s     py     pz     px    dxy    dyz    dz2    dxz    dx2    tot
  1  0.000  0.000  0.000  0.000  0.022  0.001  0.000  0.002  0.069  0.095
  2  0.000  0.000  0.000  0.000  0.022  0.001  0.000  0.002  0.069  0.095
  3  0.000  0.000  0.000  0.000  0.022  0.001  0.000  0.002  0.069  0.095
  4  0.000  0.000  0.000  0.000  0.022  0.001  0.000  0.002  0.069  0.095
  5  0.000  0.000  0.000  0.000  0.002  0.008  0.000  0.026  0.006  0.043
  6  0.000  0.000  0.000  0.000  0.002  0.008  0.000  0.026  0.006  0.043
  7  0.000  0.000  0.000  0.000  0.002  0.008  0.000  0.026  0.006  0.043
  8  0.000  0.000  0.000  0.000  0.002  0.008  0.000  0.026  0.006  0.043
  9  0.000  0.000  0.000  0.000  0.022  0.001  0.000  0.002  0.068  0.093
 10  0.000  0.000  0.000  0.000  0.022  0.001  0.000  0.002  0.068  0.093
 11  0.000  0.000  0.000  0.000  0.022  0.001  0.000  0.002  0.068  0.093
 12  0.000  0.000  0.000  0.000  0.022  0.001  0.000  0.002  0.068  0.093
tot  0.000  0.000  0.000  0.000  0.187  0.040  0.000  0.122  0.572  0.922
 
band  26 # energy    0.75039476 # occ.  2.00000000
 
ion      s     py     pz     px    dxy    dyz    dz2    dxz    dx2    tot
  1  0.000  0.000  0.000  0.000  0.069  0.002  0.000  0.001  0.022  0.095
  2  0.000  0.000  0.000  0.000  0.069  0.002  0.000  0.001  0.022  0.095
  3  0.000  0.000  0.000  0.000  0.069  0.002  0.000  0.001  0.022  0.095
  4  0.000  0.000  0.000  0.000  0.069  0.002  0.000  0.001  0.022  0.095
  5  0.000  0.000  0.000  0.000  0.006  0.026  0.000  0.008  0.002  0.043
  6  0.000  0.000  0.000  0.000  0.006  0.026  0.000  0.008  0.002  0.043
  7  0.000  0.000  0.000  0.000  0.006  0.026  0.000  0.008  0.002  0.043
  8  0.000  0.000  0.000  0.000  0.006  0.026  0.000  0.008  0.002  0.043
  9  0.000  0.000  0.000  0.000  0.068  0.002  0.000  0.001  0.022  0.093
 10  0.000  0.000  0.000  0.000  0.068  0.002  0.000  0.001  0.022  0.093
 11  0.000  0.000  0.000  0.000  0.068  0.002  0.000  0.001  0.022  0.093
 12  0.000  0.000  0.000  0.000  0.068  0.002  0.000  0.001  0.022  0.093
tot  0.000  0.000  0.000  0.000  0.572  0.122  0.000  0.040  0.187  0.922
 
band  27 # energy    0.86156661 # occ.  2.00000000
 
ion      s     py     pz     px    dxy    dyz    dz2    dxz    dx2    tot
  1  0.006  0.000  0.001  0.000  0.000  0.000  0.084  0.000  0.000  0.092
  2  0.006  0.000  0.001  0.000  0.000  0.000  0.084  0.000  0.000  0.092
  3  0.006  0.000  0.001  0.000  0.000  0.000  0.084  0.000  0.000  0.092
  4  0.006  0.000  0.001  0.000  0.000  0.000  0.084  0.000  0.000  0.092
  5  0.000  0.000  0.018  0.000  0.000  0.000  0.000  0.000  0.000  0.018
  6  0.000  0.000  0.018  0.000  0.000  0.000  0.000  0.000  0.000  0.018
  7  0.000  0.000  0.018  0.000  0.000  0.000  0.000  0.000  0.000  0.018
  8  0.000  0.000  0.018  0.000  0.000  0.000  0.000  0.000  0.000  0.018
  9  0.006  0.000  0.001  0.000  0.000  0.000  0.084  0.000  0.000  0.092
 10  0.006  0.000  0.001  0.000  0.000  0.000  0.084  0.000  0.000  0.092
 11  0.006  0.000  0.001  0.000  0.000  0.000  0.084  0.000  0.000  0.092
 12  0.006  0.000  0.001  0.000  0.000  0.000  0.084  0.000  0.000  0.092
tot  0.050  0.000  0.086  0.000  0.000  0.000  0.674  0.000  0.000  0.810
 
band  28 # energy    0.93177386 # occ.  2.00000000
 
ion      s     py     pz     px    dxy    dyz    dz2    dxz    dx2    tot
  1  0.000  0.000  0.000  0.000  0.000  0.011  0.000  0.032  0.000  0.043
  2  0.000  0.000  0.000  0.000  0.000  0.011  0.000  0.032  0.000  0.043
  3  0.000  0.000  0.000  0.000  0.000  0.011  0.000  0.032  0.000  0.043