<?xml version="1.0" encoding="ISO-8859-1"?>
<modeling>
 <generator>
  <i name="program" type="string">vasp </i>
  <i name="version" type="string">5.2.2  </i>
  <i name="subversion" type="string">15Apr09 complex  parallel </i>
  <i name="platform" type="string">LinuxIFC </i>
  <i name="date" type="string">2009 12 07 </i>
  <i name="time" type="string">23:26:16 </i>
 </generator>
 <incar>
  <i type="string" name="SYSTEM"> Pt(111)</i>
  <i type="int" name="ISTART">     0</i>
  <i type="string" name="PREC">normal</i>
  <i type="string" name="ALGO"> Fast</i>
  <i type="int" name="ISPIN">     1</i>
  <i type="int" name="IBRION">     1</i>
  <i type="int" name="NFREE">    10</i>
  <i name="EDIFF">      0.00010000</i>
  <i name="EDIFFG">      0.00010000</i>
  <i type="int" name="NSW">     0</i>
  <i type="int" name="ISIF">     0</i>
  <i name="ENCUT">    250.00000000</i>
  <i name="POTIM">      0.35000000</i>
  <i type="logical" name="LPLANE"> T  </i>
  <i type="int" name="ISMEAR">     0</i>
  <i name="SIGMA">      0.10000000</i>
  <i type="int" name="NWRITE">     1</i>
  <i type="int" name="NSIM">    10</i>
  <i type="logical" name="LWAVE"> F  </i>
  <i type="logical" name="LCHARG"> T  </i>
  <i type="logical" name="LVTOT"> T  </i>
  <i type="logical" name="LORBIT"> F  </i>
  <i type="logical" name="LPEAD"> F  </i>
  <i type="logical" name="LCALCPOL"> F  </i>
  <i type="logical" name="LCALCEPS"> F  </i>
  <v name="EFIELD_PEAD">      0.00000000      0.00000000      0.00000000</v>
  <i type="logical" name="LEFG"> F  </i>
 </incar>
 <kpoints>
  <generation param="Monkhorst-Pack">
   <v type="int" name="divisions">       7        7        1 </v>
   <v name="usershift">      0.00000000       0.00000000       0.00000000 </v>
   <v name="genvec1">      0.14285714       0.00000000       0.00000000 </v>
   <v name="genvec2">      0.00000000       0.14285714       0.00000000 </v>
   <v name="genvec3">      0.00000000       0.00000000       1.00000000 </v>
   <v name="shift">      0.00000000       0.00000000       0.00000000 </v>
  </generation>
  <varray name="kpointlist" >
   <v>       0.00000000       0.00000000       0.00000000 </v>
   <v>       0.14285714       0.00000000       0.00000000 </v>
   <v>       0.28571429       0.00000000       0.00000000 </v>
   <v>       0.42857143       0.00000000       0.00000000 </v>
   <v>       0.14285714       0.14285714       0.00000000 </v>
   <v>       0.28571429       0.14285714       0.00000000 </v>
   <v>       0.42857143       0.14285714       0.00000000 </v>
   <v>       0.28571429       0.28571429       0.00000000 </v>
  </varray>
  <varray name="weights" >
   <v>       0.02040816 </v>
   <v>       0.12244898 </v>
   <v>       0.12244898 </v>
   <v>       0.12244898 </v>
   <v>       0.12244898 </v>
   <v>       0.24489796 </v>
   <v>       0.12244898 </v>
   <v>       0.12244898 </v>
  </varray>
 </kpoints>
 <parameters>
  <separator name="general" >
   <i type="string" name="SYSTEM">Pt(111)</i>
   <i type="logical" name="LCOMPAT"> F  </i>
  </separator>
  <separator name="electronic" >
   <i type="string" name="PREC">normal</i>
   <i name="ENMAX">    250.00000000</i>
   <i name="ENAUG">    358.96600000</i>
   <i name="EDIFF">      0.00010000</i>
   <i type="int" name="IALGO">    68</i>
   <i type="int" name="IWAVPR">    10</i>
   <i type="int" name="NBANDS">    72</i>
   <i name="NELECT">    120.00000000</i>
   <separator name="electronic smearing" >
    <i type="int" name="ISMEAR">     0</i>
    <i name="SIGMA">      0.10000000</i>
   </separator>
   <separator name="electronic projectors" >
    <i type="logical" name="LREAL"> F  </i>
    <v name="ROPT">      0.00000000</v>
    <i type="int" name="LMAXPAW">  -100</i>
    <i type="int" name="LMAXMIX">     2</i>
   </separator>
   <separator name="electronic startup" >
    <i type="int" name="ISTART">     0</i>
    <i type="int" name="ICHARG">     2</i>
    <i type="int" name="INIWAV">     1</i>
   </separator>
   <separator name="electronic spin" >
    <i type="int" name="ISPIN">     1</i>
    <i type="logical" name="LNONCOLLINEAR"> F  </i>
    <v name="MAGMOM">      1.00000000      1.00000000      1.00000000      1.00000000      1.00000000      1.00000000      1.00000000      1.00000000      1.00000000      1.00000000      1.00000000      1.00000000</v>
    <i name="NUPDOWN">     -1.00000000</i>
    <i type="logical" name="LSORBIT"> F  </i>
    <v name="SAXIS">      0.00000000      0.00000000      1.00000000</v>
    <i type="logical" name="LSPIRAL"> F  </i>
    <v name="QSPIRAL">      0.00000000      0.00000000      0.00000000</v>
    <i type="logical" name="LZEROZ"> F  </i>
   </separator>
   <separator name="electronic exchange-correlation" >
    <i type="logical" name="LASPH"> F  </i>
    <i type="logical" name="LMETAGGA"> F  </i>
   </separator>
   <separator name="electronic convergence" >
    <i type="int" name="NELM">    60</i>
    <i type="int" name="NELMDL">    -5</i>
    <i type="int" name="NELMIN">     2</i>
    <i name="ENINI">    250.00000000</i>
    <separator name="electronic convergence detail" >
     <i type="logical" name="LDIAG"> T  </i>
     <i name="WEIMIN">      0.00000000</i>
     <i name="EBREAK">      0.00000003</i>
     <i name="DEPER">      0.30000000</i>
     <i type="int" name="NRMM">     4</i>
     <i name="TIME">      0.40000000</i>
    </separator>
   </separator>
   <separator name="electronic mixer" >
    <i name="AMIX">      0.40000000</i>
    <i name="BMIX">      1.00000000</i>
    <i name="AMIN">      0.10000000</i>
    <i name="AMIX_MAG">      1.60000000</i>
    <i name="BMIX_MAG">      1.00000000</i>
    <separator name="electronic mixer details" >
     <i type="int" name="IMIX">     4</i>
     <i type="int" name="MAXMIX">   -45</i>
     <i name="WC">    100.00000000</i>
     <i type="int" name="INIMIX">     1</i>
     <i type="int" name="MIXPRE">     1</i>
     <i type="int" name="MREMOVE">     5</i>
    </separator>
   </separator>
   <separator name="electronic dipolcorrection" >
    <i type="logical" name="LDIPOL"> F  </i>
    <i type="logical" name="LMONO"> F  </i>
    <i type="int" name="IDIPOL">     0</i>
    <i name="EPSILON">      1.00000000</i>
    <v name="DIPOL">   -100.00000000   -100.00000000   -100.00000000</v>
    <i name="EFIELD">      0.00000000</i>
   </separator>
  </separator>
  <separator name="grids" >
   <i type="int" name="NGX">    24</i>
   <i type="int" name="NGY">    24</i>
   <i type="int" name="NGZ">    36</i>
   <i type="int" name="NGXF">    48</i>
   <i type="int" name="NGYF">    48</i>
   <i type="int" name="NGZF">    72</i>
   <i type="logical" name="ADDGRID"> F  </i>
  </separator>
  <separator name="ionic" >
   <i type="int" name="NSW">     0</i>
   <i type="int" name="IBRION">    -1</i>
   <i type="int" name="ISIF">     0</i>
   <i name="PSTRESS">      0.00000000</i>
   <i name="EDIFFG">      0.00010000</i>
   <i type="int" name="NFREE">    10</i>
   <i name="POTIM">      0.35000000</i>
   <i name="SMASS">     -3.00000000</i>
  </separator>
  <separator name="ionic md" >
   <i name="TEBEG">      0.00010000</i>
   <i name="TEEND">      0.00010000</i>
   <i type="int" name="NBLOCK">     1</i>
   <i type="int" name="KBLOCK">     1</i>
   <i type="int" name="NPACO">   256</i>
   <i name="APACO">     16.00000000</i>
  </separator>
  <separator name="symmetry" >
   <i type="int" name="ISYM">     2</i>
   <i name="SYMPREC">      0.00001000</i>
  </separator>
  <separator name="dos" >
   <i type="logical" name="LORBIT"> F  </i>
   <v name="RWIGS">     -1.00000000</v>
   <i type="int" name="NEDOS">   301</i>
   <i name="EMIN">     10.00000000</i>
   <i name="EMAX">    -10.00000000</i>
   <i name="EFERMI">      0.00000000</i>
  </separator>
  <separator name="writing" >
   <i type="int" name="NWRITE">     1</i>
   <i type="logical" name="LWAVE"> F  </i>
   <i type="logical" name="LCHARG"> T  </i>
   <i type="logical" name="LPARD"> F  </i>
   <i type="logical" name="LVTOT"> T  </i>
   <i type="logical" name="LELF"> F  </i>
   <i type="logical" name="LOPTICS"> F  </i>
   <v name="STM">      0.00000000      0.00000000      0.00000000      0.00000000      0.00000000</v>
  </separator>
  <separator name="performance" >
   <i type="int" name="NPAR">     1</i>
   <i type="int" name="NSIM">    10</i>
   <i type="int" name="NBLK">    32</i>
   <i type="logical" name="LPLANE"> T  </i>
   <i type="logical" name="LSCALAPACK"> F  </i>
   <i type="logical" name="LSCAAWARE"> F  </i>
   <i type="logical" name="LSCALU"> F  </i>
   <i type="logical" name="LASYNC"> F  </i>
  </separator>
  <separator name="miscellaneous" >
   <i type="int" name="IDIOT">     3</i>
   <i type="logical" name="LMUSIC"> F  </i>
   <v name="POMASS">    195.08000000</v>
   <i type="logical" name="LCORR"> T  </i>
  </separator>
  <i type="logical" name="LREAL_COMPAT"> F  </i>
  <i type="logical" name="GGA_COMPAT"> T  </i>
  <i type="logical" name="LBERRY"> F  </i>
  <i type="int" name="ICORELEVEL">     0</i>
  <i type="logical" name="LDAU"> F  </i>
  <i type="int" name="I_CONSTRAINED_M">     0</i>
  <separator name="electronic exchange-correlation" >
   <i type="string" name="GGA">--</i>
   <i type="int" name="VOSKOWN">     0</i>
   <i type="logical" name="LHFCALC"> F  </i>
   <i type="logical" name="LHFONE"> F  </i>
   <i type="logical" name="LRHFCALC"> F  </i>
   <i type="logical" name="LTHOMAS"> F  </i>
   <i type="logical" name="LMODELHF"> F  </i>
   <i name="ENCUTFOCK">      0.00000000</i>
   <i name="ENCUT4O">     -1.00000000</i>
   <i type="int" name="EXXOEP">     0</i>
   <i type="int" name="FOURORBIT">     0</i>
   <i name="AEXX">      0.00000000</i>
   <i name="HFALPHA">      0.00000000</i>
   <i name="ALDAX">      1.00000000</i>
   <i name="AGGAX">      1.00000000</i>
   <i name="ALDAC">      1.00000000</i>
   <i name="AGGAC">      1.00000000</i>
   <i type="int" name="NKREDX">     1</i>
   <i type="int" name="NKREDY">     1</i>
   <i type="int" name="NKREDZ">     1</i>
   <i type="logical" name="SHIFTRED"> F  </i>
   <i type="logical" name="ODDONLY"> F  </i>
   <i type="logical" name="EVENONLY"> F  </i>
   <i type="int" name="LMAXFOCK">     0</i>
   <i type="int" name="NMAXFOCKAE">     0</i>
   <i name="HFSCREEN">      0.00000000</i>
   <i name="HFSCREENC">      0.00000000</i>
  </separator>
  <separator name="model GW" >
   <i type="int" name="MODEL_GW">     0</i>
   <i name="MODEL_EPS0">     12.78628819</i>
   <i name="MODEL_ALPHA">      1.00000000</i>
  </separator>
  <separator name="linear response parameters" >
   <i type="logical" name="LEPSILON"> F  </i>
   <i type="logical" name="LRPA"> F  </i>
   <i type="logical" name="LNABLA"> F  </i>
   <i type="logical" name="LVEL"> F  </i>
   <i type="int" name="KINTER">     0</i>
   <i name="CSHIFT">      0.10000000</i>
   <i name="OMEGAMAX">     -1.00000000</i>
  </separator>
  <separator name="orbital magnetization" >
   <i type="logical" name="ORBITALMAG"> F  </i>
   <i type="logical" name="LMAGBLOCH"> F  </i>
   <i type="logical" name="LCHIMAG"> F  </i>
   <i type="logical" name="LGAUGE"> T  </i>
   <i type="int" name="MAGATOM">     0</i>
   <v name="MAGDIPOL">      0.00000000      0.00000000      0.00000000</v>
   <v name="AVECCONST">      0.00000000      0.00000000      0.00000000</v>
  </separator>
  <separator name="response functions" >
   <i type="logical" name="LRPA"> T  </i>
   <i type="logical" name="LTCTE"> F  </i>
   <i type="logical" name="LTETE"> F  </i>
   <i type="logical" name="L2ORDER"> F  </i>
   <i type="logical" name="LGWLF"> F  </i>
   <i name="ENCUTGW">    166.66666667</i>
   <i name="ENCUTGWSOFT">     -2.00000000</i>
   <i name="ENCUTLF">     -1.00000000</i>
   <i type="int" name="LMAXMP2">    -1</i>
   <i name="SCISSOR">      0.00000000</i>
   <i type="int" name="NOMEGA">     0</i>
   <i type="int" name="NOMEGAR">     0</i>
   <i type="int" name="NBANDSGW">    -1</i>
   <i type="int" name="NBANDSLF">    -1</i>
   <i type="int" name="NELM">     1</i>
   <i type="int" name="DIM">     3</i>
   <i type="int" name="ANTIRES">     0</i>
   <i type="logical" name="LUSEW"> F  </i>
   <i name="OMEGAMAX">    -30.00000000</i>
   <i name="OMEGATL">   -200.00000000</i>
   <i type="int" name="OMEGAGRID">     0</i>
   <i name="CSHIFT">     -0.10000000</i>
   <i type="logical" name="SELFENERGY"> F  </i>
   <i type="logical" name="LSPECTRAL"> F  </i>
   <i type="logical" name="ODDONLYGW"> F  </i>
   <i type="logical" name="EVENONLYGW"> F  </i>
   <i type="int" name="NKREDLFX">     1</i>
   <i type="int" name="NKREDLFY">     1</i>
   <i type="int" name="NKREDLFZ">     1</i>
   <i type="int" name="MAXMEM">  1024</i>
   <i type="int" name="TELESCOPE">     0</i>
  </separator>
 </parameters>
 <atominfo>
  <atoms>      12 </atoms>
  <types>       1 </types>
  <array name="atoms" >
   <dimension dim="1">ion</dimension>
   <field type="string">element</field>
   <field type="int">atomtype</field>
   <set>
    <rc><c>Pt</c><c>   1</c></rc>
    <rc><c>Pt</c><c>   1</c></rc>
    <rc><c>Pt</c><c>   1</c></rc>
    <rc><c>Pt</c><c>   1</c></rc>
    <rc><c>Pt</c><c>   1</c></rc>
    <rc><c>Pt</c><c>   1</c></rc>
    <rc><c>Pt</c><c>   1</c></rc>
    <rc><c>Pt</c><c>   1</c></rc>
    <rc><c>Pt</c><c>   1</c></rc>
    <rc><c>Pt</c><c>   1</c></rc>
    <rc><c>Pt</c><c>   1</c></rc>
    <rc><c>Pt</c><c>   1</c></rc>
   </set>
  </array>
  <array name="atomtypes" >
   <dimension dim="1">type</dimension>
   <field type="int">atomspertype</field>
   <field type="string">element</field>
   <field>mass</field>
   <field>valence</field>
   <field type="string">pseudopotential</field>
   <set>
    <rc><c>  12</c><c>Pt</c><c>    195.08000000</c><c>     10.00000000</c><c> PAW_GGA Pt 05Jan2001                   </c></rc>
   </set>
  </array>
 </atominfo>
 <structure name="initialpos" >
  <crystal>
   <varray name="basis" >
    <v>       4.88034587      -2.81766900       0.00000000 </v>
    <v>       0.00000000       5.63533800       0.00000000 </v>
    <v>       0.00000000       0.00000000       9.29830770 </v>
   </varray>
   <i name="volume">    255.72576390 </i>
   <varray name="rec_basis" >
    <v>       0.20490351       0.00000000       0.00000000 </v>
    <v>       0.10245176       0.17745165       0.00000000 </v>
    <v>       0.00000000       0.00000000       0.10754645 </v>
   </varray>
  </crystal>
  <varray name="positions" >
   <v>       0.33333333       0.66666667       0.00000000 </v>
   <v>       0.33333333       0.16666667       0.00000000 </v>
   <v>       0.83333333       0.16666667       0.00000000 </v>
   <v>       0.83333333       0.66666667       0.00000000 </v>
   <v>       0.00000000       0.50000000       0.24895723 </v>
   <v>       0.00000000       0.00000000       0.24895723 </v>
   <v>       0.50000000       0.50000000       0.24895723 </v>
   <v>       0.50000000       0.00000000       0.24895723 </v>
   <v>       0.16666667       0.33333333       0.49802281 </v>
   <v>       0.66666667       0.33333333       0.49802281 </v>
   <v>       0.66666667       0.83333333       0.49802281 </v>
   <v>       0.16666667       0.83333333       0.49802281 </v>
  </varray>
  <varray name="selective"  type="logical" >
   <v type="logical" >  F  F  F </v>
   <v type="logical" >  F  F  F </v>
   <v type="logical" >  F  F  F </v>
   <v type="logical" >  F  F  F </v>
   <v type="logical" >  T  T  T </v>
   <v type="logical" >  T  T  T </v>
   <v type="logical" >  T  T  T </v>
   <v type="logical" >  T  T  T </v>
   <v type="logical" >  T  T  T </v>
   <v type="logical" >  T  T  T </v>
   <v type="logical" >  T  T  T </v>
   <v type="logical" >  T  T  T </v>
  </varray>
  <nose>
   <v>      -3.00000000       0.00000000       0.00010000       0.00010000 </v>
  </nose>
 </structure>
 <calculation>
  <scstep>
   <time name="dav">   10.67   10.70</time>
   <time name="total">   11.07   11.10</time>
   <energy>
    <i name="alphaZ">    816.75334083 </i>
    <i name="ewald">  -6784.41055178 </i>
    <i name="hartreedc">  -3413.05678325 </i>
    <i name="XCdc">     32.24855473 </i>
    <i name="pawpsdc">   6881.46741456 </i>
    <i name="pawaedc">  -6540.60144789 </i>
    <i name="eentropy">     -0.01704935 </i>
    <i name="bandstr">    975.67912477 </i>
    <i name="atom">   8759.88665249 </i>
    <i name="e_fr_energy">    727.94925511 </i>
    <i name="e_wo_entrp">    727.96630446 </i>
    <i name="e_0_energy">    727.95777978 </i>
   </energy>
  </scstep>
  <scstep>
   <time name="dav">   11.21   11.22</time>
   <time name="total">   11.22   11.23</time>
   <energy>
    <i name="e_fr_energy">    -23.29679224 </i>
    <i name="e_wo_entrp">    -23.23069524 </i>
    <i name="e_0_energy">    -23.26374374 </i>
   </energy>
  </scstep>
  <scstep>
   <time name="dav">   13.53   13.63</time>
   <time name="total">   13.54   13.64</time>
   <energy>
    <i name="e_fr_energy">    -69.87771087 </i>
    <i name="e_wo_entrp">    -69.76928551 </i>
    <i name="e_0_energy">    -69.82349819 </i>
   </energy>
  </scstep>
  <scstep>
   <time name="dav">   11.60   11.60</time>
   <time name="total">   11.60   11.61</time>
   <energy>
    <i name="e_fr_energy">    -71.54060857 </i>
    <i name="e_wo_entrp">    -71.43466528 </i>
    <i name="e_0_energy">    -71.48763693 </i>
   </energy>
  </scstep>
  <scstep>
   <time name="dav">   13.92   13.92</time>
   <time name="total">   14.55   14.55</time>
   <energy>
    <i name="e_fr_energy">    -71.62516894 </i>
    <i name="e_wo_entrp">    -71.51930214 </i>
    <i name="e_0_energy">    -71.57223554 </i>
   </energy>
  </scstep>
  <scstep>
   <time name="diag">    1.64    1.64</time>
   <time name="diis">    8.01    8.01</time>
   <time name="orth">    0.27    0.27</time>
   <time name="total">   10.91   10.91</time>
   <energy>
    <i name="e_fr_energy">    -68.31501986 </i>
    <i name="e_wo_entrp">    -68.11182482 </i>
    <i name="e_0_energy">    -68.21342234 </i>
   </energy>
  </scstep>
  <scstep>
   <time name="diag">    1.64    1.64</time>
   <time name="diis">    7.94    7.96</time>
   <time name="orth">    0.26    0.26</time>
   <time name="total">   10.83   10.85</time>
   <energy>
    <i name="e_fr_energy">    -68.77701940 </i>
    <i name="e_wo_entrp">    -68.64745177 </i>
    <i name="e_0_energy">    -68.71223559 </i>
   </energy>
  </scstep>
  <scstep>
   <time name="diag">    1.61    1.61</time>
   <time name="diis">    7.86    7.86</time>
   <time name="orth">    0.26    0.26</time>
   <time name="total">   10.73   10.73</time>
   <energy>
    <i name="e_fr_energy">    -67.42095061 </i>
    <i name="e_wo_entrp">    -67.25819406 </i>
    <i name="e_0_energy">    -67.33957233 </i>
   </energy>
  </scstep>
  <scstep>
   <time name="diag">    1.61    1.61</time>
   <time name="diis">    8.31    8.31</time>
   <time name="orth">    0.26    0.26</time>
   <time name="total">   11.18   11.18</time>
   <energy>
    <i name="e_fr_energy">    -67.40147415 </i>
    <i name="e_wo_entrp">    -67.23603163 </i>
    <i name="e_0_energy">    -67.31875289 </i>
   </energy>
  </scstep>
  <scstep>
   <time name="diag">    1.62    1.62</time>
   <time name="diis">    8.81    8.81</time>
   <time name="orth">    0.26    0.26</time>
   <time name="total">   11.68   11.68</time>
   <energy>
    <i name="e_fr_energy">    -67.40479479 </i>
    <i name="e_wo_entrp">    -67.24274588 </i>
    <i name="e_0_energy">    -67.32377033 </i>
   </energy>
  </scstep>
  <scstep>
   <time name="diag">    1.61    1.61</time>
   <time name="diis">    8.21    8.21</time>
   <time name="orth">    0.26    0.26</time>
   <time name="total">   11.08   11.08</time>
   <energy>
    <i name="e_fr_energy">    -67.39408436 </i>
    <i name="e_wo_entrp">    -67.23940995 </i>
    <i name="e_0_energy">    -67.31674715 </i>
   </energy>
  </scstep>
  <scstep>
   <time name="diag">    1.61    1.61</time>
   <time name="diis">    8.73    8.73</time>
   <time name="orth">    0.26    0.26</time>
   <time name="total">   11.59   11.61</time>
   <energy>
    <i name="e_fr_energy">    -67.39383669 </i>
    <i name="e_wo_entrp">    -67.23600777 </i>
    <i name="e_0_energy">    -67.31492223 </i>
   </energy>
  </scstep>
  <scstep>
   <time name="diag">    1.61    1.61</time>
   <time name="diis">    8.27    8.27</time>
   <time name="orth">    0.28    0.28</time>
   <time name="total">   10.54   10.54</time>
   <energy>
    <i name="alphaZ">    816.75334083 </i>
    <i name="ewald">  -6784.41055178 </i>
    <i name="hartreedc">  -3301.73985756 </i>
    <i name="XCdc">     27.99748532 </i>
    <i name="pawpsdc">   6996.99099305 </i>
    <i name="pawaedc">  -6681.75820180 </i>
    <i name="eentropy">     -0.15758077 </i>
    <i name="bandstr">     99.04389508 </i>
    <i name="atom">   8759.88665249 </i>
    <i name="e_fr_energy">    -67.39382515 </i>
    <i name="e_wo_entrp">    -67.23624438 </i>
    <i name="e_0_energy">    -67.31503477 </i>
   </energy>
  </scstep>
  <structure>
   <crystal>
    <varray name="basis" >
     <v>       4.88034587      -2.81766900       0.00000000 </v>
     <v>       0.00000000       5.63533800       0.00000000 </v>
     <v>       0.00000000       0.00000000       9.29830770 </v>
    </varray>
    <i name="volume">    255.72576390 </i>
    <varray name="rec_basis" >
     <v>       0.20490351       0.00000000       0.00000000 </v>
     <v>       0.10245176       0.17745165       0.00000000 </v>
     <v>       0.00000000       0.00000000       0.10754645 </v>
    </varray>
   </crystal>
   <varray name="positions" >
    <v>       0.33333333       0.66666667       0.00000000 </v>
    <v>       0.33333333       0.16666667       0.00000000 </v>
    <v>       0.83333333       0.16666667       0.00000000 </v>
    <v>       0.83333333       0.66666667       0.00000000 </v>
    <v>       0.00000000       0.50000000       0.24895723 </v>
    <v>       0.00000000       0.00000000       0.24895723 </v>
    <v>       0.50000000       0.50000000       0.24895723 </v>
    <v>       0.50000000       0.00000000       0.24895723 </v>
    <v>       0.16666667       0.33333333       0.49802281 </v>
    <v>       0.66666667       0.33333333       0.49802281 </v>
    <v>       0.66666667       0.83333333       0.49802281 </v>
    <v>       0.16666667       0.83333333       0.49802281 </v>
   </varray>
  </structure>
  <varray name="forces" >
   <v>       0.00000000       0.00000000       0.00386229 </v>
   <v>       0.00000000       0.00000000       0.00386229 </v>
   <v>       0.00000000       0.00000000       0.00386229 </v>
   <v>       0.00000000       0.00000000       0.00386229 </v>
   <v>       0.00000000       0.00000000       0.00605859 </v>
   <v>       0.00000000       0.00000000       0.00605859 </v>
   <v>       0.00000000       0.00000000       0.00605859 </v>
   <v>       0.00000000       0.00000000       0.00605859 </v>
   <v>       0.00000000       0.00000000      -0.00992088 </v>
   <v>       0.00000000       0.00000000      -0.00992088 </v>
   <v>       0.00000000       0.00000000      -0.00992088 </v>
   <v>       0.00000000       0.00000000      -0.00992088 </v>
  </varray>
  <energy>
   <i name="e_fr_energy">    -67.39382515 </i>
   <i name="e_wo_entrp">    -67.31503477 </i>
   <i name="e_0_energy">     -0.15758077 </i>
  </energy>
  <time name="totalsc">  159.28  159.68</time>
  <eigenvalues>
   <array>
    <dimension dim="1">band</dimension>
    <dimension dim="2">kpoint</dimension>
    <dimension dim="3">spin</dimension>
    <field>eigene</field>
    <field>occ</field>
    <set>
     <set comment="spin 1">
      <set comment="kpoint 1">
       <r>   -4.9682    1.0000 </r>
       <r>   -3.2407    1.0000 </r>
       <r>   -2.8013    1.0000 </r>
       <r>   -2.3907    1.0000 </r>
       <r>   -2.3907    1.0000 </r>
       <r>   -2.3907    1.0000 </r>
       <r>   -2.1479    1.0000 </r>
       <r>   -2.1479    1.0000 </r>
       <r>   -2.1479    1.0000 </r>
       <r>   -1.6854    1.0000 </r>
       <r>   -1.6854    1.0000 </r>
       <r>   -1.6854    1.0000 </r>
       <r>   -1.5773    1.0000 </r>
       <r>   -1.5773    1.0000 </r>
       <r>   -1.5773    1.0000 </r>
       <r>   -0.1291    1.0000 </r>
       <r>   -0.1291    1.0000 </r>
       <r>   -0.1291    1.0000 </r>
       <r>    0.1735    1.0000 </r>
       <r>    0.1735    1.0000 </r>
       <r>    0.1735    1.0000 </r>
       <r>    0.3043    1.0000 </r>
       <r>    0.4284    1.0000 </r>
       <r>    0.4284    1.0000 </r>
       <r>    0.7504    1.0000 </r>
       <r>    0.7504    1.0000 </r>
       <r>    0.8616    1.0000 </r>
       <r>    0.9318    1.0000 </r>
       <r>    0.9318    1.0000 </r>
       <r>    0.9318    1.0000 </r>
       <r>    0.9559    1.0000 </r>
       <r>    0.9560    1.0000 </r>
       <r>    1.5068    1.0000 </r>
       <r>    1.5068    1.0000 </r>
       <r>    1.5068    1.0000 </r>
       <r>    2.3904    1.0000 </r>
       <r>    2.3904    1.0000 </r>
       <r>    2.4259    1.0000 </r>
       <r>    2.4259    1.0000 </r>
       <r>    2.4259    1.0000 </r>
       <r>    2.4734    1.0000 </r>
       <r>    2.4734    1.0000 </r>
       <r>    2.4734    1.0000 </r>
       <r>    2.5238    1.0000 </r>
       <r>    3.0631    1.0000 </r>
       <r>    3.0631    1.0000 </r>
       <r>    3.5432    0.9871 </r>
       <r>    3.5432    0.9871 </r>
       <r>    3.5432    0.9871 </r>
       <r>    3.6361    0.8201 </r>
       <r>    3.6361    0.8201 </r>
       <r>    3.6361    0.8201 </r>
       <r>    3.6849    0.5898 </r>
       <r>    3.6849    0.5898 </r>
       <r>    3.8841    0.0048 </r>
       <r>    3.8841    0.0048 </r>
       <r>    3.8841    0.0048 </r>
       <r>    4.2175    0.0000 </r>
       <r>    4.2175    0.0000 </r>
       <r>    4.2175    0.0000 </r>
       <r>    4.2647    0.0000 </r>
       <r>    4.2647    0.0000 </r>
       <r>    4.2647    0.0000 </r>
       <r>    5.0791    0.0000 </r>
       <r>    5.0791    0.0000 </r>
       <r>    5.0791    0.0000 </r>
       <r>    5.5903    0.0000 </r>
       <r>    6.5311    0.0000 </r>
       <r>    6.5311    0.0000 </r>
       <r>    6.5638    0.0000 </r>
       <r>    6.5644    0.0000 </r>
       <r>    6.5644    0.0000 </r>
      </set>
      <set comment="kpoint 2">
       <r>   -4.7961    1.0000 </r>
       <r>   -3.0661    1.0000 </r>
       <r>   -2.6362    1.0000 </r>
       <r>   -2.3878    1.0000 </r>
       <r>   -2.2587    1.0000 </r>
       <r>   -2.2587    1.0000 </r>
       <r>   -2.0910    1.0000 </r>
       <r>   -2.0274    1.0000 </r>
       <r>   -2.0273    1.0000 </r>
       <r>   -1.6571    1.0000 </r>
       <r>   -1.6199    1.0000 </r>
       <r>   -1.6199    1.0000 </r>
       <r>   -1.4807    1.0000 </r>
       <r>   -1.4133    1.0000 </r>
       <r>   -1.4133    1.0000 </r>
       <r>   -0.1287    1.0000 </r>
       <r>   -0.1287    1.0000 </r>
       <r>   -0.1011    1.0000 </r>
       <r>    0.2436    1.0000 </r>
       <r>    0.2437    1.0000 </r>
       <r>    0.2494    1.0000 </r>
       <r>    0.2852    1.0000 </r>
       <r>    0.3082    1.0000 </r>
       <r>    0.5244    1.0000 </r>
       <r>    0.5511    1.0000 </r>
       <r>    0.7931    1.0000 </r>
       <r>    0.7931    1.0000 </r>
       <r>    0.8469    1.0000 </r>
       <r>    0.8983    1.0000 </r>
       <r>    0.9521    1.0000 </r>
       <r>    0.9693    1.0000 </r>
       <r>    1.0825    1.0000 </r>
       <r>    1.3401    1.0000 </r>
       <r>    1.4466    1.0000 </r>
       <r>    1.4466    1.0000 </r>
       <r>    2.1281    1.0000 </r>
       <r>    2.2065    1.0000 </r>
       <r>    2.2065    1.0000 </r>
       <r>    2.3015    1.0000 </r>
       <r>    2.3346    1.0000 </r>
       <r>    2.4051    1.0000 </r>
       <r>    2.4321    1.0000 </r>
       <r>    2.4440    1.0000 </r>
       <r>    2.4440    1.0000 </r>
       <r>    3.0603    1.0000 </r>
       <r>    3.2729    1.0000 </r>
       <r>    3.2934    1.0000 </r>
       <r>    3.2934    1.0000 </r>
       <r>    3.4310    0.9999 </r>
       <r>    3.4339    0.9999 </r>
       <r>    3.4339    0.9999 </r>
       <r>    3.4849    0.9989 </r>
       <r>    3.5416    0.9879 </r>
       <r>    3.6070    0.9079 </r>
       <r>    3.6070    0.9079 </r>
       <r>    3.6895    0.5641 </r>
       <r>    3.7307    0.3366 </r>
       <r>    3.7687    0.1687 </r>
       <r>    3.7687    0.1687 </r>
       <r>    4.0166    0.0000 </r>
       <r>    4.0166    0.0000 </r>
       <r>    4.0292    0.0000 </r>
       <r>    4.0681    0.0000 </r>
       <r>    4.1317    0.0000 </r>
       <r>    5.0082    0.0000 </r>
       <r>    5.4782    0.0000 </r>
       <r>    5.4782    0.0000 </r>
       <r>    6.1870    0.0000 </r>
       <r>    6.2932    0.0000 </r>
       <r>    6.2932    0.0000 </r>
       <r>    7.1260    0.0000 </r>
       <r>    7.4604    0.0000 </r>
      </set>
      <set comment="kpoint 3">
       <r>   -4.3063    1.0000 </r>
       <r>   -2.5888    1.0000 </r>
       <r>   -2.4792    1.0000 </r>
       <r>   -2.1872    1.0000 </r>
       <r>   -1.9439    1.0000 </r>
       <r>   -1.8995    1.0000 </r>
       <r>   -1.8995    1.0000 </r>
       <r>   -1.7175    1.0000 </r>
       <r>   -1.7175    1.0000 </r>
       <r>   -1.5530    1.0000 </r>
       <r>   -1.4072    1.0000 </r>
       <r>   -1.4072    1.0000 </r>
       <r>   -1.2296    1.0000 </r>
       <r>   -0.9626    1.0000 </r>
       <r>   -0.9626    1.0000 </r>
       <r>   -0.1745    1.0000 </r>
       <r>   -0.1745    1.0000 </r>
       <r>   -0.0557    1.0000 </r>
       <r>   -0.0209    1.0000 </r>
       <r>    0.1270    1.0000 </r>
       <r>    0.3424    1.0000 </r>
       <r>    0.3870    1.0000 </r>
       <r>    0.4257    1.0000 </r>
       <r>    0.4257    1.0000 </r>
       <r>    0.4656    1.0000 </r>
       <r>    0.4656    1.0000 </r>
       <r>    0.7810    1.0000 </r>
       <r>    0.8985    1.0000 </r>
       <r>    0.9334    1.0000 </r>
       <r>    0.9826    1.0000 </r>
       <r>    1.0718    1.0000 </r>
       <r>    1.0939    1.0000 </r>
       <r>    1.2085    1.0000 </r>
       <r>    1.2085    1.0000 </r>
       <r>    1.4500    1.0000 </r>
       <r>    1.6919    1.0000 </r>
       <r>    1.7848    1.0000 </r>
       <r>    1.7970    1.0000 </r>
       <r>    1.7970    1.0000 </r>
       <r>    2.2069    1.0000 </r>
       <r>    2.2069    1.0000 </r>
       <r>    2.2145    1.0000 </r>
       <r>    2.2145    1.0000 </r>
       <r>    2.2191    1.0000 </r>
       <r>    2.2457    1.0000 </r>
       <r>    2.3993    1.0000 </r>
       <r>    2.4291    1.0000 </r>
       <r>    2.9350    1.0000 </r>
       <r>    2.9350    1.0000 </r>
       <r>    2.9973    1.0000 </r>
       <r>    3.0333    1.0000 </r>
       <r>    3.0589    1.0000 </r>
       <r>    3.1341    1.0000 </r>
       <r>    3.1422    1.0000 </r>
       <r>    3.1422    1.0000 </r>
       <r>    3.4028    1.0000 </r>
       <r>    3.4992    0.9978 </r>
       <r>    3.6095    0.9020 </r>
       <r>    3.6095    0.9020 </r>
       <r>    3.7018    0.4951 </r>
       <r>    3.7858    0.1149 </r>
       <r>    3.8536    0.0154 </r>
       <r>    3.9260    0.0007 </r>
       <r>    3.9260    0.0007 </r>
       <r>    4.1433    0.0000 </r>
       <r>    5.7165    0.0000 </r>
       <r>    5.7165    0.0000 </r>
       <r>    6.2405    0.0000 </r>
       <r>    6.5917    0.0000 </r>
       <r>    6.5917    0.0000 </r>
       <r>    7.3674    0.0000 </r>
       <r>    8.1610    0.0000 </r>
      </set>
      <set comment="kpoint 4">
       <r>   -3.5961    1.0000 </r>
       <r>   -2.8878    1.0000 </r>
       <r>   -2.0286    1.0000 </r>
       <r>   -1.8247    1.0000 </r>
       <r>   -1.6498    1.0000 </r>
       <r>   -1.5075    1.0000 </r>
       <r>   -1.5075    1.0000 </r>
       <r>   -1.4412    1.0000 </r>
       <r>   -1.4245    1.0000 </r>
       <r>   -1.4245    1.0000 </r>
       <r>   -1.0275    1.0000 </r>
       <r>   -1.0275    1.0000 </r>
       <r>   -0.8652    1.0000 </r>
       <r>   -0.4933    1.0000 </r>
       <r>   -0.4933    1.0000 </r>
       <r>   -0.4494    1.0000 </r>
       <r>   -0.1724    1.0000 </r>
       <r>   -0.1724    1.0000 </r>
       <r>   -0.1713    1.0000 </r>
       <r>   -0.0657    1.0000 </r>
       <r>   -0.0346    1.0000 </r>
       <r>   -0.0346    1.0000 </r>
       <r>    0.3443    1.0000 </r>
       <r>    0.4153    1.0000 </r>
       <r>    0.5906    1.0000 </r>
       <r>    0.7477    1.0000 </r>
       <r>    0.7477    1.0000 </r>
       <r>    0.9245    1.0000 </r>
       <r>    0.9245    1.0000 </r>
       <r>    0.9649    1.0000 </r>
       <r>    0.9779    1.0000 </r>
       <r>    1.1870    1.0000 </r>
       <r>    1.1870    1.0000 </r>
       <r>    1.1885    1.0000 </r>
       <r>    1.1988    1.0000 </r>
       <r>    1.2285    1.0000 </r>
       <r>    1.3198    1.0000 </r>
       <r>    1.3383    1.0000 </r>
       <r>    1.3383    1.0000 </r>
       <r>    1.4078    1.0000 </r>
       <r>    1.4873    1.0000 </r>
       <r>    1.9411    1.0000 </r>
       <r>    2.0193    1.0000 </r>
       <r>    2.0741    1.0000 </r>
       <r>    2.0990    1.0000 </r>
       <r>    2.0990    1.0000 </r>
       <r>    2.2256    1.0000 </r>
       <r>    2.3473    1.0000 </r>
       <r>    2.3976    1.0000 </r>
       <r>    2.3976    1.0000 </r>
       <r>    2.6885    1.0000 </r>
       <r>    2.7646    1.0000 </r>
       <r>    2.9099    1.0000 </r>
       <r>    2.9099    1.0000 </r>
       <r>    2.9879    1.0000 </r>
       <r>    3.0497    1.0000 </r>
       <r>    3.1383    1.0000 </r>
       <r>    3.4237    1.0000 </r>
       <r>    3.6068    0.9084 </r>
       <r>    3.6068    0.9084 </r>
       <r>    3.7140    0.4264 </r>
       <r>    3.7260    0.3612 </r>
       <r>    3.9387    0.0004 </r>
       <r>    3.9387    0.0004 </r>
       <r>    4.7866    0.0000 </r>
       <r>    5.4544    0.0000 </r>
       <r>    5.8129    0.0000 </r>
       <r>    5.8129    0.0000 </r>
       <r>    6.7733    0.0000 </r>
       <r>    6.7733    0.0000 </r>
       <r>    8.3079    0.0000 </r>
       <r>    8.3087    0.0000 </r>
      </set>
      <set comment="kpoint 5">
       <r>   -4.4639    1.0000 </r>
       <r>   -2.7361    1.0000 </r>
       <r>   -2.3250    1.0000 </r>
       <r>   -2.2774    1.0000 </r>
       <r>   -2.2774    1.0000 </r>
       <r>   -1.9160    1.0000 </r>
       <r>   -1.9160    1.0000 </r>
       <r>   -1.9016    1.0000 </r>
       <r>   -1.7726    1.0000 </r>
       <r>   -1.5413    1.0000 </r>
       <r>   -1.5413    1.0000 </r>
       <r>   -1.4480    1.0000 </r>
       <r>   -1.2524    1.0000 </r>
       <r>   -1.2524    1.0000 </r>
       <r>   -1.0328    1.0000 </r>
       <r>   -0.1809    1.0000 </r>
       <r>   -0.0886    1.0000 </r>
       <r>   -0.0886    1.0000 </r>
       <r>    0.0425    1.0000 </r>
       <r>    0.2708    1.0000 </r>
       <r>    0.2854    1.0000 </r>
       <r>    0.3630    1.0000 </r>
       <r>    0.3722    1.0000 </r>
       <r>    0.3722    1.0000 </r>
       <r>    0.5114    1.0000 </r>
       <r>    0.7589    1.0000 </r>
       <r>    0.7589    1.0000 </r>
       <r>    0.7858    1.0000 </r>
       <r>    0.8297    1.0000 </r>
       <r>    0.9007    1.0000 </r>
       <r>    1.0372    1.0000 </r>
       <r>    1.2337    1.0000 </r>
       <r>    1.2337    1.0000 </r>
       <r>    1.3212    1.0000 </r>
       <r>    1.3451    1.0000 </r>
       <r>    1.7999    1.0000 </r>
       <r>    1.8854    1.0000 </r>
       <r>    1.9305    1.0000 </r>
       <r>    1.9305    1.0000 </r>
       <r>    2.2090    1.0000 </r>
       <r>    2.2852    1.0000 </r>
       <r>    2.3535    1.0000 </r>
       <r>    2.3535    1.0000 </r>
       <r>    2.4293    1.0000 </r>
       <r>    2.5498    1.0000 </r>
       <r>    2.5498    1.0000 </r>
       <r>    2.5820    1.0000 </r>
       <r>    2.7803    1.0000 </r>
       <r>    3.0653    1.0000 </r>
       <r>    3.0653    1.0000 </r>
       <r>    3.1701    1.0000 </r>
       <r>    3.2959    1.0000 </r>
       <r>    3.2959    1.0000 </r>
       <r>    3.3095    1.0000 </r>
       <r>    3.4290    0.9999 </r>
       <r>    3.5156    0.9956 </r>
       <r>    3.5644    0.9732 </r>
       <r>    3.6461    0.7809 </r>
       <r>    3.6461    0.7809 </r>
       <r>    3.7962    0.0888 </r>
       <r>    3.7962    0.0888 </r>
       <r>    3.8503    0.0173 </r>
       <r>    4.0140    0.0000 </r>
       <r>    4.3776    0.0000 </r>
       <r>    4.3776    0.0000 </r>
       <r>    4.9316    0.0000 </r>
       <r>    4.9316    0.0000 </r>
       <r>    6.8782    0.0000 </r>
       <r>    6.9404    0.0000 </r>
       <r>    6.9404    0.0000 </r>
       <r>    7.0298    0.0000 </r>
       <r>    7.4205    0.0000 </r>
      </set>
      <set comment="kpoint 6">
       <r>   -3.8528    1.0000 </r>
       <r>   -2.5093    1.0000 </r>
       <r>   -2.1778    1.0000 </r>
       <r>   -2.0062    1.0000 </r>
       <r>   -1.7956    1.0000 </r>
       <r>   -1.7507    1.0000 </r>
       <r>   -1.5739    1.0000 </r>
       <r>   -1.4594    1.0000 </r>
       <r>   -1.4285    1.0000 </r>
       <r>   -1.3930    1.0000 </r>
       <r>   -1.2751    1.0000 </r>
       <r>   -1.1033    1.0000 </r>
       <r>   -0.9612    1.0000 </r>
       <r>   -0.7658    1.0000 </r>
       <r>   -0.5450    1.0000 </r>
       <r>   -0.3017    1.0000 </r>
       <r>   -0.2608    1.0000 </r>
       <r>   -0.1709    1.0000 </r>
       <r>   -0.0741    1.0000 </r>
       <r>   -0.0707    1.0000 </r>
       <r>    0.1828    1.0000 </r>
       <r>    0.1995    1.0000 </r>
       <r>    0.2199    1.0000 </r>
       <r>    0.3159    1.0000 </r>
       <r>    0.6055    1.0000 </r>
       <r>    0.6521    1.0000 </r>
       <r>    0.6622    1.0000 </r>
       <r>    0.7789    1.0000 </r>
       <r>    0.7844    1.0000 </r>
       <r>    0.9481    1.0000 </r>
       <r>    1.0566    1.0000 </r>
       <r>    1.0691    1.0000 </r>
       <r>    1.1989    1.0000 </r>
       <r>    1.2658    1.0000 </r>
       <r>    1.3356    1.0000 </r>
       <r>    1.4576    1.0000 </r>
       <r>    1.4985    1.0000 </r>
       <r>    1.5130    1.0000 </r>
       <r>    1.5149    1.0000 </r>
       <r>    1.6721    1.0000 </r>
       <r>    1.7388    1.0000 </r>
       <r>    1.8482    1.0000 </r>
       <r>    1.9285    1.0000 </r>
       <r>    2.0365    1.0000 </r>
       <r>    2.1993    1.0000 </r>
       <r>    2.2143    1.0000 </r>
       <r>    2.3911    1.0000 </r>
       <r>    2.4224    1.0000 </r>
       <r>    2.4557    1.0000 </r>
       <r>    2.6816    1.0000 </r>
       <r>    2.7287    1.0000 </r>
       <r>    2.9429    1.0000 </r>
       <r>    2.9913    1.0000 </r>
       <r>    3.1698    1.0000 </r>
       <r>    3.3101    1.0000 </r>
       <r>    3.3312    1.0000 </r>
       <r>    3.4731    0.9994 </r>
       <r>    3.4737    0.9993 </r>
       <r>    3.5992    0.9249 </r>
       <r>    3.6032    0.9165 </r>
       <r>    3.6636    0.7013 </r>
       <r>    3.7875    0.1102 </r>
       <r>    3.7901    0.1037 </r>
       <r>    3.9131    0.0013 </r>
       <r>    4.5826    0.0000 </r>
       <r>    4.5842    0.0000 </r>
       <r>    5.1448    0.0000 </r>
       <r>    5.9669    0.0000 </r>
       <r>    6.9095    0.0000 </r>
       <r>    7.1215    0.0000 </r>
       <r>    8.2458    0.0000 </r>
       <r>    8.3887    0.0000 </r>
      </set>
      <set comment="kpoint 7">
       <r>   -3.1068    1.0000 </r>
       <r>   -3.1068    1.0000 </r>
       <r>   -1.8350    1.0000 </r>
       <r>   -1.7446    1.0000 </r>
       <r>   -1.7446    1.0000 </r>
       <r>   -1.3893    1.0000 </r>
       <r>   -1.3582    1.0000 </r>
       <r>   -1.3582    1.0000 </r>
       <r>   -1.2641    1.0000 </r>
       <r>   -1.2090    1.0000 </r>
       <r>   -0.8978    1.0000 </r>
       <r>   -0.7562    1.0000 </r>
       <r>   -0.6461    1.0000 </r>
       <r>   -0.6036    1.0000 </r>
       <r>   -0.6036    1.0000 </r>
       <r>   -0.5841    1.0000 </r>
       <r>   -0.3074    1.0000 </r>
       <r>   -0.3074    1.0000 </r>
       <r>   -0.2215    1.0000 </r>
       <r>   -0.0835    1.0000 </r>
       <r>   -0.0196    1.0000 </r>
       <r>    0.1894    1.0000 </r>
       <r>    0.3847    1.0000 </r>
       <r>    0.3847    1.0000 </r>
       <r>    0.4177    1.0000 </r>
       <r>    0.5310    1.0000 </r>
       <r>    0.5310    1.0000 </r>
       <r>    0.6439    1.0000 </r>
       <r>    0.7515    1.0000 </r>
       <r>    0.7515    1.0000 </r>
       <r>    0.8467    1.0000 </r>
       <r>    1.0062    1.0000 </r>
       <r>    1.0875    1.0000 </r>
       <r>    1.1473    1.0000 </r>
       <r>    1.1490    1.0000 </r>
       <r>    1.1748    1.0000 </r>
       <r>    1.1998    1.0000 </r>
       <r>    1.1998    1.0000 </r>
       <r>    1.4606    1.0000 </r>
       <r>    1.4606    1.0000 </r>
       <r>    1.7508    1.0000 </r>
       <r>    1.7508    1.0000 </r>
       <r>    2.0775    1.0000 </r>
       <r>    2.0993    1.0000 </r>
       <r>    2.0993    1.0000 </r>
       <r>    2.1531    1.0000 </r>
       <r>    2.2602    1.0000 </r>
       <r>    2.3082    1.0000 </r>
       <r>    2.5367    1.0000 </r>
       <r>    2.5367    1.0000 </r>
       <r>    2.6537    1.0000 </r>
       <r>    2.6537    1.0000 </r>
       <r>    2.8215    1.0000 </r>
       <r>    2.9653    1.0000 </r>
       <r>    2.9653    1.0000 </r>
       <r>    3.0586    1.0000 </r>
       <r>    3.3779    1.0000 </r>
       <r>    3.3779    1.0000 </r>
       <r>    3.4935    0.9983 </r>
       <r>    3.5988    0.9255 </r>
       <r>    3.6672    0.6830 </r>
       <r>    3.6672    0.6830 </r>
       <r>    3.7747    0.1482 </r>
       <r>    3.8044    0.0717 </r>
       <r>    4.6540    0.0000 </r>
       <r>    5.2203    0.0000 </r>
       <r>    5.2203    0.0000 </r>
       <r>    5.2261    0.0000 </r>
       <r>    6.9119    0.0000 </r>
       <r>    7.0882    0.0000 </r>
       <r>    8.4715    0.0000 </r>
       <r>    9.5713    0.0000 </r>
      </set>
      <set comment="kpoint 8">
       <r>   -3.1763    1.0000 </r>
       <r>   -2.4577    1.0000 </r>
       <r>   -2.4577    1.0000 </r>
       <r>   -1.6570    1.0000 </r>
       <r>   -1.4535    1.0000 </r>
       <r>   -1.4535    1.0000 </r>
       <r>   -1.2569    1.0000 </r>
       <r>   -1.1673    1.0000 </r>
       <r>   -1.0959    1.0000 </r>
       <r>   -1.0644    1.0000 </r>
       <r>   -1.0644    1.0000 </r>
       <r>   -0.7496    1.0000 </r>
       <r>   -0.6582    1.0000 </r>
       <r>   -0.5844    1.0000 </r>
       <r>   -0.5419    1.0000 </r>
       <r>   -0.5419    1.0000 </r>
       <r>   -0.4281    1.0000 </r>
       <r>   -0.4281    1.0000 </r>
       <r>   -0.2195    1.0000 </r>
       <r>   -0.1779    1.0000 </r>
       <r>    0.0008    1.0000 </r>
       <r>    0.2139    1.0000 </r>
       <r>    0.2139    1.0000 </r>
       <r>    0.3259    1.0000 </r>
       <r>    0.3895    1.0000 </r>
       <r>    0.3895    1.0000 </r>
       <r>    0.4794    1.0000 </r>
       <r>    0.5027    1.0000 </r>
       <r>    0.5027    1.0000 </r>
       <r>    0.5030    1.0000 </r>
       <r>    0.8123    1.0000 </r>
       <r>    1.0059    1.0000 </r>
       <r>    1.0991    1.0000 </r>
       <r>    1.0991    1.0000 </r>
       <r>    1.1741    1.0000 </r>
       <r>    1.2188    1.0000 </r>
       <r>    1.2199    1.0000 </r>
       <r>    1.3661    1.0000 </r>
       <r>    1.3661    1.0000 </r>
       <r>    1.5204    1.0000 </r>
       <r>    1.6512    1.0000 </r>
       <r>    1.9401    1.0000 </r>
       <r>    1.9401    1.0000 </r>
       <r>    2.0551    1.0000 </r>
       <r>    2.1803    1.0000 </r>
       <r>    2.3497    1.0000 </r>
       <r>    2.3728    1.0000 </r>
       <r>    2.3728    1.0000 </r>
       <r>    2.4551    1.0000 </r>
       <r>    2.6434    1.0000 </r>
       <r>    2.7415    1.0000 </r>
       <r>    2.7415    1.0000 </r>
       <r>    2.9098    1.0000 </r>
       <r>    3.2979    1.0000 </r>
       <r>    3.3280    1.0000 </r>
       <r>    3.3590    1.0000 </r>
       <r>    3.3590    1.0000 </r>
       <r>    3.4472    0.9998 </r>
       <r>    3.4913    0.9985 </r>
       <r>    3.4913    0.9985 </r>
       <r>    3.5593    0.9774 </r>
       <r>    3.5761    0.9613 </r>
       <r>    3.6562    0.7363 </r>
       <r>    3.6562    0.7363 </r>
       <r>    4.0071    0.0000 </r>
       <r>    4.0071    0.0000 </r>
       <r>    5.1577    0.0000 </r>
       <r>    5.8893    0.0000 </r>
       <r>    5.8893    0.0000 </r>
       <r>    8.3671    0.0000 </r>
       <r>    8.4155    0.0000 </r>
       <r>    9.3816    0.0000 </r>
      </set>
     </set>
    </set>
   </array>
  </eigenvalues>
  <separator name="orbital magnetization" >
   <v name="MAGDIPOLOUT">      0.00000000      0.00000000      0.00000000</v>
  </separator>
  <dos>
   <i name="efermi">      3.70090327 </i>
   <total>
    <array>
     <dimension dim="1">gridpoints</dimension>
     <dimension dim="2">spin</dimension>
     <field>energy</field>
     <field>total</field>
     <field>integrated</field>
     <set>
      <set comment="spin 1">
       <r>  -5.9682   0.0000   0.0000 </r>
       <r>  -5.9131   0.0000   0.0000 </r>
       <r>  -5.8579   0.0000   0.0000 </r>
       <r>  -5.8028   0.0000   0.0000 </r>
       <r>  -5.7477   0.0000   0.0000 </r>
       <r>  -5.6925   0.0000   0.0000 </r>
       <r>  -5.6374   0.0000   0.0000 </r>
       <r>  -5.5823   0.0000   0.0000 </r>
       <r>  -5.5271   0.0000   0.0000 </r>
       <r>  -5.4720   0.0000   0.0000 </r>
       <r>  -5.4169   0.0000   0.0000 </r>
       <r>  -5.3617   0.0000   0.0000 </r>
       <r>  -5.3066   0.0000   0.0000 </r>
       <r>  -5.2515   0.0000   0.0000 </r>
       <r>  -5.1964   0.0004   0.0000 </r>
       <r>  -5.1412   0.0049   0.0003 </r>
       <r>  -5.0861   0.0301   0.0020 </r>
       <r>  -5.0310   0.1053   0.0078 </r>
       <r>  -4.9758   0.2222   0.0200 </r>
       <r>  -4.9207   0.3653   0.0401 </r>
       <r>  -4.8656   0.6823   0.0778 </r>
       <r>  -4.8104   1.1856   0.1431 </r>
       <r>  -4.7553   1.3337   0.2167 </r>
       <r>  -4.7002   0.8663   0.2644 </r>
       <r>  -4.6450   0.3369   0.2830 </r>
       <r>  -4.5899   0.2075   0.2944 </r>
       <r>  -4.5348   0.5460   0.3245 </r>
       <r>  -4.4796   1.1565   0.3883 </r>
       <r>  -4.4245   1.5081   0.4714 </r>
       <r>  -4.3694   1.4968   0.5540 </r>
       <r>  -4.3142   1.5217   0.6379 </r>
       <r>  -4.2591   1.3671   0.7132 </r>
       <r>  -4.2040   0.8005   0.7574 </r>
       <r>  -4.1489   0.2717   0.7723 </r>
       <r>  -4.0937   0.0547   0.7753 </r>
       <r>  -4.0386   0.0408   0.7776 </r>
       <r>  -3.9835   0.2491   0.7913 </r>
       <r>  -3.9283   0.9807   0.8454 </r>
       <r>  -3.8732   2.1656   0.9648 </r>
       <r>  -3.8181   2.6854   1.1128 </r>
       <r>  -3.7629   1.9006   1.2176 </r>
       <r>  -3.7078   0.9390   1.2694 </r>
       <r>  -3.6527   0.8455   1.3160 </r>
       <r>  -3.5975   1.2630   1.3856 </r>
       <r>  -3.5424   1.2644   1.4554 </r>
       <r>  -3.4873   0.7199   1.4950 </r>
       <r>  -3.4321   0.2328   1.5079 </r>
       <r>  -3.3770   0.0685   1.5117 </r>
       <r>  -3.3219   0.1653   1.5208 </r>
       <r>  -3.2667   0.6338   1.5557 </r>
       <r>  -3.2116   1.7367   1.6515 </r>
       <r>  -3.1565   3.3931   1.8385 </r>
       <r>  -3.1014   4.6612   2.0955 </r>
       <r>  -3.0462   4.3318   2.3343 </r>
       <r>  -2.9911   2.7711   2.4871 </r>
       <r>  -2.9360   1.7050   2.5811 </r>
       <r>  -2.8808   1.6420   2.6716 </r>
       <r>  -2.8257   1.7828   2.7699 </r>
       <r>  -2.7706   1.9210   2.8758 </r>
       <r>  -2.7154   2.3010   3.0027 </r>
       <r>  -2.6603   2.9210   3.1637 </r>
       <r>  -2.6052   3.9032   3.3789 </r>
       <r>  -2.5500   5.4547   3.6796 </r>
       <r>  -2.4949   7.3004   4.0821 </r>
       <r>  -2.4398   8.1534   4.5316 </r>
       <r>  -2.3846   7.6366   4.9527 </r>
       <r>  -2.3295   7.4939   5.3658 </r>
       <r>  -2.2744   8.5521   5.8373 </r>
       <r>  -2.2192   9.3526   6.3529 </r>
       <r>  -2.1641   8.8884   6.8430 </r>
       <r>  -2.1090   8.1642   7.2931 </r>
       <r>  -2.0539   8.8251   7.7796 </r>
       <r>  -1.9987  10.6847   8.3687 </r>
       <r>  -1.9436  12.2321   9.0431 </r>
       <r>  -1.8885  13.0905   9.7648 </r>
       <r>  -1.8333  13.8529  10.5285 </r>
       <r>  -1.7782  15.2784  11.3708 </r>
       <r>  -1.7231  16.4619  12.2784 </r>
       <r>  -1.6679  16.2726  13.1755 </r>
       <r>  -1.6128  16.0352  14.0596 </r>
       <r>  -1.5577  17.5023  15.0245 </r>
       <r>  -1.5025  21.4964  16.2096 </r>
       <r>  -1.4474  26.7685  17.6854 </r>
       <r>  -1.3923  28.0638  19.2326 </r>
       <r>  -1.3371  22.9596  20.4984 </r>
       <r>  -1.2820  17.1924  21.4463 </r>
       <r>  -1.2269  14.2620  22.2325 </r>
       <r>  -1.1717  12.1731  22.9037 </r>
       <r>  -1.1166  11.3073  23.5271 </r>
       <r>  -1.0615  12.4005  24.2107 </r>
       <r>  -1.0064  13.1738  24.9370 </r>
       <r>  -0.9512  11.9800  25.5975 </r>
       <r>  -0.8961   9.3732  26.1142 </r>
       <r>  -0.8410   7.1641  26.5092 </r>
       <r>  -0.7858   6.8166  26.8850 </r>
       <r>  -0.7307   7.5648  27.3021 </r>
       <r>  -0.6756   8.5177  27.7717 </r>
       <r>  -0.6204  10.6756  28.3602 </r>
       <r>  -0.5653  13.3808  29.0979 </r>
       <r>  -0.5102  13.9479  29.8669 </r>
       <r>  -0.4550  11.8556  30.5205 </r>
       <r>  -0.3999   9.2384  31.0299 </r>
       <r>  -0.3448   8.7419  31.5118 </r>
       <r>  -0.2896  11.5904  32.1508 </r>
       <r>  -0.2345  16.8013  33.0771 </r>
       <r>  -0.1794  22.8129  34.3348 </r>
       <r>  -0.1242  27.3347  35.8418 </r>
       <r>  -0.0691  27.8657  37.3781 </r>
       <r>  -0.0140  23.1329  38.6535 </r>
       <r>   0.0411  15.2218  39.4927 </r>
       <r>   0.0963  10.1765  40.0537 </r>
       <r>   0.1514  12.2384  40.7284 </r>
       <r>   0.2065  19.0458  41.7784 </r>
       <r>   0.2617  24.6326  43.1365 </r>
       <r>   0.3168  27.1992  44.6360 </r>
       <r>   0.3719  28.4957  46.2070 </r>
       <r>   0.4271  28.0854  47.7554 </r>
       <r>   0.4822  25.5298  49.1629 </r>
       <r>   0.5373  22.1289  50.3829 </r>
       <r>   0.5925  18.9032  51.4251 </r>
       <r>   0.6476  17.2937  52.3785 </r>
       <r>   0.7027  18.9520  53.4234 </r>
       <r>   0.7579  23.6322  54.7263 </r>
       <r>   0.8130  26.7731  56.2023 </r>
       <r>   0.8681  25.8225  57.6259 </r>
       <r>   0.9233  24.9555  59.0018 </r>
       <r>   0.9784  25.6435  60.4155 </r>
       <r>   1.0335  25.8799  61.8423 </r>
       <r>   1.0887  26.3798  63.2967 </r>
       <r>   1.1438  28.6588  64.8767 </r>
       <r>   1.1989  31.6202  66.6200 </r>
       <r>   1.2540  31.0590  68.3323 </r>
       <r>   1.3092  26.8830  69.8144 </r>
       <r>   1.3643  23.6474  71.1181 </r>
       <r>   1.4194  23.0001  72.3862 </r>
       <r>   1.4746  23.5534  73.6847 </r>
       <r>   1.5297  21.0975  74.8478 </r>
       <r>   1.5848  14.6112  75.6534 </r>
       <r>   1.6400  10.0917  76.2098 </r>
       <r>   1.6951  10.8156  76.8060 </r>
       <r>   1.7502  13.6008  77.5559 </r>
       <r>   1.8054  15.0524  78.3857 </r>
       <r>   1.8605  15.1224  79.2195 </r>
       <r>   1.9156  15.4291  80.0701 </r>
       <r>   1.9708  15.7657  80.9393 </r>
       <r>   2.0259  16.1388  81.8290 </r>
       <r>   2.0810  18.1608  82.8303 </r>
       <r>   2.1362  21.9746  84.0418 </r>
       <r>   2.1913  26.5958  85.5080 </r>
       <r>   2.2464  28.9116  87.1020 </r>
       <r>   2.3015  28.0802  88.6501 </r>
       <r>   2.3567  29.2418  90.2622 </r>
       <r>   2.4118  32.0870  92.0312 </r>
       <r>   2.4669  29.6801  93.6675 </r>
       <r>   2.5221  21.8794  94.8738 </r>
       <r>   2.5772  15.3446  95.7198 </r>
       <r>   2.6323  13.3769  96.4572 </r>
       <r>   2.6875  14.3849  97.2503 </r>
       <r>   2.7426  14.7594  98.0640 </r>
       <r>   2.7977  12.7433  98.7666 </r>
       <r>   2.8529  11.2330  99.3859 </r>
       <r>   2.9080  13.9107 100.1528 </r>
       <r>   2.9631  19.0170 101.2012 </r>
       <r>   3.0183  21.7985 102.4030 </r>
       <r>   3.0734  21.0823 103.5653 </r>
       <r>   3.1285  18.5358 104.5872 </r>
       <r>   3.1837  15.8296 105.4599 </r>
       <r>   3.2388  15.5336 106.3163 </r>
       <r>   3.2939  19.6592 107.4002 </r>
       <r>   3.3490  24.7495 108.7647 </r>
       <r>   3.4042  27.3704 110.2736 </r>
       <r>   3.4593  29.1003 111.8780 </r>
       <r>   3.5144  30.8642 113.5796 </r>
       <r>   3.5696  33.2080 115.4104 </r>
       <r>   3.6247  35.8186 117.3851 </r>
       <r>   3.6798  35.0558 119.3178 </r>
       <r>   3.7350  31.0276 121.0284 </r>
       <r>   3.7901  27.0469 122.5195 </r>
       <r>   3.8452  22.8437 123.7790 </r>
       <r>   3.9004  18.7648 124.8135 </r>
       <r>   3.9555  16.6806 125.7331 </r>
       <r>   4.0106  15.3705 126.5805 </r>
       <r>   4.0658  12.6664 127.2788 </r>
       <r>   4.1209   8.8345 127.7659 </r>
       <r>   4.1760   5.6075 128.0751 </r>
       <r>   4.2312   3.5878 128.2729 </r>
       <r>   4.2863   2.6906 128.4212 </r>
       <r>   4.3414   2.7991 128.5755 </r>
       <r>   4.3965   3.0769 128.7451 </r>
       <r>   4.4517   2.7573 128.8972 </r>
       <r>   4.5068   3.0131 129.0633 </r>
       <r>   4.5619   4.8979 129.3333 </r>
       <r>   4.6171   6.3488 129.6833 </r>
       <r>   4.6722   5.3124 129.9762 </r>
       <r>   4.7273   3.2659 130.1563 </r>
       <r>   4.7825   2.2058 130.2779 </r>
       <r>   4.8376   2.1463 130.3962 </r>
       <r>   4.8927   2.7462 130.5476 </r>
       <r>   4.9479   3.6464 130.7486 </r>
       <r>   5.0030   3.9941 130.9688 </r>
       <r>   5.0581   4.0821 131.1939 </r>
       <r>   5.1133   5.1586 131.4783 </r>
       <r>   5.1684   6.9186 131.8597 </r>
       <r>   5.2235   7.2939 132.2619 </r>
       <r>   5.2787   5.3326 132.5559 </r>
       <r>   5.3338   2.7933 132.7099 </r>
       <r>   5.3889   2.0289 132.8217 </r>
       <r>   5.4440   3.1813 132.9971 </r>
       <r>   5.4992   4.0728 133.2216 </r>
       <r>   5.5543   3.2158 133.3989 </r>
       <r>   5.6094   1.9781 133.5080 </r>
       <r>   5.6646   2.1101 133.6243 </r>
       <r>   5.7197   3.4144 133.8126 </r>
       <r>   5.7748   4.7008 134.0717 </r>
       <r>   5.8300   5.5262 134.3764 </r>
       <r>   5.8851   5.9490 134.7044 </r>
       <r>   5.9402   5.7126 135.0193 </r>
       <r>   5.9954   4.4911 135.2669 </r>
       <r>   6.0505   2.6537 135.4132 </r>
       <r>   6.1056   1.5033 135.4961 </r>
       <r>   6.1608   1.9130 135.6016 </r>
       <r>   6.2159   3.3609 135.7869 </r>
       <r>   6.2710   4.4747 136.0336 </r>
       <r>   6.3262   4.0819 136.2586 </r>
       <r>   6.3813   2.4405 136.3932 </r>
       <r>   6.4364   1.1461 136.4563 </r>
       <r>   6.4915   1.3032 136.5282 </r>
       <r>   6.5467   2.6582 136.6747 </r>
       <r>   6.6018   3.7249 136.8801 </r>
       <r>   6.6569   3.3659 137.0657 </r>
       <r>   6.7121   2.7540 137.2175 </r>
       <r>   6.7672   3.3268 137.4009 </r>
       <r>   6.8223   4.8350 137.6675 </r>
       <r>   6.8775   6.9635 138.0514 </r>
       <r>   6.9326   8.6069 138.5259 </r>
       <r>   6.9877   8.0556 138.9700 </r>
       <r>   7.0429   6.7103 139.3400 </r>
       <r>   7.0980   6.4998 139.6983 </r>
       <r>   7.1531   5.9425 140.0259 </r>
       <r>   7.2083   3.7676 140.2336 </r>
       <r>   7.2634   1.7231 140.3286 </r>
       <r>   7.3185   1.4400 140.4080 </r>
       <r>   7.3737   2.5140 140.5466 </r>
       <r>   7.4288   3.4779 140.7384 </r>
       <r>   7.4839   3.1724 140.9133 </r>
       <r>   7.5390   1.8512 141.0153 </r>
       <r>   7.5942   0.6682 141.0522 </r>
       <r>   7.6493   0.1444 141.0601 </r>
       <r>   7.7044   0.0182 141.0611 </r>
       <r>   7.7596   0.0013 141.0612 </r>
       <r>   7.8147   0.0001 141.0612 </r>
       <r>   7.8698   0.0001 141.0612 </r>
       <r>   7.9250   0.0018 141.0613 </r>
       <r>   7.9801   0.0223 141.0626 </r>
       <r>   8.0352   0.1566 141.0712 </r>
       <r>   8.0904   0.6591 141.1075 </r>
       <r>   8.1455   1.7910 141.2063 </r>
       <r>   8.2006   3.5067 141.3996 </r>
       <r>   8.2558   5.4580 141.7005 </r>
       <r>   8.3109   7.1533 142.0949 </r>
       <r>   8.3660   8.1142 142.5422 </r>
       <r>   8.4212   7.6887 142.9661 </r>
       <r>   8.4763   5.5914 143.2744 </r>
       <r>   8.5314   2.9271 143.4358 </r>
       <r>   8.5865   1.0584 143.4941 </r>
       <r>   8.6417   0.2515 143.5080 </r>
       <r>   8.6968   0.0371 143.5100 </r>
       <r>   8.7519   0.0032 143.5102 </r>
       <r>   8.8071   0.0002 143.5102 </r>
       <r>   8.8622   0.0000 143.5102 </r>
       <r>   8.9173   0.0000 143.5102 </r>
       <r>   8.9725   0.0000 143.5102 </r>
       <r>   9.0276   0.0000 143.5102 </r>
       <r>   9.0827   0.0001 143.5102 </r>
       <r>   9.1379   0.0012 143.5103 </r>
       <r>   9.1930   0.0157 143.5111 </r>
       <r>   9.2481   0.1143 143.5174 </r>
       <r>   9.3033   0.4644 143.5430 </r>
       <r>   9.3584   1.0604 143.6015 </r>
       <r>   9.4135   1.3963 143.6785 </r>
       <r>   9.4687   1.2310 143.7464 </r>
       <r>   9.5238   1.1747 143.8111 </r>
       <r>   9.5789   1.3843 143.8874 </r>
       <r>   9.6340   1.2087 143.9541 </r>
       <r>   9.6892   0.6211 143.9883 </r>
       <r>   9.7443   0.1800 143.9982 </r>
       <r>   9.7994   0.0292 143.9998 </r>
       <r>   9.8546   0.0026 144.0000 </r>
       <r>   9.9097   0.0001 144.0000 </r>
       <r>   9.9648   0.0000 144.0000 </r>
       <r>  10.0200   0.0000 144.0000 </r>
       <r>  10.0751   0.0000 144.0000 </r>
       <r>  10.1302   0.0000 144.0000 </r>
       <r>  10.1854   0.0000 144.0000 </r>
       <r>  10.2405   0.0000 144.0000 </r>
       <r>  10.2956   0.0000 144.0000 </r>
       <r>  10.3508   0.0000 144.0000 </r>
       <r>  10.4059   0.0000 144.0000 </r>
       <r>  10.4610   0.0000 144.0000 </r>
       <r>  10.5162   0.0000 144.0000 </r>
       <r>  10.5713   0.0000 144.0000 </r>
      </set>
     </set>
    </array>
   </total>
   <partial>
    <array>
     <dimension dim="1">gridpoints</dimension>
     <dimension dim="2">spin</dimension>
     <dimension dim="3">ion</dimension>
     <field>energy</field>
     <field>  s</field>
     <field> py</field>
     <field> pz</field>
     <field> px</field>
     <field>dxy</field>
     <field>dyz</field>
     <field>dz2</field>
     <field>dxz</field>
     <field>dx2</field>
     <set>
      <set comment="ion 1">
       <set comment="spin 1">
        <r>  -5.9682   0.0000   0.0000   0.0000   0.0000   0.0000   0.0000   0.0000   0.0000   0.0000 </r>
        <r>  -5.9131   0.0000   0.0000   0.0000   0.0000   0.0000   0.0000   0.0000   0.0000   0.0000 </r>
        <r>  -5.8579   0.0000   0.0000   0.0000   0.0000   0.0000   0.0000   0.0000   0.0000   0.0000 </r>
        <r>  -5.8028   0.0000   0.0000   0.0000   0.0000   0.0000   0.0000   0.0000   0.0000   0.0000 </r>
        <r>  -5.7477   0.0000   0.0000   0.0000   0.0000   0.0000   0.0000   0.0000   0.0000   0.0000 </r>
        <r>  -5.6925   0.0000   0.0000   0.0000   0.0000   0.0000   0.0000   0.0000   0.0000   0.0000 </r>
        <r>  -5.6374   0.0000   0.0000   0.0000   0.0000   0.0000   0.0000   0.0000   0.0000   0.0000 </r>
        <r>  -5.5823   0.0000   0.0000   0.0000   0.0000   0.0000   0.0000   0.0000   0.0000   0.0000 </r>
        <r>  -5.5271   0.0000   0.0000   0.0000   0.0000   0.0000   0.0000   0.0000   0.0000   0.0000 </r>
        <r>  -5.4720   0.0000   0.0000   0.0000   0.0000   0.0000   0.0000   0.0000   0.0000   0.0000 </r>
        <r>  -5.4169   0.0000   0.0000   0.0000   0.0000   0.0000   0.0000   0.0000   0.0000   0.0000 </r>
        <r>  -5.3617   0.0000   0.0000   0.0000   0.0000   0.0000   0.0000   0.0000   0.0000   0.0000 </r>
        <r>  -5.3066   0.0000   0.0000   0.0000   0.0000   0.0000   0.0000   0.0000   0.0000   0.0000 </r>
        <r>  -5.2515   0.0000   0.0000   0.0000   0.0000   0.0000   0.0000   0.0000   0.0000   0.0000 </r>
        <r>  -5.1964   0.0000   0.0000   0.0000   0.0000   0.0000   0.0000   0.0000   0.0000   0.0000 </r>
        <r>  -5.1412   0.0002   0.0000   0.0000   0.0000   0.0000   0.0000   0.0000   0.0000   0.0000 </r>
        <r>  -5.0861   0.0009   0.0000   0.0001   0.0000   0.0000   0.0000   0.0000   0.0000   0.0000 </r>
        <r>  -5.0310   0.0033   0.0000   0.0002   0.0000   0.0000   0.0000   0.0000   0.0000   0.0000 </r>
        <r>  -4.9758   0.0070   0.0000   0.0005   0.0000   0.0000   0.0000   0.0000   0.0000   0.0000 </r>
        <r>  -4.9207   0.0114   0.0000   0.0008   0.0001   0.0000   0.0000   0.0000   0.0000   0.0000 </r>
        <r>  -4.8656   0.0212   0.0000   0.0016   0.0002   0.0000   0.0000   0.0001   0.0001   0.0000 </r>
        <r>  -4.8104   0.0368   0.0000   0.0027   0.0004   0.0000   0.0000   0.0001   0.0002   0.0000 </r>
        <r>  -4.7553   0.0413   0.0000   0.0031   0.0005   0.0000   0.0000   0.0001   0.0002   0.0000 </r>
        <r>  -4.7002   0.0269   0.0000   0.0020   0.0003   0.0000   0.0000   0.0001   0.0001   0.0000 </r>
        <r>  -4.6450   0.0104   0.0000   0.0008   0.0001   0.0000   0.0000   0.0000   0.0001   0.0000 </r>
        <r>  -4.5899   0.0063   0.0000   0.0005   0.0001   0.0000   0.0000   0.0000   0.0001   0.0000 </r>
        <r>  -4.5348   0.0164   0.0001   0.0013   0.0004   0.0000   0.0001   0.0000   0.0002   0.0000 </r>
        <r>  -4.4796   0.0347   0.0003   0.0027   0.0010   0.0001   0.0002   0.0000   0.0005   0.0000 </r>
        <r>  -4.4245   0.0452   0.0004   0.0036   0.0013   0.0001   0.0002   0.0000   0.0007   0.0001 </r>
        <r>  -4.3694   0.0446   0.0002   0.0035   0.0016   0.0001   0.0001   0.0000   0.0008   0.0002 </r>
        <r>  -4.3142   0.0450   0.0001   0.0036   0.0019   0.0000   0.0000   0.0000   0.0011   0.0003 </r>
        <r>  -4.2591   0.0403   0.0000   0.0032   0.0019   0.0000   0.0000   0.0000   0.0010   0.0003 </r>
        <r>  -4.2040   0.0236   0.0000   0.0019   0.0011   0.0000   0.0000   0.0000   0.0006   0.0002 </r>
        <r>  -4.1489   0.0080   0.0000   0.0006   0.0004   0.0000   0.0000   0.0000   0.0002   0.0001 </r>
        <r>  -4.0937   0.0016   0.0000   0.0001   0.0001   0.0000   0.0000   0.0000   0.0000   0.0000 </r>
        <r>  -4.0386   0.0011   0.0000   0.0001   0.0001   0.0000   0.0000   0.0000   0.0001   0.0000 </r>
        <r>  -3.9835   0.0069   0.0001   0.0006   0.0005   0.0000   0.0000   0.0000   0.0004   0.0001 </r>
        <r>  -3.9283   0.0272   0.0003   0.0024   0.0020   0.0002   0.0002   0.0000   0.0015   0.0004 </r>
        <r>  -3.8732   0.0601   0.0006   0.0053   0.0044   0.0004   0.0004   0.0000   0.0033   0.0009 </r>
        <r>  -3.8181   0.0746   0.0007   0.0066   0.0055   0.0005   0.0005   0.0000   0.0041   0.0011 </r>
        <r>  -3.7629   0.0527   0.0005   0.0047   0.0039   0.0003   0.0003   0.0000   0.0029   0.0008 </r>
        <r>  -3.7078   0.0257   0.0002   0.0023   0.0021   0.0001   0.0001   0.0000   0.0016   0.0006 </r>
        <r>  -3.6527   0.0224   0.0000   0.0021   0.0022   0.0000   0.0000   0.0000   0.0019   0.0010 </r>
        <r>  -3.5975   0.0331   0.0000   0.0031   0.0034   0.0000   0.0000   0.0001   0.0031   0.0016 </r>
        <r>  -3.5424   0.0331   0.0000   0.0031   0.0034   0.0000   0.0000   0.0001   0.0031   0.0017 </r>
        <r>  -3.4873   0.0188   0.0000   0.0018   0.0019   0.0000   0.0000   0.0000   0.0018   0.0009 </r>
        <r>  -3.4321   0.0062   0.0000   0.0006   0.0006   0.0000   0.0000   0.0001   0.0006   0.0003 </r>
        <r>  -3.3770   0.0024   0.0000   0.0001   0.0001   0.0000   0.0000   0.0003   0.0001   0.0001 </r>
        <r>  -3.3219   0.0067   0.0001   0.0002   0.0002   0.0001   0.0001   0.0014   0.0003   0.0001 </r>
        <r>  -3.2667   0.0218   0.0003   0.0012   0.0013   0.0004   0.0004   0.0035   0.0015   0.0004 </r>
        <r>  -3.2116   0.0526   0.0009   0.0036   0.0041   0.0011   0.0011   0.0059   0.0050   0.0015 </r>
        <r>  -3.1565   0.0994   0.0016   0.0072   0.0087   0.0018   0.0018   0.0102   0.0107   0.0040 </r>
        <r>  -3.1014   0.1452   0.0016   0.0093   0.0119   0.0018   0.0018   0.0188   0.0145   0.0063 </r>
        <r>  -3.0462   0.1495   0.0010   0.0076   0.0104   0.0011   0.0011   0.0253   0.0124   0.0059 </r>
        <r>  -2.9911   0.1025   0.0004   0.0043   0.0063   0.0004   0.0005   0.0203   0.0077   0.0042 </r>
        <r>  -2.9360   0.0547   0.0001   0.0029   0.0042   0.0001   0.0001   0.0101   0.0066   0.0044 </r>
        <r>  -2.8808   0.0403   0.0001   0.0031   0.0046   0.0000   0.0000   0.0063   0.0084   0.0060 </r>
        <r>  -2.8257   0.0495   0.0002   0.0029   0.0046   0.0001   0.0000   0.0120   0.0076   0.0055 </r>
        <r>  -2.7706   0.0738   0.0006   0.0018   0.0039   0.0004   0.0000   0.0251   0.0040   0.0030 </r>
        <r>  -2.7154   0.1008   0.0009   0.0011   0.0039   0.0005   0.0000   0.0411   0.0014   0.0014 </r>
        <r>  -2.6603   0.1168   0.0008   0.0013   0.0049   0.0005   0.0002   0.0562   0.0018   0.0021 </r>
        <r>  -2.6052   0.1315   0.0008   0.0028   0.0077   0.0005   0.0010   0.0630   0.0083   0.0069 </r>
        <r>  -2.5500   0.1449   0.0022   0.0068   0.0125   0.0012   0.0043   0.0519   0.0254   0.0178 </r>
        <r>  -2.4949   0.1444   0.0052   0.0121   0.0169   0.0026   0.0114   0.0317   0.0476   0.0301 </r>
        <r>  -2.4398   0.1255   0.0076   0.0142   0.0167   0.0039   0.0181   0.0220   0.0573   0.0327 </r>
        <r>  -2.3846   0.0943   0.0070   0.0115   0.0122   0.0044   0.0209   0.0305   0.0502   0.0246 </r>
        <r>  -2.3295   0.0776   0.0055   0.0083   0.0085   0.0061   0.0261   0.0502   0.0404   0.0177 </r>
        <r>  -2.2744   0.0967   0.0055   0.0075   0.0090   0.0103   0.0364   0.0681   0.0354   0.0194 </r>
        <r>  -2.2192   0.1498   0.0057   0.0072   0.0130   0.0166   0.0376   0.0812   0.0284   0.0314 </r>
        <r>  -2.1641   0.1977   0.0047   0.0059   0.0163   0.0277   0.0254   0.0837   0.0172   0.0587 </r>
        <r>  -2.1090   0.1962   0.0044   0.0053   0.0150   0.0513   0.0189   0.0647   0.0100   0.0993 </r>
        <r>  -2.0539   0.1751   0.0071   0.0068   0.0120   0.0902   0.0326   0.0397   0.0099   0.1352 </r>
        <r>  -1.9987   0.1675   0.0115   0.0094   0.0104   0.1204   0.0582   0.0282   0.0141   0.1587 </r>
        <r>  -1.9436   0.1553   0.0144   0.0108   0.0092   0.1166   0.0795   0.0290   0.0202   0.1789 </r>
        <r>  -1.8885   0.1467   0.0155   0.0111   0.0097   0.0928   0.0903   0.0422   0.0245   0.1888 </r>
        <r>  -1.8333   0.1730   0.0156   0.0112   0.0151   0.0744   0.0859   0.0708   0.0253   0.1928 </r>
        <r>  -1.7782   0.2292   0.0146   0.0116   0.0243   0.0781   0.0704   0.0991   0.0300   0.2172 </r>
        <r>  -1.7231   0.2621   0.0134   0.0120   0.0304   0.0993   0.0630   0.1074   0.0447   0.2356 </r>
        <r>  -1.6679   0.2376   0.0132   0.0118   0.0293   0.1193   0.0745   0.1073   0.0634   0.2109 </r>
        <r>  -1.6128   0.1878   0.0156   0.0121   0.0239   0.1396   0.1020   0.1101   0.0765   0.1830 </r>
        <r>  -1.5577   0.1583   0.0213   0.0143   0.0195   0.1665   0.1425   0.1096   0.0849   0.2017 </r>
        <r>  -1.5025   0.1703   0.0295   0.0186   0.0207   0.2130   0.1949   0.1165   0.0951   0.2583 </r>
        <r>  -1.4474   0.2096   0.0355   0.0233   0.0268   0.2959   0.2320   0.1456   0.1035   0.3045 </r>
        <r>  -1.3923   0.2223   0.0328   0.0238   0.0305   0.3444   0.2090   0.1757   0.0949   0.2921 </r>
        <r>  -1.3371   0.1785   0.0231   0.0181   0.0263   0.2882   0.1397   0.1748   0.0700   0.2430 </r>
        <r>  -1.2820   0.1181   0.0160   0.0111   0.0185   0.2081   0.0941   0.1535   0.0541   0.2346 </r>
        <r>  -1.2269   0.0770   0.0146   0.0070   0.0134   0.1692   0.0948   0.1274   0.0550   0.2523 </r>
        <r>  -1.1717   0.0484   0.0145   0.0050   0.0120   0.1474   0.1016   0.0967   0.0552   0.2127 </r>
        <r>  -1.1166   0.0309   0.0139   0.0042   0.0137   0.1606   0.0876   0.0839   0.0490   0.1460 </r>
        <r>  -1.0615   0.0313   0.0131   0.0042   0.0164   0.2277   0.0620   0.0958   0.0428   0.1419 </r>
        <r>  -1.0064   0.0420   0.0116   0.0039   0.0163   0.2980   0.0388   0.1036   0.0406   0.2083 </r>
        <r>  -0.9512   0.0470   0.0089   0.0031   0.0131   0.3010   0.0234   0.0937   0.0425   0.2713 </r>
        <r>  -0.8961   0.0383   0.0059   0.0026   0.0086   0.2259   0.0173   0.0761   0.0421   0.2532 </r>
        <r>  -0.8410   0.0267   0.0041   0.0023   0.0061   0.1632   0.0198   0.0602   0.0377   0.1751 </r>
        <r>  -0.7858   0.0247   0.0042   0.0023   0.0071   0.1832   0.0297   0.0513   0.0350   0.1079 </r>
        <r>  -0.7307   0.0254   0.0049   0.0025   0.0094   0.2177   0.0383   0.0545   0.0360   0.0755 </r>
        <r>  -0.6756   0.0207   0.0047   0.0034   0.0114   0.2056   0.0386   0.0762   0.0421   0.0807 </r>
        <r>  -0.6204   0.0161   0.0049   0.0046   0.0159   0.2089   0.0444   0.1134   0.0602   0.1236 </r>
        <r>  -0.5653   0.0171   0.0065   0.0050   0.0233   0.2748   0.0635   0.1349   0.0813   0.1665 </r>
        <r>  -0.5102   0.0214   0.0084   0.0043   0.0278   0.3391   0.0732   0.1273   0.0823   0.1749 </r>
        <r>  -0.4550   0.0260   0.0097   0.0037   0.0239   0.3111   0.0577   0.1225   0.0635   0.1679 </r>
        <r>  -0.3999   0.0264   0.0092   0.0035   0.0153   0.2052   0.0361   0.1268   0.0468   0.1534 </r>
        <r>  -0.3448   0.0233   0.0068   0.0036   0.0097   0.1204   0.0426   0.1287   0.0504   0.1271 </r>
        <r>  -0.2896   0.0261   0.0055   0.0049   0.0103   0.1224   0.1190   0.1363   0.0783   0.1184 </r>
        <r>  -0.2345   0.0367   0.0073   0.0072   0.0146   0.1960   0.3084   0.1421   0.1381   0.1398 </r>
        <r>  -0.1794   0.0433   0.0103   0.0098   0.0193   0.2756   0.5667   0.1414   0.2619   0.1744 </r>
        <r>  -0.1242   0.0391   0.0117   0.0126   0.0225   0.3108   0.6946   0.1558   0.4402   0.2214 </r>
        <r>  -0.0691   0.0315   0.0106   0.0145   0.0232   0.2988   0.5698   0.1938   0.5460   0.2701 </r>
        <r>  -0.0140   0.0264   0.0080   0.0135   0.0198   0.2441   0.3320   0.2100   0.4620   0.2635 </r>
        <r>   0.0411   0.0208   0.0049   0.0095   0.0129   0.1579   0.1552   0.1706   0.2643   0.1943 </r>
        <r>   0.0963   0.0159   0.0029   0.0064   0.0082   0.1048   0.0953   0.1352   0.1183   0.1443 </r>
        <r>   0.1514   0.0189   0.0030   0.0078   0.0106   0.1439   0.1455   0.1858   0.0869   0.1721 </r>
        <r>   0.2065   0.0269   0.0047   0.0130   0.0165   0.2346   0.2324   0.3166   0.1333   0.2588 </r>
        <r>   0.2617   0.0309   0.0066   0.0180   0.0202   0.2809   0.2528   0.4489   0.1978   0.3471 </r>
        <r>   0.3168   0.0364   0.0098   0.0209   0.0230   0.2794   0.2187   0.5405   0.2544   0.3981 </r>
        <r>   0.3719   0.0547   0.0150   0.0217   0.0276   0.2881   0.2103   0.5865   0.3007   0.4090 </r>
        <r>   0.4271   0.0753   0.0188   0.0200   0.0307   0.3008   0.2202   0.5617   0.3105   0.4019 </r>
        <r>   0.4822   0.0813   0.0178   0.0163   0.0320   0.2912   0.1993   0.4717   0.2752   0.4291 </r>
        <r>   0.5373   0.0726   0.0145   0.0123   0.0326   0.2650   0.1519   0.3623   0.2258   0.4901 </r>
        <r>   0.5925   0.0579   0.0141   0.0092   0.0281   0.2373   0.1117   0.2680   0.1966   0.5090 </r>
        <r>   0.6476   0.0474   0.0166   0.0080   0.0198   0.2252   0.0978   0.2218   0.2056   0.4786 </r>
        <r>   0.7027   0.0474   0.0173   0.0086   0.0161   0.2522   0.1118   0.2312   0.2613   0.4628 </r>
        <r>   0.7579   0.0528   0.0152   0.0098   0.0191   0.3366   0.1489   0.2689   0.3525   0.4985 </r>
        <r>   0.8130   0.0501   0.0126   0.0101   0.0215   0.4235   0.1936   0.2890   0.3927   0.5421 </r>
        <r>   0.8681   0.0381   0.0114   0.0095   0.0190   0.4148   0.2694   0.2889   0.3417   0.5514 </r>
        <r>   0.9233   0.0321   0.0125   0.0099   0.0165   0.3187   0.4117   0.3202   0.3123   0.5474 </r>
        <r>   0.9784   0.0333   0.0136   0.0105   0.0178   0.2702   0.5431   0.3500   0.3737   0.4891 </r>
        <r>   1.0335   0.0309   0.0154   0.0096   0.0197   0.3494   0.5885   0.3121   0.4533   0.3648 </r>
        <r>   1.0887   0.0290   0.0272   0.0080   0.0205   0.4578   0.5824   0.2576   0.4847   0.3109 </r>
        <r>   1.1438   0.0390   0.0530   0.0074   0.0239   0.4536   0.5595   0.2794   0.4867   0.4187 </r>
        <r>   1.1989   0.0548   0.0738   0.0077   0.0299   0.3612   0.5291   0.3757   0.4834   0.5505 </r>
        <r>   1.2540   0.0643   0.0709   0.0075   0.0333   0.3023   0.4560   0.4449   0.4442   0.5243 </r>
        <r>   1.3092   0.0732   0.0580   0.0069   0.0349   0.3274   0.3388   0.4394   0.3888   0.4065 </r>
        <r>   1.3643   0.0841   0.0490   0.0072   0.0389   0.3881   0.2589   0.4125   0.3808   0.3256 </r>
        <r>   1.4194   0.0919   0.0395   0.0083   0.0478   0.4200   0.2474   0.3940   0.4207   0.2805 </r>
        <r>   1.4746   0.0975   0.0353   0.0087   0.0586   0.4153   0.2675   0.3585   0.4749   0.2647 </r>
        <r>   1.5297   0.0871   0.0363   0.0075   0.0550   0.3457   0.2521   0.2673   0.4652   0.2429 </r>
        <r>   1.5848   0.0574   0.0292   0.0062   0.0338   0.2210   0.1766   0.1576   0.3572   0.1744 </r>
        <r>   1.6400   0.0344   0.0197   0.0075   0.0158   0.1397   0.1065   0.1105   0.2720   0.1231 </r>
        <r>   1.6951   0.0310   0.0239   0.0104   0.0141   0.1415   0.0895   0.1298   0.2906   0.1538 </r>
        <r>   1.7502   0.0359   0.0383   0.0115   0.0238   0.1900   0.1073   0.1535   0.3467   0.2176 </r>
        <r>   1.8054   0.0381   0.0451   0.0106   0.0318   0.2683   0.1306   0.1444   0.3817   0.2256 </r>
        <r>   1.8605   0.0355   0.0391   0.0094   0.0316   0.3413   0.1506   0.1297   0.4098   0.1726 </r>
        <r>   1.9156   0.0331   0.0299   0.0085   0.0285   0.3504   0.1705   0.1490   0.4640   0.1145 </r>
        <r>   1.9708   0.0303   0.0222   0.0074   0.0236   0.3168   0.1798   0.1794   0.5145   0.0798 </r>
        <r>   2.0259   0.0243   0.0157   0.0065   0.0149   0.2903   0.1862   0.1935   0.5588   0.0684 </r>
        <r>   2.0810   0.0222   0.0135   0.0081   0.0085   0.2582   0.2133   0.2241   0.6627   0.0760 </r>
        <r>   2.1362   0.0279   0.0210   0.0118   0.0105   0.2223   0.2672   0.2889   0.8258   0.1083 </r>
        <r>   2.1913   0.0344   0.0375   0.0129   0.0197   0.2193   0.3510   0.3556   1.0074   0.1658 </r>
        <r>   2.2464   0.0340   0.0463   0.0101   0.0287   0.2342   0.4287   0.3687   1.0861   0.1956 </r>
        <r>   2.3015   0.0288   0.0360   0.0065   0.0319   0.2430   0.5144   0.3359   0.9910   0.1613 </r>
        <r>   2.3567   0.0283   0.0211   0.0056   0.0329   0.2670   0.6980   0.3600   0.8897   0.1206 </r>
        <r>   2.4118   0.0334   0.0172   0.0074   0.0382   0.3050   0.8890   0.4389   0.8312   0.1198 </r>
        <r>   2.4669   0.0349   0.0228   0.0085   0.0454   0.3465   0.8553   0.4364   0.6540   0.1336 </r>
        <r>   2.5221   0.0309   0.0306   0.0072   0.0479   0.4108   0.5870   0.3274   0.3696   0.1447 </r>
        <r>   2.5772   0.0275   0.0344   0.0049   0.0441   0.4831   0.3335   0.2060   0.1639   0.1588 </r>
        <r>   2.6323   0.0265   0.0290   0.0033   0.0327   0.5338   0.2660   0.1252   0.1110   0.1571 </r>
        <r>   2.6875   0.0266   0.0183   0.0041   0.0187   0.5418   0.3365   0.0949   0.1396   0.1300 </r>
        <r>   2.7426   0.0246   0.0104   0.0064   0.0090   0.4614   0.3993   0.0965   0.1626   0.0941 </r>
        <r>   2.7977   0.0184   0.0068   0.0074   0.0042   0.3178   0.3624   0.1009   0.1519   0.0632 </r>
        <r>   2.8529   0.0116   0.0054   0.0067   0.0028   0.2145   0.2945   0.1261   0.1296   0.0495 </r>
        <r>   2.9080   0.0104   0.0060   0.0068   0.0039   0.2166   0.3474   0.1980   0.1299   0.0588 </r>
        <r>   2.9631   0.0150   0.0070   0.0089   0.0063   0.2595   0.5424   0.2799   0.1545   0.0743 </r>
        <r>   3.0183   0.0187   0.0069   0.0105   0.0089   0.2428   0.7218   0.3395   0.1657   0.0780 </r>
        <r>   3.0734   0.0189   0.0057   0.0103   0.0107   0.1821   0.7190   0.3866   0.1525   0.0740 </r>
        <r>   3.1285   0.0191   0.0050   0.0095   0.0101   0.1347   0.5385   0.4053   0.1456   0.0737 </r>
        <r>   3.1837   0.0194   0.0066   0.0098   0.0082   0.1150   0.3446   0.3794   0.1602   0.0811 </r>
        <r>   3.2388   0.0215   0.0126   0.0120   0.0088   0.1513   0.2837   0.3641   0.1963   0.1082 </r>
        <r>   3.2939   0.0311   0.0207   0.0165   0.0130   0.2746   0.3644   0.4480   0.2416   0.1689 </r>
        <r>   3.3490   0.0450   0.0226   0.0195   0.0180   0.4128   0.4534   0.5956   0.2562   0.2278 </r>
        <r>   3.4042   0.0533   0.0171   0.0194   0.0213   0.4537   0.4698   0.7105   0.2591   0.2353 </r>
        <r>   3.4593   0.0514   0.0115   0.0188   0.0209   0.4049   0.4809   0.7832   0.3061   0.2110 </r>
        <r>   3.5144   0.0472   0.0085   0.0205   0.0158   0.3353   0.5182   0.8410   0.3790   0.2171 </r>
        <r>   3.5696   0.0520   0.0075   0.0242   0.0104   0.2954   0.5755   0.9462   0.4192   0.2944 </r>
        <r>   3.6247   0.0593   0.0083   0.0253   0.0093   0.3323   0.6794   1.0261   0.3790   0.3987 </r>
        <r>   3.6798   0.0532   0.0097   0.0202   0.0103   0.3944   0.7895   0.8608   0.2724   0.4259 </r>
        <r>   3.7350   0.0386   0.0107   0.0129   0.0112   0.3796   0.7671   0.5445   0.1899   0.3926 </r>
        <r>   3.7901   0.0359   0.0106   0.0089   0.0148   0.3068   0.5622   0.3515   0.1735   0.3786 </r>
        <r>   3.8452   0.0521   0.0087   0.0085   0.0229   0.2346   0.3191   0.2878   0.1640   0.3512 </r>
        <r>   3.9004   0.0739   0.0074   0.0094   0.0296   0.1962   0.1740   0.2483   0.1360   0.3068 </r>
        <r>   3.9555   0.0851   0.0098   0.0112   0.0287   0.2334   0.1205   0.2028   0.1265   0.3061 </r>
        <r>   4.0106   0.0807   0.0134   0.0132   0.0236   0.3369   0.0943   0.1457   0.1335   0.3167 </r>
        <r>   4.0658   0.0623   0.0123   0.0138   0.0233   0.3902   0.0639   0.0916   0.1282   0.2575 </r>
        <r>   4.1209   0.0399   0.0067   0.0134   0.0282   0.3031   0.0324   0.0602   0.1141   0.1494 </r>
        <r>   4.1760   0.0232   0.0022   0.0118   0.0275   0.1704   0.0113   0.0427   0.0947   0.0854 </r>
        <r>   4.2312   0.0120   0.0008   0.0075   0.0171   0.1070   0.0029   0.0255   0.0588   0.0834 </r>
        <r>   4.2863   0.0060   0.0018   0.0031   0.0078   0.0968   0.0011   0.0166   0.0235   0.0965 </r>
        <r>   4.3414   0.0062   0.0045   0.0014   0.0062   0.0963   0.0012   0.0234   0.0074   0.1043 </r>
        <r>   4.3965   0.0083   0.0068   0.0015   0.0076   0.0898   0.0015   0.0324   0.0052   0.1034 </r>
        <r>   4.4517   0.0088   0.0064   0.0028   0.0062   0.0632   0.0027   0.0301   0.0129   0.0859 </r>
        <r>   4.5068   0.0125   0.0065   0.0078   0.0032   0.0284   0.0075   0.0290   0.0422   0.0873 </r>
        <r>   4.5619   0.0227   0.0104   0.0166   0.0015   0.0086   0.0160   0.0433   0.0916   0.1421 </r>
        <r>   4.6171   0.0297   0.0142   0.0209   0.0011   0.0030   0.0202   0.0567   0.1149   0.1955 </r>
        <r>   4.6722   0.0248   0.0126   0.0162   0.0008   0.0015   0.0148   0.0489   0.0879   0.1751 </r>
        <r>   4.7273   0.0164   0.0073   0.0110   0.0007   0.0009   0.0064   0.0295   0.0593   0.1010 </r>
        <r>   4.7825   0.0143   0.0037   0.0109   0.0020   0.0026   0.0018   0.0165   0.0590   0.0407 </r>
        <r>   4.8376   0.0203   0.0060   0.0104   0.0079   0.0120   0.0008   0.0117   0.0556   0.0254 </r>
        <r>   4.8927   0.0354   0.0147   0.0071   0.0230   0.0322   0.0014   0.0117   0.0332   0.0465 </r>
        <r>   4.9479   0.0519   0.0233   0.0044   0.0452   0.0485   0.0022   0.0159   0.0129   0.0719 </r>
        <r>   5.0030   0.0548   0.0258   0.0040   0.0610   0.0412   0.0027   0.0211   0.0065   0.0750 </r>
[...]
        <r>  0.0000  0.0013  0.0003  0.0000  0.0016  0.0020  0.0228  0.0145  0.0665 </r>
       </set>
       <set comment="band 57">
        <r>  0.0000  0.0002  0.0004  0.0008  0.0475  0.0118  0.0339  0.0011  0.0074 </r>
        <r>  0.0000  0.0005  0.0003  0.0008  0.0478  0.0130  0.0226  0.0033  0.0205 </r>
        <r>  0.0000  0.0002  0.0004  0.0008  0.0475  0.0118  0.0339  0.0011  0.0074 </r>
        <r>  0.0000  0.0005  0.0003  0.0008  0.0478  0.0130  0.0226  0.0033  0.0205 </r>
        <r>  0.0000  0.0000  0.0000  0.0000  0.0002  0.0024  0.0002  0.0173  0.0014 </r>
        <r>  0.0000  0.0000  0.0000  0.0000  0.0001  0.0082  0.0004  0.0169  0.0009 </r>
        <r>  0.0000  0.0000  0.0000  0.0000  0.0001  0.0082  0.0004  0.0169  0.0009 </r>
        <r>  0.0000  0.0000  0.0000  0.0000  0.0002  0.0024  0.0002  0.0173  0.0014 </r>
        <r>  0.0000  0.0005  0.0003  0.0008  0.0478  0.0132  0.0228  0.0033  0.0203 </r>
        <r>  0.0000  0.0002  0.0004  0.0008  0.0474  0.0119  0.0337  0.0012  0.0075 </r>
        <r>  0.0000  0.0005  0.0003  0.0008  0.0478  0.0132  0.0228  0.0033  0.0203 </r>
        <r>  0.0000  0.0002  0.0004  0.0008  0.0474  0.0119  0.0337  0.0012  0.0075 </r>
       </set>
       <set comment="band 58">
        <r>  0.0001  0.0000  0.0006  0.0000  0.0051  0.0481  0.0023  0.0162  0.0018 </r>
        <r>  0.0001  0.0000  0.0006  0.0000  0.0051  0.0481  0.0023  0.0162  0.0018 </r>
        <r>  0.0001  0.0000  0.0006  0.0000  0.0051  0.0481  0.0023  0.0162  0.0018 </r>
        <r>  0.0001  0.0000  0.0006  0.0000  0.0051  0.0481  0.0023  0.0162  0.0018 </r>
        <r>  0.0000  0.0000  0.0000  0.0000  0.0126  0.0494  0.0035  0.0165  0.0042 </r>
        <r>  0.0000  0.0000  0.0000  0.0000  0.0126  0.0494  0.0035  0.0165  0.0042 </r>
        <r>  0.0000  0.0000  0.0000  0.0000  0.0126  0.0494  0.0035  0.0165  0.0042 </r>
        <r>  0.0000  0.0000  0.0000  0.0000  0.0126  0.0494  0.0035  0.0165  0.0042 </r>
        <r>  0.0000  0.0000  0.0006  0.0000  0.0051  0.0485  0.0022  0.0163  0.0018 </r>
        <r>  0.0000  0.0000  0.0006  0.0000  0.0051  0.0485  0.0022  0.0163  0.0018 </r>
        <r>  0.0000  0.0000  0.0006  0.0000  0.0051  0.0485  0.0022  0.0163  0.0018 </r>
        <r>  0.0000  0.0000  0.0006  0.0000  0.0051  0.0485  0.0022  0.0163  0.0018 </r>
       </set>
       <set comment="band 59">
        <r>  0.0005  0.0002  0.0002  0.0001  0.0006  0.0002  0.0012  0.0473  0.0022 </r>
        <r>  0.0005  0.0001  0.0002  0.0001  0.0006  0.0006  0.0012  0.0454  0.0021 </r>
        <r>  0.0005  0.0002  0.0002  0.0001  0.0006  0.0002  0.0012  0.0473  0.0022 </r>
        <r>  0.0005  0.0001  0.0002  0.0001  0.0006  0.0006  0.0012  0.0454  0.0021 </r>
        <r>  0.0010  0.0011  0.0001  0.0000  0.0001  0.0000  0.0186  0.0278  0.0859 </r>
        <r>  0.0011  0.0011  0.0001  0.0000  0.0005  0.0001  0.0208  0.0264  0.0816 </r>
        <r>  0.0011  0.0011  0.0001  0.0000  0.0005  0.0001  0.0208  0.0264  0.0816 </r>
        <r>  0.0010  0.0011  0.0001  0.0000  0.0001  0.0000  0.0186  0.0278  0.0859 </r>
        <r>  0.0005  0.0001  0.0002  0.0001  0.0007  0.0004  0.0012  0.0466  0.0022 </r>
        <r>  0.0005  0.0001  0.0002  0.0001  0.0006  0.0004  0.0013  0.0457  0.0023 </r>
        <r>  0.0004  0.0001  0.0002  0.0001  0.0007  0.0004  0.0012  0.0466  0.0022 </r>
        <r>  0.0005  0.0001  0.0002  0.0001  0.0006  0.0004  0.0013  0.0457  0.0023 </r>
       </set>
       <set comment="band 60">
        <r>  0.0005  0.0000  0.0002  0.0002  0.0025  0.0383  0.0012  0.0076  0.0002 </r>
        <r>  0.0005  0.0000  0.0002  0.0002  0.0026  0.0379  0.0012  0.0095  0.0003 </r>
        <r>  0.0005  0.0000  0.0002  0.0002  0.0025  0.0383  0.0012  0.0076  0.0002 </r>
        <r>  0.0005  0.0000  0.0002  0.0002  0.0026  0.0379  0.0012  0.0095  0.0003 </r>
        <r>  0.0011  0.0002  0.0001  0.0009  0.0668  0.0215  0.0208  0.0050  0.0153 </r>
        <r>  0.0010  0.0002  0.0001  0.0009  0.0664  0.0213  0.0186  0.0065  0.0197 </r>
        <r>  0.0010  0.0002  0.0001  0.0009  0.0664  0.0213  0.0186  0.0065  0.0197 </r>
        <r>  0.0011  0.0002  0.0001  0.0009  0.0668  0.0215  0.0208  0.0050  0.0153 </r>
        <r>  0.0005  0.0000  0.0002  0.0002  0.0026  0.0380  0.0013  0.0081  0.0003 </r>
        <r>  0.0005  0.0000  0.0002  0.0002  0.0027  0.0380  0.0012  0.0090  0.0002 </r>
        <r>  0.0005  0.0000  0.0002  0.0002  0.0026  0.0380  0.0013  0.0081  0.0003 </r>
        <r>  0.0005  0.0000  0.0002  0.0002  0.0027  0.0380  0.0012  0.0090  0.0002 </r>
       </set>
       <set comment="band 61">
        <r>  0.0001  0.0001  0.0002  0.0000  0.0076  0.0075  0.0218  0.0102  0.0079 </r>
        <r>  0.0001  0.0001  0.0002  0.0000  0.0076  0.0075  0.0218  0.0102  0.0079 </r>
        <r>  0.0001  0.0001  0.0002  0.0000  0.0076  0.0075  0.0218  0.0102  0.0079 </r>
        <r>  0.0001  0.0001  0.0002  0.0000  0.0076  0.0075  0.0218  0.0102  0.0079 </r>
        <r>  0.0005  0.0000  0.0000  0.0001  0.0065  0.0051  0.1118  0.0017  0.0022 </r>
        <r>  0.0005  0.0000  0.0000  0.0001  0.0065  0.0051  0.1118  0.0017  0.0022 </r>
        <r>  0.0005  0.0000  0.0000  0.0001  0.0065  0.0051  0.1118  0.0017  0.0022 </r>
        <r>  0.0005  0.0000  0.0000  0.0001  0.0065  0.0051  0.1118  0.0017  0.0022 </r>
        <r>  0.0001  0.0001  0.0002  0.0000  0.0076  0.0075  0.0218  0.0102  0.0079 </r>
        <r>  0.0001  0.0001  0.0002  0.0000  0.0076  0.0075  0.0218  0.0102  0.0079 </r>
        <r>  0.0001  0.0001  0.0002  0.0000  0.0076  0.0075  0.0218  0.0102  0.0079 </r>
        <r>  0.0001  0.0001  0.0002  0.0000  0.0076  0.0075  0.0218  0.0102  0.0079 </r>
       </set>
       <set comment="band 62">
        <r>  0.0088  0.0003  0.0012  0.0010  0.0010  0.0248  0.0242  0.0083  0.0013 </r>
        <r>  0.0088  0.0003  0.0012  0.0010  0.0010  0.0248  0.0242  0.0083  0.0013 </r>
        <r>  0.0088  0.0003  0.0012  0.0010  0.0010  0.0248  0.0242  0.0083  0.0013 </r>
        <r>  0.0088  0.0003  0.0012  0.0010  0.0010  0.0248  0.0242  0.0083  0.0013 </r>
        <r>  0.0000  0.0001  0.0008  0.0000  0.0001  0.0194  0.0000  0.0582  0.0004 </r>
        <r>  0.0000  0.0001  0.0008  0.0000  0.0001  0.0194  0.0000  0.0582  0.0004 </r>
        <r>  0.0000  0.0001  0.0008  0.0000  0.0001  0.0194  0.0000  0.0582  0.0004 </r>
        <r>  0.0000  0.0001  0.0008  0.0000  0.0001  0.0194  0.0000  0.0582  0.0004 </r>
        <r>  0.0088  0.0003  0.0012  0.0010  0.0010  0.0244  0.0242  0.0082  0.0013 </r>
        <r>  0.0088  0.0003  0.0012  0.0010  0.0010  0.0244  0.0242  0.0082  0.0013 </r>
        <r>  0.0088  0.0003  0.0012  0.0010  0.0010  0.0244  0.0242  0.0082  0.0013 </r>
        <r>  0.0088  0.0003  0.0012  0.0010  0.0010  0.0244  0.0242  0.0082  0.0013 </r>
       </set>
       <set comment="band 63">
        <r>  0.0010  0.0022  0.0004  0.0000  0.0000  0.0002  0.0128  0.0007  0.0757 </r>
        <r>  0.0013  0.0020  0.0005  0.0000  0.0013  0.0002  0.0165  0.0009  0.0678 </r>
        <r>  0.0010  0.0022  0.0004  0.0000  0.0000  0.0002  0.0128  0.0007  0.0757 </r>
        <r>  0.0013  0.0020  0.0005  0.0000  0.0013  0.0002  0.0165  0.0009  0.0678 </r>
        <r>  0.0037  0.0022  0.0000  0.0000  0.0000  0.0002  0.0011  0.0187  0.0262 </r>
        <r>  0.0046  0.0020  0.0000  0.0000  0.0002  0.0006  0.0014  0.0172  0.0238 </r>
        <r>  0.0046  0.0020  0.0000  0.0000  0.0002  0.0006  0.0014  0.0172  0.0238 </r>
        <r>  0.0037  0.0022  0.0000  0.0000  0.0000  0.0002  0.0011  0.0187  0.0262 </r>
        <r>  0.0012  0.0021  0.0005  0.0000  0.0008  0.0002  0.0149  0.0008  0.0714 </r>
        <r>  0.0011  0.0021  0.0005  0.0000  0.0004  0.0002  0.0146  0.0007  0.0721 </r>
        <r>  0.0012  0.0021  0.0005  0.0000  0.0008  0.0002  0.0149  0.0008  0.0714 </r>
        <r>  0.0011  0.0021  0.0005  0.0000  0.0004  0.0002  0.0146  0.0007  0.0721 </r>
       </set>
       <set comment="band 64">
        <r>  0.0013  0.0004  0.0005  0.0016  0.0590  0.0003  0.0165  0.0008  0.0101 </r>
        <r>  0.0010  0.0006  0.0004  0.0016  0.0578  0.0003  0.0128  0.0006  0.0179 </r>
        <r>  0.0013  0.0004  0.0005  0.0016  0.0590  0.0003  0.0165  0.0008  0.0101 </r>
        <r>  0.0010  0.0006  0.0004  0.0016  0.0578  0.0003  0.0128  0.0006  0.0179 </r>
        <r>  0.0046  0.0003  0.0000  0.0017  0.0199  0.0159  0.0014  0.0020  0.0042 </r>
        <r>  0.0037  0.0005  0.0000  0.0017  0.0196  0.0154  0.0011  0.0034  0.0066 </r>
        <r>  0.0037  0.0005  0.0000  0.0017  0.0196  0.0154  0.0011  0.0034  0.0066 </r>
        <r>  0.0046  0.0003  0.0000  0.0017  0.0199  0.0159  0.0014  0.0020  0.0042 </r>
        <r>  0.0011  0.0005  0.0005  0.0016  0.0582  0.0003  0.0146  0.0006  0.0143 </r>
        <r>  0.0012  0.0005  0.0005  0.0016  0.0586  0.0003  0.0149  0.0007  0.0137 </r>
        <r>  0.0011  0.0005  0.0005  0.0016  0.0582  0.0003  0.0146  0.0006  0.0143 </r>
        <r>  0.0012  0.0005  0.0005  0.0016  0.0586  0.0003  0.0149  0.0007  0.0137 </r>
       </set>
       <set comment="band 65">
        <r>  0.0162  0.0069  0.0007  0.0000  0.0011  0.0001  0.0103  0.0104  0.0314 </r>
        <r>  0.0160  0.0069  0.0007  0.0000  0.0010  0.0001  0.0101  0.0104  0.0316 </r>
        <r>  0.0162  0.0069  0.0007  0.0000  0.0011  0.0001  0.0103  0.0104  0.0314 </r>
        <r>  0.0160  0.0069  0.0007  0.0000  0.0010  0.0001  0.0101  0.0104  0.0316 </r>
        <r>  0.0001  0.0000  0.0026  0.0002  0.0004  0.0499  0.0001  0.0001  0.0003 </r>
        <r>  0.0001  0.0000  0.0026  0.0002  0.0004  0.0504  0.0001  0.0002  0.0003 </r>
        <r>  0.0001  0.0000  0.0026  0.0002  0.0004  0.0504  0.0001  0.0002  0.0003 </r>
        <r>  0.0001  0.0000  0.0026  0.0002  0.0004  0.0499  0.0001  0.0001  0.0003 </r>
        <r>  0.0161  0.0069  0.0007  0.0000  0.0010  0.0001  0.0101  0.0104  0.0316 </r>
        <r>  0.0161  0.0069  0.0007  0.0000  0.0011  0.0001  0.0102  0.0103  0.0316 </r>
        <r>  0.0161  0.0069  0.0007  0.0000  0.0010  0.0001  0.0101  0.0104  0.0316 </r>
        <r>  0.0161  0.0069  0.0007  0.0000  0.0011  0.0001  0.0102  0.0103  0.0316 </r>
       </set>
       <set comment="band 66">
        <r>  0.0160  0.0014  0.0007  0.0056  0.0255  0.0086  0.0101  0.0019  0.0070 </r>
        <r>  0.0162  0.0013  0.0007  0.0056  0.0256  0.0086  0.0103  0.0018  0.0069 </r>
        <r>  0.0160  0.0014  0.0007  0.0056  0.0255  0.0086  0.0101  0.0019  0.0070 </r>
        <r>  0.0162  0.0013  0.0007  0.0056  0.0256  0.0086  0.0103  0.0018  0.0069 </r>
        <r>  0.0001  0.0002  0.0026  0.0000  0.0006  0.0154  0.0001  0.0352  0.0001 </r>
        <r>  0.0001  0.0002  0.0026  0.0000  0.0006  0.0149  0.0001  0.0352  0.0001 </r>
        <r>  0.0001  0.0002  0.0026  0.0000  0.0006  0.0149  0.0001  0.0352  0.0001 </r>
        <r>  0.0001  0.0002  0.0026  0.0000  0.0006  0.0154  0.0001  0.0352  0.0001 </r>
        <r>  0.0161  0.0014  0.0007  0.0056  0.0257  0.0086  0.0102  0.0018  0.0070 </r>
        <r>  0.0161  0.0014  0.0007  0.0056  0.0256  0.0086  0.0101  0.0019  0.0070 </r>
        <r>  0.0161  0.0014  0.0007  0.0056  0.0257  0.0086  0.0102  0.0018  0.0070 </r>
        <r>  0.0161  0.0014  0.0007  0.0056  0.0256  0.0086  0.0101  0.0019  0.0070 </r>
       </set>
       <set comment="band 67">
        <r>  0.0081  0.0002  0.0075  0.0006  0.0011  0.0096  0.0048  0.0288  0.0006 </r>
        <r>  0.0081  0.0002  0.0075  0.0006  0.0011  0.0096  0.0048  0.0288  0.0006 </r>
        <r>  0.0081  0.0002  0.0075  0.0006  0.0011  0.0096  0.0048  0.0288  0.0006 </r>
        <r>  0.0081  0.0002  0.0075  0.0006  0.0011  0.0096  0.0048  0.0288  0.0006 </r>
        <r>  0.0192  0.0009  0.0000  0.0026  0.0005  0.0049  0.0250  0.0016  0.0002 </r>
        <r>  0.0193  0.0009  0.0000  0.0026  0.0005  0.0049  0.0250  0.0016  0.0002 </r>
        <r>  0.0193  0.0009  0.0000  0.0026  0.0005  0.0049  0.0250  0.0016  0.0002 </r>
        <r>  0.0192  0.0009  0.0000  0.0026  0.0005  0.0049  0.0250  0.0016  0.0002 </r>
        <r>  0.0081  0.0002  0.0075  0.0006  0.0011  0.0096  0.0048  0.0287  0.0006 </r>
        <r>  0.0081  0.0002  0.0075  0.0006  0.0011  0.0096  0.0048  0.0287  0.0006 </r>
        <r>  0.0081  0.0002  0.0075  0.0006  0.0011  0.0096  0.0048  0.0287  0.0006 </r>
        <r>  0.0081  0.0002  0.0075  0.0006  0.0011  0.0096  0.0048  0.0287  0.0006 </r>
       </set>
       <set comment="band 68">
        <r>  0.0108  0.0020  0.0077  0.0000  0.0003  0.0277  0.0032  0.0002  0.0033 </r>
        <r>  0.0108  0.0020  0.0077  0.0000  0.0003  0.0277  0.0032  0.0002  0.0033 </r>
        <r>  0.0108  0.0020  0.0077  0.0000  0.0003  0.0277  0.0032  0.0002  0.0033 </r>
        <r>  0.0108  0.0020  0.0077  0.0000  0.0003  0.0277  0.0032  0.0002  0.0033 </r>
        <r>  0.0231  0.0078  0.0000  0.0001  0.0000  0.0001  0.0204  0.0038  0.0037 </r>
        <r>  0.0231  0.0078  0.0000  0.0001  0.0000  0.0001  0.0204  0.0038  0.0037 </r>
        <r>  0.0231  0.0078  0.0000  0.0001  0.0000  0.0001  0.0204  0.0038  0.0037 </r>
        <r>  0.0231  0.0078  0.0000  0.0001  0.0000  0.0001  0.0204  0.0038  0.0037 </r>
        <r>  0.0108  0.0020  0.0077  0.0000  0.0003  0.0276  0.0032  0.0002  0.0033 </r>
        <r>  0.0108  0.0020  0.0077  0.0000  0.0003  0.0277  0.0032  0.0002  0.0033 </r>
        <r>  0.0108  0.0020  0.0077  0.0000  0.0003  0.0276  0.0032  0.0002  0.0033 </r>
        <r>  0.0108  0.0020  0.0077  0.0000  0.0003  0.0277  0.0032  0.0002  0.0033 </r>
       </set>
       <set comment="band 69">
        <r>  0.0108  0.0003  0.0077  0.0018  0.0024  0.0052  0.0032  0.0227  0.0012 </r>
        <r>  0.0108  0.0003  0.0077  0.0018  0.0024  0.0052  0.0032  0.0227  0.0012 </r>
        <r>  0.0108  0.0003  0.0077  0.0018  0.0024  0.0052  0.0032  0.0227  0.0012 </r>
        <r>  0.0108  0.0003  0.0077  0.0018  0.0024  0.0052  0.0032  0.0227  0.0012 </r>
        <r>  0.0231  0.0012  0.0000  0.0066  0.0029  0.0022  0.0204  0.0017  0.0008 </r>
        <r>  0.0231  0.0012  0.0000  0.0066  0.0029  0.0022  0.0204  0.0017  0.0008 </r>
        <r>  0.0231  0.0012  0.0000  0.0066  0.0029  0.0022  0.0204  0.0017  0.0008 </r>
        <r>  0.0231  0.0012  0.0000  0.0066  0.0029  0.0022  0.0204  0.0017  0.0008 </r>
        <r>  0.0108  0.0003  0.0077  0.0018  0.0024  0.0052  0.0032  0.0227  0.0012 </r>
        <r>  0.0108  0.0003  0.0077  0.0018  0.0024  0.0051  0.0032  0.0227  0.0012 </r>
        <r>  0.0108  0.0003  0.0077  0.0018  0.0024  0.0052  0.0032  0.0227  0.0012 </r>
        <r>  0.0108  0.0003  0.0077  0.0018  0.0024  0.0051  0.0032  0.0227  0.0012 </r>
       </set>
       <set comment="band 70">
        <r>  0.0101  0.0073  0.0001  0.0031  0.0060  0.0027  0.0021  0.0018  0.0103 </r>
        <r>  0.0101  0.0073  0.0001  0.0031  0.0060  0.0027  0.0021  0.0017  0.0103 </r>
        <r>  0.0101  0.0073  0.0001  0.0031  0.0060  0.0027  0.0021  0.0018  0.0103 </r>
        <r>  0.0101  0.0073  0.0001  0.0031  0.0060  0.0027  0.0021  0.0017  0.0103 </r>
        <r>  0.0772  0.0006  0.0000  0.0019  0.0087  0.0003  0.0108  0.0001  0.0029 </r>
        <r>  0.0772  0.0006  0.0000  0.0019  0.0087  0.0003  0.0108  0.0001  0.0029 </r>
        <r>  0.0772  0.0006  0.0000  0.0019  0.0087  0.0003  0.0108  0.0001  0.0029 </r>
        <r>  0.0772  0.0006  0.0000  0.0019  0.0087  0.0003  0.0108  0.0001  0.0029 </r>
        <r>  0.0100  0.0072  0.0001  0.0031  0.0060  0.0027  0.0021  0.0017  0.0103 </r>
        <r>  0.0100  0.0072  0.0001  0.0031  0.0060  0.0027  0.0021  0.0017  0.0103 </r>
        <r>  0.0100  0.0072  0.0001  0.0031  0.0060  0.0027  0.0021  0.0017  0.0103 </r>
        <r>  0.0100  0.0072  0.0001  0.0031  0.0060  0.0027  0.0021  0.0017  0.0103 </r>
       </set>
       <set comment="band 71">
        <r>  0.0437  0.0020  0.0004  0.0014  0.0051  0.0006  0.0095  0.0006  0.0035 </r>
        <r>  0.0438  0.0020  0.0004  0.0014  0.0051  0.0006  0.0095  0.0006  0.0035 </r>
        <r>  0.0437  0.0020  0.0004  0.0014  0.0051  0.0006  0.0095  0.0006  0.0035 </r>
        <r>  0.0438  0.0020  0.0004  0.0014  0.0051  0.0006  0.0095  0.0006  0.0035 </r>
        <r>  0.0000  0.0178  0.0000  0.0059  0.0067  0.0007  0.0000  0.0022  0.0201 </r>
        <r>  0.0000  0.0178  0.0000  0.0059  0.0067  0.0007  0.0000  0.0022  0.0201 </r>
        <r>  0.0000  0.0178  0.0000  0.0059  0.0067  0.0007  0.0000  0.0022  0.0201 </r>
        <r>  0.0000  0.0178  0.0000  0.0059  0.0067  0.0007  0.0000  0.0022  0.0201 </r>
        <r>  0.0435  0.0019  0.0004  0.0014  0.0051  0.0006  0.0094  0.0006  0.0035 </r>
        <r>  0.0435  0.0019  0.0004  0.0014  0.0051  0.0006  0.0095  0.0007  0.0034 </r>
        <r>  0.0435  0.0019  0.0004  0.0014  0.0051  0.0006  0.0094  0.0006  0.0035 </r>
        <r>  0.0435  0.0019  0.0004  0.0014  0.0051  0.0006  0.0095  0.0007  0.0034 </r>
       </set>
       <set comment="band 72">
        <r>  0.0377  0.0004  0.0148  0.0008  0.0004  0.0038  0.0022  0.0115  0.0008 </r>
        <r>  0.0253  0.0008  0.0113  0.0010  0.0001  0.0014  0.0039  0.0025  0.0001 </r>
        <r>  0.0378  0.0004  0.0150  0.0008  0.0004  0.0038  0.0022  0.0115  0.0008 </r>
        <r>  0.0254  0.0008  0.0111  0.0010  0.0001  0.0014  0.0039  0.0025  0.0001 </r>
        <r>  0.0137  0.0010  0.0132  0.0028  0.0019  0.0052  0.0010  0.0077  0.0008 </r>
        <r>  0.0137  0.0010  0.0133  0.0028  0.0019  0.0054  0.0010  0.0074  0.0008 </r>
        <r>  0.0137  0.0010  0.0131  0.0028  0.0020  0.0055  0.0010  0.0074  0.0008 </r>
        <r>  0.0137  0.0010  0.0133  0.0028  0.0019  0.0052  0.0010  0.0077  0.0008 </r>
        <r>  0.0380  0.0004  0.0149  0.0008  0.0004  0.0039  0.0022  0.0114  0.0008 </r>
        <r>  0.0255  0.0007  0.0112  0.0010  0.0001  0.0013  0.0039  0.0026  0.0001 </r>
        <r>  0.0380  0.0004  0.0149  0.0008  0.0004  0.0039  0.0022  0.0115  0.0008 </r>
        <r>  0.0255  0.0007  0.0111  0.0010  0.0001  0.0014  0.0039  0.0026  0.0001 </r>
       </set>
      </set>
     </set>
    </set>
   </array>
  </projected>
 </calculation>
 <structure name="finalpos" >
  <crystal>
   <varray name="basis" >
    <v>       4.88034587      -2.81766900       0.00000000 </v>
    <v>       0.00000000       5.63533800       0.00000000 </v>
    <v>       0.00000000       0.00000000       9.29830770 </v>
   </varray>
   <i name="volume">    255.72576390 </i>
   <varray name="rec_basis" >
    <v>       0.20490351       0.00000000       0.00000000 </v>
    <v>       0.10245176       0.17745165       0.00000000 </v>
    <v>       0.00000000       0.00000000       0.10754645 </v>
   </varray>
  </crystal>
  <varray name="positions" >
   <v>       0.33333333       0.66666667       0.00000000 </v>
   <v>       0.33333333       0.16666667       0.00000000 </v>
   <v>       0.83333333       0.16666667       0.00000000 </v>
   <v>       0.83333333       0.66666667       0.00000000 </v>
   <v>       0.00000000       0.50000000       0.24895723 </v>
   <v>       0.00000000       0.00000000       0.24895723 </v>
   <v>       0.50000000       0.50000000       0.24895723 </v>
   <v>       0.50000000       0.00000000       0.24895723 </v>
   <v>       0.16666667       0.33333333       0.49802281 </v>
   <v>       0.66666667       0.33333333       0.49802281 </v>
   <v>       0.66666667       0.83333333       0.49802281 </v>
   <v>       0.16666667       0.83333333       0.49802281 </v>
  </varray>
  <varray name="selective"  type="logical" >
   <v type="logical" >  F  F  F </v>
   <v type="logical" >  F  F  F </v>
   <v type="logical" >  F  F  F </v>
   <v type="logical" >  F  F  F </v>
   <v type="logical" >  T  T  T </v>
   <v type="logical" >  T  T  T </v>
   <v type="logical" >  T  T  T </v>
   <v type="logical" >  T  T  T </v>
   <v type="logical" >  T  T  T </v>
   <v type="logical" >  T  T  T </v>
   <v type="logical" >  T  T  T </v>
   <v type="logical" >  T  T  T </v>
  </varray>
  <nose>
   <v>      -3.00000000       0.00000000       0.00010000       0.00010000 </v>
  </nose>
 </structure>
</modeling>
