   4   4   1   0
  0.1360301E+02  0.3789352E-09  0.3789352E-09  0.3789352E-09  0.3500000E-15
   1.0000000000000000E-004
  CAR 
 Au, FCC                                 
     13.27630246     -5.92376119  301      4.04667040      1.00000000
     -5.924  0.0000E+00  0.0000E+00  0.0000E+00  0.0000E+00  0.0000E+00  0.0000E+00  0.0000E+00  0.0000E+00  0.0000E+00
     -5.860  0.0000E+00  0.0000E+00  0.0000E+00  0.0000E+00  0.0000E+00  0.0000E+00  0.0000E+00  0.0000E+00  0.0000E+00
     -5.796  0.0000E+00  0.0000E+00  0.0000E+00  0.0000E+00  0.0000E+00  0.0000E+00  0.0000E+00  0.0000E+00  0.0000E+00
     -5.732  0.0000E+00  0.0000E+00  0.0000E+00  0.0000E+00  0.0000E+00  0.0000E+00  0.0000E+00  0.0000E+00  0.0000E+00
     -5.668  0.0000E+00  0.0000E+00  0.0000E+00  0.0000E+00  0.0000E+00  0.0000E+00  0.0000E+00  0.0000E+00  0.0000E+00
     -5.604  0.0000E+00  0.0000E+00  0.0000E+00  0.0000E+00  0.0000E+00  0.0000E+00  0.0000E+00  0.0000E+00  0.0000E+00
     -5.540  0.0000E+00  0.0000E+00  0.0000E+00  0.0000E+00  0.0000E+00  0.0000E+00  0.0000E+00  0.0000E+00  0.0000E+00
     -5.476  0.7557E-15  0.3896E-17  0.3896E-17  0.3895E-17  0.3206E-18  0.3206E-18  0.7854E-27  0.3206E-18  0.1835E-28
     -5.412  0.6608E-12  0.3407E-14  0.3407E-14  0.3407E-14  0.2804E-15  0.2804E-15  0.6869E-24  0.2804E-15  0.1605E-25
     -5.348  0.2587E-09  0.1334E-11  0.1334E-11  0.1333E-11  0.1098E-12  0.1098E-12  0.2689E-21  0.1098E-12  0.6283E-23
     -5.284  0.4545E-07  0.2343E-09  0.2343E-09  0.2343E-09  0.1928E-10  0.1928E-10  0.4724E-19  0.1928E-10  0.1104E-20
     -5.220  0.3600E-05  0.1856E-07  0.1856E-07  0.1856E-07  0.1527E-08  0.1527E-08  0.3742E-17  0.1527E-08  0.8743E-19
     -5.156  0.1292E-03  0.6662E-06  0.6662E-06  0.6662E-06  0.5483E-07  0.5483E-07  0.1343E-15  0.5483E-07  0.3139E-17
     -5.092  0.2116E-02  0.1091E-04  0.1091E-04  0.1091E-04  0.8977E-06  0.8977E-06  0.2199E-14  0.8977E-06  0.5139E-16
     -5.028  0.1591E-01  0.8199E-04  0.8199E-04  0.8199E-04  0.6748E-05  0.6748E-05  0.1653E-13  0.6748E-05  0.3863E-15
     -4.964  0.5526E-01  0.2849E-03  0.2849E-03  0.2849E-03  0.2344E-04  0.2344E-04  0.5743E-13  0.2344E-04  0.1342E-14
     -4.900  0.8914E-01  0.4595E-03  0.4595E-03  0.4595E-03  0.3782E-04  0.3782E-04  0.9265E-13  0.3782E-04  0.2165E-14
     -4.836  0.6690E-01  0.3449E-03  0.3449E-03  0.3449E-03  0.2839E-04  0.2839E-04  0.6960E-13  0.2839E-04  0.1808E-14
     -4.772  0.2334E-01  0.1203E-03  0.1203E-03  0.1203E-03  0.9901E-05  0.9901E-05  0.6763E-13  0.9901E-05  0.1307E-12
     -4.708  0.3767E-02  0.1942E-04  0.1942E-04  0.1942E-04  0.1598E-05  0.1598E-05  0.1379E-10  0.1598E-05  0.4136E-10
     -4.644  0.2801E-03  0.1444E-05  0.1444E-05  0.1459E-05  0.1206E-06  0.1190E-06  0.1969E-08  0.1206E-06  0.5907E-08
     -4.580  0.3812E-04  0.1986E-06  0.1986E-06  0.1204E-05  0.1307E-06  0.2390E-07  0.1269E-06  0.1307E-06  0.3808E-06
     -4.516  0.8380E-03  0.4382E-05  0.4382E-05  0.3379E-04  0.3707E-05  0.5818E-06  0.3714E-05  0.3707E-05  0.1114E-04
     -4.452  0.1120E-01  0.5858E-04  0.5858E-04  0.4517E-03  0.4956E-04  0.7777E-05  0.4966E-04  0.4956E-04  0.1490E-03
     -4.388  0.6888E-01  0.3602E-03  0.3602E-03  0.2778E-02  0.3048E-03  0.4782E-04  0.3054E-03  0.3048E-03  0.9161E-03
     -4.324  0.1960E+00  0.1025E-02  0.1025E-02  0.7905E-02  0.8673E-03  0.1361E-03  0.8690E-03  0.8673E-03  0.2607E-02
     -4.260  0.2593E+00  0.1356E-02  0.1356E-02  0.1045E-01  0.1147E-02  0.1800E-03  0.1149E-02  0.1147E-02  0.3448E-02
     -4.196  0.1595E+00  0.8343E-03  0.8343E-03  0.6433E-02  0.7058E-03  0.1108E-03  0.7072E-03  0.7058E-03  0.2122E-02
     -4.132  0.4558E-01  0.2384E-03  0.2384E-03  0.1838E-02  0.2017E-03  0.3165E-04  0.2021E-03  0.2017E-03  0.6062E-03
     -4.068  0.6018E-02  0.3148E-04  0.3147E-04  0.2427E-03  0.2663E-04  0.4179E-05  0.2668E-04  0.2663E-04  0.8003E-04
     -4.004  0.3776E-03  0.2440E-05  0.1973E-05  0.1524E-04  0.2288E-05  0.3502E-06  0.1887E-05  0.1711E-05  0.4852E-05
     -3.940  0.4473E-03  0.1819E-04  0.2269E-05  0.1854E-04  0.2304E-04  0.3314E-05  0.9235E-05  0.3351E-05  0.1341E-06
     -3.876  0.6804E-02  0.2822E-03  0.3449E-04  0.2822E-03  0.3579E-03  0.5146E-04  0.1430E-03  0.5146E-04  0.1681E-08
     -3.812  0.4864E-01  0.2017E-02  0.2465E-03  0.2017E-02  0.2558E-02  0.3678E-03  0.1022E-02  0.3678E-03  0.9492E-11
     -3.748  0.1607E+00  0.6666E-02  0.8148E-03  0.6666E-02  0.8455E-02  0.1216E-02  0.3379E-02  0.1216E-02  0.2248E-12
     -3.684  0.2467E+00  0.1023E-01  0.1250E-02  0.1023E-01  0.1298E-01  0.1866E-02  0.5185E-02  0.1866E-02  0.8454E-10
     -3.620  0.1762E+00  0.7307E-02  0.8930E-03  0.7307E-02  0.9267E-02  0.1332E-02  0.3703E-02  0.1332E-02  0.1603E-07
     -3.556  0.5846E-01  0.2424E-02  0.2963E-03  0.2425E-02  0.3075E-02  0.4421E-03  0.1229E-02  0.4422E-03  0.1370E-05
     -3.492  0.9261E-02  0.3738E-03  0.4720E-04  0.3852E-03  0.4749E-03  0.6882E-04  0.2063E-03  0.7081E-04  0.5304E-04
     -3.428  0.5799E-02  0.5920E-04  0.3616E-04  0.2603E-03  0.9149E-04  0.2781E-04  0.3252E-03  0.6297E-04  0.9358E-03
     -3.364  0.4284E-01  0.3080E-03  0.3073E-03  0.1936E-02  0.5643E-03  0.2788E-03  0.2526E-02  0.5634E-03  0.7576E-02
     -3.300  0.1671E+00  0.1433E-02  0.1433E-02  0.7521E-02  0.2756E-02  0.1691E-02  0.9443E-02  0.2755E-02  0.2833E-01
     -3.236  0.3127E+00  0.3417E-02  0.3417E-02  0.1398E-01  0.6900E-02  0.5053E-02  0.1639E-01  0.6900E-02  0.4917E-01
     -3.172  0.2871E+00  0.4169E-02  0.4169E-02  0.1270E-01  0.8788E-02  0.7296E-02  0.1324E-01  0.8788E-02  0.3971E-01
     -3.108  0.1322E+00  0.2565E-02  0.2565E-02  0.5767E-02  0.5577E-02  0.5017E-02  0.4968E-02  0.5577E-02  0.1491E-01
     -3.044  0.3106E-01  0.7759E-03  0.7757E-03  0.1333E-02  0.1723E-02  0.1625E-02  0.8643E-03  0.1722E-02  0.2591E-02
     -2.980  0.3965E-02  0.1227E-03  0.1137E-03  0.1714E-03  0.2980E-03  0.2513E-03  0.1045E-03  0.2577E-03  0.2300E-03
     -2.916  0.5318E-02  0.2199E-03  0.3209E-04  0.3078E-03  0.9568E-03  0.1466E-03  0.7392E-03  0.1191E-03  0.4825E-03
     -2.852  0.4855E-01  0.2022E-02  0.2330E-03  0.2845E-02  0.8951E-02  0.1235E-02  0.7019E-02  0.9701E-03  0.4525E-02
     -2.788  0.2133E+00  0.8886E-02  0.1023E-02  0.1250E-01  0.3933E-01  0.5424E-02  0.3084E-01  0.4261E-02  0.1988E-01
     -2.724  0.4348E+00  0.1811E-01  0.2084E-02  0.2548E-01  0.8016E-01  0.1106E-01  0.6287E-01  0.8684E-02  0.4052E-01
     -2.660  0.4122E+00  0.1717E-01  0.1977E-02  0.2415E-01  0.7601E-01  0.1049E-01  0.5960E-01  0.8247E-02  0.3842E-01
     -2.596  0.1826E+00  0.7603E-02  0.9042E-03  0.1072E-01  0.3388E-01  0.4911E-02  0.2630E-01  0.4004E-02  0.1702E-01
     -2.532  0.4721E-01  0.1932E-02  0.5635E-03  0.3008E-02  0.1123E-01  0.4337E-02  0.5706E-02  0.5123E-02  0.4471E-02
     -2.468  0.5777E-01  0.2221E-02  0.2092E-02  0.4688E-02  0.2423E-01  0.1836E-01  0.2319E-02  0.2365E-01  0.5765E-02
     -2.404  0.1355E+00  0.5181E-02  0.5175E-02  0.1119E-01  0.5885E-01  0.4555E-01  0.4543E-02  0.5881E-01  0.1358E-01
     -2.340  0.1570E+00  0.6007E-02  0.5999E-02  0.1297E-01  0.6875E-01  0.5283E-01  0.5262E-02  0.6820E-01  0.1572E-01
     -2.276  0.8586E-01  0.3391E-02  0.3246E-02  0.7146E-02  0.4792E-01  0.2915E-01  0.3204E-02  0.3744E-01  0.8480E-02
     -2.212  0.3198E-01  0.2202E-02  0.9212E-03  0.3142E-02  0.1110E+00  0.1481E-01  0.3867E-02  0.1688E-01  0.2130E-02
     -2.148  0.4654E-01  0.5950E-02  0.6519E-03  0.6058E-02  0.4412E+00  0.4301E-01  0.1257E-01  0.4325E-01  0.5341E-03
     -2.084  0.8507E-01  0.1171E-01  0.1352E-02  0.1171E-01  0.9152E+00  0.1181E+00  0.2687E-01  0.1181E+00  0.4868E-02
     -2.020  0.7770E-01  0.1129E-01  0.1674E-02  0.1132E-01  0.9507E+00  0.1911E+00  0.5625E-01  0.1911E+00  0.3769E-01
     -1.956  0.3444E-01  0.5601E-02  0.1354E-02  0.6280E-02  0.5517E+00  0.2051E+00  0.1440E+00  0.2056E+00  0.1367E+00
     -1.892  0.1539E-01  0.2096E-02  0.1157E-02  0.9270E-02  0.2589E+00  0.1528E+00  0.2502E+00  0.1575E+00  0.2447E+00
     -1.828  0.5409E-01  0.2271E-02  0.1796E-02  0.3845E-01  0.3504E+00  0.1399E+00  0.3468E+00  0.1620E+00  0.2946E+00
     -1.764  0.1762E+00  0.5776E-02  0.4098E-02  0.9507E-01  0.8916E+00  0.2889E+00  0.6957E+00  0.3401E+00  0.4649E+00
     -1.700  0.3100E+00  0.1082E-01  0.6455E-02  0.1226E+00  0.1336E+01  0.5120E+00  0.1231E+01  0.5748E+00  0.7603E+00
     -1.636  0.2907E+00  0.1271E-01  0.5863E-02  0.8701E-01  0.1107E+01  0.5829E+00  0.1368E+01  0.6483E+00  0.7670E+00
     -1.572  0.1431E+00  0.9910E-02  0.3730E-02  0.3689E-01  0.7009E+00  0.4157E+00  0.1130E+01  0.5643E+00  0.4636E+00
     -1.508  0.3686E-01  0.7372E-02  0.3033E-02  0.1210E-01  0.5925E+00  0.2234E+00  0.9537E+00  0.5416E+00  0.3740E+00
     -1.444  0.5213E-02  0.9390E-02  0.3036E-02  0.8914E-02  0.5072E+00  0.1660E+00  0.8478E+00  0.5111E+00  0.6205E+00
     -1.380  0.4765E-03  0.1183E-01  0.1948E-02  0.1110E-01  0.2641E+00  0.1384E+00  0.5400E+00  0.3160E+00  0.7630E+00
     -1.316  0.3310E-03  0.9962E-02  0.6735E-03  0.9169E-02  0.1005E+00  0.1131E+00  0.2569E+00  0.1712E+00  0.5572E+00
     -1.252  0.1616E-02  0.1030E-01  0.3216E-03  0.7883E-02  0.1539E+00  0.2258E+00  0.3705E+00  0.2906E+00  0.3941E+00
     -1.188  0.8356E-02  0.1580E-01  0.5819E-03  0.1139E-01  0.3906E+00  0.5734E+00  0.6932E+00  0.6680E+00  0.4706E+00
     -1.124  0.4666E-01  0.1819E-01  0.1212E-02  0.1559E-01  0.8325E+00  0.1145E+01  0.7966E+00  0.1307E+01  0.4447E+00
     -1.060  0.1621E+00  0.1805E-01  0.2497E-02  0.2117E-01  0.1468E+01  0.1879E+01  0.8806E+00  0.2336E+01  0.3091E+00
     -0.996  0.3011E+00  0.1774E-01  0.4044E-02  0.2437E-01  0.1785E+01  0.2657E+01  0.1088E+01  0.3011E+01  0.2918E+00
     -0.932  0.3311E+00  0.1511E-01  0.5669E-02  0.1940E-01  0.1446E+01  0.3355E+01  0.1125E+01  0.2485E+01  0.4077E+00
     -0.868  0.2602E+00  0.1177E-01  0.7060E-02  0.1373E-01  0.9453E+00  0.3380E+01  0.1056E+01  0.1494E+01  0.5290E+00
     -0.804  0.1566E+00  0.7409E-02  0.5693E-02  0.1272E-01  0.7088E+00  0.2180E+01  0.7664E+00  0.9112E+00  0.4206E+00
     -0.740  0.7082E-01  0.3035E-02  0.2560E-02  0.1191E-01  0.5718E+00  0.8059E+00  0.3230E+00  0.6242E+00  0.1825E+00
     -0.676  0.3594E-01  0.1400E-02  0.7771E-03  0.1332E-01  0.3522E+00  0.1993E+00  0.1368E+00  0.3823E+00  0.7494E-01
     -0.612  0.6063E-01  0.3083E-02  0.7676E-03  0.3347E-01  0.3024E+00  0.8009E-01  0.3667E+00  0.4018E+00  0.1439E+00
     -0.548  0.1267E+00  0.6228E-02  0.2126E-02  0.6305E-01  0.4433E+00  0.9827E-01  0.9030E+00  0.6383E+00  0.2704E+00
     -0.484  0.1439E+00  0.6580E-02  0.3294E-02  0.5807E-01  0.3976E+00  0.9240E-01  0.1130E+01  0.5776E+00  0.2600E+00
     -0.420  0.8453E-01  0.6460E-02  0.2516E-02  0.2878E-01  0.1746E+00  0.5381E-01  0.7207E+00  0.2626E+00  0.2394E+00
     -0.356  0.3832E-01  0.1363E-01  0.1413E-02  0.2099E-01  0.5730E-01  0.5487E-01  0.3282E+00  0.1169E+00  0.5951E+00
     -0.292  0.4043E-01  0.2233E-01  0.1612E-02  0.3001E-01  0.5764E-01  0.7954E-01  0.3615E+00  0.1347E+00  0.1249E+01
     -0.228  0.4679E-01  0.1899E-01  0.1795E-02  0.2695E-01  0.5958E-01  0.6799E-01  0.4654E+00  0.1243E+00  0.1589E+01
     -0.164  0.3995E-01  0.9805E-02  0.1087E-02  0.1382E-01  0.3030E-01  0.3837E-01  0.3147E+00  0.6680E-01  0.1470E+01
     -0.100  0.5067E-01  0.4993E-02  0.7116E-03  0.5933E-02  0.8097E-02  0.2036E-01  0.1073E+00  0.2718E-01  0.1021E+01
     -0.036  0.1081E+00  0.6171E-02  0.1908E-02  0.6441E-02  0.9208E-02  0.1142E-01  0.4476E-01  0.1430E-01  0.4842E+00
      0.028  0.2136E+00  0.1809E-01  0.5266E-02  0.2007E-01  0.4270E-01  0.1892E-01  0.1057E+00  0.3359E-01  0.3505E+00
      0.092  0.3054E+00  0.3751E-01  0.1013E-01  0.4599E-01  0.1153E+00  0.4531E-01  0.2122E+00  0.9450E-01  0.5660E+00
      0.156  0.2770E+00  0.4094E-01  0.1231E-01  0.5677E-01  0.1607E+00  0.6023E-01  0.2364E+00  0.1414E+00  0.6406E+00
      0.220  0.1501E+00  0.2254E-01  0.8313E-02  0.3591E-01  0.1127E+00  0.3988E-01  0.1485E+00  0.1044E+00  0.4137E+00
      0.284  0.4717E-01  0.6257E-02  0.2870E-02  0.1144E-01  0.3889E-01  0.1301E-01  0.5239E-01  0.3727E-01  0.1511E+00
      0.348  0.8177E-02  0.1704E-02  0.4893E-03  0.2626E-02  0.6514E-02  0.2960E-02  0.9870E-02  0.7229E-02  0.4544E-01
      0.412  0.7468E-03  0.5518E-02  0.1307E-03  0.5593E-02  0.1519E-02  0.6797E-02  0.9366E-03  0.7144E-02  0.1056E+00
      0.476  0.1876E-03  0.1705E-01  0.8261E-03  0.1706E-01  0.9036E-02  0.2715E-01  0.1157E-03  0.2716E-01  0.2943E+00
      0.540  0.8876E-03  0.2871E-01  0.3550E-02  0.2888E-01  0.3720E-01  0.6948E-01  0.7576E-03  0.6949E-01  0.3927E+00
      0.604  0.4061E-02  0.3134E-01  0.8428E-02  0.3303E-01  0.7251E-01  0.1075E+00  0.6050E-02  0.1075E+00  0.2594E+00
      0.668  0.1452E-01  0.3155E-01  0.1601E-01  0.3952E-01  0.7289E-01  0.9575E-01  0.2928E-01  0.9454E-01  0.1653E+00
      0.732  0.3132E-01  0.4207E-01  0.2983E-01  0.6222E-01  0.5560E-01  0.7004E-01  0.8054E-01  0.6238E-01  0.3042E+00
      0.796  0.3811E-01  0.5693E-01  0.4148E-01  0.8672E-01  0.6026E-01  0.8418E-01  0.1293E+00  0.6162E-01  0.5296E+00
      0.860  0.2834E-01  0.6257E-01  0.4032E-01  0.9002E-01  0.8369E-01  0.1203E+00  0.1233E+00  0.7850E-01  0.5456E+00
      0.924  0.1592E-01  0.6448E-01  0.4266E-01  0.8319E-01  0.1087E+00  0.1685E+00  0.7980E-01  0.1218E+00  0.3506E+00
      0.988  0.1201E-01  0.7193E-01  0.7114E-01  0.7568E-01  0.1286E+00  0.1988E+00  0.5281E-01  0.1841E+00  0.1950E+00
      1.052  0.1611E-01  0.7676E-01  0.1145E+00  0.5999E-01  0.1738E+00  0.1757E+00  0.3891E-01  0.2034E+00  0.1086E+00
      1.116  0.1840E-01  0.6538E-01  0.1167E+00  0.4448E-01  0.2246E+00  0.1295E+00  0.3084E-01  0.1790E+00  0.6449E-01
      1.180  0.1305E-01  0.5210E-01  0.7182E-01  0.3745E-01  0.2519E+00  0.8766E-01  0.4005E-01  0.1685E+00  0.1009E+00
      1.244  0.7440E-02  0.5539E-01  0.4478E-01  0.3842E-01  0.2728E+00  0.6166E-01  0.6492E-01  0.1884E+00  0.1687E+00
      1.308  0.5797E-02  0.5845E-01  0.4761E-01  0.3901E-01  0.2343E+00  0.6015E-01  0.8951E-01  0.1842E+00  0.1699E+00
      1.372  0.6994E-02  0.5259E-01  0.6229E-01  0.4143E-01  0.1414E+00  0.6891E-01  0.9641E-01  0.1465E+00  0.1371E+00
      1.436  0.8936E-02  0.5427E-01  0.8051E-01  0.4953E-01  0.7926E-01  0.7157E-01  0.8856E-01  0.1203E+00  0.1566E+00
      1.500  0.1083E-01  0.5851E-01  0.7243E-01  0.5046E-01  0.7382E-01  0.7558E-01  0.9452E-01  0.1293E+00  0.2413E+00
      1.564  0.1394E-01  0.5068E-01  0.4293E-01  0.3716E-01  0.8503E-01  0.8689E-01  0.1068E+00  0.1592E+00  0.3625E+00
      1.628  0.1451E-01  0.4333E-01  0.2670E-01  0.2288E-01  0.7979E-01  0.1041E+00  0.1097E+00  0.1927E+00  0.5135E+00
      1.692  0.9366E-02  0.4150E-01  0.2578E-01  0.1362E-01  0.6204E-01  0.1089E+00  0.1136E+00  0.1865E+00  0.5742E+00
      1.756  0.4694E-02  0.3350E-01  0.2531E-01  0.1034E-01  0.4703E-01  0.9188E-01  0.1238E+00  0.1304E+00  0.4239E+00
      1.820  0.4202E-02  0.2393E-01  0.2204E-01  0.1503E-01  0.4712E-01  0.7929E-01  0.1522E+00  0.9446E-01  0.2317E+00
      1.884  0.6135E-02  0.2195E-01  0.2110E-01  0.2947E-01  0.5850E-01  0.6967E-01  0.2065E+00  0.9388E-01  0.1617E+00
      1.948  0.8687E-02  0.2233E-01  0.1956E-01  0.4581E-01  0.6031E-01  0.5332E-01  0.2787E+00  0.8899E-01  0.1717E+00
      2.012  0.8594E-02  0.1692E-01  0.1253E-01  0.4249E-01  0.4559E-01  0.5743E-01  0.3334E+00  0.8565E-01  0.1705E+00
      2.076  0.6624E-02  0.9960E-02  0.6052E-02  0.2394E-01  0.3074E-01  0.9457E-01  0.2989E+00  0.1177E+00  0.1562E+00
      2.140  0.1089E-01  0.8748E-02  0.6694E-02  0.1738E-01  0.3544E-01  0.1210E+00  0.2298E+00  0.1784E+00  0.1921E+00
      2.204  0.2283E-01  0.1419E-01  0.1368E-01  0.2780E-01  0.6653E-01  0.1134E+00  0.2186E+00  0.2307E+00  0.2622E+00
      2.268  0.2910E-01  0.1898E-01  0.1904E-01  0.3452E-01  0.1096E+00  0.1436E+00  0.2210E+00  0.2310E+00  0.2466E+00
      2.332  0.2355E-01  0.1697E-01  0.1690E-01  0.2632E-01  0.1537E+00  0.3288E+00  0.2584E+00  0.2185E+00  0.2054E+00
      2.396  0.1647E-01  0.1202E-01  0.1196E-01  0.1567E-01  0.1904E+00  0.5955E+00  0.3336E+00  0.2783E+00  0.2533E+00
      2.460  0.9769E-02  0.6915E-02  0.7303E-02  0.8347E-02  0.2032E+00  0.6635E+00  0.3403E+00  0.3554E+00  0.2898E+00
      2.524  0.3780E-02  0.3013E-02  0.3584E-02  0.3350E-02  0.1963E+00  0.5555E+00  0.2640E+00  0.3353E+00  0.2305E+00
      2.588  0.1984E-02  0.1816E-02  0.1855E-02  0.1408E-02  0.1666E+00  0.5643E+00  0.1589E+00  0.2272E+00  0.1314E+00
      2.652  0.5681E-02  0.3508E-02  0.2065E-02  0.2768E-02  0.1303E+00  0.6489E+00  0.8478E-01  0.1275E+00  0.5783E-01
      2.716  0.1344E-01  0.6753E-02  0.2988E-02  0.6284E-02  0.1044E+00  0.4700E+00  0.6855E-01  0.6322E-01  0.2053E-01
      2.780  0.1952E-01  0.8140E-02  0.2860E-02  0.9098E-02  0.8140E-01  0.1699E+00  0.7161E-01  0.2222E-01  0.5639E-02
      2.844  0.3087E-01  0.8946E-02  0.1760E-02  0.1633E-01  0.9189E-01  0.2951E-01  0.8835E-01  0.5369E-02  0.3112E-02
      2.908  0.5384E-01  0.1222E-01  0.1296E-02  0.3437E-01  0.1588E+00  0.3058E-02  0.1309E+00  0.3255E-02  0.6996E-02
      2.972  0.5939E-01  0.1226E-01  0.1364E-02  0.4372E-01  0.1852E+00  0.9769E-03  0.1311E+00  0.5003E-02  0.1071E-01
      3.036  0.3891E-01  0.7689E-02  0.1967E-02  0.3333E-01  0.1173E+00  0.9361E-03  0.7166E-01  0.1135E-01  0.1437E-01
      3.100  0.2818E-01  0.5731E-02  0.4226E-02  0.3004E-01  0.5874E-01  0.1489E-02  0.2671E-01  0.2867E-01  0.2743E-01
      3.164  0.2894E-01  0.6030E-02  0.5837E-02  0.3357E-01  0.4446E-01  0.1951E-02  0.1465E-01  0.4043E-01  0.3719E-01
      3.228  0.2078E-01  0.3966E-02  0.3955E-02  0.2511E-01  0.2864E-01  0.1293E-02  0.8985E-02  0.2838E-01  0.2655E-01
      3.292  0.1910E-01  0.1614E-02  0.1614E-02  0.2712E-01  0.1709E-01  0.4023E-03  0.6336E-02  0.1709E-01  0.1900E-01
      3.356  0.3736E-01  0.1287E-02  0.1287E-02  0.5672E-01  0.2506E-01  0.6042E-04  0.1070E-01  0.2506E-01  0.3211E-01
      3.420  0.4645E-01  0.1431E-02  0.1425E-02  0.7088E-01  0.3037E-01  0.7361E-05  0.1315E-01  0.3037E-01  0.3946E-01
      3.484  0.2741E-01  0.9891E-03  0.8355E-03  0.4199E-01  0.1790E-01  0.3177E-05  0.7757E-02  0.1790E-01  0.2331E-01
      3.548  0.7518E-02  0.2192E-02  0.2291E-03  0.1344E-01  0.4909E-02  0.1500E-04  0.2127E-02  0.4924E-02  0.6944E-02
      3.612  0.9526E-03  0.1224E-01  0.2942E-04  0.1367E-01  0.6220E-03  0.1153E-03  0.2698E-03  0.7373E-03  0.4556E-02
      3.676  0.5560E-04  0.3931E-01  0.2034E-04  0.3940E-01  0.3672E-04  0.5210E-03  0.2608E-04  0.5571E-03  0.1357E-01
      3.740  0.1364E-04  0.7027E-01  0.3992E-03  0.7027E-01  0.2462E-04  0.1304E-02  0.2276E-03  0.1305E-02  0.2781E-01
      3.804  0.3589E-03  0.7435E-01  0.3935E-02  0.7435E-01  0.5877E-03  0.1873E-02  0.2410E-02  0.1873E-02  0.3335E-01
      3.868  0.5183E-02  0.5667E-01  0.1821E-01  0.5667E-01  0.7834E-02  0.2911E-02  0.1394E-01  0.2911E-02  0.2806E-01
      3.932  0.3617E-01  0.5055E-01  0.4145E-01  0.5054E-01  0.5284E-01  0.8239E-02  0.5225E-01  0.8239E-02  0.2557E-01
      3.996  0.1207E+00  0.4660E-01  0.5205E-01  0.4659E-01  0.1741E+00  0.1701E-01  0.1315E+00  0.1701E-01  0.2043E-01
      4.060  0.1910E+00  0.3043E-01  0.4318E-01  0.3043E-01  0.2752E+00  0.1872E-01  0.1910E+00  0.1872E-01  0.8956E-02
      4.124  0.1428E+00  0.1374E-01  0.2465E-01  0.1374E-01  0.2064E+00  0.1079E-01  0.1405E+00  0.1079E-01  0.1952E-02
      4.188  0.5010E-01  0.5155E-02  0.8211E-02  0.5154E-02  0.7286E-01  0.3324E-02  0.4942E-01  0.3325E-02  0.1568E-02
      4.252  0.8225E-02  0.1038E-01  0.1379E-02  0.1038E-01  0.1205E-01  0.1217E-02  0.8152E-02  0.1217E-02  0.1057E-01
      4.316  0.1287E-02  0.3458E-01  0.1209E-03  0.3458E-01  0.1827E-02  0.2623E-02  0.9107E-03  0.2623E-02  0.3715E-01
      4.380  0.7440E-02  0.5748E-01  0.1315E-03  0.5748E-01  0.1017E-01  0.4521E-02  0.3250E-02  0.4521E-02  0.6067E-01
      4.444  0.3806E-01  0.4920E-01  0.6542E-03  0.4919E-01  0.5199E-01  0.4946E-02  0.1656E-01  0.4946E-02  0.4610E-01
      4.508  0.9048E-01  0.3049E-01  0.1555E-02  0.3049E-01  0.1236E+00  0.5338E-02  0.3938E-01  0.5338E-02  0.1628E-01
      4.572  0.1000E+00  0.1950E-01  0.1719E-02  0.1950E-01  0.1366E+00  0.4846E-02  0.4352E-01  0.4846E-02  0.2660E-02
      4.636  0.5143E-01  0.8943E-02  0.8838E-03  0.8943E-02  0.7025E-01  0.2412E-02  0.2238E-01  0.2412E-02  0.2000E-03
      4.700  0.1227E-01  0.2095E-02  0.2108E-03  0.2095E-02  0.1676E-01  0.5725E-03  0.5339E-02  0.5725E-03  0.6868E-05
      4.764  0.1350E-02  0.2301E-03  0.2322E-04  0.2301E-03  0.1845E-02  0.6304E-04  0.5876E-03  0.6304E-04  0.1155E-06
      4.828  0.7658E-04  0.1251E-04  0.2080E-05  0.1251E-04  0.9718E-04  0.7281E-05  0.3038E-04  0.7281E-05  0.7325E-06
      4.892  0.2201E-03  0.3384E-04  0.3358E-04  0.3384E-04  0.1113E-03  0.1092E-03  0.2939E-04  0.1092E-03  0.2867E-04
      4.956  0.2588E-02  0.5774E-03  0.5760E-03  0.5774E-03  0.1349E-02  0.1343E-02  0.5149E-03  0.1342E-02  0.5118E-03
      5.020  0.1414E-01  0.4670E-02  0.4626E-02  0.4670E-02  0.7928E-02  0.7736E-02  0.4288E-02  0.7736E-02  0.4192E-02
      5.084  0.3618E-01  0.1833E-01  0.1772E-01  0.1833E-01  0.2384E-01  0.2113E-01  0.1721E-01  0.2113E-01  0.1586E-01
      5.148  0.4568E-01  0.3822E-01  0.3427E-01  0.3822E-01  0.4535E-01  0.2773E-01  0.3657E-01  0.2773E-01  0.2785E-01
      5.212  0.3494E-01  0.5041E-01  0.3842E-01  0.5041E-01  0.7201E-01  0.1797E-01  0.4902E-01  0.1797E-01  0.2275E-01
      5.276  0.2616E-01  0.4851E-01  0.3015E-01  0.4851E-01  0.9470E-01  0.6536E-02  0.4664E-01  0.6536E-02  0.8679E-02
      5.340  0.3122E-01  0.4083E-01  0.2108E-01  0.4083E-01  0.1212E+00  0.3562E-02  0.3314E-01  0.3562E-02  0.2011E-02
      5.404  0.4988E-01  0.5017E-01  0.2717E-01  0.5017E-01  0.1734E+00  0.6718E-02  0.2646E-01  0.6718E-02  0.2885E-02
      5.468  0.5179E-01  0.6539E-01  0.4495E-01  0.6539E-01  0.1656E+00  0.9667E-02  0.2482E-01  0.9667E-02  0.7188E-02
      5.532  0.2683E-01  0.5435E-01  0.4474E-01  0.5417E-01  0.8001E-01  0.7461E-02  0.1664E-01  0.7451E-02  0.8734E-02
      5.596  0.9875E-02  0.2818E-01  0.2280E-01  0.2515E-01  0.2170E-01  0.3219E-02  0.7916E-02  0.3049E-02  0.5723E-02
      5.660  0.2685E-01  0.3194E-01  0.6166E-02  0.8703E-02  0.2461E-01  0.1987E-02  0.1163E-01  0.6858E-03  0.7705E-02
      5.724  0.9256E-01  0.9316E-01  0.2548E-02  0.1082E-01  0.7944E-01  0.4808E-02  0.3626E-01  0.1975E-03  0.2293E-01
      5.788  0.1522E+00  0.1522E+00  0.3144E-02  0.1676E-01  0.1305E+00  0.7814E-02  0.5939E-01  0.2395E-03  0.3749E-01
      5.852  0.1171E+00  0.1165E+00  0.2464E-02  0.1338E-01  0.1004E+00  0.6292E-02  0.4547E-01  0.6867E-03  0.2874E-01
      5.916  0.4677E-01  0.4221E-01  0.1640E-02  0.9948E-02  0.4022E-01  0.5043E-02  0.1636E-01  0.4767E-02  0.1075E-01
      5.980  0.2886E-01  0.1040E-01  0.3720E-02  0.2304E-01  0.2532E-01  0.1240E-01  0.3718E-02  0.1948E-01  0.4030E-02
      6.044  0.4270E-01  0.1119E-01  0.1068E-01  0.4273E-01  0.3815E-01  0.2310E-01  0.5517E-02  0.3771E-01  0.5725E-02
      6.108  0.3758E-01  0.3169E-01  0.3167E-01  0.3800E-01  0.3616E-01  0.2054E-01  0.2389E-01  0.3615E-01  0.1137E-01
      6.172  0.1555E-01  0.7285E-01  0.7285E-01  0.1573E-01  0.2189E-01  0.8505E-02  0.6148E-01  0.2189E-01  0.2191E-01
      6.236  0.2983E-02  0.8889E-01  0.8889E-01  0.3018E-02  0.1288E-01  0.1631E-02  0.7650E-01  0.1288E-01  0.2577E-01
      6.300  0.2635E-03  0.5162E-01  0.5162E-01  0.2666E-03  0.6209E-02  0.1441E-03  0.4456E-01  0.6209E-02  0.1488E-01
      6.364  0.1220E-04  0.1397E-01  0.1397E-01  0.1093E-04  0.1628E-02  0.6318E-05  0.1206E-01  0.1628E-02  0.4021E-02
      6.428  0.5847E-04  0.1816E-02  0.1816E-02  0.6091E-05  0.2336E-03  0.1855E-04  0.1510E-02  0.2336E-03  0.5100E-03
      6.492  0.9977E-03  0.1300E-02  0.1300E-02  0.1009E-03  0.5462E-03  0.3157E-03  0.1299E-03  0.5462E-03  0.1561E-03
      6.556  0.7840E-02  0.9527E-02  0.9527E-02  0.7929E-03  0.4238E-02  0.2481E-02  0.3713E-03  0.4238E-02  0.1010E-02
      6.620  0.2846E-01  0.3612E-01  0.3612E-01  0.2878E-02  0.1595E-01  0.9007E-02  0.1785E-02  0.1595E-01  0.3813E-02
      6.684  0.4797E-01  0.7203E-01  0.7203E-01  0.4851E-02  0.3099E-01  0.1518E-01  0.6228E-02  0.3099E-01  0.7500E-02
      6.748  0.3761E-01  0.9383E-01  0.9383E-01  0.3804E-02  0.3807E-01  0.1190E-01  0.1566E-01  0.3807E-01  0.9472E-02
      6.812  0.1374E-01  0.9234E-01  0.9234E-01  0.1388E-02  0.3530E-01  0.4338E-02  0.2248E-01  0.3530E-01  0.9044E-02
      6.876  0.3191E-02  0.5781E-01  0.5781E-01  0.2665E-03  0.2152E-01  0.7422E-03  0.1597E-01  0.2151E-01  0.5584E-02
      6.940  0.9954E-02  0.1910E-01  0.1910E-01  0.3806E-03  0.7035E-02  0.1723E-03  0.5351E-02  0.7034E-02  0.1804E-02
      7.004  0.5010E-01  0.4747E-02  0.4749E-02  0.1858E-02  0.1655E-02  0.5937E-03  0.8325E-03  0.1650E-02  0.2782E-03
      7.068  0.1190E+00  0.4611E-02  0.4615E-02  0.4411E-02  0.1474E-02  0.1405E-02  0.5961E-04  0.1463E-02  0.1988E-04
      7.132  0.1313E+00  0.4870E-02  0.4875E-02  0.4871E-02  0.1546E-02  0.1551E-02  0.1995E-05  0.1533E-02  0.6582E-06
      7.196  0.6748E-01  0.2506E-02  0.2501E-02  0.2508E-02  0.8094E-03  0.7969E-03  0.3057E-05  0.7865E-03  0.5135E-06
      7.260  0.1631E-01  0.8414E-03  0.6166E-03  0.7901E-03  0.6866E-03  0.1908E-03  0.9192E-04  0.1907E-03  0.1529E-04
      7.324  0.4986E-02  0.3479E-02  0.3538E-03  0.2755E-02  0.6921E-02  0.3417E-04  0.1275E-02  0.6679E-04  0.2120E-03
      7.388  0.2061E-01  0.2177E-01  0.1843E-02  0.1715E-01  0.4400E-01  0.8607E-04  0.8128E-02  0.2958E-03  0.1352E-02
      7.452  0.6055E-01  0.6421E-01  0.5470E-02  0.5059E-01  0.1298E+00  0.2636E-03  0.2399E-01  0.8824E-03  0.3988E-02
      7.516  0.8313E-01  0.8806E-01  0.8467E-02  0.6939E-01  0.1779E+00  0.6482E-03  0.3308E-01  0.1496E-02  0.5467E-02
      7.580  0.5439E-01  0.5662E-01  0.1535E-01  0.4471E-01  0.1135E+00  0.3357E-02  0.2309E-01  0.3898E-02  0.3487E-02
      7.644  0.2257E-01  0.1889E-01  0.5165E-01  0.1536E-01  0.3363E-01  0.1493E-01  0.1629E-01  0.1509E-01  0.1033E-02
      7.708  0.1728E-01  0.7242E-02  0.1105E+00  0.6759E-02  0.4629E-02  0.3265E-01  0.2298E-01  0.3268E-01  0.1414E-03
      7.772  0.1559E-01  0.5214E-02  0.1127E+00  0.5184E-02  0.3164E-03  0.3334E-01  0.2265E-01  0.3334E-01  0.8898E-05
      7.836  0.7430E-02  0.2422E-02  0.5352E-01  0.2420E-02  0.2417E-04  0.1585E-01  0.1074E-01  0.1584E-01  0.5613E-06
      7.900  0.3662E-02  0.7445E-03  0.1212E-01  0.7228E-03  0.8588E-04  0.3878E-02  0.2388E-02  0.3589E-02  0.6872E-05
      7.964  0.2270E-01  0.2255E-02  0.5247E-02  0.2031E-02  0.1076E-02  0.4686E-02  0.6137E-03  0.1719E-02  0.7059E-04
      8.028  0.1178E+00  0.1045E-01  0.2403E-01  0.9388E-02  0.6719E-02  0.2290E-01  0.2682E-02  0.8851E-02  0.3354E-03
      8.092  0.2963E+00  0.2332E-01  0.6900E-01  0.2074E-01  0.2035E-01  0.5823E-01  0.8904E-02  0.2749E-01  0.7646E-03
      8.156  0.3654E+00  0.2733E-01  0.9902E-01  0.2211E-01  0.3106E-01  0.7258E-01  0.1394E-01  0.4215E-01  0.1092E-02
      8.220  0.2401E+00  0.3053E-01  0.8294E-01  0.1493E-01  0.3099E-01  0.4822E-01  0.1062E-01  0.3747E-01  0.2105E-02
      8.284  0.1240E+00  0.4832E-01  0.6653E-01  0.1389E-01  0.3836E-01  0.3106E-01  0.4895E-02  0.3133E-01  0.4247E-02
      8.348  0.7711E-01  0.5437E-01  0.5836E-01  0.1381E-01  0.5292E-01  0.3948E-01  0.3446E-02  0.2721E-01  0.5007E-02
      8.412  0.3558E-01  0.4952E-01  0.5121E-01  0.7941E-02  0.5328E-01  0.4098E-01  0.8576E-02  0.2092E-01  0.4907E-02
      8.476  0.8309E-02  0.6993E-01  0.7079E-01  0.2454E-02  0.4306E-01  0.2216E-01  0.2067E-01  0.2440E-01  0.7381E-02
      8.540  0.9063E-03  0.7971E-01  0.7994E-01  0.4227E-03  0.3155E-01  0.5774E-02  0.2533E-01  0.2656E-01  0.8496E-02
      8.604  0.4539E-04  0.4567E-01  0.4569E-01  0.4038E-04  0.1643E-01  0.7056E-03  0.1461E-01  0.1581E-01  0.4873E-02
      8.668  0.1036E-05  0.1339E-01  0.1339E-01  0.2015E-05  0.1158E-01  0.3982E-04  0.4368E-02  0.1155E-01  0.1456E-02
      8.732  0.1222E-07  0.7109E-02  0.7102E-02  0.4991E-07  0.3496E-01  0.1029E-05  0.2659E-02  0.3498E-01  0.8870E-03
      8.796  0.3264E-08  0.1199E-01  0.1197E-01  0.2025E-08  0.7317E-01  0.1533E-07  0.4652E-02  0.7321E-01  0.1552E-02
      8.860  0.4221E-08  0.1175E-01  0.1173E-01  0.1534E-08  0.7220E-01  0.3949E-08  0.4566E-02  0.7224E-01  0.1523E-02
      8.924  0.1503E-06  0.5393E-02  0.5386E-02  0.1307E-07  0.3315E-01  0.8932E-07  0.2096E-02  0.3316E-01  0.6991E-03
      8.988  0.9509E-05  0.1148E-02  0.1170E-02  0.7926E-06  0.7056E-02  0.5610E-05  0.4501E-03  0.7069E-02  0.1488E-03
      9.052  0.2757E-03  0.1242E-03  0.8138E-03  0.2298E-04  0.7416E-03  0.1627E-03  0.1610E-03  0.9962E-03  0.1518E-04
      9.116  0.3654E-02  0.1580E-03  0.9297E-02  0.3045E-03  0.6864E-03  0.2155E-02  0.1555E-02  0.4055E-02  0.8317E-05
      9.180  0.2229E-01  0.9325E-03  0.5665E-01  0.1856E-02  0.4011E-02  0.1314E-01  0.9470E-02  0.2453E-01  0.4671E-04
      9.244  0.6338E-01  0.2636E-02  0.1601E+00  0.5241E-02  0.1170E-01  0.3709E-01  0.2676E-01  0.6922E-01  0.1317E-03
      9.308  0.8879E-01  0.3518E-02  0.2138E+00  0.6930E-02  0.1976E-01  0.4899E-01  0.3557E-01  0.9109E-01  0.1727E-03
      9.372  0.8366E-01  0.2474E-02  0.1504E+00  0.4539E-02  0.3492E-01  0.3173E-01  0.2427E-01  0.5734E-01  0.1053E-03
      9.436  0.9463E-01  0.1527E-02  0.9067E-01  0.2073E-02  0.6488E-01  0.1345E-01  0.1305E-01  0.2053E-01  0.2983E-04
      9.500  0.9288E-01  0.1809E-02  0.6562E-01  0.1837E-02  0.7103E-01  0.6765E-02  0.8692E-02  0.7500E-02  0.3913E-05
      9.564  0.5712E-01  0.6568E-02  0.3193E-01  0.6548E-02  0.4547E-01  0.3185E-02  0.4827E-02  0.3129E-02  0.2396E-06
      9.628  0.5057E-01  0.2307E-01  0.7638E-02  0.2306E-01  0.4398E-01  0.1414E-02  0.3706E-02  0.1388E-02  0.7653E-08
      9.692  0.7049E-01  0.4042E-01  0.8492E-03  0.4042E-01  0.6307E-01  0.1319E-02  0.4909E-02  0.1316E-02  0.2174E-09
      9.756  0.5680E-01  0.3311E-01  0.4585E-04  0.3311E-01  0.5093E-01  0.1020E-02  0.3938E-02  0.1020E-02  0.1321E-10
      9.820  0.2193E-01  0.1267E-01  0.6683E-04  0.1267E-01  0.1938E-01  0.3878E-03  0.1498E-02  0.3876E-03  0.4399E-09
      9.884  0.7622E-02  0.3009E-02  0.7811E-03  0.3003E-02  0.3426E-02  0.7569E-04  0.2642E-03  0.7561E-04  0.3046E-07