    4    4   10    1
  0.1360301E+02  0.3789352E-09  0.3789352E-09  0.3789352E-09  0.3500000E-15
   1.0000000000000000E-004
  CAR 
 Au, FCC                                 
   44   10   26

  0.8333333E-01  0.8333333E-01  0.8333333E-01  0.3703704E-01
   1       -4.9238
   2       -1.9128
   3       -1.9128
   4       -1.2061
   5       -1.2061
   6       -1.1754
   7       -0.1770
   8        1.0453
   9        1.1507
  10        1.1507
  11        1.8943
  12        1.8943
  13        2.3214
  14        2.3562
  15        2.3562
  16        2.4066
  17        2.4066
  18        2.4164
  19        2.5821
  20        2.6444
  21        2.6444
  22        5.4234
  23        5.4842
  24        5.4842
  25       10.8798
  26       11.9749

  0.2500000E+00  0.8333333E-01  0.8333333E-01  0.1111111E+00
   1       -4.3004
   2       -1.7127
   3       -1.6753
   4       -1.1071
   5       -1.0898
   6       -1.0257
   7       -0.0455
   8        0.9092
   9        1.2228
  10        1.2341
  11        1.5796
  12        1.6791
  13        1.7369
  14        1.9605
  15        1.9855
  16        2.1984
  17        2.2078
  18        2.2465
  19        2.5056
  20        2.5707
  21        2.6350
  22        3.3763
  23        6.6639
  24        6.7853
  25       11.6744
  26       11.6798

  0.4166667E+00  0.8333333E-01  0.8333333E-01  0.1111111E+00
   1       -3.2536
   2       -1.7654
   3       -1.4683
   4       -0.9742
   5       -0.9654
   6       -0.7876
   7        0.1581
   8        0.7265
   9        0.8093
  10        0.9811
  11        1.0319
  12        1.4686
  13        1.5654
  14        1.7700
  15        1.8841
  16        1.9304
  17        2.0069
  18        2.1634
  19        2.2371
  20        2.3435
  21        2.5619
  22        2.6273
  23        8.2921
  24        8.4941
  25       10.1839
  26       10.3295

  0.2500000E+00  0.2500000E+00  0.8333333E-01  0.1111111E+00
   1       -3.7119
   2       -1.5935
   3       -1.3996
   4       -1.0458
   5       -1.0192
   6       -0.8958
   7        0.0383
   8        0.7901
   9        1.0836
  10        1.3342
  11        1.3442
  12        1.4184
  13        1.4253
  14        1.6678
  15        2.0174
  16        2.0264
  17        2.1241
  18        2.1272
  19        2.4530
  20        2.4658
  21        2.4805
  22        4.3573
  23        4.5167
  24        7.7100
  25        9.6756
  26       12.2712

  0.4166667E+00  0.2500000E+00  0.8333333E-01  0.2222222E+00
   1       -2.7282
   2       -1.7348
   3       -1.1965
   4       -1.0279
   5       -0.8936
   6       -0.5558
   7        0.0829
   8        0.7258
   9        0.8072
  10        0.8839
  11        1.0784
  12        1.2593
  13        1.4999
  14        1.6432
  15        1.8207
  16        1.9188
  17        1.9448
  18        2.1980
  19        2.3723
  20        2.3818
  21        2.4073
  22        2.9355
  23        5.7659
  24        7.4787
  25        9.2669
  26       11.0233

  0.4166667E+00  0.4166667E+00  0.8333333E-01  0.1111111E+00
   1       -2.0999
   2       -1.6831
   3       -1.0687
   4       -0.9778
   5       -0.5519
   6       -0.3135
   7        0.1029
   8        0.5001
   9        0.8864
  10        0.9260
  11        1.0461
  12        1.1752
  13        1.2168
  14        1.6158
  15        1.7129
  16        1.7818
  17        1.8904
  18        2.0950
  19        2.0960
  20        2.2116
  21        2.8845
  22        3.6925
  23        4.0324
  24        5.4051
  25       10.5980
  26       12.2763

  0.2500000E+00  0.2500000E+00  0.2500000E+00  0.3703704E-01
   1       -3.2006
   2       -1.4714
   3       -1.4714
   4       -0.9005
   5       -0.9005
   6       -0.7633
   7        0.0068
   8        0.7357
   9        1.2071
  10        1.2394
  11        1.2394
  12        1.3267
  13        1.3267
  14        1.6544
  15        1.6544
  16        1.8760
  17        2.0442
  18        2.0442
  19        2.5313
  20        2.5662
  21        2.5662
  22        5.0976
  23        5.1314
  24        5.1314
  25       10.0258
  26       10.6663

  0.4166667E+00  0.2500000E+00  0.2500000E+00  0.1111111E+00
   1       -2.3914
   2       -1.6968
   3       -1.5006
   4       -0.8791
   5       -0.8692
   6       -0.2846
   7        0.1403
   8        0.7884
   9        0.9293
  10        1.0837
  11        1.2787
  12        1.3209
  13        1.3245
  14        1.4949
  15        1.5190
  16        1.7335
  17        2.1982
  18        2.2916
  19        2.4702
  20        2.4741
  21        2.4910
  22        3.1306
  23        6.0346
  24        6.1912
  25        8.0940
  26        8.7952

  0.4166667E+00  0.4166667E+00  0.2500000E+00  0.1111111E+00
   1       -2.0746
   2       -1.7536
   3       -1.6422
   4       -1.0228
   5       -0.5083
   6       -0.1640
   7        0.5942
   8        0.9776
   9        1.0637
  10        1.2017
  11        1.2439
  12        1.3540
  13        1.4314
  14        1.4642
  15        1.4680
  16        1.5484
  17        2.1874
  18        2.3875
  19        2.4061
  20        2.4162
  21        2.7250
  22        3.7684
  23        4.0434
  24        5.2399
  25        8.1300
  26        9.4456

  0.4166667E+00  0.4166667E+00  0.4166667E+00  0.3703704E-01
   1       -2.0669
   2       -1.9683
   3       -1.9683
   4       -0.9605
   5       -0.2505
   6       -0.2505
   7        0.9242
   8        1.0950
   9        1.0950
  10        1.3010
  11        1.3010
  12        1.3917
  13        1.8358
  14        1.9213
  15        1.9213
  16        2.2371
  17        2.4313
  18        2.4313
  19        2.5023
  20        2.5273
  21        2.5273
  22        3.9299
  23        3.9299
  24        3.9863
  25        7.0766
  26        8.3662
