       N       E                     dE             d eps       ncg     rms          rms(c)
DAV:   1     0.275599478030E+03    0.27560E+03   -0.16965E+04   528   0.179E+03

DAV:   2     0.271593708720E+01   -0.27288E+03   -0.26474E+03   522   0.375E+02

DAV:   3    -0.166528941657E+02   -0.19369E+02   -0.18968E+02   556   0.125E+02

DAV:   4    -0.170163863892E+02   -0.36349E+00   -0.36175E+00   554   0.167E+01

DAV:   5    -0.170198343721E+02   -0.34480E-02   -0.34467E-02   566   0.143E+00    0.112E+01
RMM:   6    -0.156364255062E+02    0.13834E+01   -0.24287E+01   520   0.573E+01    0.593E+00
RMM:   7    -0.146298647552E+02    0.10066E+01   -0.55913E+00   520   0.264E+01    0.188E+00
RMM:   8    -0.145570129142E+02    0.72852E-01   -0.49309E-02   520   0.267E+00    0.721E-01
RMM:   9    -0.145371410246E+02    0.19872E-01   -0.15900E-02   520   0.964E-01    0.990E-02
RMM:  10    -0.145368567466E+02    0.28428E-03   -0.12264E-03   479   0.279E-01    0.237E-02
RMM:  11    -0.145368786613E+02   -0.21915E-04   -0.46129E-05   277   0.592E-02

   1 F= -.14536879E+02 E0= -.14529415E+02  d E =-.145369E+02

