 vasp.4.6.26 15Dec04 complex 
 executed on             LinuxPgi date 2009.11.30  23:41:54
 serial version


--------------------------------------------------------------------------------------------------------


 INCAR:
 POTCAR:   PAW_GGA Au 18Jul2000                   
 POTCAR:   PAW_GGA Cu 05Jan2001                   
 POTCAR:   PAW_GGA Au 18Jul2000                   
  local pseudopotential read in
  partial core-charges read in
  atomic valenz-charges read in
  non local Contribution for L=                        2  read in
    real space projection operators read in
  non local Contribution for L=                        2  read in
    real space projection operators read in
  non local Contribution for L=                        0  read in
    real space projection operators read in
  non local Contribution for L=                        0  read in
    real space projection operators read in
  non local Contribution for L=                        1  read in
    real space projection operators read in
  non local Contribution for L=                        1  read in
    real space projection operators read in
    PAW grid and wavefunctions read in

   number of l-projection  operators is LMAX  =                        6
   number of lm-projection operators is LMMAX =                       18

 POTCAR:   PAW_GGA Cu 05Jan2001                   
  local pseudopotential read in
  partial core-charges read in
  atomic valenz-charges read in
  non local Contribution for L=                        2  read in
    real space projection operators read in
  non local Contribution for L=                        2  read in
    real space projection operators read in
  non local Contribution for L=                        0  read in
    real space projection operators read in
  non local Contribution for L=                        0  read in
    real space projection operators read in
  non local Contribution for L=                        1  read in
    real space projection operators read in
  non local Contribution for L=                        1  read in
    real space projection operators read in
    PAW grid and wavefunctions read in

   number of l-projection  operators is LMAX  =                        6
   number of lm-projection operators is LMMAX =                       18

 PAW_GGA Au 18Jul2000                   :
 energy of atom  1       EATOM= -927.0928
 kinetic energy error for atom=    0.0152 (will be added to EATOM!!)
 PAW_GGA Cu 05Jan2001                   :
 energy of atom  2       EATOM=-1393.0707
 kinetic energy error for atom=    0.0259 (will be added to EATOM!!)

 EXHCAR: internal setup
 exchange correlation table for  LEXCH =        7
   RHO(1)=    0.500       N(1)  =     2000
   RHO(2)=  100.500       N(2)  =     4000

 POSCAR: Pure FCC metal                          
  positions in direct lattice
  velocities in cartesian coordinates



--------------------------------------------------------------------------------------------------------


 ion  position               nearest neighbor table
   1  0.000  0.000  0.000-   2 2.68   3 2.68   4 2.68   3 2.68   4 2.68   2 2.68   4 2.68   4 2.68
                             2 2.68   3 2.68   3 2.68   2 2.68
   2  0.500  0.500  0.000-   1 2.68   3 2.68   4 2.68   3 2.68   4 2.68   1 2.68   3 2.68   3 2.68
                             1 2.68   4 2.68   4 2.68   1 2.68
   3  0.500  0.000  0.500-   1 2.68   2 2.68   4 2.68   1 2.68   2 2.68   2 2.68   4 2.68   2 2.68
                             1 2.68   4 2.68   1 2.68   4 2.68
   4  0.000  0.500  0.500-   1 2.68   2 2.68   3 2.68   1 2.68   2 2.68   1 2.68   3 2.68   1 2.68
                             2 2.68   3 2.68   2 2.68   3 2.68

  LATTYP: Found a simple cubic cell.
 ALAT       =     3.7893523576
  
  Lattice vectors:
  
 A1 = (   3.7893523576,   0.0000000000,   0.0000000000)
 A2 = (   0.0000000000,   3.7893523576,   0.0000000000)
 A3 = (   0.0000000000,   0.0000000000,   3.7893523576)
 Subroutine PRICEL returns:
 Original cell was already a primitive cell.
 

Analysis of symmetry for initial positions (statically):

 Routine SETGRP: Setting up the symmetry group for a 
 simple cubic supercell.


 Subroutine GETGRP returns: Found 48 space group operations
 (whereof 48 operations were pure point group operations)
 out of a pool of 48 trial point group operations.


The static configuration has the point symmetry O_h .

Analysis of symmetry for dynamics (positions and initial velocities):

 Subroutine DYNSYM returns: Found 48 space group operations
 (whereof 48 operations were pure point group operations)
 out of a pool of 48 trial space group operations
 (whereof 48 operations were pure point group operations)
 and found also     1 'primitive' translations


The dynamic configuration has the point symmetry O_h .


 KPOINTS: 6x6x6 title card                        

Automatic generation of k-mesh.
 
 Subroutine IBZKPT returns following result:
 ===========================================
 
 Found     10 irreducible k-points:
 
 Following reciprocal coordinates:
            Coordinates               Weight
  0.083333  0.083333  0.083333      8.000000
  0.250000  0.083333  0.083333     24.000000
  0.416667  0.083333  0.083333     24.000000
  0.250000  0.250000  0.083333     24.000000
  0.416667  0.250000  0.083333     48.000000
  0.416667  0.416667  0.083333     24.000000
  0.250000  0.250000  0.250000      8.000000
  0.416667  0.250000  0.250000     24.000000
  0.416667  0.416667  0.250000     24.000000
  0.416667  0.416667  0.416667      8.000000
 
 Following cartesian coordinates:
            Coordinates               Weight
  0.083567  0.083567  0.083567      8.000000
  0.250702  0.083567  0.083567     24.000000
  0.417837  0.083567  0.083567     24.000000
  0.250702  0.250702  0.083567     24.000000
  0.417837  0.250702  0.083567     48.000000
  0.417837  0.417837  0.083567     24.000000
  0.250702  0.250702  0.250702      8.000000
  0.417837  0.250702  0.250702     24.000000
  0.417837  0.417837  0.250702     24.000000
  0.417837  0.417837  0.417837      8.000000
 


--------------------------------------------------------------------------------------------------------




 Dimension of arrays:
   k-Points           NKPTS =     10   number of bands    NBANDS=     26
   number of dos      NEDOS =    301   number of ions     NIONS =      4
   non local maximal  LDIM  =      6   non local SUM 2l+1 LMDIM =     18
   total plane-waves  NPLWV =   5832
   max r-space proj   IRMAX =      1   max aug-charges    IRDMAX=   6753
   dimension x,y,z NGX =    18 NGY =   18 NGZ =   18
   dimension x,y,z NGXF=    36 NGYF=   36 NGZF=   36
   support grid    NGXF=    36 NGYF=   36 NGZF=   36
   ions per type =               1   3
 NGX,Y,Z   is equivalent  to a cutoff of   7.90,  7.90,  7.90 a.u.
 NGXF,Y,Z  is equivalent  to a cutoff of  15.79, 15.79, 15.79 a.u.


 I would recommend the setting:
   dimension x,y,z NGX =    17 NGY =   17 NGZ =   17
 SYSTEM =  Au, FCC                                 
 POSCAR =  Pure FCC metal                          

 Startparameter for this run:
   NWRITE =      1    write-flag & timer
   PREC   = normal    medium, high low
   ISTART =      0    job   : 0-new  1-cont  2-samecut
   ICHARG =      2    charge: 1-file 2-atom 10-const
   ISPIN  =      1    spin polarized calculation?
   LNONCOLLINEAR =      F non collinear calculations
   LSORBIT =      F    spin-orbit coupling
   INIWAV =      1    electr: 0-lowe 1-rand  2-diag
   LASPH  =      F    aspherical Exc in radial PAW
   METAGGA=      F    non-selfconsistent MetaGGA calc.

 Electronic Relaxation 1
   ENCUT  =  350.0 eV  25.72 Ry    5.07 a.u.   5.78  5.78  5.78*2*pi/ulx,y,z
   ENINI  =  350.0     initial cutoff
   ENAUG  =  516.5 eV  augmentation charge cutoff
   NELM   =     60;   NELMIN=  2; NELMDL= -5     # of ELM steps 
   EDIFF  = 0.1E-03   stopping-criterion for ELM
   LREAL  =      F    real-space projection
   LCOMPAT=      F    compatible to vasp.4.4
   LREAL_COMPAT= F    compatible to vasp.4.5.1-3
   GGA_COMPAT  = T    GGA compatible to vasp.4.4-vasp.4.6
   LMAXPAW     = -100 max onsite density
   LMAXMIX     =    2 max onsite mixed and CHGCAR
   VOSKOWN=      0    Vosko Wilk Nusair interpolation
   ROPT   =    0.00000   0.00000
 Ionic relaxation
   EDIFFG = 0.1E-02   stopping-criterion for IOM
   NSW    =     10    number of steps for IOM
   NBLOCK =      1;   KBLOCK =     10    inner block; outer block 
   IBRION =      1    ionic relax: 0-MD 1-quasi-New 2-CG
   NFREE  =      5    steps in history (QN), initial steepest desc. (CG)
   ISIF   =      3    stress and relaxation
   IWAVPR =     11    prediction:  0-non 1-charg 2-wave 3-comb
   ISYM   =      2    0-nonsym 1-usesym 2-fastsym
   LCORR  =      T    Harris-Foulkes like correction to forces

   POTIM  =   0.35    time-step for ionic-motion
   TEIN   =    0.0    initial temperature
   TEBEG  =    0.0;   TEEND  =   0.0 temperature during run
   SMASS  =  -3.00    Nose mass-parameter (am)
   estimated Nose-frequenzy (Omega)   =  0.10E-29 period in steps =****** mass=  -0.328E-27a.u.
   NPACO  =    256;   APACO  = 16.0  distance and # of slots for P.C.
   PSTRESS=    0.0 pullay stress

  Mass of Ions in am
   POMASS = 196.97 63.55
  Ionic Valenz
   ZVAL   =  11.00 11.00
  Atomic Wigner-Seitz radii
   RWIGS  =  -1.00 -1.00
   NELECT =      44.0000    total number of electrons
   NUPDOWN=      -1.0000    fix difference up-down

 DOS related values:
   EMIN   =  10.00;   EMAX   =-10.00  energy-range for DOS
   ISMEAR =     0;   SIGMA  =   0.10  broadening in eV -4-tet -1-fermi 0-gaus

 Electronic relaxation 2 (details)
   IALGO  =     68    algorithm
   LDIAG  =      T    sub-space diagonalisation
   IMIX   =      4    mixing-type and parameters
     AMIX     =   0.40;   BMIX     =  1.00
     AMIX_MAG =   1.60;   BMIX_MAG =  1.00
     AMIN     =   0.10
     WC   =   100.;   INIMIX=   1;  MIXPRE=   1

 Intra band minimization:
   WEIMIN = 0.0010     energy-eigenvalue tresh-hold
   EBREAK =  0.96E-06  absolut break condition
   DEPER  =   0.30     relativ break condition  

   TIME   =   0.10     timestep for ELM

  volume/ion in A,a.u.               =      13.60        91.80
  Fermi-wavevector in a.u.,eV,Ry     =   1.525202 31.650437  2.326241

 Second variation
   LSECVAR=     F    do a second variation

 Write flags
   LWAVE  =      F    write WAVECAR
   LCHARG =      T    write CHGCAR
   LVTOT  =      F    write LOCPOT, local potential
   LELF   =      F    write electronic localiz. function (ELF)
   LORBIT =     11    0 simple, 1 ext, 2 COOP (PROOUT)


 Dipole corrections
   IDIPOL =      0    1-x, 2-y, 3-z
   LDIPOL =      F    correct potential



--------------------------------------------------------------------------------------------------------


 quasi-Newton-method for relaxation of ions
 charge density will be updated during run
 non-spin polarized calculation
 RMM-DIIS sequential band-by-band and
  variant of blocked Davidson during initial phase
 performe sub-space diagonalisation
    before iterative eigenvector-optimisation
 modified Broyden-mixing scheme, WC =      100.0
 initial mixing is a Kerker type mixing with AMIX =  0.4000 and BMIX =      1.0000
 Hartree-type preconditioning will be used
 using additional bands                         4
 reciprocal scheme for non local part
 use partial core corrections
 calculate Harris-corrections to forces 
   (improved forces if not selfconsistent)
 use gradient corrections 
 use of overlap-Matrix (Vanderbilt PP)
 Gauss-broadening in eV      SIGMA  =   0.10


--------------------------------------------------------------------------------------------------------


  energy-cutoff  :      350.00
  volume of cell :       54.41
      direct lattice vectors                 reciprocal lattice vectors
     3.789352358  0.000000000  0.000000000     0.263897338  0.000000000  0.000000000
     0.000000000  3.789352358  0.000000000     0.000000000  0.263897338  0.000000000
     0.000000000  0.000000000  3.789352358     0.000000000  0.000000000  0.263897338

  length of vectors
     3.789352358  3.789352358  3.789352358     0.263897338  0.263897338  0.263897338



 k-points in units of 2pi/SCALE and weight: 6x6x6 title card                        
   0.08356749  0.08356749  0.08356749       0.037
   0.25070247  0.08356749  0.08356749       0.111
   0.41783745  0.08356749  0.08356749       0.111
   0.25070247  0.25070247  0.08356749       0.111
   0.41783745  0.25070247  0.08356749       0.222
   0.41783745  0.41783745  0.08356749       0.111
   0.25070247  0.25070247  0.25070247       0.037
   0.41783745  0.25070247  0.25070247       0.111
   0.41783745  0.41783745  0.25070247       0.111
   0.41783745  0.41783745  0.41783745       0.037

 k-points in reciprocal lattice and weights: 6x6x6 title card                        
   0.08333333  0.08333333  0.08333333       0.037
   0.25000000  0.08333333  0.08333333       0.111
   0.41666667  0.08333333  0.08333333       0.111
   0.25000000  0.25000000  0.08333333       0.111
   0.41666667  0.25000000  0.08333333       0.222
   0.41666667  0.41666667  0.08333333       0.111
   0.25000000  0.25000000  0.25000000       0.037
   0.41666667  0.25000000  0.25000000       0.111
   0.41666667  0.41666667  0.25000000       0.111
   0.41666667  0.41666667  0.41666667       0.037

 position of ions in fractional coordinates (direct lattice) 
   0.00000000  0.00000000  0.00000000
   0.50000000  0.50000000  0.00000000
   0.50000000  0.00000000  0.50000000
   0.00000000  0.50000000  0.50000000

 position of ions in cartesian coordinates  (Angst):
   0.00000000  0.00000000  0.00000000
   1.89467618  1.89467618  0.00000000
   1.89467618  0.00000000  1.89467618
   0.00000000  1.89467618  1.89467618



--------------------------------------------------------------------------------------------------------


 k-point  1 :  0.08330.08330.0833  plane waves:    799
 k-point  2 :  0.25000.08330.0833  plane waves:    812
 k-point  3 :  0.41670.08330.0833  plane waves:    815
 k-point  4 :  0.25000.25000.0833  plane waves:    804
 k-point  5 :  0.41670.25000.0833  plane waves:    811
 k-point  6 :  0.41670.41670.0833  plane waves:    812
 k-point  7 :  0.25000.25000.2500  plane waves:    811
 k-point  8 :  0.41670.25000.2500  plane waves:    806
 k-point  9 :  0.41670.41670.2500  plane waves:    809
 k-point 10 :  0.41670.41670.4167  plane waves:    810

 maximum number of plane-waves:    815
 maximal index in each direction: 
   IXMAX=  5   IYMAX=  5   IZMAX=  5
   IXMIN= -6   IYMIN= -6   IZMIN= -6

 WARNING: wrap around error must be expected set NGX to  24
 WARNING: wrap around error must be expected set NGY to  24
 WARNING: wrap around error must be expected set NGZ to  24
 For storing wavefunctions    3.37 MBYTES are necessary
 For predicting wavefunctions    1.19 MBYTES are necessary
Broyden mixing: mesh for mixing (old mesh)
   NGX = 11   NGY = 11   NGZ = 11
  (NGX  = 36   NGY  = 36   NGZ  = 36)
 gives a total of   1331 points
 initial charge density was supplied:
 charge density of overlapping atoms calculated
 number of electron   44.0000000 magnetization 
 keeping initial charge density in first step


--------------------------------------------------------------------------------------------------------


 Maximum index for augmentation-charges                      6403 (set IRDMAX)


--------------------------------------------------------------------------------------------------------


 First call to EWALD:  gamma=   0.468
 Maximum number of real-space cells 3x 3x 3
 Maximum number of reciprocal cells 3x 3x 3



----------------------------------------- Iteration    1(   1)  ---------------------------------------


      LOOP:  VPU time    1.89: CPU time    1.67

 eigenvalue-minimisations  :   528
 total energy-change (2. order) : 0.2755995E+03  (-0.1696533E+04)
 number of electron   44.0000000 magnetization 
 augmentation part    44.0000000 magnetization 

 Free energy of the ion-electron system (eV)
  ---------------------------------------------------
  alpha Z        PSCENC =       417.92455670
  Ewald energy   TEWEN  =     -4216.31188433
  -1/2 Hartree   DENC   =     -1158.43151263
  -V(xc)+E(xc)   XCENC  =       146.00922199
  PAW double counting   =      3996.47789751    -4407.03876695
  entropy T*S    EENTRO =        -0.01302866
  eigenvalues    EBANDS =       390.77087935
  atomic energy  EATOM  =      5106.21211507
  ---------------------------------------------------
  free energy    TOTEN  =       275.59947803 eV

  energy without entropy =      275.61250669  energy(sigma->0) =      275.60599236


--------------------------------------------------------------------------------------------------------




----------------------------------------- Iteration    1(   2)  ---------------------------------------


      LOOP:  VPU time    1.65: CPU time    1.53

 eigenvalue-minimisations  :   522
 total energy-change (2. order) :-0.2728835E+03  (-0.2647444E+03)
 number of electron   44.0000000 magnetization 
 augmentation part    44.0000000 magnetization 

 Free energy of the ion-electron system (eV)
  ---------------------------------------------------
  alpha Z        PSCENC =       417.92455670
  Ewald energy   TEWEN  =     -4216.31188433
  -1/2 Hartree   DENC   =     -1158.43151263
  -V(xc)+E(xc)   XCENC  =       146.00922199
  PAW double counting   =      3996.47789751    -4407.03876695
  entropy T*S    EENTRO =        -0.00827070
  eigenvalues    EBANDS =       117.88258044
  atomic energy  EATOM  =      5106.21211507
  ---------------------------------------------------
  free energy    TOTEN  =         2.71593709 eV

  energy without entropy =        2.72420779  energy(sigma->0) =        2.72007244


--------------------------------------------------------------------------------------------------------




----------------------------------------- Iteration    1(   3)  ---------------------------------------


      LOOP:  VPU time    1.75: CPU time    1.65

 eigenvalue-minimisations  :   556
 total energy-change (2. order) :-0.1936883E+02  (-0.1896811E+02)
 number of electron   44.0000000 magnetization 
 augmentation part    44.0000000 magnetization 

 Free energy of the ion-electron system (eV)
  ---------------------------------------------------
  alpha Z        PSCENC =       417.92455670
  Ewald energy   TEWEN  =     -4216.31188433
  -1/2 Hartree   DENC   =     -1158.43151263
  -V(xc)+E(xc)   XCENC  =       146.00922199
  PAW double counting   =      3996.47789751    -4407.03876695
  entropy T*S    EENTRO =        -0.01196257
  eigenvalues    EBANDS =        98.51744106
  atomic energy  EATOM  =      5106.21211507
  ---------------------------------------------------
  free energy    TOTEN  =       -16.65289417 eV

  energy without entropy =      -16.64093160  energy(sigma->0) =      -16.64691288


--------------------------------------------------------------------------------------------------------




----------------------------------------- Iteration    1(   4)  ---------------------------------------


      LOOP:  VPU time    1.76: CPU time    1.63

 eigenvalue-minimisations  :   554
 total energy-change (2. order) :-0.3634922E+00  (-0.3617467E+00)
 number of electron   44.0000000 magnetization 
 augmentation part    44.0000000 magnetization 

 Free energy of the ion-electron system (eV)
  ---------------------------------------------------
  alpha Z        PSCENC =       417.92455670
  Ewald energy   TEWEN  =     -4216.31188433
  -1/2 Hartree   DENC   =     -1158.43151263
  -V(xc)+E(xc)   XCENC  =       146.00922199
  PAW double counting   =      3996.47789751    -4407.03876695
  entropy T*S    EENTRO =        -0.00909707
  eigenvalues    EBANDS =        98.15108334
  atomic energy  EATOM  =      5106.21211507
  ---------------------------------------------------
  free energy    TOTEN  =       -17.01638639 eV

  energy without entropy =      -17.00728932  energy(sigma->0) =      -17.01183785


--------------------------------------------------------------------------------------------------------




----------------------------------------- Iteration    1(   5)  ---------------------------------------


      LOOP:  VPU time    1.89: CPU time    1.80

 eigenvalue-minimisations  :   566
 total energy-change (2. order) :-0.3447983E-02  (-0.3446691E-02)
 number of electron   43.9999832 magnetization 
 augmentation part    24.1026191 magnetization 

 Broyden mixing:
  rms(total) = 0.11161E+01    rms(broyden)= 0.11160E+01
  rms(prec ) = 0.26690E+01
  weight for this iteration     100.00

 Free energy of the ion-electron system (eV)
  ---------------------------------------------------
  alpha Z        PSCENC =       417.92455670
  Ewald energy   TEWEN  =     -4216.31188433
  -1/2 Hartree   DENC   =     -1158.43151263
  -V(xc)+E(xc)   XCENC  =       146.00922199
  PAW double counting   =      3996.47789751    -4407.03876695
  entropy T*S    EENTRO =        -0.00898105
  eigenvalues    EBANDS =        98.14751933
  atomic energy  EATOM  =      5106.21211507
  ---------------------------------------------------
  free energy    TOTEN  =       -17.01983437 eV

  energy without entropy =      -17.01085332  energy(sigma->0) =      -17.01534385


--------------------------------------------------------------------------------------------------------




----------------------------------------- Iteration    1(   6)  ---------------------------------------


      LOOP:  VPU time    1.88: CPU time    1.87

 eigenvalue-minimisations  :   520
 total energy-change (2. order) : 0.1383409E+01  (-0.2428671E+01)
 number of electron   43.9999820 magnetization 
 augmentation part    26.3169181 magnetization 

 Broyden mixing:
  rms(total) = 0.59291E+00    rms(broyden)= 0.59256E+00
  rms(prec ) = 0.14393E+01
  weight for this iteration     100.00

 eigenvalues of (default mixing * dielectric matrix)
  average eigenvalue GAMMA=   0.6751
  0.6751

 Free energy of the ion-electron system (eV)
  ---------------------------------------------------
  alpha Z        PSCENC =       417.92455670
  Ewald energy   TEWEN  =     -4216.31188433
  -1/2 Hartree   DENC   =     -1081.99481348
  -V(xc)+E(xc)   XCENC  =       142.21846818
  PAW double counting   =      3920.72170484    -4311.97052075
  entropy T*S    EENTRO =        -0.01500268
  eigenvalues    EBANDS =         7.57895095
  atomic energy  EATOM  =      5106.21211507
  ---------------------------------------------------
  free energy    TOTEN  =       -15.63642551 eV

  energy without entropy =      -15.62142283  energy(sigma->0) =      -15.62892417


--------------------------------------------------------------------------------------------------------




----------------------------------------- Iteration    1(   7)  ---------------------------------------


      LOOP:  VPU time    1.87: CPU time    1.87

 eigenvalue-minimisations  :   520
 total energy-change (2. order) : 0.1006561E+01  (-0.5591273E+00)
 number of electron   43.9999827 magnetization 
 augmentation part    25.4526694 magnetization 

 Broyden mixing:
  rms(total) = 0.18822E+00    rms(broyden)= 0.18803E+00
  rms(prec ) = 0.48150E+00
  weight for this iteration     100.00

 eigenvalues of (default mixing * dielectric matrix)
  average eigenvalue GAMMA=   0.8201
  0.5404  1.0998

 Free energy of the ion-electron system (eV)
  ---------------------------------------------------
  alpha Z        PSCENC =       417.92455670
  Ewald energy   TEWEN  =     -4216.31188433
  -1/2 Hartree   DENC   =     -1101.43517338
  -V(xc)+E(xc)   XCENC  =       143.18281149
  PAW double counting   =      3979.64999361    -4389.09564417
  entropy T*S    EENTRO =        -0.01450082
  eigenvalues    EBANDS =        45.25786108
  atomic energy  EATOM  =      5106.21211507
  ---------------------------------------------------
  free energy    TOTEN  =       -14.62986476 eV

  energy without entropy =      -14.61536394  energy(sigma->0) =      -14.62261435


--------------------------------------------------------------------------------------------------------




----------------------------------------- Iteration    1(   8)  ---------------------------------------


      LOOP:  VPU time    1.89: CPU time    1.80

 eigenvalue-minimisations  :   520
 total energy-change (2. order) : 0.7285184E-01  (-0.4930909E-02)
 number of electron   43.9999826 magnetization 
 augmentation part    25.5692753 magnetization 

 Broyden mixing:
  rms(total) = 0.72127E-01    rms(broyden)= 0.72126E-01
  rms(prec ) = 0.17903E+00
  weight for this iteration     100.00

 eigenvalues of (default mixing * dielectric matrix)
  average eigenvalue GAMMA=   1.2544
  0.5582  0.9661  2.2389

 Free energy of the ion-electron system (eV)
  ---------------------------------------------------
  alpha Z        PSCENC =       417.92455670
  Ewald energy   TEWEN  =     -4216.31188433
  -1/2 Hartree   DENC   =     -1094.09841639
  -V(xc)+E(xc)   XCENC  =       142.84766244
  PAW double counting   =      3996.38757268    -4408.21739644
  entropy T*S    EENTRO =        -0.01461026
  eigenvalues    EBANDS =        40.71338761
  atomic energy  EATOM  =      5106.21211507
  ---------------------------------------------------
  free energy    TOTEN  =       -14.55701291 eV

  energy without entropy =      -14.54240266  energy(sigma->0) =      -14.54970779


--------------------------------------------------------------------------------------------------------




----------------------------------------- Iteration    1(   9)  ---------------------------------------


      LOOP:  VPU time    1.88: CPU time    1.81

 eigenvalue-minimisations  :   520
 total energy-change (2. order) : 0.1987189E-01  (-0.1589997E-02)
 number of electron   43.9999826 magnetization 
 augmentation part    25.6070521 magnetization 

 Broyden mixing:
  rms(total) = 0.99013E-02    rms(broyden)= 0.98904E-02
  rms(prec ) = 0.27328E-01
  weight for this iteration     100.00

 eigenvalues of (default mixing * dielectric matrix)
  average eigenvalue GAMMA=   1.3402
  2.5653  0.5570  1.1593  1.0791

 Free energy of the ion-electron system (eV)
  ---------------------------------------------------
  alpha Z        PSCENC =       417.92455670
  Ewald energy   TEWEN  =     -4216.31188433
  -1/2 Hartree   DENC   =     -1087.05801335
  -V(xc)+E(xc)   XCENC  =       142.53205791
  PAW double counting   =      4027.13903851    -4443.60835364
  entropy T*S    EENTRO =        -0.01472484
  eigenvalues    EBANDS =        38.64806695
  atomic energy  EATOM  =      5106.21211507
  ---------------------------------------------------
  free energy    TOTEN  =       -14.53714102 eV

  energy without entropy =      -14.52241619  energy(sigma->0) =      -14.52977861


--------------------------------------------------------------------------------------------------------




----------------------------------------- Iteration    1(  10)  ---------------------------------------


      LOOP:  VPU time    1.81: CPU time    1.81

 eigenvalue-minimisations  :   479
 total energy-change (2. order) : 0.2842780E-03  (-0.1226413E-03)
 number of electron   43.9999826 magnetization 
 augmentation part    25.6183510 magnetization 

 Broyden mixing:
  rms(total) = 0.23660E-02    rms(broyden)= 0.23607E-02
  rms(prec ) = 0.50540E-02
  weight for this iteration     100.00

 eigenvalues of (default mixing * dielectric matrix)
  average eigenvalue GAMMA=   1.4200
  2.6240  2.0329  0.5570  0.9431  0.9431

 Free energy of the ion-electron system (eV)
  ---------------------------------------------------
  alpha Z        PSCENC =       417.92455670
  Ewald energy   TEWEN  =     -4216.31188433
  -1/2 Hartree   DENC   =     -1086.22062646
  -V(xc)+E(xc)   XCENC  =       142.49090782
  PAW double counting   =      4030.54787228    -4447.31466950
  entropy T*S    EENTRO =        -0.01492992
  eigenvalues    EBANDS =        38.14980161
  atomic energy  EATOM  =      5106.21211507
  ---------------------------------------------------
  free energy    TOTEN  =       -14.53685675 eV

  energy without entropy =      -14.52192682  energy(sigma->0) =      -14.52939179


--------------------------------------------------------------------------------------------------------




----------------------------------------- Iteration    1(  11)  ---------------------------------------


      LOOP:  VPU time    1.26: CPU time    1.23

 eigenvalue-minimisations  :   277
 total energy-change (2. order) :-0.2191469E-04  (-0.4612864E-05)
 number of electron   43.9999826 magnetization 
 augmentation part    25.6183510 magnetization 

 Free energy of the ion-electron system (eV)
  ---------------------------------------------------
  alpha Z        PSCENC =       417.92455670
  Ewald energy   TEWEN  =     -4216.31188433
  -1/2 Hartree   DENC   =     -1086.17015334
  -V(xc)+E(xc)   XCENC  =       142.48801912
  PAW double counting   =      4032.70629682    -4449.48612102
  entropy T*S    EENTRO =        -0.01492824
  eigenvalues    EBANDS =        38.11522057
  atomic energy  EATOM  =      5106.21211507
  ---------------------------------------------------
  free energy    TOTEN  =       -14.53687866 eV

  energy without entropy =      -14.52195042  energy(sigma->0) =      -14.52941454


--------------------------------------------------------------------------------------------------------




 average (electrostatic) potential at core
  the test charge radii are     1.2098  1.0053
  (the norm of the test charge is              1.0000)
       1 -47.5850       2 -39.5100       3 -39.5100       4 -39.5100



 E-fermi :   4.0467     XC(G=0): -12.5878     alpha+bet : -9.4738
   add alpha+bet to get absolut eigen values

 k-point   1 :       0.0833    0.0833    0.0833
  band No.  band energies     occupation 
      1      -4.9238      2.00000
      2      -1.9128      2.00000
      3      -1.9128      2.00000
      4      -1.2061      2.00000
      5      -1.2061      2.00000
      6      -1.1754      2.00000
      7      -0.1770      2.00000
      8       1.0453      2.00000
      9       1.1507      2.00000
     10       1.1507      2.00000
     11       1.8943      2.00000
     12       1.8943      2.00000
     13       2.3214      2.00000
     14       2.3562      2.00000
     15       2.3562      2.00000
     16       2.4066      2.00000
     17       2.4066      2.00000
     18       2.4164      2.00000
     19       2.5821      2.00000
     20       2.6444      2.00000
     21       2.6444      2.00000
     22       5.4234      0.00000
     23       5.4842      0.00000
     24       5.4842      0.00000
     25      10.8798      0.00000
     26      11.9749      0.00000

 k-point   2 :       0.2500    0.0833    0.0833
  band No.  band energies     occupation 
      1      -4.3004      2.00000
      2      -1.7127      2.00000
      3      -1.6753      2.00000
      4      -1.1071      2.00000
      5      -1.0898      2.00000
      6      -1.0257      2.00000
      7      -0.0455      2.00000
      8       0.9092      2.00000
      9       1.2228      2.00000
     10       1.2341      2.00000
     11       1.5796      2.00000
     12       1.6791      2.00000
     13       1.7369      2.00000
     14       1.9605      2.00000
     15       1.9855      2.00000
     16       2.1984      2.00000
     17       2.2078      2.00000
     18       2.2465      2.00000
     19       2.5056      2.00000
     20       2.5707      2.00000
     21       2.6350      2.00000
     22       3.3763      2.00000
     23       6.6639      0.00000
     24       6.7853      0.00000
     25      11.6744      0.00000
     26      11.6798      0.00000

 k-point   3 :       0.4167    0.0833    0.0833
  band No.  band energies     occupation 
      1      -3.2536      2.00000
      2      -1.7654      2.00000
      3      -1.4683      2.00000
      4      -0.9742      2.00000
      5      -0.9654      2.00000
      6      -0.7876      2.00000
      7       0.1581      2.00000
      8       0.7265      2.00000
      9       0.8093      2.00000
     10       0.9811      2.00000
     11       1.0319      2.00000
     12       1.4686      2.00000
     13       1.5654      2.00000
     14       1.7700      2.00000
     15       1.8841      2.00000
     16       1.9304      2.00000
     17       2.0069      2.00000
     18       2.1634      2.00000
     19       2.2371      2.00000
     20       2.3435      2.00000
     21       2.5619      2.00000
     22       2.6273      2.00000
     23       8.2921      0.00000
     24       8.4941      0.00000
     25      10.1839      0.00000
     26      10.3295      0.00000

 k-point   4 :       0.2500    0.2500    0.0833
  band No.  band energies     occupation 
      1      -3.7119      2.00000
      2      -1.5935      2.00000
      3      -1.3996      2.00000
      4      -1.0458      2.00000
      5      -1.0192      2.00000
      6      -0.8958      2.00000
      7       0.0383      2.00000
      8       0.7901      2.00000
      9       1.0836      2.00000
     10       1.3342      2.00000
     11       1.3442      2.00000
     12       1.4184      2.00000
     13       1.4253      2.00000
     14       1.6678      2.00000
     15       2.0174      2.00000
     16       2.0264      2.00000
     17       2.1241      2.00000
     18       2.1272      2.00000
     19       2.4530      2.00000
     20       2.4658      2.00000
     21       2.4805      2.00000
     22       4.3573      0.00001
     23       4.5167      0.00000
     24       7.7100      0.00000
     25       9.6756      0.00000
     26      12.2712      0.00000

 k-point   5 :       0.4167    0.2500    0.0833
  band No.  band energies     occupation 
      1      -2.7282      2.00000
      2      -1.7348      2.00000
      3      -1.1965      2.00000
      4      -1.0279      2.00000
      5      -0.8936      2.00000
      6      -0.5558      2.00000
      7       0.0829      2.00000
      8       0.7258      2.00000
      9       0.8072      2.00000
     10       0.8839      2.00000
     11       1.0784      2.00000
     12       1.2593      2.00000
     13       1.4999      2.00000
     14       1.6432      2.00000
     15       1.8207      2.00000
     16       1.9188      2.00000
     17       1.9448      2.00000
     18       2.1980      2.00000
     19       2.3723      2.00000
     20       2.3818      2.00000
     21       2.4073      2.00000
     22       2.9355      2.00000
     23       5.7659      0.00000
     24       7.4787      0.00000
     25       9.2669      0.00000
     26      11.0233      0.00000

 k-point   6 :       0.4167    0.4167    0.0833
  band No.  band energies     occupation 
      1      -2.0999      2.00000
      2      -1.6831      2.00000
      3      -1.0687      2.00000
      4      -0.9778      2.00000
      5      -0.5519      2.00000
      6      -0.3135      2.00000
      7       0.1029      2.00000
      8       0.5001      2.00000
      9       0.8864      2.00000
     10       0.9260      2.00000
     11       1.0461      2.00000
     12       1.1752      2.00000
     13       1.2168      2.00000
     14       1.6158      2.00000
     15       1.7129      2.00000
     16       1.7818      2.00000
     17       1.8904      2.00000
     18       2.0950      2.00000
     19       2.0960      2.00000
     20       2.2116      2.00000
     21       2.8845      2.00000
     22       3.6925      2.00000
     23       4.0324      1.16014
     24       5.4051      0.00000
     25      10.5980      0.00000
     26      12.2763      0.00000

 k-point   7 :       0.2500    0.2500    0.2500
  band No.  band energies     occupation 
      1      -3.2006      2.00000
      2      -1.4714      2.00000
      3      -1.4714      2.00000
      4      -0.9005      2.00000
      5      -0.9005      2.00000
      6      -0.7633      2.00000
      7       0.0068      2.00000
      8       0.7357      2.00000
      9       1.2071      2.00000
     10       1.2394      2.00000
     11       1.2394      2.00000
     12       1.3267      2.00000
     13       1.3267      2.00000
     14       1.6544      2.00000
     15       1.6544      2.00000
     16       1.8760      2.00000
     17       2.0442      2.00000
     18       2.0442      2.00000
     19       2.5313      2.00000
     20       2.5662      2.00000
     21       2.5662      2.00000
     22       5.0976      0.00000
     23       5.1314      0.00000
     24       5.1314      0.00000
     25      10.0258      0.00000
     26      10.6663      0.00000

 k-point   8 :       0.4167    0.2500    0.2500
  band No.  band energies     occupation 
      1      -2.3914      2.00000
      2      -1.6968      2.00000
      3      -1.5006      2.00000
      4      -0.8791      2.00000
      5      -0.8692      2.00000
      6      -0.2846      2.00000
      7       0.1403      2.00000
      8       0.7884      2.00000
      9       0.9293      2.00000
     10       1.0837      2.00000
     11       1.2787      2.00000
     12       1.3209      2.00000
     13       1.3245      2.00000
     14       1.4949      2.00000
     15       1.5190      2.00000
     16       1.7335      2.00000
     17       2.1982      2.00000
     18       2.2916      2.00000
     19       2.4702      2.00000
     20       2.4741      2.00000
     21       2.4910      2.00000
     22       3.1306      2.00000
     23       6.0346      0.00000
     24       6.1912      0.00000
     25       8.0940      0.00000
     26       8.7952      0.00000

 k-point   9 :       0.4167    0.4167    0.2500
  band No.  band energies     occupation 
      1      -2.0746      2.00000
      2      -1.7536      2.00000
      3      -1.6422      2.00000
      4      -1.0228      2.00000
      5      -0.5083      2.00000
      6      -0.1640      2.00000
      7       0.5942      2.00000
      8       0.9776      2.00000
      9       1.0637      2.00000
     10       1.2017      2.00000
     11       1.2439      2.00000
     12       1.3540      2.00000
     13       1.4314      2.00000
     14       1.4642      2.00000
     15       1.4680      2.00000
     16       1.5484      2.00000
     17       2.1874      2.00000
     18       2.3875      2.00000
     19       2.4061      2.00000
     20       2.4162      2.00000
     21       2.7250      2.00000
     22       3.7684      1.99992
     23       4.0434      1.03685
     24       5.2399      0.00000
     25       8.1300      0.00000
     26       9.4456      0.00000

 k-point  10 :       0.4167    0.4167    0.4167
  band No.  band energies     occupation 
      1      -2.0669      2.00000
      2      -1.9683      2.00000
      3      -1.9683      2.00000
      4      -0.9605      2.00000
      5      -0.2505      2.00000
      6      -0.2505      2.00000
      7       0.9242      2.00000
      8       1.0950      2.00000
      9       1.0950      2.00000
     10       1.3010      2.00000
     11       1.3010      2.00000
     12       1.3917      2.00000
     13       1.8358      2.00000
     14       1.9213      2.00000
     15       1.9213      2.00000
     16       2.2371      2.00000
     17       2.4313      2.00000
     18       2.4313      2.00000
     19       2.5023      2.00000
     20       2.5273      2.00000
     21       2.5273      2.00000
     22       3.9299      1.90128
     23       3.9299      1.90128
     24       3.9863      1.60667
     25       7.0766      0.00000
     26       8.3662      0.00000


--------------------------------------------------------------------------------------------------------


 soft charge-density along one line, spin component                        1
         0         1         2         3         4         5         6         7         8         9
x    18.3816    1.7138    0.7948   -0.2187   -0.4185    0.0306    0.0663   -0.0002    0.0058    0.0000
y    18.3816   -0.0012    0.0028    0.0064   -0.0012    0.0000    0.0000    0.0020    0.0548   -0.7594
z    18.3816    0.0169    0.0000   -0.0004    0.0000    0.0000    0.0000    0.0000   -0.0009    0.0002
 total charge-density along one line
x    44.0000   -1.4183   16.5174   -1.9155    2.4988   -0.1612   -0.0076    0.0132    0.0263   -0.0037
x    -0.0063    0.0008    0.0027   -0.0001   -0.0014    0.0000    0.0009    0.0000   -0.0008
y    44.0000   -1.4183   16.5174   -1.9155    2.4988   -0.1612   -0.0076    0.0132    0.0263   -0.0037
y    -0.0063    0.0008    0.0027   -0.0001   -0.0014    0.0000    0.0009    0.0000   -0.0008
z    44.0000   -1.4183   16.5174   -1.9155    2.4988   -0.1612   -0.0076    0.0132    0.0263   -0.0037
z    -0.0063    0.0008    0.0027   -0.0001   -0.0014    0.0000    0.0009    0.0000   -0.0008

 pseudopotential strength for first ion, spin component: 
                        1
-10.644   0.000   0.000   0.000   0.000   0.022   0.000   0.000
  0.000 -10.644   0.000   0.000   0.000   0.000   0.022   0.000
  0.000   0.000 -10.623   0.000   0.000   0.000   0.000   0.020
  0.000   0.000   0.000 -10.644   0.000   0.000   0.000   0.000
  0.000   0.000   0.000   0.000 -10.623   0.000   0.000   0.000
  0.022   0.000   0.000   0.000   0.000   0.267   0.000   0.000
  0.000   0.022   0.000   0.000   0.000   0.000   0.267   0.000
  0.000   0.000   0.020   0.000   0.000   0.000   0.000   0.268
  0.000   0.000   0.000   0.022   0.000   0.000   0.000   0.000
  0.000   0.000   0.000   0.000   0.020   0.000   0.000   0.000
  0.000   0.000   0.000   0.000   0.000   0.000   0.000   0.000
  0.000   0.000   0.000   0.000   0.000   0.000   0.000   0.000
  0.000   0.000   0.000   0.000   0.000   0.000   0.000   0.000
  0.000   0.000   0.000   0.000   0.000   0.000   0.000   0.000
  0.000   0.000   0.000   0.000   0.000   0.000   0.000   0.000
  0.000   0.000   0.000   0.000   0.000   0.000   0.000   0.000
  0.000   0.000   0.000   0.000   0.000   0.000   0.000   0.000
  0.000   0.000   0.000   0.000   0.000   0.000   0.000   0.000
 total augmentation occupancy for first ion, spin component: 
                        1
  1.798  -0.015  -0.017  -0.004  -0.015   0.058   0.014  -0.010   0.000   0.018   0.031  -0.014   0.000   0.000   0.000   0.000
 -0.015   1.943   0.000  -0.016  -0.004   0.014  -0.068   0.004   0.019  -0.011   0.059   0.012   0.000   0.000   0.000   0.000
 -0.017   0.000   1.885   0.010  -0.036  -0.010   0.004  -0.019  -0.007   0.053  -0.072  -0.106   0.000   0.000   0.000   0.000
 -0.004  -0.016   0.010   1.899  -0.002   0.000   0.019  -0.007   0.000   0.018   0.031  -0.002   0.000   0.000   0.000   0.000
 -0.015  -0.004  -0.036  -0.002   1.987   0.018  -0.011   0.053   0.018  -0.164   0.092   0.071   0.000   0.000   0.000   0.000
  0.058   0.014  -0.010   0.000   0.018   0.194  -0.011   0.043  -0.001  -0.017   0.025   0.045   0.000   0.000   0.000   0.000
  0.014  -0.068   0.004   0.019  -0.011  -0.011   0.188  -0.011  -0.016   0.028  -0.026   0.020   0.000   0.000   0.000   0.000
 -0.010   0.004  -0.019  -0.007   0.053   0.043  -0.011   0.189   0.001  -0.008   0.180  -0.003   0.000   0.000   0.000   0.000
  0.000   0.019  -0.007   0.000   0.018  -0.001  -0.016   0.001   0.146  -0.035   0.003   0.026   0.000   0.000   0.000   0.000
  0.018  -0.011   0.053   0.018  -0.164  -0.017   0.028  -0.008  -0.035   0.169  -0.126   0.015   0.000   0.000   0.000   0.000
  0.031   0.059  -0.072   0.031   0.092   0.025  -0.026   0.180   0.003  -0.126   1.319  -0.335   0.000   0.000   0.000   0.000
 -0.014   0.012  -0.106  -0.002   0.071   0.045   0.020  -0.003   0.026   0.015  -0.335   0.194   0.000   0.000   0.000   0.000
  0.000   0.000   0.000   0.000   0.000   0.000   0.000   0.000   0.000   0.000   0.000   0.000   0.201   0.013  -0.023  -0.010
  0.000   0.000   0.000   0.000   0.000   0.000   0.000   0.000   0.000   0.000   0.000   0.000   0.013   0.133  -0.002  -0.001
  0.000   0.000   0.000   0.000   0.000   0.000   0.000   0.000   0.000   0.000   0.000   0.000  -0.023  -0.002   0.297  -0.001
  0.000   0.000   0.000   0.000   0.000   0.000   0.000   0.000   0.000   0.000   0.000   0.000  -0.010  -0.001  -0.001   0.001
  0.000   0.000   0.000   0.000   0.000   0.000   0.000   0.000   0.000   0.000   0.000   0.000  -0.001  -0.007  -0.001   0.000
  0.000   0.000   0.000   0.000   0.000   0.000   0.000   0.000   0.000   0.000   0.000   0.000  -0.001  -0.001  -0.017   0.000


------------------------ aborting loop because EDIFF is reached ----------------------------------------





 total charge     

# of ion     s       p       d       tot
----------------------------------------
  1        0.645   0.458   8.640   9.743
  2        0.395   0.344   9.143   9.882
  3        0.426   0.333   9.220   9.980
  4        0.403   0.323   9.276  10.002
------------------------------------------------
tot        1.870   1.458  36.279  39.606



--------------------------------------------------------------------------------------------------------




--------------------------------------------------------------------------------------------------------



  FREE ENERGIE OF THE ION-ELECTRON SYSTEM (eV)
  ---------------------------------------------------
  free  energy   TOTEN  =       -14.536879 eV

  energy  without entropy=      -14.521950  energy(sigma->0) =      -14.529415


  FORCE on cell =-STRESS in cart. coord.  units (eV/reduce length):
  Direction    X        Y        Z        XY       YZ       ZX
  --------------------------------------------------------------------------------------
  Alpha Z    417.92    417.92    417.92
  Ewald    -1405.44  -1405.44  -1405.44      0.00      0.00      0.00
  Hartree    362.13    362.13    362.13      0.00      0.00      0.00
  E(xc)     -238.52   -238.52   -238.52      0.00      0.00      0.00
  Local      422.22    422.22    422.22      0.00      0.00      0.00
  n-local   -150.77   -158.69   -161.45      0.63      2.56      1.32
  augment    211.38    211.38    211.38      0.00      0.00      0.00
  Kinetic    393.26    386.77    381.63     -3.37     -0.85     -1.82
  -------------------------------------------------------------------------------------
  Total       -0.06     -0.06     -0.06      0.00      0.00      0.00
  in kB       -1.82     -1.82     -1.82      0.00      0.00      0.00
  external pressure =       -1.82 kB  Pullay stress =        0.00 kB


 VOLUME and BASIS-vectors are now :
 -----------------------------------------------------------------------------
  energy-cutoff  :      350.00
  volume of cell :       54.41
      direct lattice vectors                 reciprocal lattice vectors
     3.789352358  0.000000000  0.000000000     0.263897338  0.000000000  0.000000000
     0.000000000  3.789352358  0.000000000     0.000000000  0.263897338  0.000000000
     0.000000000  0.000000000  3.789352358     0.000000000  0.000000000  0.263897338

  length of vectors
     3.789352358  3.789352358  3.789352358     0.263897338  0.263897338  0.263897338


 FORCES acting on ions
    electron-ion (+dipol)            ewald-force                    non-local-force                 convergence-correction
 -----------------------------------------------------------------------------------------------
   -.163E-12 -.186E-13 -.186E-13   -.312E-13 -.754E-14 -.133E-13   0.000E+00 0.000E+00 0.000E+00   0.136E-13 -.334E-13 -.565E-13
   0.400E-12 0.698E-12 0.455E-13   -.383E-14 0.130E-13 -.132E-13   0.000E+00 0.000E+00 0.000E+00   0.116E-12 -.281E-13 -.447E-13
   0.397E-12 0.312E-13 0.706E-12   0.133E-13 -.121E-13 0.124E-13   0.000E+00 0.000E+00 0.000E+00   0.125E-12 -.234E-13 0.447E-13
   -.303E-12 0.694E-12 0.710E-12   0.202E-13 0.846E-14 0.126E-13   0.000E+00 0.000E+00 0.000E+00   0.874E-13 0.110E-13 0.450E-13
 -----------------------------------------------------------------------------------------------
   0.331E-12 0.140E-11 0.144E-11   -.158E-14 0.184E-14 -.148E-14   0.000E+00 0.000E+00 0.000E+00   0.342E-12 -.738E-13 -.115E-13


 POSITION                                       TOTAL-FORCE (eV/Angst)
 -----------------------------------------------------------------------------------
      0.00000      0.00000      0.00000         0.000000      0.000000      0.000000
      1.89468      1.89468      0.00000         0.000000      0.000000      0.000000
      1.89468      0.00000      1.89468         0.000000      0.000000      0.000000
      0.00000      1.89468      1.89468         0.000000      0.000000      0.000000
 -----------------------------------------------------------------------------------
    total drift:                                0.000000      0.000000      0.000000


--------------------------------------------------------------------------------------------------------


 Quasi-Newton relaxation of ions (Broydens 2nd method)
  g(Force)  = 0.000E+00   g(Stress)= 0.963E-04

 Reset! Starting new Quasi-Newton update for ions 


--------------------------------------------------------------------------------------------------------


  
 reached required accuracy - stopping structural energy minimisation
     LOOP+:  VPU time   21.49: CPU time   20.45



 total charge     

# of ion     s       p       d       tot
----------------------------------------
  1        0.645   0.458   8.640   9.743
  2        0.395   0.344   9.143   9.882
  3        0.426   0.333   9.220   9.980
  4        0.403   0.323   9.276  10.002
------------------------------------------------
tot        1.870   1.458  36.279  39.606

  
  
 General timing and accounting informations for this job:
 ========================================================
  
                  Total CPU time used (sec):       22.752
                            User time (sec):       20.146
                          System time (sec):        2.606
                         Elapsed time (sec):       21.802
  
                   Maximum memory used (kb):           0.
                   Average memory used (kb):           0.
  
                          Minor page faults:       183940
                          Major page faults:            0
                 Voluntary context switches:       459582
