PROCAR lm decomposed
# of k-points:   10         # of bands:  26         # of ions:   4

 k-point    1 :    0.08333333 0.08333333 0.08333333     weight = 0.03703704

band   1 # energy   -4.92376119 # occ.  2.00000000

ion      s     py     pz     px    dxy    dyz    dz2    dxz    dx2    tot
  1  0.222  0.001  0.001  0.001  0.000  0.000  0.000  0.000  0.000  0.226
  2  0.119  0.001  0.001  0.001  0.000  0.000  0.001  0.000  0.000  0.122
  3  0.119  0.001  0.001  0.001  0.000  0.000  0.000  0.000  0.000  0.122
  4  0.119  0.001  0.001  0.001  0.000  0.000  0.000  0.000  0.000  0.122
tot  0.578  0.004  0.004  0.004  0.000  0.000  0.001  0.000  0.001  0.592

band   2 # energy   -1.91281578 # occ.  2.00000000

ion      s     py     pz     px    dxy    dyz    dz2    dxz    dx2    tot
  1  0.000  0.001  0.000  0.001  0.000  0.001  0.006  0.001  0.558  0.567
  2  0.000  0.001  0.000  0.001  0.000  0.000  0.000  0.000  0.116  0.119
  3  0.022  0.000  0.001  0.000  0.000  0.000  0.044  0.000  0.001  0.069
  4  0.021  0.000  0.001  0.000  0.000  0.000  0.047  0.000  0.001  0.070
tot  0.044  0.002  0.002  0.002  0.000  0.001  0.097  0.001  0.676  0.825

band   3 # energy   -1.91281565 # occ.  2.00000000

ion      s     py     pz     px    dxy    dyz    dz2    dxz    dx2    tot
  1  0.000  0.000  0.001  0.000  0.001  0.000  0.557  0.000  0.006  0.567
  2  0.029  0.000  0.000  0.000  0.000  0.000  0.022  0.000  0.001  0.053
  3  0.007  0.000  0.000  0.001  0.000  0.000  0.050  0.000  0.045  0.103
  4  0.008  0.001  0.000  0.000  0.000  0.000  0.047  0.000  0.045  0.102
tot  0.044  0.002  0.002  0.002  0.002  0.000  0.676  0.000  0.097  0.825

band   4 # energy   -1.20613777 # occ.  2.00000000

ion      s     py     pz     px    dxy    dyz    dz2    dxz    dx2    tot
  1  0.000  0.000  0.000  0.000  0.102  0.400  0.000  0.098  0.001  0.602
  2  0.000  0.001  0.000  0.000  0.032  0.036  0.000  0.011  0.000  0.079
  3  0.000  0.000  0.001  0.000  0.011  0.036  0.000  0.031  0.000  0.078
  4  0.000  0.001  0.001  0.000  0.007  0.125  0.000  0.007  0.000  0.143
tot  0.000  0.002  0.002  0.001  0.152  0.596  0.001  0.146  0.002  0.902

band   5 # energy   -1.20613764 # occ.  2.00000000

ion      s     py     pz     px    dxy    dyz    dz2    dxz    dx2    tot
  1  0.000  0.000  0.000  0.000  0.298  0.000  0.001  0.302  0.000  0.602
  2  0.000  0.001  0.000  0.001  0.093  0.000  0.000  0.025  0.000  0.121
  3  0.000  0.000  0.001  0.001  0.025  0.000  0.000  0.094  0.000  0.122
  4  0.000  0.000  0.000  0.000  0.028  0.000  0.000  0.029  0.000  0.057
tot  0.000  0.001  0.001  0.002  0.444  0.000  0.002  0.450  0.001  0.902

band   6 # energy   -1.17535405 # occ.  2.00000000

ion      s     py     pz     px    dxy    dyz    dz2    dxz    dx2    tot
  1  0.000  0.000  0.000  0.000  0.202  0.202  0.000  0.202  0.000  0.608
  2  0.000  0.000  0.001  0.000  0.066  0.015  0.000  0.015  0.000  0.099
  3  0.000  0.001  0.000  0.000  0.015  0.015  0.000  0.066  0.000  0.099
  4  0.000  0.000  0.000  0.001  0.015  0.066  0.000  0.015  0.000  0.099
tot  0.000  0.002  0.002  0.002  0.299  0.299  0.000  0.299  0.000  0.903

band   7 # energy   -0.17697080 # occ.  2.00000000

ion      s     py     pz     px    dxy    dyz    dz2    dxz    dx2    tot
  1  0.035  0.000  0.000  0.000  0.000  0.000  0.000  0.000  0.000  0.035
  2  0.007  0.000  0.002  0.000  0.000  0.000  0.254  0.000  0.000  0.265
  3  0.007  0.002  0.000  0.000  0.000  0.000  0.064  0.000  0.191  0.265
  4  0.007  0.000  0.000  0.002  0.000  0.000  0.064  0.000  0.191  0.265
tot  0.057  0.003  0.003  0.003  0.001  0.001  0.382  0.001  0.382  0.830

band   8 # energy    1.04531511 # occ.  2.00000000

ion      s     py     pz     px    dxy    dyz    dz2    dxz    dx2    tot
  1  0.000  0.000  0.000  0.000  0.028  0.028  0.000  0.028  0.000  0.084
  2  0.000  0.000  0.000  0.000  0.007  0.139  0.000  0.139  0.000  0.287
  3  0.000  0.000  0.000  0.000  0.139  0.139  0.000  0.007  0.000  0.287
  4  0.000  0.000  0.000  0.000  0.139  0.007  0.000  0.139  0.000  0.287
tot  0.000  0.001  0.001  0.001  0.313  0.313  0.000  0.313  0.000  0.944

band   9 # energy    1.15072244 # occ.  2.00000000

ion      s     py     pz     px    dxy    dyz    dz2    dxz    dx2    tot
  1  0.000  0.000  0.000  0.000  0.014  0.056  0.000  0.014  0.000  0.084
  2  0.000  0.000  0.000  0.000  0.007  0.275  0.000  0.068  0.001  0.351
  3  0.000  0.000  0.000  0.000  0.068  0.275  0.000  0.007  0.001  0.351
  4  0.000  0.000  0.000  0.000  0.069  0.027  0.000  0.069  0.000  0.166
tot  0.000  0.000  0.000  0.000  0.158  0.632  0.001  0.158  0.002  0.952

band  10 # energy    1.15072268 # occ.  2.00000000

ion      s     py     pz     px    dxy    dyz    dz2    dxz    dx2    tot
  1  0.000  0.000  0.000  0.000  0.042  0.000  0.000  0.042  0.000  0.084
  2  0.000  0.000  0.000  0.000  0.021  0.000  0.000  0.206  0.000  0.228
  3  0.000  0.000  0.000  0.000  0.207  0.000  0.001  0.021  0.000  0.228
  4  0.000  0.000  0.000  0.000  0.205  0.000  0.001  0.205  0.000  0.412
tot  0.000  0.000  0.000  0.000  0.474  0.000  0.002  0.474  0.001  0.952

band  11 # energy    1.89427975 # occ.  2.00000000

ion      s     py     pz     px    dxy    dyz    dz2    dxz    dx2    tot
  1  0.000  0.000  0.000  0.000  0.000  0.000  0.079  0.001  0.057  0.137
  2  0.000  0.000  0.000  0.000  0.000  0.000  0.075  0.001  0.179  0.255
  3  0.000  0.000  0.000  0.000  0.001  0.000  0.129  0.000  0.034  0.164
  4  0.000  0.000  0.000  0.000  0.000  0.000  0.275  0.001  0.142  0.419
tot  0.000  0.000  0.000  0.000  0.001  0.000  0.558  0.002  0.413  0.976

band  12 # energy    1.89428000 # occ.  2.00000000

ion      s     py     pz     px    dxy    dyz    dz2    dxz    dx2    tot
  1  0.000  0.000  0.000  0.000  0.000  0.001  0.057  0.000  0.079  0.137
  2  0.000  0.000  0.000  0.000  0.000  0.001  0.054  0.000  0.248  0.303
  3  0.000  0.000  0.000  0.000  0.000  0.001  0.224  0.000  0.170  0.395
  4  0.000  0.000  0.000  0.000  0.000  0.000  0.078  0.000  0.061  0.140
tot  0.000  0.000  0.000  0.000  0.001  0.002  0.413  0.000  0.558  0.976

band  13 # energy    2.32142931 # occ.  2.00000000

ion      s     py     pz     px    dxy    dyz    dz2    dxz    dx2    tot
  1  0.003  0.006  0.006  0.006  0.064  0.064  0.000  0.064  0.000  0.214
  2  0.000  0.004  0.003  0.004  0.231  0.000  0.003  0.000  0.000  0.244
  3  0.000  0.003  0.004  0.004  0.000  0.000  0.001  0.231  0.002  0.244
  4  0.000  0.004  0.004  0.003  0.000  0.231  0.001  0.000  0.002  0.244
tot  0.004  0.016  0.016  0.016  0.295  0.295  0.004  0.295  0.004  0.946

band  14 # energy    2.35620628 # occ.  2.00000000

ion      s     py     pz     px    dxy    dyz    dz2    dxz    dx2    tot
  1  0.000  0.006  0.004  0.000  0.017  0.001  0.003  0.029  0.002  0.063
  2  0.001  0.005  0.003  0.000  0.072  0.207  0.004  0.024  0.000  0.316
  3  0.002  0.005  0.004  0.001  0.105  0.211  0.002  0.119  0.005  0.452
  4  0.000  0.004  0.002  0.000  0.094  0.006  0.000  0.018  0.000  0.125
tot  0.003  0.020  0.012  0.001  0.287  0.426  0.009  0.189  0.008  0.956

band  15 # energy    2.35620640 # occ.  2.00000000

ion      s     py     pz     px    dxy    dyz    dz2    dxz    dx2    tot
  1  0.000  0.001  0.003  0.006  0.014  0.030  0.002  0.003  0.003  0.063
  2  0.001  0.000  0.002  0.005  0.059  0.013  0.003  0.195  0.000  0.279
  3  0.000  0.001  0.002  0.005  0.115  0.008  0.000  0.012  0.001  0.143
  4  0.002  0.001  0.003  0.005  0.126  0.125  0.002  0.202  0.005  0.471
tot  0.003  0.002  0.010  0.021  0.314  0.176  0.008  0.412  0.009  0.956

band  16 # energy    2.40656299 # occ.  2.00000000

ion      s     py     pz     px    dxy    dyz    dz2    dxz    dx2    tot
  1  0.000  0.000  0.000  0.000  0.003  0.000  0.079  0.005  0.045  0.133
  2  0.000  0.000  0.000  0.000  0.012  0.020  0.289  0.003  0.020  0.345
  3  0.000  0.000  0.000  0.000  0.007  0.020  0.053  0.016  0.339  0.436
  4  0.000  0.000  0.000  0.000  0.008  0.000  0.058  0.003  0.002  0.072
tot  0.000  0.001  0.001  0.000  0.030  0.041  0.480  0.027  0.405  0.985

band  17 # energy    2.40656309 # occ.  2.00000000

ion      s     py     pz     px    dxy    dyz    dz2    dxz    dx2    tot
  1  0.000  0.000  0.000  0.000  0.002  0.005  0.045  0.001  0.079  0.133
  2  0.000  0.000  0.000  0.000  0.007  0.000  0.164  0.018  0.035  0.224
  3  0.000  0.000  0.000  0.000  0.013  0.000  0.101  0.003  0.015  0.132
  4  0.000  0.000  0.000  0.001  0.013  0.018  0.096  0.017  0.351  0.496
tot  0.000  0.000  0.000  0.001  0.035  0.024  0.405  0.039  0.480  0.985

band  18 # energy    2.41644682 # occ.  2.00000000

ion      s     py     pz     px    dxy    dyz    dz2    dxz    dx2    tot
  1  0.000  0.000  0.000  0.000  0.000  0.000  0.000  0.000  0.000  0.000
  2  0.000  0.000  0.000  0.000  0.000  0.014  0.000  0.014  0.301  0.329
  3  0.000  0.000  0.000  0.000  0.014  0.014  0.226  0.000  0.075  0.329
  4  0.000  0.000  0.000  0.000  0.014  0.000  0.226  0.014  0.075  0.329
tot  0.000  0.000  0.000  0.000  0.027  0.027  0.452  0.027  0.452  0.987

band  19 # energy    2.58208388 # occ.  2.00000000

ion      s     py     pz     px    dxy    dyz    dz2    dxz    dx2    tot
  1  0.000  0.000  0.000  0.000  0.000  0.000  0.000  0.000  0.000  0.000
  2  0.000  0.000  0.000  0.000  0.000  0.151  0.000  0.151  0.028  0.331
  3  0.000  0.000  0.000  0.000  0.151  0.151  0.021  0.000  0.007  0.331
  4  0.000  0.000  0.000  0.000  0.151  0.000  0.021  0.151  0.007  0.331
tot  0.000  0.000  0.000  0.000  0.303  0.303  0.042  0.303  0.042  0.992

band  20 # energy    2.64439880 # occ.  2.00000000

ion      s     py     pz     px    dxy    dyz    dz2    dxz    dx2    tot
  1  0.000  0.000  0.000  0.000  0.027  0.115  0.003  0.031  0.011  0.186
  2  0.000  0.000  0.000  0.000  0.078  0.000  0.009  0.058  0.006  0.153
  3  0.000  0.000  0.000  0.000  0.061  0.000  0.014  0.091  0.003  0.168
  4  0.000  0.000  0.000  0.000  0.053  0.338  0.010  0.050  0.030  0.483
tot  0.000  0.000  0.000  0.001  0.219  0.454  0.037  0.231  0.049  0.991

band  21 # energy    2.64439883 # occ.  2.00000000

ion      s     py     pz     px    dxy    dyz    dz2    dxz    dx2    tot
  1  0.000  0.000  0.000  0.000  0.088  0.000  0.011  0.084  0.003  0.186
  2  0.000  0.000  0.000  0.000  0.260  0.074  0.031  0.016  0.002  0.383
  3  0.000  0.000  0.000  0.000  0.014  0.074  0.002  0.247  0.030  0.368
  4  0.000  0.000  0.000  0.000  0.021  0.000  0.005  0.024  0.002  0.053
tot  0.000  0.000  0.001  0.000  0.383  0.149  0.049  0.372  0.037  0.991

band  22 # energy    5.42335009 # occ.  0.00000000

ion      s     py     pz     px    dxy    dyz    dz2    dxz    dx2    tot
  1  0.054  0.033  0.033  0.033  0.017  0.017  0.000  0.017  0.000  0.205
  2  0.007  0.031  0.037  0.031  0.020  0.000  0.021  0.000  0.000  0.148
  3  0.007  0.037  0.031  0.031  0.000  0.000  0.005  0.020  0.016  0.148
  4  0.007  0.031  0.031  0.037  0.000  0.020  0.005  0.000  0.016  0.148
tot  0.077  0.132  0.132  0.132  0.038  0.038  0.031  0.038  0.031  0.649

band  23 # energy    5.48415675 # occ.  0.00000000

ion      s     py     pz     px    dxy    dyz    dz2    dxz    dx2    tot
  1  0.000  0.092  0.025  0.023  0.002  0.002  0.006  0.009  0.016  0.174
  2  0.009  0.070  0.018  0.021  0.003  0.012  0.000  0.000  0.006  0.139
  3  0.034  0.066  0.015  0.014  0.013  0.013  0.000  0.011  0.000  0.167
  4  0.008  0.071  0.023  0.016  0.011  0.003  0.005  0.000  0.001  0.139
tot  0.052  0.298  0.080  0.074  0.030  0.030  0.011  0.020  0.023  0.619

band  24 # energy    5.48415680 # occ.  0.00000000

ion      s     py     pz     px    dxy    dyz    dz2    dxz    dx2    tot
  1  0.000  0.001  0.068  0.070  0.007  0.007  0.016  0.000  0.006  0.174
  2  0.025  0.001  0.049  0.050  0.008  0.005  0.000  0.016  0.002  0.157
  3  0.000  0.001  0.056  0.058  0.004  0.003  0.006  0.000  0.002  0.129
  4  0.026  0.001  0.049  0.050  0.005  0.008  0.001  0.016  0.001  0.158
tot  0.052  0.004  0.222  0.228  0.024  0.023  0.023  0.033  0.011  0.619

band  25 # energy   10.87984110 # occ.  0.00000000

ion      s     py     pz     px    dxy    dyz    dz2    dxz    dx2    tot
  1  0.262  0.011  0.011  0.011  0.001  0.001  0.000  0.001  0.000  0.298
  2  0.031  0.008  0.005  0.008  0.000  0.000  0.086  0.000  0.000  0.138
  3  0.032  0.005  0.008  0.008  0.000  0.000  0.022  0.000  0.064  0.139
  4  0.033  0.008  0.008  0.005  0.000  0.000  0.022  0.000  0.064  0.139
tot  0.358  0.032  0.032  0.031  0.001  0.001  0.129  0.001  0.128  0.713

band  26 # energy   11.97490603 # occ.  0.00000000

ion      s     py     pz     px    dxy    dyz    dz2    dxz    dx2    tot
  1  0.000  0.004  0.000  0.003  0.000  0.000  0.004  0.000  0.132  0.144
  2  0.009  0.010  0.000  0.009  0.000  0.000  0.000  0.000  0.066  0.095
  3  0.250  0.013  0.000  0.004  0.000  0.000  0.015  0.000  0.001  0.284
  4  0.180  0.007  0.001  0.010  0.000  0.000  0.029  0.000  0.001  0.230
tot  0.439  0.036  0.002  0.026  0.000  0.000  0.049  0.000  0.200  0.753


 k-point    2 :    0.25000000 0.08333333 0.08333333     weight = 0.11111111

band   1 # energy   -4.30036951 # occ.  2.00000000

ion      s     py     pz     px    dxy    dyz    dz2    dxz    dx2    tot
  1  0.215  0.001  0.001  0.009  0.001  0.000  0.001  0.001  0.003  0.232
  2  0.104  0.001  0.001  0.010  0.001  0.000  0.000  0.000  0.000  0.116
  3  0.104  0.001  0.001  0.010  0.000  0.000  0.000  0.001  0.000  0.116
  4  0.121  0.001  0.001  0.005  0.000  0.000  0.001  0.000  0.002  0.131
tot  0.544  0.004  0.004  0.033  0.002  0.000  0.002  0.002  0.005  0.595

band   2 # energy   -1.71267538 # occ.  2.00000000

ion      s     py     pz     px    dxy    dyz    dz2    dxz    dx2    tot
  1  0.000  0.001  0.001  0.000  0.006  0.000  0.442  0.006  0.147  0.603
  2  0.014  0.000  0.000  0.007  0.002  0.000  0.011  0.000  0.018  0.052
  3  0.014  0.000  0.000  0.007  0.000  0.000  0.004  0.002  0.025  0.052
  4  0.000  0.001  0.001  0.000  0.001  0.000  0.091  0.001  0.030  0.124
tot  0.028  0.002  0.002  0.014  0.009  0.000  0.548  0.009  0.221  0.831

band   3 # energy   -1.67531109 # occ.  2.00000000

ion      s     py     pz     px    dxy    dyz    dz2    dxz    dx2    tot
  1  0.002  0.000  0.000  0.014  0.009  0.003  0.124  0.009  0.371  0.532
  2  0.024  0.000  0.000  0.004  0.001  0.000  0.001  0.001  0.070  0.103
  3  0.024  0.000  0.000  0.004  0.001  0.000  0.060  0.001  0.011  0.103
  4  0.026  0.000  0.000  0.003  0.000  0.001  0.009  0.000  0.028  0.068
tot  0.077  0.001  0.001  0.025  0.011  0.004  0.194  0.011  0.480  0.805

band   4 # energy   -1.10706433 # occ.  2.00000000

ion      s     py     pz     px    dxy    dyz    dz2    dxz    dx2    tot
  1  0.000  0.000  0.000  0.000  0.061  0.497  0.003  0.061  0.008  0.631
  2  0.000  0.002  0.000  0.000  0.011  0.029  0.000  0.009  0.002  0.053
  3  0.000  0.000  0.002  0.000  0.009  0.029  0.001  0.011  0.000  0.053
  4  0.000  0.002  0.002  0.000  0.004  0.153  0.000  0.004  0.000  0.166
tot  0.000  0.004  0.004  0.001  0.085  0.709  0.004  0.085  0.011  0.903

band   5 # energy   -1.08983385 # occ.  2.00000000

ion      s     py     pz     px    dxy    dyz    dz2    dxz    dx2    tot
  1  0.000  0.000  0.000  0.000  0.318  0.000  0.010  0.318  0.003  0.650
  2  0.001  0.007  0.002  0.002  0.059  0.001  0.000  0.017  0.000  0.090
  3  0.001  0.002  0.007  0.002  0.017  0.001  0.000  0.059  0.000  0.090
  4  0.000  0.000  0.000  0.000  0.030  0.000  0.002  0.030  0.001  0.064
tot  0.001  0.010  0.010  0.003  0.424  0.002  0.013  0.424  0.005  0.893

band   6 # energy   -1.02565483 # occ.  2.00000000

ion      s     py     pz     px    dxy    dyz    dz2    dxz    dx2    tot
  1  0.001  0.000  0.000  0.001  0.256  0.134  0.002  0.256  0.006  0.657
  2  0.000  0.006  0.003  0.001  0.051  0.003  0.000  0.010  0.002  0.076
  3  0.000  0.003  0.006  0.001  0.010  0.003  0.001  0.051  0.000  0.076
  4  0.000  0.000  0.000  0.001  0.020  0.047  0.000  0.020  0.000  0.087
tot  0.001  0.010  0.010  0.003  0.338  0.188  0.003  0.338  0.008  0.897

band   7 # energy   -0.04551350 # occ.  2.00000000

ion      s     py     pz     px    dxy    dyz    dz2    dxz    dx2    tot
  1  0.041  0.000  0.000  0.000  0.000  0.000  0.004  0.000  0.012  0.056
  2  0.012  0.000  0.002  0.003  0.005  0.000  0.261  0.001  0.005  0.289
  3  0.012  0.002  0.000  0.003  0.001  0.000  0.100  0.005  0.166  0.289
  4  0.003  0.000  0.000  0.016  0.002  0.000  0.040  0.002  0.120  0.184
tot  0.067  0.002  0.002  0.022  0.008  0.001  0.404  0.008  0.303  0.818

band   8 # energy    0.90917356 # occ.  2.00000000

ion      s     py     pz     px    dxy    dyz    dz2    dxz    dx2    tot
  1  0.001  0.001  0.001  0.000  0.010  0.041  0.000  0.010  0.000  0.064
  2  0.000  0.001  0.000  0.000  0.002  0.332  0.003  0.051  0.000  0.389
  3  0.000  0.000  0.001  0.000  0.051  0.332  0.001  0.002  0.002  0.389
  4  0.000  0.001  0.001  0.000  0.040  0.007  0.000  0.040  0.001  0.091
tot  0.001  0.003  0.003  0.001  0.103  0.711  0.004  0.103  0.003  0.932

band   9 # energy    1.22281593 # occ.  2.00000000

ion      s     py     pz     px    dxy    dyz    dz2    dxz    dx2    tot
  1  0.001  0.002  0.002  0.001  0.048  0.010  0.000  0.048  0.000  0.111
  2  0.000  0.001  0.000  0.001  0.001  0.097  0.008  0.181  0.005  0.293
  3  0.000  0.000  0.001  0.001  0.181  0.097  0.000  0.001  0.013  0.293
  4  0.000  0.002  0.002  0.000  0.106  0.030  0.000  0.106  0.000  0.247
tot  0.002  0.005  0.005  0.002  0.336  0.233  0.008  0.336  0.018  0.944

band  10 # energy    1.23408883 # occ.  2.00000000

ion      s     py     pz     px    dxy    dyz    dz2    dxz    dx2    tot
  1  0.000  0.001  0.001  0.000  0.054  0.000  0.000  0.054  0.000  0.111
  2  0.000  0.001  0.000  0.000  0.000  0.000  0.004  0.247  0.002  0.254
  3  0.000  0.000  0.001  0.000  0.247  0.000  0.004  0.000  0.001  0.254
  4  0.000  0.003  0.003  0.000  0.156  0.000  0.007  0.156  0.002  0.326
tot  0.000  0.005  0.005  0.000  0.457  0.001  0.015  0.457  0.005  0.945

band  11 # energy    1.57962802 # occ.  2.00000000

ion      s     py     pz     px    dxy    dyz    dz2    dxz    dx2    tot
  1  0.010  0.005  0.005  0.009  0.014  0.002  0.029  0.014  0.087  0.175
  2  0.002  0.002  0.003  0.003  0.170  0.001  0.002  0.000  0.139  0.323
  3  0.002  0.003  0.002  0.003  0.000  0.001  0.118  0.170  0.023  0.323
  4  0.000  0.002  0.002  0.001  0.030  0.016  0.007  0.030  0.021  0.110
tot  0.015  0.011  0.011  0.017  0.215  0.020  0.156  0.215  0.270  0.931

band  12 # energy    1.67906228 # occ.  2.00000000

ion      s     py     pz     px    dxy    dyz    dz2    dxz    dx2    tot
  1  0.000  0.011  0.011  0.000  0.014  0.000  0.015  0.014  0.005  0.072
  2  0.003  0.005  0.005  0.000  0.243  0.017  0.000  0.033  0.015  0.321
  3  0.003  0.005  0.005  0.000  0.033  0.017  0.010  0.243  0.005  0.321
  4  0.000  0.005  0.005  0.000  0.093  0.000  0.009  0.093  0.003  0.209
tot  0.006  0.027  0.027  0.000  0.384  0.034  0.035  0.384  0.028  0.924

band  13 # energy    1.73693439 # occ.  2.00000000

ion      s     py     pz     px    dxy    dyz    dz2    dxz    dx2    tot
  1  0.000  0.005  0.005  0.000  0.002  0.008  0.023  0.002  0.070  0.116
  2  0.000  0.002  0.003  0.001  0.091  0.001  0.020  0.005  0.154  0.277
  3  0.000  0.003  0.002  0.001  0.005  0.001  0.072  0.091  0.102  0.277
  4  0.004  0.002  0.002  0.000  0.097  0.024  0.012  0.097  0.035  0.274
tot  0.004  0.013  0.013  0.002  0.195  0.034  0.127  0.195  0.361  0.945

band  14 # energy    1.96045495 # occ.  2.00000000

ion      s     py     pz     px    dxy    dyz    dz2    dxz    dx2    tot
  1  0.006  0.000  0.000  0.019  0.007  0.000  0.001  0.007  0.002  0.041
  2  0.009  0.000  0.001  0.011  0.058  0.001  0.019  0.150  0.047  0.297
  3  0.009  0.001  0.000  0.011  0.150  0.001  0.014  0.058  0.052  0.297
  4  0.008  0.001  0.001  0.013  0.118  0.015  0.000  0.118  0.001  0.275
tot  0.033  0.003  0.003  0.054  0.332  0.016  0.034  0.332  0.102  0.909

band  15 # energy    1.98547882 # occ.  2.00000000

ion      s     py     pz     px    dxy    dyz    dz2    dxz    dx2    tot
  1  0.000  0.000  0.000  0.000  0.001  0.000  0.098  0.001  0.033  0.133
  2  0.000  0.000  0.001  0.000  0.005  0.002  0.064  0.000  0.095  0.167
  3  0.000  0.001  0.000  0.000  0.000  0.002  0.155  0.005  0.004  0.167
  4  0.000  0.000  0.000  0.000  0.028  0.000  0.339  0.028  0.113  0.508
tot  0.000  0.001  0.001  0.000  0.035  0.004  0.656  0.035  0.245  0.976

band  16 # energy    2.19842501 # occ.  2.00000000

ion      s     py     pz     px    dxy    dyz    dz2    dxz    dx2    tot
  1  0.000  0.001  0.001  0.001  0.001  0.007  0.025  0.001  0.076  0.114
  2  0.000  0.000  0.000  0.000  0.003  0.000  0.095  0.000  0.012  0.110
  3  0.000  0.000  0.000  0.000  0.000  0.000  0.062  0.003  0.045  0.110
  4  0.000  0.000  0.000  0.001  0.000  0.031  0.152  0.000  0.456  0.642
tot  0.001  0.002  0.002  0.003  0.004  0.039  0.334  0.004  0.588  0.976

band  17 # energy    2.20783463 # occ.  2.00000000

ion      s     py     pz     px    dxy    dyz    dz2    dxz    dx2    tot
  1  0.000  0.000  0.000  0.000  0.009  0.000  0.026  0.009  0.009  0.053
  2  0.000  0.000  0.001  0.000  0.045  0.006  0.258  0.077  0.000  0.387
  3  0.000  0.001  0.000  0.000  0.077  0.006  0.057  0.045  0.201  0.387
  4  0.000  0.001  0.001  0.000  0.064  0.000  0.015  0.064  0.005  0.149
tot  0.000  0.002  0.002  0.000  0.195  0.012  0.355  0.195  0.215  0.977

band  18 # energy    2.24646918 # occ.  2.00000000

ion      s     py     pz     px    dxy    dyz    dz2    dxz    dx2    tot
  1  0.000  0.000  0.000  0.000  0.005  0.000  0.003  0.005  0.001  0.016
  2  0.000  0.001  0.000  0.001  0.023  0.013  0.036  0.011  0.308  0.394
  3  0.000  0.000  0.001  0.001  0.011  0.013  0.148  0.023  0.196  0.394
  4  0.000  0.000  0.000  0.000  0.011  0.000  0.113  0.011  0.038  0.173
tot  0.001  0.001  0.001  0.002  0.052  0.026  0.301  0.052  0.542  0.977

band  19 # energy    2.50564112 # occ.  2.00000000

ion      s     py     pz     px    dxy    dyz    dz2    dxz    dx2    tot
  1  0.000  0.000  0.000  0.000  0.020  0.000  0.035  0.020  0.012  0.088
  2  0.000  0.000  0.000  0.000  0.067  0.002  0.107  0.074  0.036  0.287
  3  0.000  0.000  0.000  0.000  0.074  0.002  0.108  0.067  0.035  0.287
  4  0.000  0.000  0.000  0.000  0.079  0.000  0.127  0.079  0.042  0.327
tot  0.000  0.000  0.000  0.000  0.240  0.005  0.378  0.240  0.126  0.989

band  20 # energy    2.57072681 # occ.  2.00000000

ion      s     py     pz     px    dxy    dyz    dz2    dxz    dx2    tot
  1  0.000  0.000  0.000  0.000  0.008  0.000  0.003  0.008  0.001  0.019
  2  0.000  0.000  0.000  0.000  0.015  0.447  0.009  0.003  0.006  0.480
  3  0.000  0.000  0.000  0.000  0.003  0.447  0.000  0.015  0.015  0.480
  4  0.000  0.000  0.000  0.000  0.006  0.000  0.000  0.006  0.000  0.011
tot  0.000  0.000  0.000  0.000  0.031  0.894  0.012  0.031  0.022  0.991

band  21 # energy    2.63501533 # occ.  2.00000000

ion      s     py     pz     px    dxy    dyz    dz2    dxz    dx2    tot
  1  0.000  0.000  0.000  0.000  0.003  0.214  0.001  0.003  0.004  0.227
  2  0.000  0.000  0.000  0.000  0.017  0.000  0.003  0.022  0.001  0.044
  3  0.000  0.000  0.000  0.000  0.022  0.000  0.004  0.017  0.001  0.044
  4  0.000  0.000  0.000  0.000  0.010  0.638  0.004  0.010  0.013  0.675
tot  0.000  0.000  0.000  0.000  0.052  0.852  0.013  0.052  0.020  0.990

band  22 # energy    3.37625793 # occ.  2.00000000

ion      s     py     pz     px    dxy    dyz    dz2    dxz    dx2    tot
  1  0.039  0.001  0.001  0.059  0.025  0.000  0.011  0.025  0.033  0.195
  2  0.035  0.002  0.000  0.041  0.050  0.000  0.021  0.029  0.025  0.202
  3  0.035  0.000  0.002  0.041  0.029  0.000  0.004  0.050  0.042  0.202
  4  0.024  0.000  0.000  0.041  0.039  0.001  0.010  0.039  0.030  0.184
tot  0.132  0.003  0.003  0.182  0.144  0.001  0.046  0.144  0.130  0.784

band  23 # energy    6.66393638 # occ.  0.00000000

ion      s     py     pz     px    dxy    dyz    dz2    dxz    dx2    tot
  1  0.040  0.048  0.048  0.004  0.021  0.013  0.002  0.021  0.005  0.203
  2  0.000  0.041  0.048  0.000  0.023  0.000  0.016  0.019  0.004  0.150
  3  0.000  0.048  0.041  0.000  0.019  0.000  0.013  0.023  0.007  0.150
  4  0.045  0.042  0.042  0.002  0.013  0.014  0.002  0.013  0.005  0.176
tot  0.085  0.178  0.178  0.006  0.076  0.027  0.033  0.076  0.020  0.679

band  24 # energy    6.78533333 # occ.  0.00000000

ion      s     py     pz     px    dxy    dyz    dz2    dxz    dx2    tot
  1  0.000  0.063  0.063  0.000  0.023  0.000  0.018  0.023  0.006  0.196
  2  0.030  0.036  0.042  0.002  0.025  0.007  0.000  0.019  0.002  0.163
  3  0.030  0.042  0.036  0.002  0.019  0.007  0.001  0.025  0.001  0.163
  4  0.000  0.056  0.056  0.000  0.012  0.000  0.006  0.012  0.002  0.145
tot  0.059  0.198  0.198  0.004  0.079  0.013  0.025  0.079  0.011  0.667

band  25 # energy   11.67435470 # occ.  0.00000000

ion      s     py     pz     px    dxy    dyz    dz2    dxz    dx2    tot
  1  0.051  0.017  0.013  0.000  0.002  0.000  0.010  0.009  0.015  0.118
  2  0.187  0.007  0.005  0.010  0.002  0.000  0.007  0.006  0.014  0.237
  3  0.181  0.008  0.004  0.012  0.003  0.000  0.005  0.002  0.019  0.235
  4  0.052  0.022  0.018  0.000  0.001  0.000  0.005  0.005  0.012  0.116
tot  0.470  0.055  0.040  0.023  0.008  0.000  0.027  0.023  0.060  0.705

band  26 # energy   11.67975765 # occ.  0.00000000

ion      s     py     pz     px    dxy    dyz    dz2    dxz    dx2    tot
  1  0.161  0.005  0.007  0.001  0.012  0.000  0.016  0.005  0.009  0.216
  2  0.056  0.016  0.025  0.004  0.001  0.000  0.032  0.000  0.004  0.139
  3  0.063  0.019  0.021  0.002  0.004  0.000  0.025  0.000  0.008  0.142
  4  0.163  0.007  0.008  0.002  0.006  0.000  0.013  0.003  0.012  0.216
tot  0.443  0.048  0.061  0.010  0.024  0.000  0.086  0.007  0.033  0.712


 k-point    3 :    0.41666667 0.08333333 0.08333333     weight = 0.11111111

band   1 # energy   -3.25363566 # occ.  2.00000000

ion      s     py     pz     px    dxy    dyz    dz2    dxz    dx2    tot
  1  0.222  0.001  0.001  0.010  0.002  0.000  0.014  0.002  0.041  0.294
  2  0.048  0.000  0.000  0.029  0.001  0.000  0.000  0.001  0.000  0.080
  3  0.048  0.000  0.000  0.029  0.001  0.000  0.000  0.001  0.000  0.080
  4  0.140  0.001  0.001  0.006  0.000  0.000  0.004  0.000  0.012  0.165
tot  0.458  0.003  0.003  0.075  0.004  0.001  0.018  0.004  0.053  0.620

band   2 # energy   -1.76543915 # occ.  2.00000000

ion      s     py     pz     px    dxy    dyz    dz2    dxz    dx2    tot
  1  0.015  0.000  0.000  0.049  0.041  0.001  0.035  0.041  0.106  0.289
  2  0.114  0.000  0.002  0.007  0.000  0.001  0.002  0.001  0.027  0.153
  3  0.114  0.002  0.000  0.007  0.001  0.001  0.014  0.000  0.015  0.153
  4  0.019  0.000  0.000  0.031  0.000  0.001  0.006  0.000  0.017  0.073
tot  0.261  0.002  0.002  0.094  0.041  0.003  0.058  0.041  0.166  0.669

band   3 # energy   -1.46827934 # occ.  2.00000000

ion      s     py     pz     px    dxy    dyz    dz2    dxz    dx2    tot
  1  0.000  0.001  0.001  0.000  0.004  0.000  0.486  0.004  0.162  0.656
  2  0.002  0.000  0.000  0.016  0.001  0.000  0.002  0.000  0.003  0.025
  3  0.002  0.000  0.000  0.016  0.000  0.000  0.001  0.001  0.004  0.025
  4  0.000  0.001  0.001  0.000  0.000  0.000  0.098  0.000  0.033  0.133
tot  0.005  0.001  0.001  0.031  0.005  0.000  0.587  0.005  0.202  0.839

band   4 # energy   -0.97420480 # occ.  2.00000000

ion      s     py     pz     px    dxy    dyz    dz2    dxz    dx2    tot
  1  0.000  0.000  0.000  0.000  0.002  0.667  0.001  0.002  0.002  0.674
  2  0.000  0.000  0.000  0.000  0.000  0.006  0.000  0.005  0.000  0.012
  3  0.000  0.000  0.000  0.000  0.005  0.006  0.000  0.000  0.000  0.012
  4  0.000  0.002  0.002  0.000  0.000  0.210  0.000  0.000  0.000  0.215
tot  0.001  0.003  0.003  0.000  0.007  0.888  0.001  0.007  0.002  0.912

band   5 # energy   -0.96537176 # occ.  2.00000000

ion      s     py     pz     px    dxy    dyz    dz2    dxz    dx2    tot
  1  0.000  0.000  0.000  0.000  0.358  0.000  0.006  0.358  0.002  0.724
  2  0.004  0.016  0.006  0.001  0.010  0.002  0.001  0.003  0.000  0.043
  3  0.004  0.006  0.016  0.001  0.003  0.002  0.000  0.010  0.001  0.043
  4  0.000  0.000  0.000  0.000  0.034  0.000  0.001  0.034  0.000  0.070
tot  0.007  0.022  0.022  0.001  0.405  0.005  0.009  0.405  0.004  0.881

band   6 # energy   -0.78764578 # occ.  2.00000000

ion      s     py     pz     px    dxy    dyz    dz2    dxz    dx2    tot
  1  0.000  0.000  0.000  0.008  0.325  0.007  0.007  0.325  0.020  0.691
  2  0.008  0.019  0.004  0.000  0.011  0.002  0.002  0.003  0.008  0.056
  3  0.008  0.004  0.019  0.000  0.003  0.002  0.003  0.011  0.007  0.056
  4  0.000  0.000  0.000  0.000  0.031  0.003  0.001  0.031  0.002  0.067
tot  0.016  0.023  0.023  0.009  0.369  0.013  0.012  0.369  0.036  0.870

band   7 # energy    0.15807542 # occ.  2.00000000

ion      s     py     pz     px    dxy    dyz    dz2    dxz    dx2    tot
  1  0.052  0.000  0.000  0.000  0.000  0.000  0.073  0.000  0.220  0.347
  2  0.008  0.000  0.001  0.007  0.024  0.000  0.167  0.001  0.027  0.236
  3  0.008  0.001  0.000  0.007  0.001  0.000  0.119  0.024  0.074  0.236
  4  0.000  0.000  0.000  0.020  0.003  0.000  0.001  0.003  0.003  0.030
tot  0.069  0.001  0.001  0.034  0.029  0.001  0.360  0.029  0.323  0.847

band   8 # energy    0.72650727 # occ.  2.00000000

ion      s     py     pz     px    dxy    dyz    dz2    dxz    dx2    tot
  1  0.018  0.002  0.002  0.016  0.002  0.002  0.037  0.002  0.112  0.194
  2  0.002  0.000  0.000  0.004  0.069  0.069  0.119  0.020  0.045  0.328
  3  0.002  0.000  0.000  0.004  0.020  0.069  0.127  0.069  0.037  0.328