<?xml version="1.0" encoding="ISO-8859-1"?>
<modeling>
 <generator>
  <i name="program"" type=""stringvasp</i>
  <i name="version"" type=""string4.6.26 </i>
  <i name="subversion"" type=""string15Dec04 complex  serial</i>
  <i name="platform"" type=""stringLinuxPgi</i>
  <i name="date"" type=""string2009 11 30</i>
  <i name="time"" type=""string23:41:54</i>
 </generator>
 <incar>
  <i type=""string"" nameSYSTEM"" Au, FCC</i>
  <i type=""int"" nameISTART""     0</i>
  <i type=""string"" namePREC""normal ! set fft mesh, cutoffs</i>
  <i type=""string"" nameALGO"" Fast   ! use fast algorithm for electro</i>
  <i type=""int"" nameISPIN""     1</i>
  <i name="EDIFF""      0.00010000</i>
  <i name="EDIFFG""      0.00100000</i>
  <i type=""int"" nameIBRION""     1</i>
  <i type=""int"" nameNFREE""     5</i>
  <i type=""int"" nameNSW""    10</i>
  <i type=""int"" nameISIF""     3</i>
  <i name="ENCUT""    350.00000000</i>
  <i name="POTIM""      0.35000000</i>
  <i type=""int"" nameISMEAR""     0</i>
  <i name="SIGMA""      0.10000000</i>
  <i type=""int"" nameNWRITE""     1</i>
  <i type=""logical"" nameLWAVE"" F  </i>
  <i type=""logical"" nameLCHARG"" T  </i>
  <i type=""logical"" nameLVTOT"" F  </i>
  <i type=""logical"" nameLORBIT"" F  </i>
 </incar>
 <kpoints>
  <generation param="Monkhorst-Pack">
   <v type=""int"" namedivisions""       6       6       6</v>
   <v name="usershift""      0.00000000      0.00000000      0.00000000</v>
   <v name="genvec1""      0.16666667      0.00000000      0.00000000</v>
   <v name="genvec2""      0.00000000      0.16666667      0.00000000</v>
   <v name="genvec3""      0.00000000      0.00000000      0.16666667</v>
   <v name="shift""      0.50000000      0.50000000      0.50000000</v>
  </generation>
  <varray name="kpointlist"">
   <v>       0.08333333      0.08333333      0.08333333</v>
   <v>       0.25000000      0.08333333      0.08333333</v>
   <v>       0.41666667      0.08333333      0.08333333</v>
   <v>       0.25000000      0.25000000      0.08333333</v>
   <v>       0.41666667      0.25000000      0.08333333</v>
   <v>       0.41666667      0.41666667      0.08333333</v>
   <v>       0.25000000      0.25000000      0.25000000</v>
   <v>       0.41666667      0.25000000      0.25000000</v>
   <v>       0.41666667      0.41666667      0.25000000</v>
   <v>       0.41666667      0.41666667      0.41666667</v>
  </varray>
  <varray name="weights"">
   <v>       0.03703704</v>
   <v>       0.11111111</v>
   <v>       0.11111111</v>
   <v>       0.11111111</v>
   <v>       0.22222222</v>
   <v>       0.11111111</v>
   <v>       0.03703704</v>
   <v>       0.11111111</v>
   <v>       0.11111111</v>
   <v>       0.03703704</v>
  </varray>
 </kpoints>
 <parameters>
  <separator name="general"">
   <i type=""string"" nameSYSTEM""Au, FCC</i>
   <i type=""logical"" nameLCOMPAT"" F  </i>
  </separator>
  <separator name="electronic"">
   <i type=""string"" namePREC""normal</i>
   <i name="ENMAX""    350.00000000</i>
   <i name="ENAUG""    516.45600000</i>
   <i name="EDIFF""      0.00010000</i>
   <i type=""int"" nameIALGO""    68</i>
   <i type=""int"" nameIWAVPR""    11</i>
   <i type=""int"" nameNBANDS""    26</i>
   <i name="NELECT""     44.00000000</i>
   <separator name="electronic smearing"">
    <i type=""int"" nameISMEAR""     0</i>
    <i name="SIGMA""      0.10000000</i>
   </separator>
   <separator name="electronic projectors"">
    <i type=""logical"" nameLREAL"" F  </i>
    <v name="ROPT""      0.00000000      0.00000000</v>
    <i type=""int"" nameLMAXPAW""  -100</i>
    <i type=""int"" nameLMAXMIX""     2</i>
   </separator>
   <separator name="electronic startup"">
    <i type=""int"" nameISTART""     0</i>
    <i type=""int"" nameICHARG""     2</i>
    <i type=""int"" nameINIWAV""     1</i>
   </separator>
   <separator name="electronic spin"">
    <i type=""int"" nameISPIN""     1</i>
    <i type=""logical"" nameLNONCOLLINEAR"" F  </i>
    <v name="MAGMOM""      1.00000000      1.00000000      1.00000000      1.00000000</v>
    <i name="NUPDOWN""     -1.00000000</i>
    <i type=""logical"" nameLSORBIT"" F  </i>
    <v name="SAXIS""      0.00000000      0.00000000      1.00000000</v>
    <i type=""logical"" nameLSPIRAL"" F  </i>
    <v name="QSPIRAL""      0.00000000      0.00000000      0.00000000</v>
    <i type=""logical"" nameLZEROZ"" F  </i>
   </separator>
   <separator name="electronic exchange-correlation"">
    <i type=""string"" nameGGA""--</i>
    <i type=""int"" nameVOSKOWN""     0</i>
    <i type=""logical"" nameLASPH"" F  </i>
    <i type=""logical"" nameLMETAGGA"" F  </i>
    <i type=""string"" nameGGA2""--</i>
   </separator>
   <separator name="electronic convergence"">
    <i type=""int"" nameNELM""    60</i>
    <i type=""int"" nameNELMDL""    -5</i>
    <i type=""int"" nameNELMIN""     2</i>
    <i name="ENINI""    350.00000000</i>
    <separator name="electronic convergence detail"">
     <i type=""logical"" nameLDIAG"" T  </i>
     <i name="WEIMIN""      0.00100000</i>
     <i name="EBREAK""      0.00000096</i>
     <i name="DEPER""      0.30000000</i>
     <i type=""int"" nameNRMM""     4</i>
     <i name="TIME""      0.10000000</i>
    </separator>
   </separator>
   <separator name="electronic mixer"">
    <i name="AMIX""      0.40000000</i>
    <i name="BMIX""      1.00000000</i>
    <i name="AMIN""      0.10000000</i>
    <i name="AMIX_MAG""      1.60000000</i>
    <i name="BMIX_MAG""      1.00000000</i>
    <separator name="electronic mixer details"">
     <i type=""int"" nameIMIX""     4</i>
     <i type=""int"" nameMAXMIX""   -45</i>
     <i name="WC""    100.00000000</i>
     <i type=""int"" nameINIMIX""     1</i>
     <i type=""int"" nameMIXPRE""     1</i>
     <i type=""int"" nameMREMOVE""     5</i>
    </separator>
   </separator>
   <separator name="electronic dipolcorrection"">
    <i type=""int"" nameIDIPOL""     0</i>
    <i type=""logical"" nameLDIPOL"" F  </i>
    <v name="DIPOL""   -100.00000000</v>
    <i name="EFIELD""      0.00000000</i>
   </separator>
  </separator>
  <separator name="grids"">
   <i type=""int"" nameNGX""    18</i>
   <i type=""int"" nameNGY""    18</i>
   <i type=""int"" nameNGZ""    18</i>
   <i type=""int"" nameNGXF""    36</i>
   <i type=""int"" nameNGYF""    36</i>
   <i type=""int"" nameNGZF""    36</i>
   <i type=""logical"" nameADDGRID"" F  </i>
  </separator>
  <separator name="ionic"">
   <i type=""int"" nameNSW""    10</i>
   <i type=""int"" nameIBRION""     1</i>
   <i type=""int"" nameISIF""     3</i>
   <i name="PSTRESS""      0.00000000</i>
   <i name="EDIFFG""      0.00100000</i>
   <i type=""int"" nameNFREE""     5</i>
   <i name="POTIM""      0.35000000</i>
   <i name="SMASS""     -3.00000000</i>
  </separator>
  <separator name="ionic md"">
   <i name="TEBEG""      0.00010000</i>
   <i name="TEEND""      0.00010000</i>
   <i type=""int"" nameNBLOCK""     1</i>
   <i type=""int"" nameKBLOCK""    10</i>
   <i type=""int"" nameNPACO""   256</i>
   <i name="APACO""     16.00000000</i>
  </separator>
  <separator name="symmetry"">
   <i type=""int"" nameISYM""     2</i>
   <i name="SYMPREC""      0.00001000</i>
  </separator>
  <separator name="dos"">
   <i type=""logical"" nameLORBIT"" F  </i>
   <v name="RWIGS""     -1.00000000     -1.00000000</v>
   <i type=""int"" nameNEDOS""   301</i>
   <i name="EMIN""     10.00000000</i>
   <i name="EMAX""    -10.00000000</i>
  </separator>
  <separator name="writing"">
   <i type=""int"" nameNWRITE""     1</i>
   <i type=""logical"" nameLWAVE"" F  </i>
   <i type=""logical"" nameLCHARG"" T  </i>
   <i type=""logical"" nameLPARD"" F  </i>
   <i type=""logical"" nameLVTOT"" F  </i>
   <i type=""logical"" nameLELF"" F  </i>
   <i type=""logical"" nameLOPTICS"" F  </i>
   <i name="STM""      0.00000000</i>
  </separator>
  <separator name="performance"">
   <i type=""int"" nameNPAR""     1</i>
   <i type=""int"" nameNSIM""     4</i>
   <i type=""int"" nameNBLK""    64</i>
   <i type=""logical"" nameLPLANE"" T  </i>
   <i type=""logical"" nameLCRITICAL_MEM"" F  </i>
   <i type=""logical"" nameLSCALAPACK"" F  </i>
   <i type=""logical"" nameLSCALU"" F  </i>
   <i type=""logical"" nameLASYNC"" F  </i>
  </separator>
  <separator name="miscellaneous"">
   <i type=""int"" nameIDIOT""     3</i>
   <i type=""logical"" nameLMUSIC"" F  </i>
   <v name="POMASS""    196.96600000     63.54600000</v>
   <i type=""logical"" nameLCORR"" T  </i>
  </separator>
  <i type=""logical"" nameLREAL_COMPAT"" F  </i>
  <i type=""logical"" nameGGA_COMPAT"" T  </i>
  <i type=""logical"" nameLBERRY"" F  </i>
  <i type=""int"" nameICORELEVEL""     0</i>
  <i type=""logical"" nameLDAU"" F  </i>
  <i type=""int"" nameI_CONSTRAINED_M""     0</i>
 </parameters>
 <atominfo>
  <atoms>       4</atoms>
  <types>       2</types>
  <array name="atoms"">
   <dimension dim="1">ion</dimension>
   <field type="string">element</field>
   <field type="int">atomtype</field>
   <set>
    <rc><c>Au</c><c>   1</c></rc>
    <rc><c>Cu</c><c>   2</c></rc>
    <rc><c>Cu</c><c>   2</c></rc>
    <rc><c>Cu</c><c>   2</c></rc>
   </set>
  </array>
  <array name="atomtypes"">
   <dimension dim="1">type</dimension>
   <field type="int">atomspertype</field>
   <field type="string">element</field>
   <field>mass</field>
   <field>valence</field>
   <field type="string">pseudopotential</field>
   <set>
    <rc><c>   1</c><c>Au</c><c>    196.96600000</c><c>     11.00000000</c><c> PAW_GGA Au 18Jul2000                   </c></rc>
    <rc><c>   3</c><c>Cu</c><c>     63.54600000</c><c>     11.00000000</c><c> PAW_GGA Cu 05Jan2001                   </c></rc>
   </set>
  </array>
 </atominfo>
 <structure name="initialpos"">
  <crystal>
   <varray name="basis"">
    <v>       3.78935236      0.00000000      0.00000000</v>
    <v>       0.00000000      3.78935236      0.00000000</v>
    <v>       0.00000000      0.00000000      3.78935236</v>
   </varray>
   <i name="volume""     54.41203537</i>
   <varray name="rec_basis"">
    <v>       0.26389734      0.00000000      0.00000000</v>
    <v>       0.00000000      0.26389734      0.00000000</v>
    <v>       0.00000000      0.00000000      0.26389734</v>
   </varray>
  </crystal>
  <varray name="positions"">
   <v>       0.00000000      0.00000000      0.00000000</v>
   <v>       0.50000000      0.50000000      0.00000000</v>
   <v>       0.50000000      0.00000000      0.50000000</v>
   <v>       0.00000000      0.50000000      0.50000000</v>
  </varray>
 </structure>
 <calculation>
  <scstep>
   <time name="dav""    1.78    1.56</time>
   <time name="total""    1.89    1.67</time>
   <energy>
    <i name="alphaZ""    417.92455670</i>
    <i name="ewald""  -4216.31188433</i>
    <i name="hartreedc""  -1158.43151263</i>
    <i name="XCdc""    146.00922199</i>
    <i name="pawpsdc""   3996.47789751</i>
    <i name="pawaedc""  -4407.03876695</i>
    <i name="eentropy""     -0.01302866</i>
    <i name="bandstr""    390.77087935</i>
    <i name="atom""   5106.21211507</i>
    <i name="e_fr_energy""    275.59947803</i>
    <i name="e_wo_entrp""    275.61250669</i>
    <i name="e_0_energy""    275.60599236</i>
   </energy>
  </scstep>
  <scstep>
   <time name="dav""    1.64    1.53</time>
   <time name="total""    1.65    1.53</time>
   <energy>
    <i name="e_fr_energy""      2.71593709</i>
    <i name="e_wo_entrp""      2.72420779</i>
    <i name="e_0_energy""      2.72007244</i>
   </energy>
  </scstep>
  <scstep>
   <time name="dav""    1.74    1.63</time>
   <time name="total""    1.75    1.65</time>
   <energy>
    <i name="e_fr_energy""    -16.65289417</i>
    <i name="e_wo_entrp""    -16.64093160</i>
    <i name="e_0_energy""    -16.64691288</i>
   </energy>
  </scstep>
  <scstep>
   <time name="dav""    1.75    1.59</time>
   <time name="total""    1.76    1.63</time>
   <energy>
    <i name="e_fr_energy""    -17.01638639</i>
    <i name="e_wo_entrp""    -17.00728932</i>
    <i name="e_0_energy""    -17.01183785</i>
   </energy>
  </scstep>
  <scstep>
   <time name="dav""    1.76    1.67</time>
   <time name="total""    1.89    1.80</time>
   <energy>
    <i name="e_fr_energy""    -17.01983437</i>
    <i name="e_wo_entrp""    -17.01085332</i>
    <i name="e_0_energy""    -17.01534385</i>
   </energy>
  </scstep>
  <scstep>
   <time name="diag""    0.30    0.28</time>
   <time name="diis""    1.32    1.32</time>
   <time name="orth""    0.03    0.03</time>
   <time name="total""    1.88    1.87</time>
   <energy>
    <i name="e_fr_energy""    -15.63642551</i>
    <i name="e_wo_entrp""    -15.62142283</i>
    <i name="e_0_energy""    -15.62892417</i>
   </energy>
  </scstep>
  <scstep>
   <time name="diag""    0.28    0.28</time>
   <time name="diis""    1.32    1.32</time>
   <time name="orth""    0.03    0.03</time>
   <time name="total""    1.87    1.87</time>
   <energy>
    <i name="e_fr_energy""    -14.62986476</i>
    <i name="e_wo_entrp""    -14.61536394</i>
    <i name="e_0_energy""    -14.62261435</i>
   </energy>
  </scstep>
  <scstep>
   <time name="diag""    0.29    0.28</time>
   <time name="diis""    1.33    1.27</time>
   <time name="orth""    0.04    0.03</time>
   <time name="total""    1.89    1.80</time>
   <energy>
    <i name="e_fr_energy""    -14.55701291</i>
    <i name="e_wo_entrp""    -14.54240266</i>
    <i name="e_0_energy""    -14.54970779</i>
   </energy>
  </scstep>
  <scstep>
   <time name="diag""    0.30    0.28</time>
   <time name="diis""    1.32    1.27</time>
   <time name="orth""    0.03    0.03</time>
   <time name="total""    1.88    1.81</time>
   <energy>
    <i name="e_fr_energy""    -14.53714102</i>
    <i name="e_wo_entrp""    -14.52241619</i>
    <i name="e_0_energy""    -14.52977861</i>
   </energy>
  </scstep>
  <scstep>
   <time name="diag""    0.28    0.28</time>
   <time name="diis""    1.26    1.26</time>
   <time name="orth""    0.03    0.03</time>
   <time name="total""    1.81    1.81</time>
   <energy>
    <i name="e_fr_energy""    -14.53685675</i>
    <i name="e_wo_entrp""    -14.52192682</i>
    <i name="e_0_energy""    -14.52939179</i>
   </energy>
  </scstep>
  <scstep>
   <time name="diag""    0.30    0.29</time>
   <time name="diis""    0.81    0.78</time>
   <time name="orth""    0.04    0.03</time>
   <time name="total""    1.26    1.23</time>
   <energy>
    <i name="alphaZ""    417.92455670</i>
    <i name="ewald""  -4216.31188433</i>
    <i name="hartreedc""  -1086.17015334</i>
    <i name="XCdc""    142.48801912</i>
    <i name="pawpsdc""   4032.70629682</i>
    <i name="pawaedc""  -4449.48612102</i>
    <i name="eentropy""     -0.01492824</i>
    <i name="bandstr""     38.11522057</i>
    <i name="atom""   5106.21211507</i>
    <i name="e_fr_energy""    -14.53687866</i>
    <i name="e_wo_entrp""    -14.52195042</i>
    <i name="e_0_energy""    -14.52941454</i>
   </energy>
  </scstep>
  <structure>
   <crystal>
    <varray name="basis"">
     <v>       3.78935236      0.00000000      0.00000000</v>
     <v>       0.00000000      3.78935236      0.00000000</v>
     <v>       0.00000000      0.00000000      3.78935236</v>
    </varray>
    <i name="volume""     54.41203537</i>
    <varray name="rec_basis"">
     <v>       0.26389734      0.00000000      0.00000000</v>
     <v>       0.00000000      0.26389734      0.00000000</v>
     <v>       0.00000000      0.00000000      0.26389734</v>
    </varray>
   </crystal>
   <varray name="positions"">
    <v>       0.00000000      0.00000000      0.00000000</v>
    <v>       0.50000000      0.50000000      0.00000000</v>
    <v>       0.50000000      0.00000000      0.50000000</v>
    <v>       0.00000000      0.50000000      0.50000000</v>
   </varray>
  </structure>
  <varray name="forces"">
   <v>       0.00000000      0.00000000      0.00000000</v>
   <v>       0.00000000      0.00000000      0.00000000</v>
   <v>       0.00000000      0.00000000      0.00000000</v>
   <v>       0.00000000      0.00000000      0.00000000</v>
  </varray>
  <varray name="stress"">
   <v>      -1.81608690      0.00000000      0.00000000</v>
   <v>       0.00000000     -1.81608690      0.00000000</v>
   <v>       0.00000000      0.00000000     -1.81608690</v>
  </varray>
  <energy>
   <i name="e_fr_energy""    -14.53687866</i>
   <i name="e_wo_entrp""    -14.52941454</i>
   <i name="e_0_energy""     -0.01492824</i>
  </energy>
  <eigenvalues>
   <array>
    <dimension dim="1">band</dimension>
    <dimension dim="2">kpoint</dimension>
    <dimension dim="3">spin</dimension>
    <field>eigene</field>
    <field>occ</field>
    <set>
     <set comment="spin 1">
      <set comment="kpoint 1">
       <r>  -4.9238  1.0000</r>
       <r>  -1.9128  1.0000</r>
       <r>  -1.9128  1.0000</r>
       <r>  -1.2061  1.0000</r>
       <r>  -1.2061  1.0000</r>
       <r>  -1.1754  1.0000</r>
       <r>  -0.1770  1.0000</r>
       <r>   1.0453  1.0000</r>
       <r>   1.1507  1.0000</r>
       <r>   1.1507  1.0000</r>
       <r>   1.8943  1.0000</r>
       <r>   1.8943  1.0000</r>
       <r>   2.3214  1.0000</r>
       <r>   2.3562  1.0000</r>
       <r>   2.3562  1.0000</r>
       <r>   2.4066  1.0000</r>
       <r>   2.4066  1.0000</r>
       <r>   2.4164  1.0000</r>
       <r>   2.5821  1.0000</r>
       <r>   2.6444  1.0000</r>
       <r>   2.6444  1.0000</r>
       <r>   5.4234  0.0000</r>
       <r>   5.4842  0.0000</r>
       <r>   5.4842  0.0000</r>
       <r>  10.8798  0.0000</r>
       <r>  11.9749  0.0000</r>
      </set>
      <set comment="kpoint 2">
       <r>  -4.3004  1.0000</r>
       <r>  -1.7127  1.0000</r>
       <r>  -1.6753  1.0000</r>
       <r>  -1.1071  1.0000</r>
       <r>  -1.0898  1.0000</r>
       <r>  -1.0257  1.0000</r>
       <r>  -0.0455  1.0000</r>
       <r>   0.9092  1.0000</r>
       <r>   1.2228  1.0000</r>
       <r>   1.2341  1.0000</r>
       <r>   1.5796  1.0000</r>
       <r>   1.6791  1.0000</r>
       <r>   1.7369  1.0000</r>
       <r>   1.9605  1.0000</r>
       <r>   1.9855  1.0000</r>
       <r>   2.1984  1.0000</r>
       <r>   2.2078  1.0000</r>
       <r>   2.2465  1.0000</r>
       <r>   2.5056  1.0000</r>
       <r>   2.5707  1.0000</r>
       <r>   2.6350  1.0000</r>
       <r>   3.3763  1.0000</r>
       <r>   6.6639  0.0000</r>
       <r>   6.7853  0.0000</r>
       <r>  11.6744  0.0000</r>
       <r>  11.6798  0.0000</r>
      </set>
      <set comment="kpoint 3">
       <r>  -3.2536  1.0000</r>
       <r>  -1.7654  1.0000</r>
       <r>  -1.4683  1.0000</r>
       <r>  -0.9742  1.0000</r>
       <r>  -0.9654  1.0000</r>
       <r>  -0.7876  1.0000</r>
       <r>   0.1581  1.0000</r>
       <r>   0.7265  1.0000</r>
       <r>   0.8093  1.0000</r>
       <r>   0.9811  1.0000</r>
       <r>   1.0319  1.0000</r>
       <r>   1.4686  1.0000</r>
       <r>   1.5654  1.0000</r>
       <r>   1.7700  1.0000</r>
       <r>   1.8841  1.0000</r>
       <r>   1.9304  1.0000</r>
       <r>   2.0069  1.0000</r>
       <r>   2.1634  1.0000</r>
       <r>   2.2371  1.0000</r>
       <r>   2.3435  1.0000</r>
       <r>   2.5619  1.0000</r>
       <r>   2.6273  1.0000</r>
       <r>   8.2921  0.0000</r>
       <r>   8.4941  0.0000</r>
       <r>  10.1839  0.0000</r>
       <r>  10.3295  0.0000</r>
      </set>
      <set comment="kpoint 4">
       <r>  -3.7119  1.0000</r>
       <r>  -1.5935  1.0000</r>
       <r>  -1.3996  1.0000</r>
       <r>  -1.0458  1.0000</r>
       <r>  -1.0192  1.0000</r>
       <r>  -0.8958  1.0000</r>
       <r>   0.0383  1.0000</r>
       <r>   0.7901  1.0000</r>
       <r>   1.0836  1.0000</r>
       <r>   1.3342  1.0000</r>
       <r>   1.3442  1.0000</r>
       <r>   1.4184  1.0000</r>
       <r>   1.4253  1.0000</r>
       <r>   1.6678  1.0000</r>
       <r>   2.0174  1.0000</r>
       <r>   2.0264  1.0000</r>
       <r>   2.1241  1.0000</r>
       <r>   2.1272  1.0000</r>
       <r>   2.4530  1.0000</r>
       <r>   2.4658  1.0000</r>
       <r>   2.4805  1.0000</r>
       <r>   4.3573  0.0000</r>
       <r>   4.5167  0.0000</r>
       <r>   7.7100  0.0000</r>
       <r>   9.6756  0.0000</r>
       <r>  12.2712  0.0000</r>
      </set>
      <set comment="kpoint 5">
       <r>  -2.7282  1.0000</r>
       <r>  -1.7348  1.0000</r>
       <r>  -1.1965  1.0000</r>
       <r>  -1.0279  1.0000</r>
       <r>  -0.8936  1.0000</r>
       <r>  -0.5558  1.0000</r>
       <r>   0.0829  1.0000</r>
       <r>   0.7258  1.0000</r>
       <r>   0.8072  1.0000</r>
       <r>   0.8839  1.0000</r>
       <r>   1.0784  1.0000</r>
       <r>   1.2593  1.0000</r>
       <r>   1.4999  1.0000</r>
       <r>   1.6432  1.0000</r>
       <r>   1.8207  1.0000</r>
       <r>   1.9188  1.0000</r>
       <r>   1.9448  1.0000</r>
       <r>   2.1980  1.0000</r>
       <r>   2.3723  1.0000</r>
       <r>   2.3818  1.0000</r>
       <r>   2.4073  1.0000</r>
       <r>   2.9355  1.0000</r>
       <r>   5.7659  0.0000</r>
       <r>   7.4787  0.0000</r>
       <r>   9.2669  0.0000</r>
       <r>  11.0233  0.0000</r>
      </set>
      <set comment="kpoint 6">
       <r>  -2.0999  1.0000</r>
       <r>  -1.6831  1.0000</r>
       <r>  -1.0687  1.0000</r>
       <r>  -0.9778  1.0000</r>
       <r>  -0.5519  1.0000</r>
       <r>  -0.3135  1.0000</r>
       <r>   0.1029  1.0000</r>
       <r>   0.5001  1.0000</r>
       <r>   0.8864  1.0000</r>
       <r>   0.9260  1.0000</r>
       <r>   1.0461  1.0000</r>
       <r>   1.1752  1.0000</r>
       <r>   1.2168  1.0000</r>
       <r>   1.6158  1.0000</r>
       <r>   1.7129  1.0000</r>
       <r>   1.7818  1.0000</r>
       <r>   1.8904  1.0000</r>
       <r>   2.0950  1.0000</r>
       <r>   2.0960  1.0000</r>
       <r>   2.2116  1.0000</r>
       <r>   2.8845  1.0000</r>
       <r>   3.6925  1.0000</r>
       <r>   4.0324  0.5801</r>
       <r>   5.4051  0.0000</r>
       <r>  10.5980  0.0000</r>
       <r>  12.2763  0.0000</r>
      </set>
      <set comment="kpoint 7">
       <r>  -3.2006  1.0000</r>
       <r>  -1.4714  1.0000</r>
       <r>  -1.4714  1.0000</r>
       <r>  -0.9005  1.0000</r>
       <r>  -0.9005  1.0000</r>
       <r>  -0.7633  1.0000</r>
       <r>   0.0068  1.0000</r>
       <r>   0.7357  1.0000</r>
       <r>   1.2071  1.0000</r>
       <r>   1.2394  1.0000</r>
       <r>   1.2394  1.0000</r>
       <r>   1.3267  1.0000</r>
       <r>   1.3267  1.0000</r>
       <r>   1.6544  1.0000</r>
       <r>   1.6544  1.0000</r>
       <r>   1.8760  1.0000</r>
       <r>   2.0442  1.0000</r>
       <r>   2.0442  1.0000</r>
       <r>   2.5313  1.0000</r>
       <r>   2.5662  1.0000</r>
       <r>   2.5662  1.0000</r>
       <r>   5.0976  0.0000</r>
       <r>   5.1314  0.0000</r>
       <r>   5.1314  0.0000</r>
       <r>  10.0258  0.0000</r>
       <r>  10.6663  0.0000</r>
      </set>
      <set comment="kpoint 8">
       <r>  -2.3914  1.0000</r>
       <r>  -1.6968  1.0000</r>
       <r>  -1.5006  1.0000</r>
       <r>  -0.8791  1.0000</r>
       <r>  -0.8692  1.0000</r>
       <r>  -0.2846  1.0000</r>
       <r>   0.1403  1.0000</r>
       <r>   0.7884  1.0000</r>
       <r>   0.9293  1.0000</r>
       <r>   1.0837  1.0000</r>
       <r>   1.2787  1.0000</r>
       <r>   1.3209  1.0000</r>
       <r>   1.3245  1.0000</r>
       <r>   1.4949  1.0000</r>
       <r>   1.5190  1.0000</r>
       <r>   1.7335  1.0000</r>
       <r>   2.1982  1.0000</r>
       <r>   2.2916  1.0000</r>
       <r>   2.4702  1.0000</r>
       <r>   2.4741  1.0000</r>
       <r>   2.4910  1.0000</r>
       <r>   3.1306  1.0000</r>
       <r>   6.0346  0.0000</r>
       <r>   6.1912  0.0000</r>
       <r>   8.0940  0.0000</r>
       <r>   8.7952  0.0000</r>
      </set>
      <set comment="kpoint 9">
       <r>  -2.0746  1.0000</r>
       <r>  -1.7536  1.0000</r>
       <r>  -1.6422  1.0000</r>
       <r>  -1.0228  1.0000</r>
       <r>  -0.5083  1.0000</r>
       <r>  -0.1640  1.0000</r>
       <r>   0.5942  1.0000</r>
       <r>   0.9776  1.0000</r>
       <r>   1.0637  1.0000</r>
       <r>   1.2017  1.0000</r>
       <r>   1.2439  1.0000</r>
       <r>   1.3540  1.0000</r>
       <r>   1.4314  1.0000</r>
       <r>   1.4642  1.0000</r>
       <r>   1.4680  1.0000</r>
       <r>   1.5484  1.0000</r>
       <r>   2.1874  1.0000</r>
       <r>   2.3875  1.0000</r>
       <r>   2.4061  1.0000</r>
       <r>   2.4162  1.0000</r>
       <r>   2.7250  1.0000</r>
       <r>   3.7684  1.0000</r>
       <r>   4.0434  0.5184</r>
       <r>   5.2399  0.0000</r>
       <r>   8.1300  0.0000</r>
       <r>   9.4456  0.0000</r>
      </set>
      <set comment="kpoint 10">
       <r>  -2.0669  1.0000</r>
       <r>  -1.9683  1.0000</r>
       <r>  -1.9683  1.0000</r>
       <r>  -0.9605  1.0000</r>
       <r>  -0.2505  1.0000</r>
       <r>  -0.2505  1.0000</r>
       <r>   0.9242  1.0000</r>
       <r>   1.0950  1.0000</r>
       <r>   1.0950  1.0000</r>
       <r>   1.3010  1.0000</r>
       <r>   1.3010  1.0000</r>
       <r>   1.3917  1.0000</r>
       <r>   1.8358  1.0000</r>
       <r>   1.9213  1.0000</r>
       <r>   1.9213  1.0000</r>
       <r>   2.2371  1.0000</r>
       <r>   2.4313  1.0000</r>
       <r>   2.4313  1.0000</r>
       <r>   2.5023  1.0000</r>
       <r>   2.5273  1.0000</r>
       <r>   2.5273  1.0000</r>
       <r>   3.9299  0.9506</r>
       <r>   3.9299  0.9506</r>
       <r>   3.9863  0.8033</r>
       <r>   7.0766  0.0000</r>
       <r>   8.3662  0.0000</r>
      </set>
     </set>
    </set>
   </array>
  </eigenvalues>
  <dos>
   <i name="efermi""      4.04667040</i>
   <total>
    <array>
     <dimension dim="1">gridpoints</dimension>
     <dimension dim="2">spin</dimension>
     <field>energy</field>
     <field>total</field>
     <field>integrated</field>
     <set>
      <set comment="spin 1">
       <r>  -5.9238   0.0000   0.0000 </r>
       <r>  -5.8598   0.0000   0.0000 </r>
       <r>  -5.7958   0.0000   0.0000 </r>
       <r>  -5.7318   0.0000   0.0000 </r>
       <r>  -5.6678   0.0000   0.0000 </r>
       <r>  -5.6038   0.0000   0.0000 </r>
       <r>  -5.5398   0.0000   0.0000 </r>
       <r>  -5.4758   0.0000   0.0000 </r>
       <r>  -5.4118   0.0000   0.0000 </r>
       <r>  -5.3478   0.0000   0.0000 </r>
       <r>  -5.2838   0.0000   0.0000 </r>
       <r>  -5.2198   0.0000   0.0000 </r>
       <r>  -5.1558   0.0006   0.0000 </r>
       <r>  -5.0918   0.0095   0.0006 </r>
       <r>  -5.0278   0.0717   0.0052 </r>
       <r>  -4.9638   0.2490   0.0212 </r>
       <r>  -4.8998   0.4017   0.0469 </r>
       <r>  -4.8358   0.3015   0.0662 </r>
       <r>  -4.7718   0.1052   0.0729 </r>
       <r>  -4.7078   0.0170   0.0740 </r>
       <r>  -4.6438   0.0013   0.0741 </r>
       <r>  -4.5798   0.0002   0.0741 </r>
       <r>  -4.5158   0.0039   0.0743 </r>
       <r>  -4.4518   0.0520   0.0777 </r>
       <r>  -4.3878   0.3199   0.0981 </r>
       <r>  -4.3238   0.9103   0.1564 </r>
       <r>  -4.2598   1.2039   0.2334 </r>
       <r>  -4.1958   0.7408   0.2809 </r>
       <r>  -4.1318   0.2117   0.2944 </r>
       <r>  -4.0678   0.0279   0.2962 </r>
       <r>  -4.0038   0.0018   0.2963 </r>
       <r>  -3.9398   0.0022   0.2964 </r>
       <r>  -3.8758   0.0334   0.2986 </r>
       <r>  -3.8118   0.2387   0.3139 </r>
       <r>  -3.7478   0.7888   0.3643 </r>
       <r>  -3.6838   1.2106   0.4418 </r>
       <r>  -3.6198   0.8645   0.4971 </r>
       <r>  -3.5558   0.2869   0.5155 </r>
       <r>  -3.4918   0.0453   0.5184 </r>
       <r>  -3.4278   0.0265   0.5201 </r>
       <r>  -3.3638   0.1949   0.5326 </r>
       <r>  -3.2998   0.7666   0.5816 </r>
       <r>  -3.2358   1.4552   0.6748 </r>
       <r>  -3.1718   1.3646   0.7621 </r>
       <r>  -3.1078   0.6465   0.8035 </r>
       <r>  -3.0438   0.1567   0.8135 </r>
       <r>  -2.9798   0.0206   0.8148 </r>
       <r>  -2.9158   0.0277   0.8166 </r>
       <r>  -2.8518   0.2522   0.8327 </r>
       <r>  -2.7878   1.1083   0.9037 </r>
       <r>  -2.7238   2.2588   1.0482 </r>
       <r>  -2.6598   2.1417   1.1853 </r>
       <r>  -2.5958   0.9505   1.2461 </r>
       <r>  -2.5317   0.2681   1.2633 </r>
       <r>  -2.4677   0.4227   1.2903 </r>
       <r>  -2.4037   1.0095   1.3549 </r>
       <r>  -2.3397   1.1709   1.4299 </r>
       <r>  -2.2757   0.6610   1.4722 </r>
       <r>  -2.2117   0.4384   1.5002 </r>
       <r>  -2.1477   1.2539   1.5805 </r>
       <r>  -2.0837   2.6664   1.7511 </r>
       <r>  -2.0197   3.0821   1.9484 </r>
       <r>  -1.9557   2.4834   2.1073 </r>
       <r>  -1.8917   2.0616   2.2393 </r>
       <r>  -1.8277   2.8266   2.4202 </r>
       <r>  -1.7637   6.0949   2.8103 </r>
       <r>  -1.6997   9.6267   3.4264 </r>
       <r>  -1.6357   9.2229   4.0166 </r>
       <r>  -1.5717   6.2082   4.4140 </r>
       <r>  -1.5077   4.5840   4.7073 </r>
       <r>  -1.4437   4.3629   4.9866 </r>
       <r>  -1.3797   3.3713   5.2023 </r>
       <r>  -1.3157   2.0322   5.3324 </r>
       <r>  -1.2517   2.3613   5.4835 </r>
       <r>  -1.1877   4.5221   5.7729 </r>
       <r>  -1.1237   7.2751   6.2385 </r>
       <r>  -1.0597  11.0432   6.9453 </r>
       <r>  -0.9957  14.1816   7.8529 </r>
       <r>  -0.9317  13.9434   8.7453 </r>
       <r>  -0.8677  11.3853   9.4740 </r>
       <r>  -0.8037   7.4976   9.9538 </r>
       <r>  -0.7397   3.7220  10.1920 </r>
       <r>  -0.6757   1.7591  10.3046 </r>
       <r>  -0.6117   2.2569  10.4491 </r>
       <r>  -0.5477   4.2202  10.7191 </r>
       <r>  -0.4837   4.4038  11.0010 </r>
       <r>  -0.4197   2.5659  11.1652 </r>
       <r>  -0.3557   1.9110  11.2875 </r>
       <r>  -0.2917   2.9820  11.4784 </r>
       <r>  -0.2277   3.6211  11.7101 </r>
       <r>  -0.1637   3.1807  11.9137 </r>
       <r>  -0.0997   2.6352  12.0823 </r>
       <r>  -0.0357   2.9198  12.2692 </r>
       <r>   0.0283   4.4960  12.5569 </r>
       <r>   0.0923   6.4046  12.9668 </r>
       <r>   0.1563   6.3022  13.3702 </r>
       <r>   0.2203   3.7372  13.6094 </r>
       <r>   0.2843   1.2425  13.6889 </r>
       <r>   0.3483   0.2681  13.7060 </r>
       <r>   0.4123   0.3523  13.7286 </r>
       <r>   0.4763   1.0573  13.7962 </r>
       <r>   0.5403   1.8609  13.9153 </r>
       <r>   0.6043   2.3852  14.0680 </r>
       <r>   0.6683   3.6302  14.3003 </r>
       <r>   0.7323   6.8124  14.7363 </r>
       <r>   0.7963  10.3387  15.3980 </r>
       <r>   0.8603  12.0035  16.1662 </r>
       <r>   0.9243  12.2446  16.9499 </r>
       <r>   0.9883  12.0319  17.7199 </r>
       <r>   1.0523  12.5596  18.5237 </r>
       <r>   1.1163  12.9745  19.3541 </r>
       <r>   1.1803  13.1326  20.1946 </r>
       <r>   1.2443  15.1896  21.1667 </r>
       <r>   1.3083  16.5364  22.2251 </r>
       <r>   1.3723  15.3480  23.2074 </r>
       <r>   1.4363  14.4056  24.1293 </r>
       <r>   1.5003  14.6519  25.0670 </r>
       <r>   1.5643  13.7689  25.9483 </r>
       <r>   1.6283  12.4734  26.7466 </r>
       <r>   1.6923  12.0908  27.5204 </r>
       <r>   1.7563  11.6219  28.2642 </r>
       <r>   1.8203  11.4636  28.9978 </r>
       <r>   1.8843  13.1690  29.8407 </r>
       <r>   1.9483  15.3668  30.8241 </r>
       <r>   2.0123  14.6923  31.7645 </r>
       <r>   2.0763  12.6673  32.5752 </r>
       <r>   2.1403  13.2514  33.4233 </r>
       <r>   2.2043  15.5541  34.4187 </r>
       <r>   2.2683  15.3403  35.4005 </r>
       <r>   2.3323  15.0574  36.3642 </r>
       <r>   2.3963  18.8328  37.5695 </r>
       <r>   2.4603  21.2067  38.9267 </r>
       <r>   2.5243  18.1844  40.0905 </r>
       <r>   2.5883  13.0323  40.9246 </r>
       <r>   2.6523   8.5609  41.4725 </r>
       <r>   2.7163   4.9979  41.7924 </r>
       <r>   2.7803   2.6299  41.9607 </r>
       <r>   2.8443   2.1131  42.0959 </r>
       <r>   2.9083   3.1126  42.2951 </r>
       <r>   2.9723   3.3831  42.5116 </r>
       <r>   3.0363   2.1485  42.6491 </r>
       <r>   3.1003   1.3606  42.7362 </r>
       <r>   3.1643   1.2847  42.8184 </r>
       <r>   3.2283   0.8732  42.8743 </r>
       <r>   3.2923   0.5967  42.9125 </r>
       <r>   3.3563   0.9780  42.9751 </r>
       <r>   3.4203   1.1986  43.0518 </r>
       <r>   3.4843   0.7122  43.0974 </r>
       <r>   3.5483   0.2631  43.1142 </r>
       <r>   3.6123   0.4420  43.1425 </r>
       <r>   3.6763   1.2645  43.2235 </r>
       <r>   3.7403   2.0584  43.3552 </r>
       <r>   3.8043   1.9677  43.4811 </r>
       <r>   3.8683   1.4236  43.5722 </r>
       <r>   3.9323   1.6218  43.6760 </r>
       <r>   3.9963   2.6059  43.8428 </r>
       <r>   4.0603   3.0693  44.0392 </r>
       <r>   4.1243   2.0490  44.1704 </r>
       <r>   4.1883   0.7184  44.2164 </r>
       <r>   4.2523   0.3217  44.2370 </r>
       <r>   4.3163   0.7529  44.2851 </r>
       <r>   4.3803   1.2887  44.3676 </r>
       <r>   4.4443   1.3520  44.4541 </r>
       <r>   4.5083   1.3638  44.5414 </r>
       <r>   4.5723   1.2035  44.6185 </r>
       <r>   4.6363   0.5957  44.6566 </r>
       <r>   4.7003   0.1413  44.6656 </r>
       <r>   4.7643   0.0155  44.6666 </r>
       <r>   4.8283   0.0009  44.6667 </r>
       <r>   4.8923   0.0029  44.6669 </r>
       <r>   4.9563   0.0389  44.6693 </r>
       <r>   5.0203   0.2544  44.6856 </r>
       <r>   5.0843   0.8288  44.7387 </r>
       <r>   5.1483   1.4732  44.8330 </r>
       <r>   5.2123   1.7417  44.9444 </r>
       <r>   5.2763   1.6413  45.0495 </r>
       <r>   5.3403   1.5001  45.1455 </r>
       <r>   5.4043   1.9035  45.2673 </r>
       <r>   5.4683   2.1901  45.4075 </r>
       <r>   5.5323   1.5463  45.5064 </r>
       <r>   5.5963   0.6738  45.5496 </r>
       <r>   5.6603   0.5475  45.5846 </r>
       <r>   5.7243   1.4761  45.6791 </r>
       <r>   5.7883   2.4052  45.8330 </r>
       <r>   5.8523   1.8561  45.9518 </r>
       <r>   5.9163   0.8011  46.0031 </r>
       <r>   5.9803   0.7171  46.0490 </r>
       <r>   6.0443   1.2261  46.1274 </r>
       <r>   6.1083   1.3838  46.2160 </r>
       <r>   6.1723   1.3785  46.3042 </r>
       <r>   6.2363   1.2748  46.3858 </r>
       <r>   6.3003   0.7029  46.4308 </r>
       <r>   6.3643   0.1886  46.4429 </r>
       <r>   6.4283   0.0250  46.4445 </r>
       <r>   6.4923   0.0263  46.4461 </r>
       <r>   6.5563   0.1977  46.4588 </r>
       <r>   6.6203   0.7421  46.5063 </r>
       <r>   6.6843   1.4285  46.5977 </r>
       <r>   6.7483   1.7151  46.7075 </r>
       <r>   6.8123   1.5515  46.8068 </r>
       <r>   6.8763   0.9366  46.8667 </r>
       <r>   6.9403   0.3281  46.8877 </r>
       <r>   7.0043   0.1923  46.9000 </r>
       <r>   7.0683   0.3505  46.9225 </r>
       <r>   7.1323   0.3835  46.9470 </r>
       <r>   7.1963   0.1972  46.9596 </r>
       <r>   7.2603   0.0537  46.9631 </r>
       <r>   7.3243   0.0989  46.9694 </r>
       <r>   7.3883   0.5980  47.0077 </r>
       <r>   7.4523   1.7639  47.1206 </r>
       <r>   7.5163   2.4276  47.2759 </r>
       <r>   7.5803   1.6467  47.3813 </r>
       <r>   7.6443   0.9531  47.4423 </r>
       <r>   7.7083   1.1524  47.5161 </r>
       <r>   7.7723   1.1170  47.5875 </r>
       <r>   7.8363   0.5293  47.6214 </r>
       <r>   7.9003   0.1286  47.6296 </r>
       <r>   7.9643   0.1479  47.6391 </r>
       <r>   8.0283   0.7254  47.6855 </r>
       <r>   8.0923   1.8682  47.8051 </r>
       <r>   8.1563   2.4101  47.9593 </r>
       <r>   8.2203   1.8750  48.0793 </r>
       <r>   8.2843   1.5866  48.1809 </r>
       <r>   8.3483   1.5895  48.2826 </r>
       <r>   8.4123   1.3476  48.3689 </r>
       <r>   8.4763   1.3289  48.4539 </r>
       <r>   8.5403   1.2666  48.5350 </r>
       <r>   8.6043   0.7048  48.5801 </r>
       <r>   8.6683   0.2977  48.5991 </r>
       <r>   8.7323   0.5451  48.6340 </r>
       <r>   8.7963   1.1100  48.7051 </r>
       <r>   8.8603   1.0945  48.7751 </r>
       <r>   8.9243   0.5025  48.8073 </r>
       <r>   8.9883   0.1072  48.8141 </r>
       <r>   9.0523   0.0185  48.8153 </r>
       <r>   9.1163   0.1072  48.8222 </r>
       <r>   9.1803   0.6506  48.8638 </r>
       <r>   9.2443   1.8418  48.9817 </r>
       <r>   9.3083   2.4877  49.1409 </r>
       <r>   9.3723   1.8971  49.2623 </r>
       <r>   9.4363   1.4505  49.3552 </r>
       <r>   9.5003   1.2312  49.4340 </r>
       <r>   9.5643   0.7812  49.4839 </r>
       <r>   9.6283   0.8183  49.5363 </r>
       <r>   9.6923   1.2021  49.6132 </r>
       <r>   9.7563   0.9726  49.6755 </r>
       <r>   9.8203   0.3721  49.6993 </r>
       <r>   9.8843   0.0894  49.7050 </r>
       <r>   9.9483   0.1385  49.7139 </r>
       <r>  10.0123   0.3582  49.7368 </r>
       <r>  10.0763   0.5879  49.7744 </r>
       <r>  10.1403   0.9372  49.8344 </r>
       <r>  10.2043   1.3715  49.9222 </r>
       <r>  10.2683   1.4829  50.0171 </r>
       <r>  10.3323   1.4618  50.1107 </r>
       <r>  10.3963   1.1475  50.1841 </r>
       <r>  10.4603   0.5751  50.2209 </r>
       <r>  10.5243   0.5519  50.2562 </r>
       <r>  10.5883   1.1705  50.3312 </r>
       <r>  10.6523   1.4901  50.4265 </r>
       <r>  10.7163   1.0081  50.4910 </r>
       <r>  10.7803   0.4444  50.5195 </r>
       <r>  10.8443   0.3728  50.5433 </r>
       <r>  10.9083   0.7325  50.5902 </r>
       <r>  10.9723   1.5622  50.6902 </r>
       <r>  11.0363   2.4394  50.8463 </r>
       <r>  11.1003   2.0207  50.9756 </r>
       <r>  11.1643   0.7991  51.0268 </r>
       <r>  11.2283   0.1471  51.0362 </r>
       <r>  11.2923   0.0125  51.0370 </r>
       <r>  11.3563   0.0005  51.0370 </r>
       <r>  11.4203   0.0010  51.0371 </r>
       <r>  11.4843   0.0214  51.0385 </r>
       <r>  11.5483   0.2166  51.0523 </r>
       <r>  11.6123   1.0114  51.1171 </r>
       <r>  11.6763   2.1921  51.2574 </r>
       <r>  11.7403   2.2126  51.3990 </r>
       <r>  11.8043   1.0479  51.4660 </r>
       <r>  11.8683   0.2937  51.4848 </r>
       <r>  11.9323   0.2631  51.5017 </r>
       <r>  11.9963   0.4012  51.5273 </r>
       <r>  12.0603   0.3182  51.5477 </r>
       <r>  12.1243   0.2229  51.5620 </r>
       <r>  12.1883   0.6868  51.6059 </r>
       <r>  12.2523   1.8575  51.7248 </r>
       <r>  12.3163   2.3981  51.8783 </r>
       <r>  12.3803   1.4429  51.9706 </r>
       <r>  12.4443   0.4034  51.9965 </r>
       <r>  12.5083   0.0522  51.9998 </r>
       <r>  12.5723   0.0031  52.0000 </r>
       <r>  12.6363   0.0001  52.0000 </r>
       <r>  12.7003   0.0000  52.0000 </r>
       <r>  12.7643   0.0000  52.0000 </r>
       <r>  12.8283   0.0000  52.0000 </r>
       <r>  12.8923   0.0000  52.0000 </r>
       <r>  12.9563   0.0000  52.0000 </r>
       <r>  13.0203   0.0000  52.0000 </r>
       <r>  13.0843   0.0000  52.0000 </r>
       <r>  13.1483   0.0000  52.0000 </r>
       <r>  13.2123   0.0000  52.0000 </r>
       <r>  13.2763   0.0000  52.0000 </r>
      </set>
     </set>
    </array>
   </total>
   <partial>
    <array>
     <dimension dim="1">gridpoints</dimension>
     <dimension dim="2">spin</dimension>
     <dimension dim="3">ion</dimension>
     <field>energy</field>
     <field>  s</field>
     <field> py</field>
     <field> pz</field>
     <field> px</field>
     <field>dxy</field>
     <field>dyz</field>
     <field>dz2</field>
     <field>dxz</field>
     <field>dx2</field>
     <set>
      <set comment="ion 1">
       <set comment="spin 1">
        <r>  -5.9238   0.0000   0.0000   0.0000   0.0000   0.0000   0.0000   0.0000   0.0000   0.0000 </r>
        <r>  -5.8598   0.0000   0.0000   0.0000   0.0000   0.0000   0.0000   0.0000   0.0000   0.0000 </r>
        <r>  -5.7958   0.0000   0.0000   0.0000   0.0000   0.0000   0.0000   0.0000   0.0000   0.0000 </r>
        <r>  -5.7318   0.0000   0.0000   0.0000   0.0000   0.0000   0.0000   0.0000   0.0000   0.0000 </r>
        <r>  -5.6678   0.0000   0.0000   0.0000   0.0000   0.0000   0.0000   0.0000   0.0000   0.0000 </r>
        <r>  -5.6038   0.0000   0.0000   0.0000   0.0000   0.0000   0.0000   0.0000   0.0000   0.0000 </r>
        <r>  -5.5398   0.0000   0.0000   0.0000   0.0000   0.0000   0.0000   0.0000   0.0000   0.0000 </r>
        <r>  -5.4758   0.0000   0.0000   0.0000   0.0000   0.0000   0.0000   0.0000   0.0000   0.0000 </r>
        <r>  -5.4118   0.0000   0.0000   0.0000   0.0000   0.0000   0.0000   0.0000   0.0000   0.0000 </r>
        <r>  -5.3478   0.0000   0.0000   0.0000   0.0000   0.0000   0.0000   0.0000   0.0000   0.0000 </r>
        <r>  -5.2838   0.0000   0.0000   0.0000   0.0000   0.0000   0.0000   0.0000   0.0000   0.0000 </r>
        <r>  -5.2198   0.0000   0.0000   0.0000   0.0000   0.0000   0.0000   0.0000   0.0000   0.0000 </r>
        <r>  -5.1558   0.0001   0.0000   0.0000   0.0000   0.0000   0.0000   0.0000   0.0000   0.0000 </r>
        <r>  -5.0918   0.0021   0.0000   0.0000   0.0000   0.0000   0.0000   0.0000   0.0000   0.0000 </r>
        <r>  -5.0278   0.0159   0.0001   0.0001   0.0001   0.0000   0.0000   0.0000   0.0000   0.0000 </r>
        <r>  -4.9638   0.0553   0.0003   0.0003   0.0003   0.0000   0.0000   0.0000   0.0000   0.0000 </r>
        <r>  -4.8998   0.0891   0.0005   0.0005   0.0005   0.0000   0.0000   0.0000   0.0000   0.0000 </r>
        <r>  -4.8358   0.0669   0.0003   0.0003   0.0003   0.0000   0.0000   0.0000   0.0000   0.0000 </r>
        <r>  -4.7718   0.0233   0.0001   0.0001   0.0001   0.0000   0.0000   0.0000   0.0000   0.0000 </r>
        <r>  -4.7078   0.0038   0.0000   0.0000   0.0000   0.0000   0.0000   0.0000   0.0000   0.0000 </r>
        <r>  -4.6438   0.0003   0.0000   0.0000   0.0000   0.0000   0.0000   0.0000   0.0000   0.0000 </r>
        <r>  -4.5798   0.0000   0.0000   0.0000   0.0000   0.0000   0.0000   0.0000   0.0000   0.0000 </r>
        <r>  -4.5158   0.0008   0.0000   0.0000   0.0000   0.0000   0.0000   0.0000   0.0000   0.0000 </r>
        <r>  -4.4518   0.0112   0.0001   0.0001   0.0005   0.0000   0.0000   0.0000   0.0000   0.0001 </r>
        <r>  -4.3878   0.0689   0.0004   0.0004   0.0028   0.0003   0.0000   0.0003   0.0003   0.0009 </r>
        <r>  -4.3238   0.1960   0.0010   0.0010   0.0079   0.0009   0.0001   0.0009   0.0009   0.0026 </r>
        <r>  -4.2598   0.2593   0.0014   0.0014   0.0105   0.0011   0.0002   0.0011   0.0011   0.0034 </r>
        <r>  -4.1958   0.1595   0.0008   0.0008   0.0064   0.0007   0.0001   0.0007   0.0007   0.0021 </r>
        <r>  -4.1318   0.0456   0.0002   0.0002   0.0018   0.0002   0.0000   0.0002   0.0002   0.0006 </r>
        <r>  -4.0678   0.0060   0.0000   0.0000   0.0002   0.0000   0.0000   0.0000   0.0000   0.0001 </r>
        <r>  -4.0038   0.0004   0.0000   0.0000   0.0000   0.0000   0.0000   0.0000   0.0000   0.0000 </r>
        <r>  -3.9398   0.0004   0.0000   0.0000   0.0000   0.0000   0.0000   0.0000   0.0000   0.0000 </r>
        <r>  -3.8758   0.0068   0.0003   0.0000   0.0003   0.0004   0.0001   0.0001   0.0001   0.0000 </r>
        <r>  -3.8118   0.0486   0.0020   0.0002   0.0020   0.0026   0.0004   0.0010   0.0004   0.0000 </r>
        <r>  -3.7478   0.1607   0.0067   0.0008   0.0067   0.0085   0.0012   0.0034   0.0012   0.0000 </r>
        <r>  -3.6838   0.2467   0.0102   0.0013   0.0102   0.0130   0.0019   0.0052   0.0019   0.0000 </r>
        <r>  -3.6198   0.1762   0.0073   0.0009   0.0073   0.0093   0.0013   0.0037   0.0013   0.0000 </r>
        <r>  -3.5558   0.0585   0.0024   0.0003   0.0024   0.0031   0.0004   0.0012   0.0004   0.0000 </r>
        <r>  -3.4918   0.0093   0.0004   0.0000   0.0004   0.0005   0.0001   0.0002   0.0001   0.0001 </r>
        <r>  -3.4278   0.0058   0.0001   0.0000   0.0003   0.0001   0.0000   0.0003   0.0001   0.0009 </r>
        <r>  -3.3638   0.0428   0.0003   0.0003   0.0019   0.0006   0.0003   0.0025   0.0006   0.0076 </r>
        <r>  -3.2998   0.1671   0.0014   0.0014   0.0075   0.0028   0.0017   0.0094   0.0028   0.0283 </r>
        <r>  -3.2358   0.3127   0.0034   0.0034   0.0140   0.0069   0.0051   0.0164   0.0069   0.0492 </r>
        <r>  -3.1718   0.2871   0.0042   0.0042   0.0127   0.0088   0.0073   0.0132   0.0088   0.0397 </r>
        <r>  -3.1078   0.1322   0.0026   0.0026   0.0058   0.0056   0.0050   0.0050   0.0056   0.0149 </r>
        <r>  -3.0438   0.0311   0.0008   0.0008   0.0013   0.0017   0.0016   0.0009   0.0017   0.0026 </r>
        <r>  -2.9798   0.0040   0.0001   0.0001   0.0002   0.0003   0.0003   0.0001   0.0003   0.0002 </r>
        <r>  -2.9158   0.0053   0.0002   0.0000   0.0003   0.0010   0.0001   0.0007   0.0001   0.0005 </r>
        <r>  -2.8518   0.0486   0.0020   0.0002   0.0028   0.0090   0.0012   0.0070   0.0010   0.0045 </r>
        <r>  -2.7878   0.2133   0.0089   0.0010   0.0125   0.0393   0.0054   0.0308   0.0043   0.0199 </r>
        <r>  -2.7238   0.4348   0.0181   0.0021   0.0255   0.0802   0.0111   0.0629   0.0087   0.0405 </r>
        <r>  -2.6598   0.4122   0.0172   0.0020   0.0242   0.0760   0.0105   0.0596   0.0082   0.0384 </r>
        <r>  -2.5958   0.1826   0.0076   0.0009   0.0107   0.0339   0.0049   0.0263   0.0040   0.0170 </r>
        <r>  -2.5317   0.0472   0.0019   0.0006   0.0030   0.0112   0.0043   0.0057   0.0051   0.0045 </r>
        <r>  -2.4677   0.0578   0.0022   0.0021   0.0047   0.0242   0.0184   0.0023   0.0237   0.0058 </r>
        <r>  -2.4037   0.1355   0.0052   0.0052   0.0112   0.0589   0.0456   0.0045   0.0588   0.0136 </r>
        <r>  -2.3397   0.1570   0.0060   0.0060   0.0130   0.0687   0.0528   0.0053   0.0682   0.0157 </r>
        <r>  -2.2757   0.0859   0.0034   0.0032   0.0071   0.0479   0.0292   0.0032   0.0374   0.0085 </r>
        <r>  -2.2117   0.0320   0.0022   0.0009   0.0031   0.1110   0.0148   0.0039   0.0169   0.0021 </r>
        <r>  -2.1477   0.0465   0.0059   0.0007   0.0061   0.4412   0.0430   0.0126   0.0432   0.0005 </r>
        <r>  -2.0837   0.0851   0.0117   0.0014   0.0117   0.9152   0.1181   0.0269   0.1181   0.0049 </r>
        <r>  -2.0197   0.0777   0.0113   0.0017   0.0113   0.9507   0.1911   0.0563   0.1911   0.0377 </r>
        <r>  -1.9557   0.0344   0.0056   0.0014   0.0063   0.5517   0.2051   0.1440   0.2056   0.1367 </r>
        <r>  -1.8917   0.0154   0.0021   0.0012   0.0093   0.2589   0.1528   0.2502   0.1575   0.2447 </r>
        <r>  -1.8277   0.0541   0.0023   0.0018   0.0385   0.3504   0.1399   0.3468   0.1620   0.2946 </r>
        <r>  -1.7637   0.1762   0.0058   0.0041   0.0951   0.8916   0.2889   0.6957   0.3401   0.4649 </r>
        <r>  -1.6997   0.3100   0.0108   0.0065   0.1226   1.3362   0.5120   1.2307   0.5748   0.7603 </r>
        <r>  -1.6357   0.2907   0.0127   0.0059   0.0870   1.1074   0.5829   1.3681   0.6483   0.7670 </r>
        <r>  -1.5717   0.1431   0.0099   0.0037   0.0369   0.7009   0.4157   1.1295   0.5643   0.4636 </r>
        <r>  -1.5077   0.0369   0.0074   0.0030   0.0121   0.5925   0.2234   0.9537   0.5416   0.3740 </r>
        <r>  -1.4437   0.0052   0.0094   0.0030   0.0089   0.5072   0.1660   0.8478   0.5111   0.6205 </r>
        <r>  -1.3797   0.0005   0.0118   0.0019   0.0111   0.2641   0.1384   0.5400   0.3160   0.7630 </r>
        <r>  -1.3157   0.0003   0.0100   0.0007   0.0092   0.1005   0.1131   0.2569   0.1712   0.5572 </r>
        <r>  -1.2517   0.0016   0.0103   0.0003   0.0079   0.1539   0.2258   0.3705   0.2906   0.3941 </r>
        <r>  -1.1877   0.0084   0.0158   0.0006   0.0114   0.3906   0.5734   0.6932   0.6680   0.4706 </r>
        <r>  -1.1237   0.0467   0.0182   0.0012   0.0156   0.8325   1.1452   0.7966   1.3072   0.4447 </r>
        <r>  -1.0597   0.1621   0.0181   0.0025   0.0212   1.4680   1.8789   0.8806   2.3358   0.3091 </r>
        <r>  -0.9957   0.3011   0.0177   0.0040   0.0244   1.7853   2.6572   1.0883   3.0106   0.2918 </r>
        <r>  -0.9317   0.3311   0.0151   0.0057   0.0194   1.4457   3.3548   1.1249   2.4848   0.4077 </r>
        <r>  -0.8677   0.2602   0.0118   0.0071   0.0137   0.9453   3.3803   1.0559   1.4940   0.5290 </r>
        <r>  -0.8037   0.1566   0.0074   0.0057   0.0127   0.7088   2.1800   0.7664   0.9112   0.4206 </r>
        <r>  -0.7397   0.0708   0.0030   0.0026   0.0119   0.5718   0.8059   0.3230   0.6242   0.1825 </r>
        <r>  -0.6757   0.0359   0.0014   0.0008   0.0133   0.3522   0.1993   0.1368   0.3823   0.0749 </r>
        <r>  -0.6117   0.0606   0.0031   0.0008   0.0335   0.3024   0.0801   0.3667   0.4018   0.1439 </r>
        <r>  -0.5477   0.1267   0.0062   0.0021   0.0630   0.4433   0.0983   0.9030   0.6383   0.2704 </r>
        <r>  -0.4837   0.1439   0.0066   0.0033   0.0581   0.3976   0.0924   1.1299   0.5776   0.2600 </r>
        <r>  -0.4197   0.0845   0.0065   0.0025   0.0288   0.1746   0.0538   0.7207   0.2626   0.2394 </r>
        <r>  -0.3557   0.0383   0.0136   0.0014   0.0210   0.0573   0.0549   0.3282   0.1169   0.5951 </r>
        <r>  -0.2917   0.0404   0.0223   0.0016   0.0300   0.0576   0.0795   0.3615   0.1347   1.2491 </r>
        <r>  -0.2277   0.0468   0.0190   0.0018   0.0269   0.0596   0.0680   0.4654   0.1243   1.5889 </r>
        <r>  -0.1637   0.0399   0.0098   0.0011   0.0138   0.0303   0.0384   0.3147   0.0668   1.4698 </r>
        <r>  -0.0997   0.0507   0.0050   0.0007   0.0059   0.0081   0.0204   0.1073   0.0272   1.0213 </r>
        <r>  -0.0357   0.1081   0.0062   0.0019   0.0064   0.0092   0.0114   0.0448   0.0143   0.4842 </r>
        <r>   0.0283   0.2136   0.0181   0.0053   0.0201   0.0427   0.0189   0.1057   0.0336   0.3505 </r>
        <r>   0.0923   0.3054   0.0375   0.0101   0.0460   0.1153   0.0453   0.2122   0.0945   0.5660 </r>
        <r>   0.1563   0.2770   0.0409   0.0123   0.0568   0.1607   0.0602   0.2364   0.1414   0.6406 </r>
        <r>   0.2203   0.1501   0.0225   0.0083   0.0359   0.1127   0.0399   0.1485   0.1044   0.4137 </r>
        <r>   0.2843   0.0472   0.0063   0.0029   0.0114   0.0389   0.0130   0.0524   0.0373   0.1511 </r>
        <r>   0.3483   0.0082   0.0017   0.0005   0.0026   0.0065   0.0030   0.0099   0.0072   0.0454 </r>
        <r>   0.4123   0.0007   0.0055   0.0001   0.0056   0.0015   0.0068   0.0009   0.0071   0.1056 </r>
        <r>   0.4763   0.0002   0.0170   0.0008   0.0171   0.0090   0.0272   0.0001   0.0272   0.2943 </r>
        <r>   0.5403   0.0009   0.0287   0.0035   0.0289   0.0372   0.0695   0.0008   0.0695   0.3927 </r>
        <r>   0.6043   0.0041   0.0313   0.0084   0.0330   0.0725   0.1075   0.0061   0.1075   0.2594 </r>
        <r>   0.6683   0.0145   0.0316   0.0160   0.0395   0.0729   0.0957   0.0293   0.0945   0.1653 </r>
        <r>   0.7323   0.0313   0.0421   0.0298   0.0622   0.0556   0.0700   0.0805   0.0624   0.3042 </r>
        <r>   0.7963   0.0381   0.0569   0.0415   0.0867   0.0603   0.0842   0.1293   0.0616   0.5296 </r>
        <r>   0.8603   0.0283   0.0626   0.0403   0.0900   0.0837   0.1203   0.1233   0.0785   0.5456 </r>
        <r>   0.9243   0.0159   0.0645   0.0427   0.0832   0.1087   0.1685   0.0798   0.1218   0.3506 </r>
        <r>   0.9883   0.0120   0.0719   0.0711   0.0757   0.1286   0.1988   0.0528   0.1841   0.1950 </r>
        <r>   1.0523   0.0161   0.0768   0.1145   0.0600   0.1738   0.1757   0.0389   0.2034   0.1086 </r>
        <r>   1.1163   0.0184   0.0654   0.1167   0.0445   0.2246   0.1295   0.0308   0.1790   0.0645 </r>
        <r>   1.1803   0.0130   0.0521   0.0718   0.0374   0.2519   0.0877   0.0400   0.1685   0.1009 </r>
        <r>   1.2443   0.0074   0.0554   0.0448   0.0384   0.2728   0.0617   0.0649   0.1884   0.1687 </r>
        <r>   1.3083   0.0058   0.0584   0.0476   0.0390   0.2343   0.0601   0.0895   0.1842   0.1699 </r>
        <r>   1.3723   0.0070   0.0526   0.0623   0.0414   0.1414   0.0689   0.0964   0.1465   0.1371 </r>
        <r>   1.4363   0.0089   0.0543   0.0805   0.0495   0.0793   0.0716   0.0886   0.1203   0.1566 </r>
        <r>   1.5003   0.0108   0.0585   0.0724   0.0505   0.0738   0.0756   0.0945   0.1293   0.2413 </r>
        <r>   1.5643   0.0139   0.0507   0.0429   0.0372   0.0850   0.0869   0.1068   0.1592   0.3625 </r>
        <r>   1.6283   0.0145   0.0433   0.0267   0.0229   0.0798   0.1041   0.1097   0.1927   0.5135 </r>
        <r>   1.6923   0.0094   0.0415   0.0258   0.0136   0.0620   0.1089   0.1136   0.1865   0.5742 </r>
        <r>   1.7563   0.0047   0.0335   0.0253   0.0103   0.0470   0.0919   0.1238   0.1304   0.4239 </r>
        <r>   1.8203   0.0042   0.0239   0.0220   0.0150   0.0471   0.0793   0.1522   0.0945   0.2317 </r>
        <r>   1.8843   0.0061   0.0219   0.0211   0.0295   0.0585   0.0697   0.2065   0.0939   0.1617 </r>
        <r>   1.9483   0.0087   0.0223   0.0196   0.0458   0.0603   0.0533   0.2787   0.0890   0.1717 </r>
        <r>   2.0123   0.0086   0.0169   0.0125   0.0425   0.0456   0.0574   0.3334   0.0856   0.1705 </r>
        <r>   2.0763   0.0066   0.0100   0.0061   0.0239   0.0307   0.0946   0.2989   0.1177   0.1562 </r>
        <r>   2.1403   0.0109   0.0087   0.0067   0.0174   0.0354   0.1210   0.2298   0.1784   0.1921 </r>
        <r>   2.2043   0.0228   0.0142   0.0137   0.0278   0.0665   0.1134   0.2186   0.2307   0.2622 </r>
        <r>   2.2683   0.0291   0.0190   0.0190   0.0345   0.1096   0.1436   0.2210   0.2310   0.2466 </r>
        <r>   2.3323   0.0236   0.0170   0.0169   0.0263   0.1537   0.3288   0.2584   0.2185   0.2054 </r>
        <r>   2.3963   0.0165   0.0120   0.0120   0.0157   0.1904   0.5955   0.3336   0.2783   0.2533 </r>
        <r>   2.4603   0.0098   0.0069   0.0073   0.0083   0.2032   0.6635   0.3403   0.3554   0.2898 </r>
        <r>   2.5243   0.0038   0.0030   0.0036   0.0033   0.1963   0.5555   0.2640   0.3353   0.2305 </r>
        <r>   2.5883   0.0020   0.0018   0.0019   0.0014   0.1666   0.5643   0.1589   0.2272   0.1314 </r>
        <r>   2.6523   0.0057   0.0035   0.0021   0.0028   0.1303   0.6489   0.0848   0.1275   0.0578 </r>
        <r>   2.7163   0.0134   0.0068   0.0030   0.0063   0.1044   0.4700   0.0685   0.0632   0.0205 </r>
        <r>   2.7803   0.0195   0.0081   0.0029   0.0091   0.0814   0.1699   0.0716   0.0222   0.0056 </r>
        <r>   2.8443   0.0309   0.0089   0.0018   0.0163   0.0919   0.0295   0.0883   0.0054   0.0031 </r>
        <r>   2.9083   0.0538   0.0122   0.0013   0.0344   0.1588   0.0031   0.1309   0.0033   0.0070 </r>
        <r>   2.9723   0.0594   0.0123   0.0014   0.0437   0.1852   0.0010   0.1311   0.0050   0.0107 </r>
        <r>   3.0363   0.0389   0.0077   0.0020   0.0333   0.1173   0.0009   0.0717   0.0114   0.0144 </r>
        <r>   3.1003   0.0282   0.0057   0.0042   0.0300   0.0587   0.0015   0.0267   0.0287   0.0274 </r>
        <r>   3.1643   0.0289   0.0060   0.0058   0.0336   0.0445   0.0020   0.0146   0.0404   0.0372 </r>
        <r>   3.2283   0.0208   0.0040   0.0040   0.0251   0.0286   0.0013   0.0090   0.0284   0.0265 </r>
        <r>   3.2923   0.0191   0.0016   0.0016   0.0271   0.0171   0.0004   0.0063   0.0171   0.0190 </r>
        <r>   3.3563   0.0374   0.0013   0.0013   0.0567   0.0251   0.0001   0.0107   0.0251   0.0321 </r>
        <r>   3.4203   0.0464   0.0014   0.0014   0.0709   0.0304   0.0000   0.0132   0.0304   0.0395 </r>
        <r>   3.4843   0.0274   0.0010   0.0008   0.0420   0.0179   0.0000   0.0078   0.0179   0.0233 </r>
        <r>   3.5483   0.0075   0.0022   0.0002   0.0134   0.0049   0.0000   0.0021   0.0049   0.0069 </r>
        <r>   3.6123   0.0010   0.0122   0.0000   0.0137   0.0006   0.0001   0.0003   0.0007   0.0046 </r>
        <r>   3.6763   0.0001   0.0393   0.0000   0.0394   0.0000   0.0005   0.0000   0.0006   0.0136 </r>
        <r>   3.7403   0.0000   0.0703   0.0004   0.0703   0.0000   0.0013   0.0002   0.0013   0.0278 </r>
        <r>   3.8043   0.0004   0.0744   0.0039   0.0744   0.0006   0.0019   0.0024   0.0019   0.0334 </r>
        <r>   3.8683   0.0052   0.0567   0.0182   0.0567   0.0078   0.0029   0.0139   0.0029   0.0281 </r>
        <r>   3.9323   0.0362   0.0505   0.0414   0.0505   0.0528   0.0082   0.0523   0.0082   0.0256 </r>
        <r>   3.9963   0.1207   0.0466   0.0520   0.0466   0.1741   0.0170   0.1315   0.0170   0.0204 </r>
        <r>   4.0603   0.1910   0.0304   0.0432   0.0304   0.2752   0.0187   0.1910   0.0187   0.0090 </r>
        <r>   4.1243   0.1428   0.0137   0.0247   0.0137   0.2064   0.0108   0.1405   0.0108   0.0020 </r>
        <r>   4.1883   0.0501   0.0052   0.0082   0.0052   0.0729   0.0033   0.0494   0.0033   0.0016 </r>
        <r>   4.2523   0.0082   0.0104   0.0014   0.0104   0.0120   0.0012   0.0082   0.0012   0.0106 </r>
        <r>   4.3163   0.0013   0.0346   0.0001   0.0346   0.0018   0.0026   0.0009   0.0026   0.0372 </r>
        <r>   4.3803   0.0074   0.0575   0.0001   0.0575   0.0102   0.0045   0.0033   0.0045   0.0607 </r>
        <r>   4.4443   0.0381   0.0492   0.0007   0.0492   0.0520   0.0049   0.0166   0.0049   0.0461 </r>
        <r>   4.5083   0.0905   0.0305   0.0016   0.0305   0.1236   0.0053   0.0394   0.0053   0.0163 </r>
        <r>   4.5723   0.1000   0.0195   0.0017   0.0195   0.1366   0.0048   0.0435   0.0048   0.0027 </r>
        <r>   4.6363   0.0514   0.0089   0.0009   0.0089   0.0703   0.0024   0.0224   0.0024   0.0002 </r>
        <r>   4.7003   0.0123   0.0021   0.0002   0.0021   0.0168   0.0006   0.0053   0.0006   0.0000 </r>
        <r>   4.7643   0.0014   0.0002   0.0000   0.0002   0.0018   0.0001   0.0006   0.0001   0.0000 </r>
        <r>   4.8283   0.0001   0.0000   0.0000   0.0000   0.0001   0.0000   0.0000   0.0000   0.0000 </r>
        <r>   4.8923   0.0002   0.0000   0.0000   0.0000   0.0001   0.0001   0.0000   0.0001   0.0000 </r>
        <r>   4.9563   0.0026   0.0006   0.0006   0.0006   0.0013   0.0013   0.0005   0.0013   0.0005 </r>
        <r>   5.0203   0.0141   0.0047   0.0046   0.0047   0.0079   0.0077   0.0043   0.0077   0.0042 </r>
        <r>   5.0843   0.0362   0.0183   0.0177   0.0183   0.0238   0.0211   0.0172   0.0211   0.0159 </r>
        <r>   5.1483   0.0457   0.0382   0.0343   0.0382   0.0453   0.0277   0.0366   0.0277   0.0278 </r>
        <r>   5.2123   0.0349   0.0504   0.0384   0.0504   0.0720   0.0180   0.0490   0.0180   0.0228 </r>
        <r>   5.2763   0.0262   0.0485   0.0302   0.0485   0.0947   0.0065   0.0466   0.0065   0.0087 </r>
        <r>   5.3403   0.0312   0.0408   0.0211   0.0408   0.1212   0.0036   0.0331   0.0036   0.0020 </r>
        <r>   5.4043   0.0499   0.0502   0.0272   0.0502   0.1734   0.0067   0.0265   0.0067   0.0029 </r>
        <r>   5.4683   0.0518   0.0654   0.0449   0.0654   0.1656   0.0097   0.0248   0.0097   0.0072 </r>
        <r>   5.5323   0.0268   0.0544   0.0447   0.0542   0.0800   0.0075   0.0166   0.0075   0.0087 </r>
        <r>   5.5963   0.0099   0.0282   0.0228   0.0252   0.0217   0.0032   0.0079   0.0030   0.0057 </r>
        <r>   5.6603   0.0268   0.0319   0.0062   0.0087   0.0246   0.0020   0.0116   0.0007   0.0077 </r>
        <r>   5.7243   0.0926   0.0932   0.0025   0.0108   0.0794   0.0048   0.0363   0.0002   0.0229 </r>
        <r>   5.7883   0.1522   0.1522   0.0031   0.0168   0.1305   0.0078   0.0594   0.0002   0.0375 </r>
        <r>   5.8523   0.1171   0.1165   0.0025   0.0134   0.1004   0.0063   0.0455   0.0007   0.0287 </r>
        <r>   5.9163   0.0468   0.0422   0.0016   0.0099   0.0402   0.0050   0.0164   0.0048   0.0108 </r>
        <r>   5.9803   0.0289   0.0104   0.0037   0.0230   0.0253   0.0124   0.0037   0.0195   0.0040 </r>
        <r>   6.0443   0.0427   0.0112   0.0107   0.0427   0.0382   0.0231   0.0055   0.0377   0.0057 </r>
        <r>   6.1083   0.0376   0.0317   0.0317   0.0380   0.0362   0.0205   0.0239   0.0361   0.0114 </r>
        <r>   6.1723   0.0156   0.0729   0.0729   0.0157   0.0219   0.0085   0.0615   0.0219   0.0219 </r>
        <r>   6.2363   0.0030   0.0889   0.0889   0.0030   0.0129   0.0016   0.0765   0.0129   0.0258 </r>
        <r>   6.3003   0.0003   0.0516   0.0516   0.0003   0.0062   0.0001   0.0446   0.0062   0.0149 </r>
        <r>   6.3643   0.0000   0.0140   0.0140   0.0000   0.0016   0.0000   0.0121   0.0016   0.0040 </r>
        <r>   6.4283   0.0001   0.0018   0.0018   0.0000   0.0002   0.0000   0.0015   0.0002   0.0005 </r>
        <r>   6.4923   0.0010   0.0013   0.0013   0.0001   0.0005   0.0003   0.0001   0.0005   0.0002 </r>
        <r>   6.5563   0.0078   0.0095   0.0095   0.0008   0.0042   0.0025   0.0004   0.0042   0.0010 </r>
        <r>   6.6203   0.0285   0.0361   0.0361   0.0029   0.0160   0.0090   0.0018   0.0160   0.0038 </r>
        <r>   6.6843   0.0480   0.0720   0.0720   0.0049   0.0310   0.0152   0.0062   0.0310   0.0075 </r>
        <r>   6.7483   0.0376   0.0938   0.0938   0.0038   0.0381   0.0119   0.0157   0.0381   0.0095 </r>
        <r>   6.8123   0.0137   0.0923   0.0923   0.0014   0.0353   0.0043   0.0225   0.0353   0.0090 </r>
        <r>   6.8763   0.0032   0.0578   0.0578   0.0003   0.0215   0.0007   0.0160   0.0215   0.0056 </r>
        <r>   6.9403   0.0100   0.0191   0.0191   0.0004   0.0070   0.0002   0.0054   0.0070   0.0018 </r>
        <r>   7.0043   0.0501   0.0047   0.0047   0.0019   0.0017   0.0006   0.0008   0.0017   0.0003 </r>
        <r>   7.0683   0.1190   0.0046   0.0046   0.0044   0.0015   0.0014   0.0001   0.0015   0.0000 </r>
        <r>   7.1323   0.1313   0.0049   0.0049   0.0049   0.0015   0.0016   0.0000   0.0015   0.0000 </r>
        <r>   7.1963   0.0675   0.0025   0.0025   0.0025   0.0008   0.0008   0.0000   0.0008   0.0000 </r>
        <r>   7.2603   0.0163   0.0008   0.0006   0.0008   0.0007   0.0002   0.0001   0.0002   0.0000 </r>
        <r>   7.3243   0.0050   0.0035   0.0004   0.0028   0.0069   0.0000   0.0013   0.0001   0.0002 </r>
        <r>   7.3883   0.0206   0.0218   0.0018   0.0172   0.0440   0.0001   0.0081   0.0003   0.0014 </r>
        <r>   7.4523   0.0605   0.0642   0.0055   0.0506   0.1298   0.0003   0.0240   0.0009   0.0040 </r>
        <r>   7.5163   0.0831   0.0881   0.0085   0.0694   0.1779   0.0006   0.0331   0.0015   0.0055 </r>
        <r>   7.5803   0.0544   0.0566   0.0153   0.0447   0.1135   0.0034   0.0231   0.0039   0.0035 </r>
        <r>   7.6443   0.0226   0.0189   0.0516   0.0154   0.0336   0.0149   0.0163   0.0151   0.0010 </r>
        <r>   7.7083   0.0173   0.0072   0.1105   0.0068   0.0046   0.0327   0.0230   0.0327   0.0001 </r>
        <r>   7.7723   0.0156   0.0052   0.1127   0.0052   0.0003   0.0333   0.0226   0.0333   0.0000 </r>
        <r>   7.8363   0.0074   0.0024   0.0535   0.0024   0.0000   0.0159   0.0107   0.0158   0.0000 </r>
        <r>   7.9003   0.0037   0.0007   0.0121   0.0007   0.0001   0.0039   0.0024   0.0036   0.0000 </r>
        <r>   7.9643   0.0227   0.0023   0.0052   0.0020   0.0011   0.0047   0.0006   0.0017   0.0001 </r>
        <r>   8.0283   0.1178   0.0105   0.0240   0.0094   0.0067   0.0229   0.0027   0.0089   0.0003 </r>
        <r>   8.0923   0.2963   0.0233   0.0690   0.0207   0.0203   0.0582   0.0089   0.0275   0.0008 </r>
        <r>   8.1563   0.3654   0.0273   0.0990   0.0221   0.0311   0.0726   0.0139   0.0421   0.0011 </r>
        <r>   8.2203   0.2401   0.0305   0.0829   0.0149   0.0310   0.0482   0.0106   0.0375   0.0021 </r>
        <r>   8.2843   0.1240   0.0483   0.0665   0.0139   0.0384   0.0311   0.0049   0.0313   0.0042 </r>
        <r>   8.3483   0.0771   0.0544   0.0584   0.0138   0.0529   0.0395   0.0034   0.0272   0.0050 </r>
        <r>   8.4123   0.0356   0.0495   0.0512   0.0079   0.0533   0.0410   0.0086   0.0209   0.0049 </r>
        <r>   8.4763   0.0083   0.0699   0.0708   0.0025   0.0431   0.0222   0.0207   0.0244   0.0074 </r>
        <r>   8.5403   0.0009   0.0797   0.0799   0.0004   0.0316   0.0058   0.0253   0.0266   0.0085 </r>
        <r>   8.6043   0.0000   0.0457   0.0457   0.0000   0.0164   0.0007   0.0146   0.0158   0.0049 </r>
        <r>   8.6683   0.0000   0.0134   0.0134   0.0000   0.0116   0.0000   0.0044   0.0115   0.0015 </r>
        <r>   8.7323   0.0000   0.0071   0.0071   0.0000   0.0350   0.0000   0.0027   0.0350   0.0009 </r>
        <r>   8.7963   0.0000   0.0120   0.0120   0.0000   0.0732   0.0000   0.0047   0.0732   0.0016 </r>
        <r>   8.8603   0.0000   0.0117   0.0117   0.0000   0.0722   0.0000   0.0046   0.0722   0.0015 </r>
        <r>   8.9243   0.0000   0.0054   0.0054   0.0000   0.0331   0.0000   0.0021   0.0332   0.0007 </r>
        <r>   8.9883   0.0000   0.0011   0.0012   0.0000   0.0071   0.0000   0.0005   0.0071   0.0001 </r>
        <r>   9.0523   0.0003   0.0001   0.0008   0.0000   0.0007   0.0002   0.0002   0.0010   0.0000 </r>
        <r>   9.1163   0.0037   0.0002   0.0093   0.0003   0.0007   0.0022   0.0016   0.0041   0.0000 </r>
        <r>   9.1803   0.0223   0.0009   0.0566   0.0019   0.0040   0.0131   0.0095   0.0245   0.0000 </r>
        <r>   9.2443   0.0634   0.0026   0.1601   0.0052   0.0117   0.0371   0.0268   0.0692   0.0001 </r>
        <r>   9.3083   0.0888   0.0035   0.2138   0.0069   0.0198   0.0490   0.0356   0.0911   0.0002 </r>
        <r>   9.3723   0.0837   0.0025   0.1504   0.0045   0.0349   0.0317   0.0243   0.0573   0.0001 </r>
        <r>   9.4363   0.0946   0.0015   0.0907   0.0021   0.0649   0.0134   0.0130   0.0205   0.0000 </r>
        <r>   9.5003   0.0929   0.0018   0.0656   0.0018   0.0710   0.0068   0.0087   0.0075   0.0000 </r>
        <r>   9.5643   0.0571   0.0066   0.0319   0.0065   0.0455   0.0032   0.0048   0.0031   0.0000 </r>
        <r>   9.6283   0.0506   0.0231   0.0076   0.0231   0.0440   0.0014   0.0037   0.0014   0.0000 </r>
        <r>   9.6923   0.0705   0.0404   0.0008   0.0404   0.0631   0.0013   0.0049   0.0013   0.0000 </r>
        <r>   9.7563   0.0568   0.0331   0.0000   0.0331   0.0509   0.0010   0.0039   0.0010   0.0000 </r>
        <r>   9.8203   0.0219   0.0127   0.0001   0.0127   0.0194   0.0004   0.0015   0.0004   0.0000 </r>
        <r>   9.8843   0.0076   0.0030   0.0008   0.0030   0.0034   0.0001   0.0003   0.0001   0.0000 </r>
        <r>   9.9483   0.0212   0.0045   0.0043   0.0045   0.0003   0.0000   0.0000   0.0001   0.0000 </r>
        <r>  10.0123   0.0540   0.0115   0.0114   0.0116   0.0007   0.0002   0.0000   0.0007   0.0000 </r>
        <r>  10.0763   0.0730   0.0176   0.0175   0.0197   0.0046   0.0006   0.0001   0.0046   0.0001 </r>
        <r>  10.1403   0.0743   0.0249   0.0248   0.0326   0.0166   0.0020   0.0002   0.0166   0.0006 </r>
        <r>  10.2043   0.0768   0.0354   0.0354   0.0451   0.0304   0.0033   0.0010   0.0304   0.0011 </r>
        <r>  10.2683   0.0544   0.0421   0.0421   0.0341   0.0353   0.0025   0.0034   0.0353   0.0018 </r>
        <r>  10.3323   0.0195   0.0476   0.0476   0.0124   0.0367   0.0009   0.0066   0.0367   0.0024 </r>
        <r>  10.3963   0.0035   0.0393   0.0397   0.0021   0.0293   0.0003   0.0064   0.0295   0.0021 </r>
        <r>  10.4603   0.0024   0.0177   0.0221   0.0007   0.0136   0.0022   0.0038   0.0148   0.0010 </r>
        <r>  10.5243   0.0114   0.0064   0.0296   0.0031   0.0078   0.0121   0.0058   0.0140   0.0003 </r>
        <r>  10.5883   0.0276   0.0077   0.0651   0.0090   0.0157   0.0318   0.0130   0.0287   0.0003 </r>
        <r>  10.6523   0.0312   0.0099   0.0773   0.0141   0.0249   0.0425   0.0154   0.0346   0.0008 </r>
        <r>  10.7163   0.0191   0.0071   0.0459   0.0122   0.0220   0.0301   0.0091   0.0211   0.0009 </r>
        <r>  10.7803   0.0250   0.0036   0.0151   0.0065   0.0104   0.0118   0.0028   0.0069   0.0005 </r>
        <r>  10.8443   0.0706   0.0036   0.0080   0.0048   0.0028   0.0030   0.0008   0.0026   0.0001 </r>
        <r>  10.9083   0.1146   0.0056   0.0280   0.0093   0.0023   0.0040   0.0027   0.0112   0.0002 </r>
        <r>  10.9723   0.1103   0.0075   0.0955   0.0217   0.0072   0.0141   0.0104   0.0431   0.0007 </r>
        <r>  11.0363   0.0892   0.0089   0.1707   0.0351   0.0129   0.0257   0.0191   0.0790   0.0013 </r>
        <r>  11.1003   0.0588   0.0069   0.1453   0.0293   0.0110   0.0219   0.0163   0.0675   0.0011 </r>
        <r>  11.1643   0.0222   0.0027   0.0578   0.0116   0.0044   0.0087   0.0065   0.0269   0.0005 </r>
        <r>  11.2283   0.0040   0.0005   0.0106   0.0021   0.0008   0.0016   0.0012   0.0050   0.0001 </r>
        <r>  11.2923   0.0003   0.0000   0.0009   0.0002   0.0001   0.0001   0.0001   0.0004   0.0000 </r>
        <r>  11.3563   0.0000   0.0000   0.0000   0.0000   0.0000   0.0000   0.0000   0.0000   0.0000 </r>
        <r>  11.4203   0.0001   0.0000   0.0000   0.0000   0.0000   0.0000   0.0000   0.0000   0.0000 </r>
        <r>  11.4843   0.0021   0.0003   0.0002   0.0000   0.0001   0.0000   0.0003   0.0002   0.0003 </r>
        <r>  11.5483   0.0220   0.0026   0.0022   0.0002   0.0014   0.0000   0.0028   0.0015   0.0026 </r>
        <r>  11.6123   0.1045   0.0117   0.0102   0.0009   0.0066   0.0000   0.0132   0.0071   0.0123 </r>
        <r>  11.6763   0.2303   0.0250   0.0220   0.0020   0.0146   0.0001   0.0288   0.0153   0.0264 </r>
        <r>  11.7403   0.2364   0.0248   0.0220   0.0020   0.0151   0.0001   0.0293   0.0152   0.0265 </r>
        <r>  11.8043   0.1129   0.0115   0.0102   0.0010   0.0073   0.0001   0.0139   0.0071   0.0135 </r>
        <r>  11.8683   0.0250   0.0027   0.0022   0.0004   0.0016   0.0000   0.0033   0.0015   0.0115 </r>
        <r>  11.9323   0.0026   0.0013   0.0003   0.0008   0.0002   0.0000   0.0013   0.0002   0.0319 </r>
        <r>  11.9963   0.0001   0.0018   0.0001   0.0013   0.0000   0.0000   0.0017   0.0000   0.0527 </r>
        <r>  12.0603   0.0003   0.0015   0.0006   0.0011   0.0001   0.0001   0.0016   0.0001   0.0408 </r>
        <r>  12.1243   0.0036   0.0021   0.0069   0.0019   0.0007   0.0008   0.0045   0.0006   0.0147 </r>
        <r>  12.1883   0.0216   0.0098   0.0415   0.0092   0.0041   0.0048   0.0236   0.0037   0.0025 </r>
        <r>  12.2523   0.0608   0.0267   0.1166   0.0249   0.0116   0.0136   0.0641   0.0104   0.0004 </r>
        <r>  12.3163   0.0794   0.0340   0.1524   0.0317   0.0154   0.0179   0.0814   0.0138   0.0003 </r>
        <r>  12.3803   0.0483   0.0202   0.0928   0.0188   0.0095   0.0110   0.0480   0.0084   0.0002 </r>
        <r>  12.4443   0.0136   0.0056   0.0262   0.0052   0.0027   0.0031   0.0132   0.0024   0.0000 </r>
        <r>  12.5083   0.0018   0.0007   0.0034   0.0007   0.0004   0.0004   0.0017   0.0003   0.0000 </r>
        <r>  12.5723   0.0001   0.0000   0.0002   0.0000   0.0000   0.0000   0.0001   0.0000   0.0000 </r>
        <r>  12.6363   0.0000   0.0000   0.0000   0.0000   0.0000   0.0000   0.0000   0.0000   0.0000 </r>
        <r>  12.7003   0.0000   0.0000   0.0000   0.0000   0.0000   0.0000   0.0000   0.0000   0.0000 </r>
        <r>  12.7643   0.0000   0.0000   0.0000   0.0000   0.0000   0.0000   0.0000   0.0000   0.0000 </r>
        <r>  12.8283   0.0000   0.0000   0.0000   0.0000   0.0000   0.0000   0.0000   0.0000   0.0000 </r>
        <r>  12.8923   0.0000   0.0000   0.0000   0.0000   0.0000   0.0000   0.0000   0.0000   0.0000 </r>
        <r>  12.9563   0.0000   0.0000   0.0000   0.0000   0.0000   0.0000   0.0000   0.0000   0.0000 </r>
        <r>  13.0203   0.0000   0.0000   0.0000   0.0000   0.0000   0.0000   0.0000   0.0000   0.0000 </r>
        <r>  13.0843   0.0000   0.0000   0.0000   0.0000   0.0000   0.0000   0.0000   0.0000   0.0000 </r>
        <r>  13.1483   0.0000   0.0000   0.0000   0.0000   0.0000   0.0000   0.0000   0.0000   0.0000 </r>
        <r>  13.2123   0.0000   0.0000   0.0000   0.0000   0.0000   0.0000   0.0000   0.0000   0.0000 </r>
        <r>  13.2763   0.0000   0.0000   0.0000   0.0000   0.0000   0.0000   0.0000   0.0000   0.0000 </r>
       </set>
      </set>
      <set comment="ion 2">
       <set comment="spin 1">
        <r>  -5.9238   0.0000   0.0000   0.0000   0.0000   0.0000   0.0000   0.0000   0.0000   0.0000 </r>
        <r>  -5.8598   0.0000   0.0000   0.0000   0.0000   0.0000   0.0000   0.0000   0.0000   0.0000 </r>
        <r>  -5.7958   0.0000   0.0000   0.0000   0.0000   0.0000   0.0000   0.0000   0.0000   0.0000 </r>
        <r>  -5.7318   0.0000   0.0000   0.0000   0.0000   0.0000   0.0000   0.0000   0.0000   0.0000 </r>
        <r>  -5.6678   0.0000   0.0000   0.0000   0.0000   0.0000   0.0000   0.0000   0.0000   0.0000 </r>
        <r>  -5.6038   0.0000   0.0000   0.0000   0.0000   0.0000   0.0000   0.0000   0.0000   0.0000 </r>
        <r>  -5.5398   0.0000   0.0000   0.0000   0.0000   0.0000   0.0000   0.0000   0.0000   0.0000 </r>
        <r>  -5.4758   0.0000   0.0000   0.0000   0.0000   0.0000   0.0000   0.0000   0.0000   0.0000 </r>
        <r>  -5.4118   0.0000   0.0000   0.0000   0.0000   0.0000   0.0000   0.0000   0.0000   0.0000 </r>
        <r>  -5.3478   0.0000   0.0000   0.0000   0.0000   0.0000   0.0000   0.0000   0.0000   0.0000 </r>
        <r>  -5.2838   0.0000   0.0000   0.0000   0.0000   0.0000   0.0000   0.0000   0.0000   0.0000 </r>
        <r>  -5.2198   0.0000   0.0000   0.0000   0.0000   0.0000   0.0000   0.0000   0.0000   0.0000 </r>
        <r>  -5.1558   0.0001   0.0000   0.0000   0.0000   0.0000   0.0000   0.0000   0.0000   0.0000 </r>
        <r>  -5.0918   0.0011   0.0000   0.0000   0.0000   0.0000   0.0000   0.0000   0.0000   0.0000 </r>
        <r>  -5.0278   0.0085   0.0001   0.0000   0.0001   0.0000   0.0000   0.0000   0.0000   0.0000 </r>
        <r>  -4.9638   0.0295   0.0003   0.0002   0.0003   0.0000   0.0000   0.0002   0.0000   0.0000 </r>
        <r>  -4.8998   0.0477   0.0004   0.0002   0.0004   0.0000   0.0000   0.0003   0.0000   0.0000 </r>
        <r>  -4.8358   0.0358   0.0003   0.0002   0.0003   0.0000   0.0000   0.0002   0.0000   0.0000 </r>
        <r>  -4.7718   0.0125   0.0001   0.0001   0.0001   0.0000   0.0000   0.0001   0.0000   0.0000 </r>
        <r>  -4.7078   0.0020   0.0000   0.0000   0.0000   0.0000   0.0000   0.0000   0.0000   0.0000 </r>
        <r>  -4.6438   0.0001   0.0000   0.0000   0.0000   0.0000   0.0000   0.0000   0.0000   0.0000 </r>
        <r>  -4.5798   0.0000   0.0000   0.0000   0.0000   0.0000   0.0000   0.0000   0.0000   0.0000 </r>
        <r>  -4.5158   0.0004   0.0000   0.0000   0.0000   0.0000   0.0000   0.0000   0.0000   0.0000 </r>
        <r>  -4.4518   0.0054   0.0000   0.0000   0.0005   0.0000   0.0000   0.0000   0.0000   0.0000 </r>
        <r>  -4.3878   0.0332   0.0002   0.0002   0.0031   0.0002   0.0000   0.0001   0.0000   0.0000 </r>
        <r>  -4.3238   0.0944   0.0006   0.0006   0.0088   0.0005   0.0000   0.0002   0.0001   0.0000 </r>
        <r>  -4.2598   0.1249   0.0009   0.0007   0.0116   0.0006   0.0000   0.0002   0.0001   0.0000 </r>
        <r>  -4.1958   0.0768   0.0005   0.0004   0.0071   0.0004   0.0000   0.0002   0.0001   0.0000 </r>
        <r>  -4.1318   0.0220   0.0002   0.0001   0.0020   0.0001   0.0000   0.0000   0.0000   0.0000 </r>
        <r>  -4.0678   0.0029   0.0000   0.0000   0.0003   0.0000   0.0000   0.0000   0.0000   0.0000 </r>
        <r>  -4.0038   0.0002   0.0000   0.0000   0.0000   0.0000   0.0000   0.0000   0.0000   0.0000 </r>
        <r>  -3.9398   0.0002   0.0000   0.0000   0.0000   0.0000   0.0000   0.0000   0.0000   0.0000 </r>
        <r>  -3.8758   0.0032   0.0002   0.0000   0.0002   0.0002   0.0000   0.0000   0.0000   0.0000 </r>
        <r>  -3.8118   0.0230   0.0016   0.0001   0.0016   0.0012   0.0000   0.0000   0.0000   0.0000 </r>
        <r>  -3.7478   0.0760   0.0051   0.0005   0.0051   0.0038   0.0001   0.0000   0.0001   0.0000 </r>
        <r>  -3.6838   0.1166   0.0079   0.0007   0.0079   0.0059   0.0002   0.0001   0.0002   0.0000 </r>
        <r>  -3.6198   0.0833   0.0056   0.0005   0.0056   0.0042   0.0002   0.0001   0.0002   0.0000 </r>
        <r>  -3.5558   0.0276   0.0019   0.0002   0.0019   0.0014   0.0001   0.0000   0.0001   0.0000 </r>
        <r>  -3.4918   0.0043   0.0003   0.0000   0.0003   0.0002   0.0000   0.0000   0.0000   0.0000 </r>
        <r>  -3.4278   0.0015   0.0000   0.0000   0.0007   0.0001   0.0000   0.0000   0.0000   0.0000 </r>
        <r>  -3.3638   0.0099   0.0001   0.0001   0.0055   0.0003   0.0000   0.0000   0.0001   0.0000 </r>
        <r>  -3.2998   0.0407   0.0006   0.0007   0.0206   0.0015   0.0002   0.0001   0.0005   0.0002 </r>
        <r>  -3.2358   0.0823   0.0017   0.0018   0.0365   0.0035   0.0005   0.0003   0.0011   0.0003 </r>
        <r>  -3.1718   0.0842   0.0025   0.0024   0.0306   0.0041   0.0007   0.0004   0.0012   0.0003 </r>
        <r>  -3.1078   0.0441   0.0017   0.0016   0.0122   0.0025   0.0005   0.0002   0.0007   0.0001 </r>
        <r>  -3.0438   0.0118   0.0005   0.0005   0.0024   0.0007   0.0002   0.0001   0.0002   0.0000 </r>
        <r>  -2.9798   0.0017   0.0001   0.0001   0.0003   0.0001   0.0000   0.0000   0.0000   0.0000 </r>
        <r>  -2.9158   0.0017   0.0000   0.0000   0.0005   0.0003   0.0000   0.0000   0.0000   0.0000 </r>
        <r>  -2.8518   0.0155   0.0003   0.0001   0.0048   0.0030   0.0001   0.0000   0.0002   0.0001 </r>
        <r>  -2.7878   0.0683   0.0015   0.0004   0.0211   0.0130   0.0003   0.0000   0.0011   0.0002 </r>
        <r>  -2.7238   0.1391   0.0030   0.0009   0.0430   0.0265   0.0007   0.0000   0.0021   0.0005 </r>
        <r>  -2.6598   0.1319   0.0029   0.0008   0.0408   0.0251   0.0007   0.0000   0.0020   0.0004 </r>
        <r>  -2.5958   0.0586   0.0013   0.0004   0.0181   0.0112   0.0003   0.0000   0.0009   0.0002 </r>
        <r>  -2.5317   0.0166   0.0003   0.0004   0.0047   0.0032   0.0004   0.0000   0.0007   0.0001 </r>
        <r>  -2.4677   0.0267   0.0003   0.0016   0.0057   0.0055   0.0018   0.0001   0.0030   0.0001 </r>
        <r>  -2.4037   0.0640   0.0007   0.0040   0.0134   0.0132   0.0045   0.0003   0.0076   0.0003 </r>
        <r>  -2.3397   0.0743   0.0008   0.0046   0.0155   0.0153   0.0052   0.0004   0.0088   0.0003 </r>
        <r>  -2.2757   0.0436   0.0005   0.0025   0.0084   0.0085   0.0029   0.0003   0.0048   0.0002 </r>
        <r>  -2.2117   0.0431   0.0003   0.0008   0.0023   0.0043   0.0018   0.0009   0.0023   0.0000 </r>
        <r>  -2.1477   0.1430   0.0007   0.0008   0.0010   0.0096   0.0060   0.0040   0.0061   0.0001 </r>
        <r>  -2.0837   0.2909   0.0014   0.0019   0.0014   0.0185   0.0164   0.0094   0.0164   0.0010 </r>
        <r>  -2.0197   0.2950   0.0015   0.0022   0.0016   0.0175   0.0264   0.0126   0.0264   0.0078 </r>
        <r>  -1.9557   0.1666   0.0013   0.0015   0.0015   0.0081   0.0282   0.0136   0.0282   0.0285 </r>
        <r>  -1.8917   0.0892   0.0015   0.0009   0.0030   0.0025   0.0207   0.0140   0.0208   0.0512 </r>
        <r>  -1.8277   0.1532   0.0034   0.0020   0.0125   0.0039   0.0177   0.0137   0.0184   0.0605 </r>
        <r>  -1.7637   0.3591   0.0087   0.0047   0.0363   0.0130   0.0351   0.0192   0.0378   0.0876 </r>
        <r>  -1.6997   0.4859   0.0145   0.0060   0.0572   0.0278   0.0629   0.0273   0.0687   0.1334 </r>
        <r>  -1.6357   0.3636   0.0147   0.0045   0.0485   0.0376   0.0753   0.0262   0.0798   0.1306 </r>
        <r>  -1.5717   0.1883   0.0120   0.0035   0.0255   0.0371   0.0617   0.0215   0.0566   0.0728 </r>
        <r>  -1.5077   0.1089   0.0138   0.0051   0.0192   0.0315   0.0461   0.0212   0.0279   0.0397 </r>
        <r>  -1.4437   0.0733   0.0167   0.0055   0.0259   0.0240   0.0383   0.0190   0.0178   0.0614 </r>
        <r>  -1.3797   0.0355   0.0145   0.0031   0.0239   0.0143   0.0250   0.0106   0.0144   0.0863 </r>
        <r>  -1.3157   0.0094   0.0088   0.0011   0.0164   0.0158   0.0151   0.0038   0.0116   0.0655 </r>
        <r>  -1.2517   0.0013   0.0058   0.0014   0.0230   0.0512   0.0255   0.0037   0.0204   0.0329 </r>
        <r>  -1.1877   0.0004   0.0106   0.0034   0.0407   0.1152   0.0586   0.0065   0.0461   0.0252 </r>
        <r>  -1.1237   0.0012   0.0277   0.0077   0.0465   0.1787   0.1096   0.0069   0.0871   0.0248 </r>
        <r>  -1.0597   0.0033   0.0590   0.0164   0.0468   0.2482   0.1753   0.0068   0.1421   0.0247 </r>
        <r>  -0.9957   0.0061   0.0807   0.0249   0.0506   0.2893   0.2018   0.0082   0.1786   0.0295 </r>
        <r>  -0.9317   0.0075   0.0703   0.0257   0.0527   0.2467   0.1431   0.0082   0.1816   0.0350 </r>
[...]
        <r>  0.0001  0.0006  0.0017  0.0001  0.0001  0.0131  0.0069  0.0003  0.0025 </r>
       </set>
       <set comment="band 6">
        <r>  0.0000  0.0028  0.0000  0.0028  0.0000  0.0145  0.0000  0.0145  0.7678 </r>
        <r>  0.0000  0.0031  0.0000  0.0031  0.0000  0.0016  0.0000  0.0016  0.0056 </r>
        <r>  0.0010  0.0000  0.0043  0.0013  0.0002  0.0001  0.0104  0.0302  0.0001 </r>
        <r>  0.0010  0.0013  0.0043  0.0000  0.0002  0.0302  0.0104  0.0001  0.0001 </r>
       </set>
       <set comment="band 7">
        <r>  0.0010  0.0141  0.0055  0.0141  0.0609  0.0810  0.0003  0.0810  0.0000 </r>
        <r>  0.0136  0.0111  0.0000  0.0111  0.0133  0.0096  0.0862  0.0096  0.0000 </r>
        <r>  0.0236  0.0019  0.0080  0.0017  0.0712  0.0332  0.0012  0.0429  0.0291 </r>
        <r>  0.0236  0.0017  0.0080  0.0019  0.0712  0.0429  0.0012  0.0332  0.0291 </r>
       </set>
       <set comment="band 8">
        <r>  0.0000  0.0162  0.0000  0.0162  0.0000  0.0824  0.0000  0.0824  0.0074 </r>
        <r>  0.0000  0.0128  0.0000  0.0128  0.0000  0.0133  0.0000  0.0133  0.0238 </r>
        <r>  0.0245  0.0005  0.0083  0.0004  0.1745  0.0006  0.0024  0.0351  0.0435 </r>
        <r>  0.0245  0.0004  0.0083  0.0005  0.1745  0.0351  0.0024  0.0006  0.0435 </r>
       </set>
       <set comment="band 9">
        <r>  0.0024  0.0076  0.0075  0.0076  0.0304  0.0195  0.0000  0.0195  0.0000 </r>
        <r>  0.0023  0.0045  0.0008  0.0045  0.0010  0.0000  0.3461  0.0000  0.0000 </r>
        <r>  0.0062  0.0028  0.0025  0.0026  0.0252  0.1196  0.0078  0.0498  0.0038 </r>
        <r>  0.0062  0.0026  0.0025  0.0028  0.0252  0.0498  0.0078  0.1196  0.0038 </r>
       </set>
       <set comment="band 10">
        <r>  0.0008  0.0056  0.0014  0.0056  0.0190  0.0002  0.0040  0.0002  0.0000 </r>
        <r>  0.0003  0.0034  0.0039  0.0034  0.0139  0.0072  0.0050  0.0072  0.0000 </r>
        <r>  0.0000  0.0021  0.0010  0.0006  0.0811  0.0386  0.2804  0.0082  0.0050 </r>
        <r>  0.0000  0.0006  0.0010  0.0021  0.0811  0.0082  0.2804  0.0386  0.0050 </r>
       </set>
       <set comment="band 11">
        <r>  0.0000  0.0048  0.0000  0.0048  0.0000  0.0001  0.0000  0.0001  0.0215 </r>
        <r>  0.0000  0.0030  0.0000  0.0030  0.0000  0.0097  0.0000  0.0097  0.1672 </r>
        <r>  0.0004  0.0003  0.0009  0.0000  0.0626  0.0176  0.2439  0.0196  0.0067 </r>
        <r>  0.0004  0.0000  0.0009  0.0003  0.0626  0.0196  0.2439  0.0176  0.0067 </r>
       </set>
       <set comment="band 12">
        <r>  0.0007  0.0015  0.0048  0.0015  0.0037  0.0002  0.0028  0.0002  0.0000 </r>
        <r>  0.0073  0.0017  0.0236  0.0017  0.0457  0.0034  0.0646  0.0034  0.0000 </r>
        <r>  0.0014  0.0182  0.0007  0.0018  0.0154  0.1430  0.0324  0.0257  0.1090 </r>
        <r>  0.0014  0.0018  0.0007  0.0182  0.0154  0.0257  0.0324  0.1430  0.1090 </r>
       </set>
       <set comment="band 13">
        <r>  0.0039  0.0013  0.0281  0.0013  0.0008  0.0039  0.0001  0.0039  0.0000 </r>
        <r>  0.0009  0.0008  0.0071  0.0008  0.1149  0.0008  0.1219  0.0008  0.0000 </r>
        <r>  0.0003  0.0088  0.0011  0.0127  0.0576  0.0249  0.0042  0.1704  0.0158 </r>
        <r>  0.0003  0.0127  0.0011  0.0088  0.0576  0.1704  0.0042  0.0249  0.0158 </r>
       </set>
       <set comment="band 14">
        <r>  0.0000  0.0115  0.0000  0.0115  0.0000  0.0012  0.0000  0.0012  0.0027 </r>
        <r>  0.0000  0.0053  0.0000  0.0053  0.0000  0.1629  0.0000  0.1629  0.0021 </r>
        <r>  0.0030  0.0000  0.0059  0.0001  0.0099  0.0521  0.0260  0.0330  0.1465 </r>
        <r>  0.0030  0.0001  0.0059  0.0000  0.0099  0.0330  0.0260  0.0521  0.1465 </r>
       </set>
       <set comment="band 15">
        <r>  0.0000  0.0086  0.0011  0.0086  0.0047  0.0016  0.0050  0.0016  0.0000 </r>
        <r>  0.0063  0.0031  0.0003  0.0031  0.0421  0.2516  0.0255  0.2517  0.0000 </r>
        <r>  0.0013  0.0030  0.0066  0.0014  0.0103  0.0000  0.0024  0.0014  0.1235 </r>
        <r>  0.0013  0.0014  0.0066  0.0030  0.0103  0.0014  0.0024  0.0000  0.1235 </r>
       </set>
       <set comment="band 16">
        <r>  0.0000  0.0004  0.0000  0.0004  0.0000  0.0005  0.0000  0.0005  0.0000 </r>
        <r>  0.0000  0.0012  0.0000  0.0012  0.0000  0.0286  0.0000  0.0286  0.4222 </r>
        <r>  0.0003  0.0003  0.0000  0.0000  0.0078  0.1344  0.0539  0.0016  0.0378 </r>
        <r>  0.0003  0.0000  0.0000  0.0003  0.0078  0.0016  0.0539  0.1344  0.0378 </r>
       </set>
       <set comment="band 17">
        <r>  0.0000  0.0000  0.0000  0.0000  0.0000  0.0155  0.0000  0.0155  0.0327 </r>
        <r>  0.0000  0.0004  0.0000  0.0004  0.0000  0.0944  0.0000  0.0944  0.0994 </r>
        <r>  0.0000  0.0001  0.0001  0.0001  0.0011  0.0706  0.0005  0.1122  0.1284 </r>
        <r>  0.0000  0.0001  0.0001  0.0001  0.0011  0.1122  0.0005  0.0706  0.1284 </r>
       </set>
       <set comment="band 18">
        <r>  0.0000  0.0008  0.0000  0.0008  0.0000  0.0346  0.0000  0.0346  0.0737 </r>
        <r>  0.0000  0.0002  0.0000  0.0002  0.0000  0.0078  0.0000  0.0078  0.0329 </r>
        <r>  0.0001  0.0000  0.0004  0.0001  0.0334  0.0219  0.0516  0.2356  0.0514 </r>
        <r>  0.0001  0.0001  0.0004  0.0000  0.0334  0.2356  0.0516  0.0219  0.0514 </r>
       </set>
       <set comment="band 19">
        <r>  0.0001  0.0001  0.0006  0.0001  0.0136  0.0407  0.0196  0.0407  0.0000 </r>
        <r>  0.0001  0.0001  0.0005  0.0001  0.0473  0.1502  0.0722  0.1502  0.0000 </r>
        <r>  0.0000  0.0005  0.0000  0.0004  0.0000  0.0258  0.0000  0.0252  0.1716 </r>
        <r>  0.0000  0.0004  0.0000  0.0005  0.0000  0.0252  0.0000  0.0258  0.1716 </r>
       </set>
       <set comment="band 20">
        <r>  0.0000  0.0000  0.0000  0.0000  0.0000  0.0096  0.0000  0.0096  0.0012 </r>
        <r>  0.0000  0.0002  0.0000  0.0002  0.0000  0.1100  0.0000  0.1100  0.1888 </r>
        <r>  0.0000  0.0001  0.0001  0.0000  0.0102  0.1823  0.0143  0.0065  0.0648 </r>
        <r>  0.0000  0.0000  0.0001  0.0001  0.0102  0.0065  0.0143  0.1823  0.0648 </r>
       </set>
       <set comment="band 21">
        <r>  0.0122  0.0057  0.0022  0.0057  0.0411  0.0012  0.0455  0.0012  0.0000 </r>
        <r>  0.0059  0.0048  0.0011  0.0048  0.1673  0.0006  0.0921  0.0006  0.0000 </r>
        <r>  0.0083  0.0029  0.0018  0.0037  0.1393  0.0029  0.1148  0.0005  0.0002 </r>
        <r>  0.0083  0.0037  0.0018  0.0029  0.1393  0.0005  0.1148  0.0029  0.0002 </r>
       </set>
       <set comment="band 22">
        <r>  0.0000  0.0429  0.0000  0.0429  0.0000  0.0013  0.0000  0.0013  0.0216 </r>
        <r>  0.0000  0.0326  0.0000  0.0326  0.0000  0.0006  0.0000  0.0006  0.0192 </r>
        <r>  0.0450  0.0005  0.0168  0.0007  0.1462  0.0077  0.0729  0.0126  0.0000 </r>
        <r>  0.0450  0.0007  0.0168  0.0005  0.1462  0.0126  0.0729  0.0077  0.0000 </r>
       </set>
       <set comment="band 23">
        <r>  0.0633  0.0046  0.0195  0.0046  0.1047  0.0060  0.0680  0.0060  0.0000 </r>
        <r>  0.0358  0.0003  0.0156  0.0003  0.2019  0.0061  0.0900  0.0061  0.0000 </r>
        <r>  0.0017  0.0306  0.0010  0.0286  0.0032  0.0002  0.0007  0.0026  0.0149 </r>
        <r>  0.0017  0.0286  0.0010  0.0306  0.0032  0.0026  0.0007  0.0002  0.0149 </r>
       </set>
       <set comment="band 24">
        <r>  0.0136  0.0303  0.0167  0.0303  0.0612  0.0008  0.0300  0.0008  0.0000 </r>
        <r>  0.0113  0.0224  0.0313  0.0224  0.0428  0.0000  0.0597  0.0000  0.0000 </r>
        <r>  0.0110  0.0430  0.0173  0.0182  0.0351  0.0037  0.0262  0.0002  0.0005 </r>
        <r>  0.0110  0.0182  0.0173  0.0430  0.0351  0.0002  0.0262  0.0037  0.0005 </r>
       </set>
       <set comment="band 25">
        <r>  0.1379  0.0002  0.0595  0.0002  0.0202  0.0294  0.0112  0.0295  0.0000 </r>
        <r>  0.0582  0.0007  0.0091  0.0007  0.0207  0.0190  0.0001  0.0190  0.0000 </r>
        <r>  0.0787  0.0000  0.0125  0.0094  0.0114  0.0124  0.0029  0.0537  0.0000 </r>
        <r>  0.0787  0.0094  0.0125  0.0000  0.0114  0.0537  0.0029  0.0124  0.0000 </r>
       </set>
       <set comment="band 26">
        <r>  0.0777  0.0009  0.0527  0.0008  0.0602  0.0049  0.0068  0.0047  0.0000 </r>
        <r>  0.1973  0.0006  0.0624  0.0006  0.0122  0.0000  0.0009  0.0000  0.0000 </r>
        <r>  0.0048  0.0111  0.0002  0.0199  0.0008  0.0528  0.0000  0.0297  0.0005 </r>
        <r>  0.0051  0.0199  0.0002  0.0110  0.0008  0.0297  0.0001  0.0528  0.0005 </r>
       </set>
      </set>
      <set comment="kpoint 10">
       <set comment="band 1">
        <r>  0.0061  0.0015  0.0015  0.0015  0.1674  0.1674  0.0000  0.1674  0.0000 </r>
        <r>  0.0466  0.0000  0.0022  0.0000  0.0021  0.0222  0.0036  0.0222  0.0000 </r>
        <r>  0.0466  0.0022  0.0000  0.0000  0.0222  0.0222  0.0009  0.0021  0.0027 </r>
        <r>  0.0466  0.0000  0.0000  0.0022  0.0222  0.0021  0.0009  0.0222  0.0027 </r>
       </set>
       <set comment="band 2">
        <r>  0.0000  0.0000  0.0004  0.0005  0.2488  0.2886  0.0007  0.0064  0.0003 </r>
        <r>  0.0530  0.0003  0.0006  0.0012  0.0003  0.0011  0.0066  0.0384  0.0000 </r>
        <r>  0.0014  0.0000  0.0002  0.0004  0.0406  0.0353  0.0001  0.0000  0.0001 </r>
        <r>  0.0614  0.0004  0.0012  0.0007  0.0007  0.0003  0.0017  0.0328  0.0060 </r>
       </set>
       <set comment="band 3">
        <r>  0.0000  0.0006  0.0002  0.0001  0.1137  0.0740  0.0003  0.3561  0.0007 </r>
        <r>  0.0242  0.0010  0.0003  0.0000  0.0001  0.0486  0.0030  0.0112  0.0000 </r>
        <r>  0.0758  0.0008  0.0010  0.0009  0.0091  0.0143  0.0023  0.0004  0.0071 </r>
        <r>  0.0157  0.0008  0.0000  0.0002  0.0490  0.0001  0.0008  0.0169  0.0012 </r>
       </set>
       <set comment="band 4">
        <r>  0.2427  0.0000  0.0000  0.0000  0.0049  0.0049  0.0000  0.0049  0.0000 </r>
        <r>  0.0000  0.0033  0.0000  0.0033  0.1797  0.0007  0.0000  0.0007  0.0000 </r>
        <r>  0.0000  0.0000  0.0033  0.0033  0.0007  0.0007  0.0000  0.1797  0.0000 </r>
        <r>  0.0000  0.0033  0.0033  0.0000  0.0007  0.1797  0.0000  0.0007  0.0000 </r>
       </set>
       <set comment="band 5">
        <r>  0.0000  0.0000  0.0010  0.0009  0.0010  0.0009  0.5982  0.0000  0.1772 </r>
        <r>  0.0000  0.0026  0.0000  0.0003  0.0676  0.0000  0.0002  0.0001  0.0007 </r>
        <r>  0.0000  0.0000  0.0014  0.0015  0.0001  0.0001  0.0024  0.0006  0.0008 </r>
        <r>  0.0000  0.0027  0.0002  0.0000  0.0000  0.0633  0.0004  0.0002  0.0006 </r>
       </set>
       <set comment="band 6">
        <r>  0.0000  0.0013  0.0003  0.0004  0.0003  0.0004  0.1772  0.0013  0.5982 </r>
        <r>  0.0000  0.0003  0.0000  0.0026  0.0200  0.0002  0.0000  0.0000  0.0025 </r>
        <r>  0.0000  0.0000  0.0015  0.0014  0.0001  0.0000  0.0001  0.0871  0.0001 </r>
        <r>  0.0000  0.0002  0.0027  0.0000  0.0002  0.0244  0.0021  0.0000  0.0003 </r>
       </set>
       <set comment="band 7">
        <r>  0.0005  0.0011  0.0011  0.0011  0.0473  0.0473  0.0000  0.0473  0.0000 </r>
        <r>  0.0062  0.0012  0.0002  0.0012  0.0008  0.0623  0.1242  0.0623  0.0000 </r>
        <r>  0.0062  0.0002  0.0012  0.0012  0.0623  0.0623  0.0310  0.0008  0.0931 </r>
        <r>  0.0062  0.0012  0.0012  0.0002  0.0623  0.0008  0.0310  0.0623  0.0931 </r>
       </set>
       <set comment="band 8">
        <r>  0.0000  0.0000  0.0003  0.0003  0.0549  0.0570  0.0001  0.0012  0.0001 </r>
        <r>  0.0050  0.0003  0.0005  0.0000  0.0006  0.0027  0.1893  0.0996  0.0006 </r>
        <r>  0.0001  0.0000  0.0004  0.0004  0.1109  0.1073  0.0023  0.0000  0.0039 </r>
        <r>  0.0052  0.0003  0.0000  0.0005  0.0023  0.0006  0.0580  0.0956  0.1389 </r>
       </set>
       <set comment="band 9">
        <r>  0.0000  0.0004  0.0001  0.0001  0.0205  0.0184  0.0001  0.0743  0.0001 </r>
        <r>  0.0019  0.0002  0.0002  0.0005  0.0002  0.1367  0.0705  0.0399  0.0016 </r>
        <r>  0.0068  0.0006  0.0000  0.0001  0.0286  0.0321  0.0643  0.0008  0.1915 </r>
        <r>  0.0017  0.0002  0.0005  0.0002  0.1372  0.0002  0.0086  0.0439  0.0565 </r>
       </set>
       <set comment="band 10">
        <r>  0.0000  0.0000  0.0005  0.0005  0.0000  0.0000  0.0015  0.0000  0.0006 </r>
        <r>  0.0000  0.0003  0.0001  0.0001  0.0028  0.1127  0.0019  0.0341  0.1114 </r>
        <r>  0.0000  0.0000  0.0001  0.0001  0.0203  0.0258  0.2895  0.0001  0.0954 </r>
        <r>  0.0000  0.0003  0.0001  0.0001  0.1137  0.0030  0.0572  0.0406  0.0355 </r>
       </set>
       <set comment="band 11">
        <r>  0.0000  0.0007  0.0002  0.0002  0.0000  0.0000  0.0006  0.0000  0.0015 </r>
        <r>  0.0000  0.0000  0.0000  0.0003  0.0011  0.0030  0.0008  0.0817  0.2798 </r>
        <r>  0.0000  0.0001  0.0002  0.0002  0.0955  0.0899  0.0046  0.0038  0.0044 </r>
        <r>  0.0000  0.0000  0.0003  0.0000  0.0020  0.0009  0.2369  0.0751  0.0643 </r>
       </set>
       <set comment="band 12">
        <r>  0.0000  0.0000  0.0000  0.0000  0.0000  0.0000  0.0000  0.0000  0.0000 </r>
        <r>  0.0000  0.0001  0.0000  0.0001  0.0000  0.0636  0.0000  0.0636  0.1906 </r>
        <r>  0.0000  0.0000  0.0001  0.0001  0.0636  0.0636  0.1430  0.0000  0.0477 </r>
        <r>  0.0000  0.0001  0.0001  0.0000  0.0636  0.0000  0.1430  0.0636  0.0477 </r>
       </set>
       <set comment="band 13">
        <r>  0.0062  0.0118  0.0118  0.0118  0.0306  0.0306  0.0000  0.0306  0.0000 </r>
        <r>  0.0006  0.0074  0.0179  0.0074  0.0106  0.0240  0.1418  0.0240  0.0000 </r>
        <r>  0.0006  0.0179  0.0074  0.0074  0.0240  0.0240  0.0354  0.0106  0.1063 </r>
        <r>  0.0006  0.0074  0.0074  0.0179  0.0240  0.0106  0.0354  0.0240  0.1063 </r>
       </set>
       <set comment="band 14">
        <r>  0.0000  0.0015  0.0181  0.0287  0.0043  0.0068  0.0100  0.0003  0.0078 </r>
        <r>  0.0015  0.0199  0.0000  0.0010  0.1287  0.0776  0.0164  0.0154  0.0233 </r>
        <r>  0.0001  0.0000  0.0199  0.0126  0.0046  0.0289  0.0450  0.0105  0.0072 </r>
        <r>  0.0024  0.0125  0.0010  0.0000  0.0844  0.2042  0.0006  0.0465  0.0311 </r>
       </set>
       <set comment="band 15">
        <r>  0.0000  0.0307  0.0141  0.0035  0.0033  0.0008  0.0078  0.0072  0.0100 </r>
        <r>  0.0012  0.0024  0.0000  0.0213  0.1002  0.0082  0.0128  0.0704  0.0300 </r>
        <r>  0.0026  0.0000  0.0024  0.0097  0.0811  0.0569  0.0023  0.2184  0.0280 </r>
        <r>  0.0003  0.0098  0.0213  0.0000  0.0014  0.0247  0.0467  0.0393  0.0041 </r>
       </set>
       <set comment="band 16">
        <r>  0.0198  0.0292  0.0292  0.0292  0.0026  0.0026  0.0000  0.0026  0.0000 </r>
        <r>  0.0175  0.0214  0.0288  0.0214  0.0317  0.0286  0.0018  0.0286  0.0000 </r>
        <r>  0.0175  0.0288  0.0214  0.0214  0.0286  0.0286  0.0004  0.0317  0.0013 </r>
        <r>  0.0175  0.0214  0.0214  0.0288  0.0286  0.0317  0.0004  0.0286  0.0013 </r>
       </set>
       <set comment="band 17">
        <r>  0.0000  0.0000  0.0000  0.0000  0.0185  0.0003  0.0383  0.0146  0.0077 </r>
        <r>  0.0000  0.0000  0.0000  0.0000  0.1165  0.0046  0.0749  0.0868  0.0236 </r>
        <r>  0.0000  0.0000  0.0001  0.0000  0.1048  0.0001  0.0973  0.0918  0.0102 </r>
        <r>  0.0000  0.0001  0.0001  0.0000  0.0886  0.0016  0.1146  0.0661  0.0257 </r>
       </set>
       <set comment="band 18">
        <r>  0.0000  0.0000  0.0000  0.0000  0.0037  0.0220  0.0077  0.0076  0.0383 </r>
        <r>  0.0000  0.0001  0.0000  0.0001  0.0235  0.1124  0.0151  0.0302  0.1172 </r>
        <r>  0.0000  0.0000  0.0000  0.0001  0.0122  0.1169  0.0308  0.0481  0.0925 </r>
        <r>  0.0000  0.0000  0.0000  0.0000  0.0284  0.1383  0.0136  0.0509  0.0771 </r>
       </set>
       <set comment="band 19">
        <r>  0.0000  0.0000  0.0000  0.0000  0.0000  0.0000  0.0000  0.0000  0.0000 </r>
        <r>  0.0000  0.0000  0.0000  0.0000  0.0000  0.0993  0.0000  0.0993  0.1314 </r>
        <r>  0.0000  0.0000  0.0000  0.0000  0.0993  0.0993  0.0985  0.0000  0.0328 </r>
        <r>  0.0000  0.0000  0.0000  0.0000  0.0993  0.0000  0.0985  0.0993  0.0328 </r>
       </set>
       <set comment="band 20">
        <r>  0.0000  0.0000  0.0000  0.0000  0.0639  0.0452  0.0396  0.0032  0.0068 </r>
        <r>  0.0000  0.0000  0.0000  0.0000  0.1228  0.0168  0.2141  0.0647  0.0015 </r>
        <r>  0.0000  0.0000  0.0000  0.0000  0.0221  0.0435  0.0036  0.0061  0.0166 </r>
        <r>  0.0000  0.0000  0.0000  0.0000  0.0037  0.0868  0.0205  0.0729  0.1348 </r>
       </set>
       <set comment="band 21">
        <r>  0.0000  0.0000  0.0000  0.0000  0.0109  0.0297  0.0068  0.0717  0.0396 </r>
        <r>  0.0000  0.0000  0.0000  0.0000  0.0210  0.0577  0.0366  0.0098  0.0086 </r>
        <r>  0.0000  0.0000  0.0000  0.0000  0.0525  0.0311  0.0666  0.1377  0.1739 </r>
        <r>  0.0000  0.0000  0.0000  0.0000  0.0709  0.0570  0.0497  0.0016  0.0557 </r>
       </set>
       <set comment="band 22">
        <r>  0.0000  0.0155  0.0351  0.0968  0.0004  0.0011  0.0194  0.0002  0.0350 </r>
        <r>  0.0049  0.0697  0.0001  0.0140  0.0177  0.0082  0.0012  0.0144  0.0270 </r>
        <r>  0.0021  0.0000  0.0713  0.0291  0.0076  0.0028  0.0305  0.0078  0.0055 </r>
        <r>  0.0134  0.0223  0.0088  0.0002  0.0298  0.0487  0.0001  0.0313  0.0038 </r>
       </set>
       <set comment="band 23">
        <r>  0.0000  0.0828  0.0632  0.0014  0.0007  0.0000  0.0350  0.0009  0.0194 </r>
        <r>  0.0088  0.0020  0.0001  0.0577  0.0318  0.0232  0.0022  0.0169  0.0150 </r>
        <r>  0.0115  0.0001  0.0004  0.0427  0.0238  0.0285  0.0019  0.0416  0.0075 </r>
        <r>  0.0002  0.0495  0.0629  0.0000  0.0016  0.0007  0.0323  0.0000  0.0092 </r>
       </set>
       <set comment="band 24">
        <r>  0.0160  0.0045  0.0045  0.0045  0.0312  0.0312  0.0000  0.0312  0.0000 </r>
        <r>  0.0011  0.0055  0.0869  0.0055  0.0102  0.0069  0.0513  0.0069  0.0000 </r>
        <r>  0.0011  0.0869  0.0055  0.0055  0.0069  0.0069  0.0128  0.0102  0.0385 </r>
        <r>  0.0011  0.0055  0.0055  0.0869  0.0069  0.0102  0.0128  0.0069  0.0385 </r>
       </set>
       <set comment="band 25">
        <r>  0.3426  0.0127  0.0127  0.0127  0.0040  0.0040  0.0000  0.0040  0.0000 </r>
        <r>  0.0171  0.0023  0.0041  0.0023  0.1116  0.0049  0.0001  0.0050  0.0000 </r>
        <r>  0.0170  0.0041  0.0023  0.0023  0.0050  0.0050  0.0000  0.1116  0.0001 </r>
        <r>  0.0172  0.0023  0.0023  0.0041  0.0049  0.1116  0.0000  0.0050  0.0001 </r>
       </set>
       <set comment="band 26">
        <r>  0.0000  0.0001  0.0038  0.0043  0.0836  0.0927  0.0002  0.0019  0.0001 </r>
        <r>  0.1895  0.0083  0.0016  0.0007  0.0001  0.0012  0.0015  0.0401  0.0001 </r>
        <r>  0.0043  0.0000  0.0043  0.0035  0.0443  0.0404  0.0002  0.0000  0.0001 </r>
        <r>  0.2102  0.0080  0.0012  0.0018  0.0008  0.0001  0.0002  0.0357  0.0015 </r>
       </set>
      </set>
     </set>
    </set>
   </array>
  </projected>
 </calculation>
 <structure name="finalpos"">
  <crystal>
   <varray name="basis"">
    <v>       3.78935236      0.00000000      0.00000000</v>
    <v>       0.00000000      3.78935236      0.00000000</v>
    <v>       0.00000000      0.00000000      3.78935236</v>
   </varray>
   <i name="volume""     54.41203537</i>
   <varray name="rec_basis"">
    <v>       0.26389734      0.00000000      0.00000000</v>
    <v>       0.00000000      0.26389734      0.00000000</v>
    <v>       0.00000000      0.00000000      0.26389734</v>
   </varray>
  </crystal>
  <varray name="positions"">
   <v>       0.00000000      0.00000000      0.00000000</v>
   <v>       0.50000000      0.50000000      0.00000000</v>
   <v>       0.50000000      0.00000000      0.50000000</v>
   <v>       0.00000000      0.50000000      0.50000000</v>
  </varray>
 </structure>
</modeling>
