   2   2   0   0
  0.6250000E+02  0.5000000E-09  0.5000000E-09  0.5000000E-09  0.5000000E-15
  1.000000000000000E-004
  CAR 
 unknown system                          
     12.06965971    -29.19355946  301     -8.09591142      1.00000000
    -29.194  0.0000E+00  0.0000E+00
    -29.056  0.0000E+00  0.0000E+00
    -28.918  0.0000E+00  0.0000E+00
    -28.781  0.0000E+00  0.0000E+00
    -28.643  0.0000E+00  0.0000E+00
    -28.506  0.0000E+00  0.0000E+00
    -28.368  0.0000E+00  0.0000E+00
    -28.231 -0.2446E-34 -0.3364E-35
    -28.093 -0.2517E-24 -0.3462E-25
    -27.956 -0.5705E-16 -0.7847E-17
    -27.818 -0.2694E-09 -0.3705E-10
    -27.681 -0.2684E-04 -0.3691E-05
    -27.543 -0.4762E-01 -0.6554E-02
    -27.405 -0.5238E-01 -0.1376E-01
    -27.268  0.1275E+02  0.1740E+01
    -27.130  0.2058E+01  0.2023E+01
    -26.993 -0.1698E+00  0.2000E+01
    -26.855 -0.3116E-03  0.2000E+01
    -26.718 -0.9165E-08  0.2000E+01
    -26.580 -0.6457E-14  0.2000E+01
    -26.443  0.0000E+00  0.2000E+01
    -26.305  0.0000E+00  0.2000E+01
    -26.168  0.0000E+00  0.2000E+01
    -26.030  0.0000E+00  0.2000E+01
    -25.893  0.0000E+00  0.2000E+01
    -25.755  0.0000E+00  0.2000E+01
    -25.617  0.0000E+00  0.2000E+01
    -25.480  0.0000E+00  0.2000E+01
    -25.342  0.0000E+00  0.2000E+01
    -25.205  0.0000E+00  0.2000E+01
    -25.067  0.0000E+00  0.2000E+01
    -24.930  0.0000E+00  0.2000E+01
    -24.792  0.0000E+00  0.2000E+01
    -24.655  0.0000E+00  0.2000E+01
    -24.517  0.0000E+00  0.2000E+01
    -24.380  0.0000E+00  0.2000E+01
    -24.242  0.0000E+00  0.2000E+01
    -24.104  0.0000E+00  0.2000E+01
    -23.967  0.0000E+00  0.2000E+01
    -23.829  0.0000E+00  0.2000E+01
    -23.692  0.0000E+00  0.2000E+01
    -23.554  0.0000E+00  0.2000E+01
    -23.417  0.0000E+00  0.2000E+01
    -23.279  0.0000E+00  0.2000E+01
    -23.142  0.0000E+00  0.2000E+01
    -23.004  0.0000E+00  0.2000E+01
    -22.867  0.0000E+00  0.2000E+01
    -22.729  0.0000E+00  0.2000E+01
    -22.591  0.0000E+00  0.2000E+01
    -22.454  0.0000E+00  0.2000E+01
    -22.316  0.0000E+00  0.2000E+01
    -22.179  0.0000E+00  0.2000E+01
    -22.041  0.0000E+00  0.2000E+01
    -21.904  0.0000E+00  0.2000E+01
    -21.766  0.0000E+00  0.2000E+01
    -21.629  0.0000E+00  0.2000E+01
    -21.491  0.0000E+00  0.2000E+01
    -21.354  0.0000E+00  0.2000E+01
    -21.216  0.0000E+00  0.2000E+01
    -21.078  0.0000E+00  0.2000E+01
    -20.941  0.0000E+00  0.2000E+01
    -20.803  0.0000E+00  0.2000E+01
    -20.666  0.0000E+00  0.2000E+01
    -20.528  0.0000E+00  0.2000E+01
    -20.391  0.0000E+00  0.2000E+01
    -20.253  0.0000E+00  0.2000E+01
    -20.116  0.0000E+00  0.2000E+01
    -19.978  0.0000E+00  0.2000E+01
    -19.841  0.0000E+00  0.2000E+01
    -19.703  0.0000E+00  0.2000E+01
    -19.565  0.0000E+00  0.2000E+01
    -19.428  0.0000E+00  0.2000E+01
    -19.290  0.0000E+00  0.2000E+01
    -19.153  0.0000E+00  0.2000E+01
    -19.015  0.0000E+00  0.2000E+01
    -18.878  0.0000E+00  0.2000E+01
    -18.740  0.0000E+00  0.2000E+01
    -18.603  0.0000E+00  0.2000E+01
    -18.465  0.0000E+00  0.2000E+01
    -18.328  0.0000E+00  0.2000E+01
    -18.190  0.0000E+00  0.2000E+01
    -18.052  0.0000E+00  0.2000E+01
    -17.915  0.0000E+00  0.2000E+01
    -17.777  0.0000E+00  0.2000E+01
    -17.640  0.0000E+00  0.2000E+01
    -17.502  0.0000E+00  0.2000E+01
    -17.365  0.0000E+00  0.2000E+01
    -17.227  0.0000E+00  0.2000E+01
    -17.090  0.0000E+00  0.2000E+01
    -16.952  0.0000E+00  0.2000E+01
    -16.815  0.0000E+00  0.2000E+01
    -16.677  0.0000E+00  0.2000E+01
    -16.540  0.0000E+00  0.2000E+01
    -16.402  0.0000E+00  0.2000E+01
    -16.264  0.0000E+00  0.2000E+01
    -16.127  0.0000E+00  0.2000E+01
    -15.989  0.0000E+00  0.2000E+01
    -15.852  0.0000E+00  0.2000E+01
    -15.714  0.0000E+00  0.2000E+01
    -15.577  0.0000E+00  0.2000E+01
    -15.439  0.0000E+00  0.2000E+01
    -15.302  0.0000E+00  0.2000E+01
    -15.164  0.0000E+00  0.2000E+01
    -15.027  0.0000E+00  0.2000E+01
    -14.889  0.0000E+00  0.2000E+01
    -14.751  0.0000E+00  0.2000E+01
    -14.614  0.0000E+00  0.2000E+01
    -14.476  0.0000E+00  0.2000E+01
    -14.339  0.0000E+00  0.2000E+01
    -14.201  0.0000E+00  0.2000E+01
    -14.064  0.0000E+00  0.2000E+01
    -13.926  0.0000E+00  0.2000E+01
    -13.789 -0.6021E-32  0.2000E+01
    -13.651 -0.2634E-22  0.2000E+01
    -13.514 -0.2531E-14  0.2000E+01
    -13.376 -0.5013E-08  0.2000E+01
    -13.238 -0.2063E-03  0.2000E+01
    -13.101 -0.1394E+00  0.1981E+01
    -12.963  0.1529E+01  0.2191E+01
    -12.826  0.1304E+02  0.3985E+01
    -12.688  0.1735E+00  0.4008E+01
    -12.551 -0.6125E-01  0.4000E+01
    -12.413 -0.4234E-04  0.4000E+01
    -12.276 -0.5137E-09  0.4000E+01
    -12.138  0.0000E+00  0.4000E+01
    -12.001  0.0000E+00  0.4000E+01
    -11.863  0.0000E+00  0.4000E+01
    -11.725  0.0000E+00  0.4000E+01
    -11.588  0.0000E+00  0.4000E+01
    -11.450  0.0000E+00  0.4000E+01
    -11.313  0.0000E+00  0.4000E+01
    -11.175  0.0000E+00  0.4000E+01
    -11.038  0.0000E+00  0.4000E+01
    -10.900 -0.2690E-26  0.4000E+01
    -10.763 -0.1538E-17  0.4000E+01
    -10.625 -0.1848E-10  0.4000E+01
    -10.488 -0.4746E-05  0.4000E+01
    -10.350 -0.2298E-01  0.3997E+01
    -10.212 -0.1007E+01  0.3858E+01
    -10.075  0.1962E+02  0.6557E+01
     -9.937  0.1124E+02  0.8103E+01
     -9.800 -0.7437E+00  0.8001E+01
     -9.662 -0.4263E-02  0.8000E+01
     -9.525 -0.3292E-06  0.8000E+01
     -9.387 -0.4972E-12  0.8000E+01
     -9.250  0.0000E+00  0.8000E+01
     -9.112 -0.7185E-36  0.8000E+01
     -8.975 -0.1260E-25  0.8000E+01
     -8.837 -0.4872E-17  0.8000E+01
     -8.699 -0.3948E-10  0.8000E+01
     -8.562 -0.6801E-05  0.8000E+01
     -8.424 -0.2163E-01  0.7997E+01
     -8.287 -0.4262E+00  0.7938E+01
     -8.149  0.1131E+02  0.9495E+01
     -8.012  0.3955E+01  0.1004E+02
     -7.874 -0.2794E+00  0.1000E+02
     -7.737 -0.9743E-03  0.1000E+02
     -7.599 -0.4997E-07  0.1000E+02
     -7.462 -0.5166E-13  0.1000E+02
     -7.324  0.0000E+00  0.1000E+02
     -7.187  0.0000E+00  0.1000E+02
     -7.049  0.0000E+00  0.1000E+02
     -6.911  0.0000E+00  0.1000E+02
     -6.774  0.0000E+00  0.1000E+02
     -6.636  0.0000E+00  0.1000E+02
     -6.499  0.0000E+00  0.1000E+02
     -6.361  0.0000E+00  0.1000E+02
     -6.224  0.0000E+00  0.1000E+02
     -6.086  0.0000E+00  0.1000E+02
     -5.949  0.0000E+00  0.1000E+02
     -5.811  0.0000E+00  0.1000E+02
     -5.674  0.0000E+00  0.1000E+02
     -5.536  0.0000E+00  0.1000E+02
     -5.398  0.0000E+00  0.1000E+02
     -5.261  0.0000E+00  0.1000E+02
     -5.123  0.0000E+00  0.1000E+02
     -4.986  0.0000E+00  0.1000E+02
     -4.848  0.0000E+00  0.1000E+02
     -4.711  0.0000E+00  0.1000E+02
     -4.573  0.0000E+00  0.1000E+02
     -4.436  0.0000E+00  0.1000E+02
     -4.298  0.0000E+00  0.1000E+02
     -4.161  0.0000E+00  0.1000E+02
     -4.023  0.0000E+00  0.1000E+02
     -3.885  0.0000E+00  0.1000E+02
     -3.748  0.0000E+00  0.1000E+02
     -3.610  0.0000E+00  0.1000E+02
     -3.473  0.0000E+00  0.1000E+02
     -3.335  0.0000E+00  0.1000E+02
     -3.198  0.0000E+00  0.1000E+02
     -3.060  0.0000E+00  0.1000E+02
     -2.923  0.0000E+00  0.1000E+02
     -2.785  0.0000E+00  0.1000E+02
     -2.648  0.0000E+00  0.1000E+02
     -2.510  0.0000E+00  0.1000E+02
     -2.372  0.0000E+00  0.1000E+02
     -2.235 -0.4942E-35  0.1000E+02
     -2.097 -0.7200E-25  0.1000E+02
     -1.960 -0.2313E-16  0.1000E+02
     -1.822 -0.1553E-09  0.1000E+02
     -1.685 -0.2212E-04  0.1000E+02
     -1.547 -0.5749E-01  0.9992E+01
     -1.410 -0.6754E+00  0.9899E+01
     -1.272  0.2382E+02  0.1318E+02
     -1.135  0.6475E+01  0.1407E+02
     -0.997 -0.4761E+00  0.1400E+02
     -0.859 -0.1323E-02  0.1400E+02
     -0.722 -0.5589E-07  0.1400E+02
     -0.584 -0.5166E-13  0.1400E+02
     -0.447 -0.2024E-21  0.1400E+02
     -0.309 -0.1319E-13  0.1400E+02
     -0.172 -0.1763E-07  0.1400E+02
     -0.034 -0.4852E-03  0.1400E+02
      0.103 -0.2080E+00  0.1397E+02
      0.241  0.2718E+01  0.1435E+02
      0.378  0.1231E+02  0.1604E+02
      0.516 -0.2393E+00  0.1600E+02
      0.654 -0.3565E-01  0.1600E+02
      0.791 -0.1607E-04  0.1600E+02
      0.929 -0.1310E-09  0.1600E+02
      1.066  0.0000E+00  0.1600E+02
      1.204  0.0000E+00  0.1600E+02
      1.341  0.0000E+00  0.1600E+02
      1.479  0.0000E+00  0.1600E+02
      1.616  0.0000E+00  0.1600E+02
      1.754  0.0000E+00  0.1600E+02
      1.891  0.0000E+00  0.1600E+02
      2.029  0.0000E+00  0.1600E+02
      2.166  0.0000E+00  0.1600E+02
      2.304  0.0000E+00  0.1600E+02
      2.442  0.0000E+00  0.1600E+02
      2.579  0.0000E+00  0.1600E+02
      2.717  0.0000E+00  0.1600E+02
      2.854  0.0000E+00  0.1600E+02
      2.992  0.0000E+00  0.1600E+02
      3.129  0.0000E+00  0.1600E+02
      3.267  0.0000E+00  0.1600E+02
      3.404 -0.3487E-33  0.1600E+02
      3.542 -0.2384E-23  0.1600E+02
      3.679 -0.3585E-15  0.1600E+02
      3.817 -0.1118E-08  0.1600E+02
      3.955 -0.7301E-04  0.1600E+02
      4.092 -0.8208E-01  0.1599E+02
      4.230  0.5305E+00  0.1606E+02
      4.367  0.1310E+02  0.1786E+02
      4.505  0.2157E+01  0.1816E+02
      4.642  0.1307E+02  0.1996E+02
      4.780  0.3787E+00  0.2001E+02
      4.917 -0.7328E-01  0.2000E+02
      5.055 -0.5900E-04  0.2000E+02
      5.192 -0.8355E-09  0.2000E+02
      5.330 -0.3355E-05  0.2000E+02
      5.468 -0.1857E-01  0.2000E+02
      5.605 -0.1010E+01  0.1986E+02
      5.743  0.1827E+02  0.2237E+02
      5.880  0.1633E+02  0.2462E+02
      6.018  0.1051E+02  0.2606E+02
      6.155 -0.4321E+00  0.2600E+02
      6.293 -0.2158E-01  0.2600E+02
      6.430 -0.6776E-05  0.2600E+02
      6.568 -0.3928E-10  0.2600E+02
      6.705  0.0000E+00  0.2600E+02
      6.843  0.0000E+00  0.2600E+02
      6.981  0.0000E+00  0.2600E+02
      7.118  0.0000E+00  0.2600E+02
      7.256 -0.7351E-27  0.2600E+02
      7.393 -0.4663E-18  0.2600E+02
      7.531 -0.6228E-11  0.2600E+02
      7.668 -0.1779E-05  0.2600E+02
      7.806 -0.9628E-02  0.2600E+02
      7.943 -0.5050E+00  0.2593E+02
      8.081  0.9365E+01  0.2722E+02
      8.218  0.6089E+01  0.2805E+02
      8.356 -0.3962E+00  0.2800E+02
      8.494 -0.2611E-02  0.2800E+02
      8.631 -0.1377E-01  0.2800E+02
      8.769 -0.4943E+00  0.2793E+02
      8.906  0.1026E+02  0.2934E+02
      9.044  0.5137E+01  0.3005E+02
      9.181 -0.3459E+00  0.3000E+02
      9.319 -0.1721E-02  0.3000E+02
      9.456 -0.1185E-06  0.3000E+02
      9.594 -0.1670E-12  0.3000E+02
      9.731 -0.9165E-08  0.3000E+02
      9.869 -0.3116E-03  0.3000E+02
     10.006 -0.1698E+00  0.2998E+02
     10.144  0.2058E+01  0.3026E+02
     10.282  0.1275E+02  0.3201E+02
     10.419 -0.5238E-01  0.3201E+02
     10.557 -0.4762E-01  0.3200E+02
     10.694 -0.2684E-04  0.3200E+02
     10.832 -0.2694E-09  0.3200E+02
     10.969  0.0000E+00  0.3200E+02
     11.107  0.0000E+00  0.3200E+02
     11.244  0.0000E+00  0.3200E+02
     11.382  0.0000E+00  0.3200E+02
     11.519  0.0000E+00  0.3200E+02
     11.657  0.0000E+00  0.3200E+02
     11.795  0.0000E+00  0.3200E+02
     11.932  0.0000E+00  0.3200E+02
     12.070  0.0000E+00  0.3200E+02
