    2    2    1    1
  0.6250000E+02  0.5000000E-09  0.5000000E-09  0.5000000E-09  0.5000000E-15
  1.000000000000000E-004
  CAR 
 unknown system                          
     10      1     16
 
  0.0000000E+00  0.0000000E+00  0.0000000E+00  0.1000000E+01
    1      -27.317959   1.000000
    2      -12.906703   1.000000
    3      -10.091652   1.000000
    4      -10.091652   1.000000
    5       -8.180100   1.000000
    6       -1.309586   0.000000
    7       -1.309586   0.000000
    8        0.283572   0.000000
    9        4.302412   0.000000
   10        4.566316   0.000000
   11        5.730430   0.000000
   12        5.730430   0.000000
   13        5.910909   0.000000
   14        8.067921   0.000000
   15        8.885506   0.000000
   16       10.194059   0.000000
