 vasp.5.4.1 05Feb16 (build Feb 08 2018 09:21:51) complex                        
  
 executed on             LinuxIFC date 2019.10.28  15:46:41
 running on    8 total cores
 distrk:  each k-point on    8 cores,    1 groups
 distr:  one band on NCORES_PER_BAND=   1 cores,    8 groups


--------------------------------------------------------------------------------------------------------


 INCAR:
 POTCAR:    PAW_PBE C 08Apr2002                   
 POTCAR:    PAW_PBE O 08Apr2002                   

 ----------------------------------------------------------------------------- 
|                                                                             |
|           W    W    AA    RRRRR   N    N  II  N    N   GGGG   !!!           |
|           W    W   A  A   R    R  NN   N  II  NN   N  G    G  !!!           |
|           W    W  A    A  R    R  N N  N  II  N N  N  G       !!!           |
|           W WW W  AAAAAA  RRRRR   N  N N  II  N  N N  G  GGG   !            |
|           WW  WW  A    A  R   R   N   NN  II  N   NN  G    G                |
|           W    W  A    A  R    R  N    N  II  N    N   GGGG   !!!           |
|                                                                             |
|      For optimal performance we recommend to set                            |
|        NCORE= 4 - approx SQRT( number of cores)                             |
|      NCORE specifies how many cores store one orbital (NPAR=cpu/NCORE).     |
|      This setting can  greatly improve the performance of VASP for DFT.     |
|      The default, NPAR=number of cores might be grossly inefficient         |
|      on modern multi-core architectures or massively parallel machines.     |
|      Do your own testing !!!!                                               |
|      Unfortunately you need to use the default for GW and RPA calculations. |
|      (for HF NCORE is supported but not extensively tested yet)             |
|                                                                             |
 ----------------------------------------------------------------------------- 

 POTCAR:    PAW_PBE C 08Apr2002                   
   VRHFIN =C: s2p2                                                              
   LEXCH  = PE                                                                  
   EATOM  =   147.1560 eV,   10.8157 Ry                                         
                                                                                
   TITEL  = PAW_PBE C 08Apr2002                                                 
   LULTRA =        F    use ultrasoft PP ?                                      
   IUNSCR =        1    unscreen: 0-lin 1-nonlin 2-no                           
   RPACOR =    1.200    partial core radius                                     
   POMASS =   12.011; ZVAL   =    4.000    mass and valenz                      
   RCORE  =    1.500    outmost cutoff radius                                   
   RWIGS  =    1.630; RWIGS  =    0.863    wigner-seitz radius (au A)           
   ENMAX  =  400.000; ENMIN  =  300.000 eV                                      
   ICORE  =        2    local potential                                         
   LCOR   =        T    correct aug charges                                     
   LPAW   =        T    paw PP                                                  
   EAUG   =  644.873                                                            
   DEXC   =    0.000                                                            
   RMAX   =    1.529    core radius for proj-oper                               
   RAUG   =    1.300    factor for augmentation sphere                          
   RDEP   =    1.501    radius for radial grids                                 
   RDEPT  =    1.300    core radius for aug-charge                              
                                                                                
   Atomic configuration                                                         
    4 entries                                                                   
     n  l   j            E        occ.                                          
     1  0  0.50      -273.3789   2.0000                                         
     2  0  0.50       -13.7508   2.0000                                         
     2  1  0.50        -5.2854   2.0000                                         
     3  2  1.50        -5.4423   0.0000                                         
   Description                                                                  
     l       E           TYP  RCUT    TYP  RCUT                                 
     0    -13.7508458     23  1.200                                             
     0     -8.2022199     23  1.200                                             
     1     -5.2854383     23  1.500                                             
     1     34.0145650     23  1.500                                             
     2     -5.4423304      7  1.500                                             
  local pseudopotential read in
  partial core-charges read in
  partial kinetic energy density read in
  atomic valenz-charges read in
  non local Contribution for L=           0  read in
    real space projection operators read in
  non local Contribution for L=           0  read in
    real space projection operators read in
  non local Contribution for L=           1  read in
    real space projection operators read in
  non local Contribution for L=           1  read in
    real space projection operators read in
    PAW grid and wavefunctions read in
 
   number of l-projection  operators is LMAX  =           4
   number of lm-projection operators is LMMAX =           8
 
 POTCAR:    PAW_PBE O 08Apr2002                   
   VRHFIN =O: s2p4                                                              
   LEXCH  = PE                                                                  
   EATOM  =   432.3788 eV,   31.7789 Ry                                         
                                                                                
   TITEL  = PAW_PBE O 08Apr2002                                                 
   LULTRA =        F    use ultrasoft PP ?                                      
   IUNSCR =        1    unscreen: 0-lin 1-nonlin 2-no                           
   RPACOR =    1.200    partial core radius                                     
   POMASS =   16.000; ZVAL   =    6.000    mass and valenz                      
   RCORE  =    1.520    outmost cutoff radius                                   
   RWIGS  =    1.550; RWIGS  =    0.820    wigner-seitz radius (au A)           
   ENMAX  =  400.000; ENMIN  =  300.000 eV                                      
   ICORE  =        2    local potential                                         
   LCOR   =        T    correct aug charges                                     
   LPAW   =        T    paw PP                                                  
   EAUG   =  605.392                                                            
   DEXC   =    0.000                                                            
   RMAX   =    1.553    core radius for proj-oper                               
   RAUG   =    1.300    factor for augmentation sphere                          
   RDEP   =    1.550    radius for radial grids                                 
   RDEPT  =    1.329    core radius for aug-charge                              
                                                                                
   Atomic configuration                                                         
    4 entries                                                                   
     n  l   j            E        occ.                                          
     1  0  0.50      -514.6923   2.0000                                         
     2  0  0.50       -23.9615   2.0000                                         
     2  1  0.50        -9.0305   4.0000                                         
     3  2  1.50        -9.5241   0.0000                                         
   Description                                                                  
     l       E           TYP  RCUT    TYP  RCUT                                 
     0    -23.9615318     23  1.200                                             
     0     -9.5240782     23  1.200                                             
     1     -9.0304911     23  1.520                                             
     1      8.1634956     23  1.520                                             
     2     -9.5240782      7  1.500                                             
  local pseudopotential read in
  partial core-charges read in
  partial kinetic energy density read in
  kinetic energy density of atom read in
  atomic valenz-charges read in
  non local Contribution for L=           0  read in
    real space projection operators read in
  non local Contribution for L=           0  read in
    real space projection operators read in
  non local Contribution for L=           1  read in
    real space projection operators read in
  non local Contribution for L=           1  read in
    real space projection operators read in
    PAW grid and wavefunctions read in
 
   number of l-projection  operators is LMAX  =           4
   number of lm-projection operators is LMMAX =           8
 
  PAW_PBE C 08Apr2002                   :
 energy of atom  1       EATOM= -147.1560
 kinetic energy error for atom=    0.0854 (will be added to EATOM!!)
  PAW_PBE O 08Apr2002                   :
 energy of atom  2       EATOM= -432.3788
 kinetic energy error for atom=    0.3782 (will be added to EATOM!!)
 
 
 POSCAR:  C  O                                   
  positions in cartesian coordinates
  No initial velocities read in
 exchange correlation table for  LEXCH =        8
   RHO(1)=    0.500       N(1)  =     2000
   RHO(2)=  100.500       N(2)  =     4000
 


--------------------------------------------------------------------------------------------------------


 ion  position               nearest neighbor table
   1  0.380  0.500  0.500-   2 1.20
   2  0.620  0.500  0.500-   1 1.20
 
  LATTYP: Found a simple cubic cell.
 ALAT       =     5.0000000000
  
  Lattice vectors:
  
 A1 = (   5.0000000000,   0.0000000000,   0.0000000000)
 A2 = (   0.0000000000,   5.0000000000,   0.0000000000)
 A3 = (   0.0000000000,   0.0000000000,   5.0000000000)


Analysis of symmetry for initial positions (statically):
=====================================================================
 Subroutine PRICEL returns:
 Original cell was already a primitive cell.
 

 Routine SETGRP: Setting up the symmetry group for a 
 simple cubic supercell.


 Subroutine GETGRP returns: Found  8 space group operations
 (whereof  8 operations were pure point group operations)
 out of a pool of 48 trial point group operations.


The static configuration has the point symmetry C_4v.


Analysis of symmetry for dynamics (positions and initial velocities):
=====================================================================
 Subroutine PRICEL returns:
 Original cell was already a primitive cell.
 

 Routine SETGRP: Setting up the symmetry group for a 
 simple cubic supercell.


 Subroutine GETGRP returns: Found  8 space group operations
 (whereof  8 operations were pure point group operations)
 out of a pool of 48 trial point group operations.


The dynamic configuration has the point symmetry C_4v.


 Subroutine INISYM returns: Found  8 space group operations
 (whereof  8 operations are pure point group operations),
 and found     1 'primitive' translations

 
 
 KPOINTS: KPOINTS created by Atomic Simulation Env

Automatic generation of k-mesh.
Space group operators:
 irot       det(A)        alpha          n_x          n_y          n_z        tau_x        tau_y        tau_z
    1     1.000000     0.000000     1.000000     0.000000     0.000000     0.000000     0.000000     0.000000
    2    -1.000000   180.000000     0.000000     0.707107     0.707107     0.000000     0.000000     0.000000
    3    -1.000000   180.000000     0.000000     0.000000     1.000000     0.000000     0.000000     0.000000
    4     1.000000    90.000000    -1.000000     0.000000     0.000000     0.000000     0.000000     0.000000
    5     1.000000   180.000000     1.000000     0.000000     0.000000     0.000000     0.000000     0.000000
    6     1.000000    90.000000     1.000000     0.000000     0.000000     0.000000     0.000000     0.000000
    7    -1.000000   180.000000     0.000000     1.000000     0.000000     0.000000     0.000000     0.000000
    8    -1.000000   180.000000     0.000000    -0.707107     0.707107     0.000000     0.000000     0.000000
 
 Subroutine IBZKPT returns following result:
 ===========================================
 
 Found      1 irreducible k-points:
 
 Following reciprocal coordinates:
            Coordinates               Weight
  0.000000  0.000000  0.000000      1.000000
 
 Following cartesian coordinates:
            Coordinates               Weight
  0.000000  0.000000  0.000000      1.000000
 


--------------------------------------------------------------------------------------------------------




 Dimension of arrays:
   k-points           NKPTS =      1   k-points in BZ     NKDIM =      1   number of bands    NBANDS=     16
   number of dos      NEDOS =    301   number of ions     NIONS =      2
   non local maximal  LDIM  =      4   non local SUM 2l+1 LMDIM =      8
   total plane-waves  NPLWV =  13824
   max r-space proj   IRMAX =      1   max aug-charges    IRDMAX=   1634
   dimension x,y,z NGX =    24 NGY =   24 NGZ =   24
   dimension x,y,z NGXF=    48 NGYF=   48 NGZF=   48
   support grid    NGXF=    48 NGYF=   48 NGZF=   48
   ions per type =               1   1
 NGX,Y,Z   is equivalent  to a cutoff of   7.98,  7.98,  7.98 a.u.
 NGXF,Y,Z  is equivalent  to a cutoff of  15.96, 15.96, 15.96 a.u.


 I would recommend the setting:
   dimension x,y,z NGX =    23 NGY =   23 NGZ =   23
 SYSTEM =  unknown system                          
 POSCAR =   C  O                                   

 Startparameter for this run:
   NWRITE =      2    write-flag & timer
   PREC   = normal    normal or accurate (medium, high low for compatibility)
   ISTART =      0    job   : 0-new  1-cont  2-samecut
   ICHARG =      2    charge: 1-file 2-atom 10-const
   ISPIN  =      1    spin polarized calculation?
   LNONCOLLINEAR =      F non collinear calculations
   LSORBIT =      F    spin-orbit coupling
   INIWAV =      1    electr: 0-lowe 1-rand  2-diag
   LASPH  =      F    aspherical Exc in radial PAW
   METAGGA=      F    non-selfconsistent MetaGGA calc.

 Electronic Relaxation 1
   ENCUT  =  350.0 eV  25.72 Ry    5.07 a.u.   7.63  7.63  7.63*2*pi/ulx,y,z
   ENINI  =  350.0     initial cutoff
   ENAUG  =  644.9 eV  augmentation charge cutoff
   NELM   =     60;   NELMIN=  2; NELMDL= -5     # of ELM steps 
   EDIFF  = 0.1E-03   stopping-criterion for ELM
   LREAL  =      F    real-space projection
   NLSPLINE    = F    spline interpolate recip. space projectors
   LCOMPAT=      F    compatible to vasp.4.4
   GGA_COMPAT  = T    GGA compatible to vasp.4.4-vasp.4.6
   LMAXPAW     = -100 max onsite density
   LMAXMIX     =    2 max onsite mixed and CHGCAR
   VOSKOWN=      0    Vosko Wilk Nusair interpolation
   ROPT   =    0.00000   0.00000
 Ionic relaxation
   EDIFFG = 0.1E-02   stopping-criterion for IOM
   NSW    =      0    number of steps for IOM
   NBLOCK =      1;   KBLOCK =      1    inner block; outer block 
   IBRION =     -1    ionic relax: 0-MD 1-quasi-New 2-CG
   NFREE  =      0    steps in history (QN), initial steepest desc. (CG)
   ISIF   =      2    stress and relaxation
   IWAVPR =     10    prediction:  0-non 1-charg 2-wave 3-comb
   ISYM   =      2    0-nonsym 1-usesym 2-fastsym
   LCORR  =      T    Harris-Foulkes like correction to forces

   POTIM  = 0.5000    time-step for ionic-motion
   TEIN   =    0.0    initial temperature
   TEBEG  =    0.0;   TEEND  =   0.0 temperature during run
   SMASS  =  -3.00    Nose mass-parameter (am)
   estimated Nose-frequenzy (Omega)   =  0.10E-29 period in steps =****** mass=  -0.571E-27a.u.
   SCALEE = 1.0000    scale energy and forces
   NPACO  =    256;   APACO  = 16.0  distance and # of slots for P.C.
   PSTRESS=    0.0 pullay stress

  Mass of Ions in am
   POMASS =  12.01 16.00
  Ionic Valenz
   ZVAL   =   4.00  6.00
  Atomic Wigner-Seitz radii
   RWIGS  =  -1.00 -1.00
  virtual crystal weights 
   VCA    =   1.00  1.00
   NELECT =      10.0000    total number of electrons
   NUPDOWN=      -1.0000    fix difference up-down

 DOS related values:
   EMIN   =  10.00;   EMAX   =-10.00  energy-range for DOS
   EFERMI =   0.00
   ISMEAR =     1;   SIGMA  =   0.10  broadening in eV -4-tet -1-fermi 0-gaus

 Electronic relaxation 2 (details)
   IALGO  =     38    algorithm
   LDIAG  =      T    sub-space diagonalisation (order eigenvalues)
   LSUBROT=      F    optimize rotation matrix (better conditioning)
   TURBO    =      0    0=normal 1=particle mesh
   IRESTART =      0    0=no restart 2=restart with 2 vectors
   NREBOOT  =      0    no. of reboots
   NMIN     =      0    reboot dimension
   EREF     =   0.00    reference energy to select bands
   IMIX   =      4    mixing-type and parameters
     AMIX     =   0.40;   BMIX     =  1.00
     AMIX_MAG =   1.60;   BMIX_MAG =  1.00
     AMIN     =   0.10
     WC   =   100.;   INIMIX=   1;  MIXPRE=   1;  MAXMIX= -45

 Intra band minimization:
   WEIMIN = 0.0000     energy-eigenvalue tresh-hold
   EBREAK =  0.16E-05  absolut break condition
   DEPER  =   0.30     relativ break condition  

   TIME   =   0.40     timestep for ELM

  volume/ion in A,a.u.               =      62.50       421.77
  Fermi-wavevector in a.u.,A,eV,Ry     =   0.705404  1.333021  6.770196  0.497595
  Thomas-Fermi vector in A             =   1.790907
 
 Write flags
   LWAVE  =      F    write WAVECAR
   LCHARG =      F    write CHGCAR
   LVTOT  =      F    write LOCPOT, total local potential
   LVHAR  =      F    write LOCPOT, Hartree potential only
   LELF   =      F    write electronic localiz. function (ELF)
   LORBIT =      0    0 simple, 1 ext, 2 COOP (PROOUT)


 Dipole corrections
   LMONO  =      F    monopole corrections only (constant potential shift)
   LDIPOL =      F    correct potential (dipole corrections)
   IDIPOL =      0    1-x, 2-y, 3-z, 4-all directions 
   EPSILON=  1.0000000 bulk dielectric constant

 Exchange correlation treatment:
   GGA     =    --    GGA type
   LEXCH   =     8    internal setting for exchange type
   VOSKOWN=      0    Vosko Wilk Nusair interpolation
   LHFCALC =     F    Hartree Fock is set to
   LHFONE  =     F    Hartree Fock one center treatment
   AEXX    =    0.0000 exact exchange contribution

 Linear response parameters
   LEPSILON=     F    determine dielectric tensor
   LRPA    =     F    only Hartree local field effects (RPA)
   LNABLA  =     F    use nabla operator in PAW spheres
   LVEL    =     F    velocity operator in full k-point grid
   LINTERFAST=   F  fast interpolation
   KINTER  =     0    interpolate to denser k-point grid
   CSHIFT  =0.1000    complex shift for real part using Kramers Kronig
   OMEGAMAX=  -1.0    maximum frequency
   DEG_THRESHOLD= 0.2000000E-02 threshold for treating states as degnerate
   RTIME   =    0.100 relaxation time in fs

 Orbital magnetization related:
   ORBITALMAG=     F  switch on orbital magnetization
   LCHIMAG   =     F  perturbation theory with respect to B field
   DQ        =  0.001000  dq finite difference perturbation B field



--------------------------------------------------------------------------------------------------------


 Static calculation
 charge density and potential will be updated during run
 non-spin polarized calculation
 Variant of blocked Davidson
 Davidson routine will perform the subspace rotation
 perform sub-space diagonalisation
    after iterative eigenvector-optimisation
 modified Broyden-mixing scheme, WC =      100.0
 initial mixing is a Kerker type mixing with AMIX =  0.4000 and BMIX =      1.0000
 Hartree-type preconditioning will be used
 using additional bands           11
 reciprocal scheme for non local part
 use partial core corrections
 calculate Harris-corrections to forces 
   (improved forces if not selfconsistent)
 use gradient corrections 
 use of overlap-Matrix (Vanderbilt PP)
 Methfessel and Paxton  Order N= 1 SIGMA  =   0.10


--------------------------------------------------------------------------------------------------------


  energy-cutoff  :      350.00
  volume of cell :      125.00
      direct lattice vectors                 reciprocal lattice vectors
     5.000000000  0.000000000  0.000000000     0.200000000  0.000000000  0.000000000
     0.000000000  5.000000000  0.000000000     0.000000000  0.200000000  0.000000000
     0.000000000  0.000000000  5.000000000     0.000000000  0.000000000  0.200000000

  length of vectors
     5.000000000  5.000000000  5.000000000     0.200000000  0.200000000  0.200000000


 
 k-points in units of 2pi/SCALE and weight: KPOINTS created by Atomic Simulation Env
   0.00000000  0.00000000  0.00000000       1.000
 
 k-points in reciprocal lattice and weights: KPOINTS created by Atomic Simulation Env
   0.00000000  0.00000000  0.00000000       1.000
 
 position of ions in fractional coordinates (direct lattice) 
   0.38000000  0.50000000  0.50000000
   0.62000000  0.50000000  0.50000000
 
 position of ions in cartesian coordinates  (Angst):
   1.90000000  2.50000000  2.50000000
   3.10000000  2.50000000  2.50000000
 


--------------------------------------------------------------------------------------------------------


 k-point  1 :   0.0000 0.0000 0.0000  plane waves:    1863

 maximum and minimum number of plane-waves per node :      1863     1863

 maximum number of plane-waves:      1863
 maximum index in each direction: 
   IXMAX=    7   IYMAX=    7   IZMAX=    7
   IXMIN=   -7   IYMIN=   -7   IZMIN=   -7

 WARNING: aliasing errors must be expected set NGX to  30 to avoid them
 WARNING: aliasing errors must be expected set NGY to  30 to avoid them
 WARNING: aliasing errors must be expected set NGZ to  30 to avoid them
 aliasing errors are usually negligible using standard VASP settings
 and one can safely disregard these warnings

 serial   3D FFT for wavefunctions
 parallel 3D FFT for charge:
    minimum data exchange during FFTs selected (reduces bandwidth)


 total amount of memory used by VASP on root node    32260. kBytes
========================================================================

   base      :      30000. kBytes
   nonl-proj :        298. kBytes
   fftplans  :        537. kBytes
   grid      :       1359. kBytes
   one-center:          6. kBytes
   wavefun   :         60. kBytes
 
     INWAV:  cpu time    0.0001: real time    0.0001
 Broyden mixing: mesh for mixing (old mesh)
   NGX = 15   NGY = 15   NGZ = 15
  (NGX  = 48   NGY  = 48   NGZ  = 48)
  gives a total of   3375 points

 initial charge density was supplied:
 charge density of overlapping atoms calculated
 number of electron      10.0000000 magnetization 
 keeping initial charge density in first step


--------------------------------------------------------------------------------------------------------


 Maximum index for augmentation-charges          182 (set IRDMAX)


--------------------------------------------------------------------------------------------------------


 First call to EWALD:  gamma=   0.354
 Maximum number of real-space cells 3x 3x 3
 Maximum number of reciprocal cells 3x 3x 3

 FEWALD executed in parallel
    FEWALD:  cpu time    0.0028: real time    0.0028


----------------------------------------- Iteration    1(   1)  ---------------------------------------


    POTLOK:  cpu time    0.0208: real time    0.0211
    SETDIJ:  cpu time    0.0033: real time    0.0033
     EDDAV:  cpu time    0.0219: real time    0.0220
       DOS:  cpu time    0.0005: real time    0.0005
    --------------------------------------------
      LOOP:  cpu time    0.0497: real time    0.0514

 eigenvalue-minimisations  :    32
 total energy-change (2. order) : 0.4462030E+02  (-0.3337822E+03)
 number of electron      10.0000000 magnetization 
 augmentation part       10.0000000 magnetization 

 Free energy of the ion-electron system (eV)
  ---------------------------------------------------
  alpha Z        PSCENC =         3.49566040
  Ewald energy   TEWEN  =      -111.50785835
  -Hartree energ DENC   =      -371.23184296
  -exchange      EXHF   =         0.00000000
  -V(xc)+E(xc)   XCENC  =        38.95731712
  PAW double counting   =       455.07152327     -457.43959975
  entropy T*S    EENTRO =         0.00579791
  eigenvalues    EBANDS =       -91.80192531
  atomic energy  EATOM  =       579.07123046
  Solvation  Ediel_sol  =         0.00000000
  ---------------------------------------------------
  free energy    TOTEN  =        44.62030279 eV

  energy without entropy =       44.61450488  energy(sigma->0) =       44.61837015


--------------------------------------------------------------------------------------------------------




----------------------------------------- Iteration    1(   2)  ---------------------------------------


     EDDAV:  cpu time    0.0243: real time    0.0244
       DOS:  cpu time    0.0003: real time    0.0003
    --------------------------------------------
      LOOP:  cpu time    0.0273: real time    0.0292

 eigenvalue-minimisations  :    40
 total energy-change (2. order) :-0.5559513E+02  (-0.5371946E+02)
 number of electron      10.0000000 magnetization 
 augmentation part       10.0000000 magnetization 

 Free energy of the ion-electron system (eV)
  ---------------------------------------------------
  alpha Z        PSCENC =         3.49566040
  Ewald energy   TEWEN  =      -111.50785835
  -Hartree energ DENC   =      -371.23184296
  -exchange      EXHF   =         0.00000000
  -V(xc)+E(xc)   XCENC  =        38.95731712
  PAW double counting   =       455.07152327     -457.43959975
  entropy T*S    EENTRO =         0.00579791
  eigenvalues    EBANDS =      -147.39705448
  atomic energy  EATOM  =       579.07123046
  Solvation  Ediel_sol  =         0.00000000
  ---------------------------------------------------
  free energy    TOTEN  =       -10.97482638 eV

  energy without entropy =      -10.98062428  energy(sigma->0) =      -10.97675901


--------------------------------------------------------------------------------------------------------




----------------------------------------- Iteration    1(   3)  ---------------------------------------


     EDDAV:  cpu time    0.0229: real time    0.0229
       DOS:  cpu time    0.0003: real time    0.0003
    --------------------------------------------
      LOOP:  cpu time    0.0253: real time    0.0272

 eigenvalue-minimisations  :    40
 total energy-change (2. order) :-0.4426609E+01  (-0.4416164E+01)
 number of electron      10.0000000 magnetization 
 augmentation part       10.0000000 magnetization 

 Free energy of the ion-electron system (eV)
  ---------------------------------------------------
  alpha Z        PSCENC =         3.49566040
  Ewald energy   TEWEN  =      -111.50785835
  -Hartree energ DENC   =      -371.23184296
  -exchange      EXHF   =         0.00000000
  -V(xc)+E(xc)   XCENC  =        38.95731712
  PAW double counting   =       455.07152327     -457.43959975
  entropy T*S    EENTRO =         0.00579791
  eigenvalues    EBANDS =      -151.82366359
  atomic energy  EATOM  =       579.07123046
  Solvation  Ediel_sol  =         0.00000000
  ---------------------------------------------------
  free energy    TOTEN  =       -15.40143549 eV

  energy without entropy =      -15.40723339  energy(sigma->0) =      -15.40336812


--------------------------------------------------------------------------------------------------------




----------------------------------------- Iteration    1(   4)  ---------------------------------------


     EDDAV:  cpu time    0.0290: real time    0.0291
       DOS:  cpu time    0.0003: real time    0.0003
    --------------------------------------------
      LOOP:  cpu time    0.0313: real time    0.0333

 eigenvalue-minimisations  :    48
 total energy-change (2. order) :-0.3453806E-01  (-0.3453576E-01)
 number of electron      10.0000000 magnetization 
 augmentation part       10.0000000 magnetization 

 Free energy of the ion-electron system (eV)
  ---------------------------------------------------
  alpha Z        PSCENC =         3.49566040
  Ewald energy   TEWEN  =      -111.50785835
  -Hartree energ DENC   =      -371.23184296
  -exchange      EXHF   =         0.00000000
  -V(xc)+E(xc)   XCENC  =        38.95731712
  PAW double counting   =       455.07152327     -457.43959975
  entropy T*S    EENTRO =         0.00579791
  eigenvalues    EBANDS =      -151.85820164
  atomic energy  EATOM  =       579.07123046
  Solvation  Ediel_sol  =         0.00000000
  ---------------------------------------------------
  free energy    TOTEN  =       -15.43597354 eV

  energy without entropy =      -15.44177145  energy(sigma->0) =      -15.43790618


--------------------------------------------------------------------------------------------------------




----------------------------------------- Iteration    1(   5)  ---------------------------------------


     EDDAV:  cpu time    0.0277: real time    0.0277
       DOS:  cpu time    0.0003: real time    0.0003
    CHARGE:  cpu time    0.0066: real time    0.0066
    MIXING:  cpu time    0.0012: real time    0.0012
    --------------------------------------------
      LOOP:  cpu time    0.0385: real time    0.0411

 eigenvalue-minimisations  :    48
 total energy-change (2. order) :-0.3179529E-03  (-0.3179506E-03)
 number of electron       9.9999961 magnetization 
 augmentation part        0.6765247 magnetization 

 Broyden mixing:
  rms(total) = 0.60763E+00    rms(broyden)= 0.60575E+00
  rms(prec ) = 0.10219E+01
  weight for this iteration     100.00

 Free energy of the ion-electron system (eV)
  ---------------------------------------------------
  alpha Z        PSCENC =         3.49566040
  Ewald energy   TEWEN  =      -111.50785835
  -Hartree energ DENC   =      -371.23184296
  -exchange      EXHF   =         0.00000000
  -V(xc)+E(xc)   XCENC  =        38.95731712
  PAW double counting   =       455.07152327     -457.43959975
  entropy T*S    EENTRO =         0.00579791
  eigenvalues    EBANDS =      -151.85851960
  atomic energy  EATOM  =       579.07123046
  Solvation  Ediel_sol  =         0.00000000
  ---------------------------------------------------
  free energy    TOTEN  =       -15.43629150 eV

  energy without entropy =      -15.44208940  energy(sigma->0) =      -15.43822413


--------------------------------------------------------------------------------------------------------




----------------------------------------- Iteration    1(   6)  ---------------------------------------


    POTLOK:  cpu time    0.0201: real time    0.0201
    SETDIJ:  cpu time    0.0031: real time    0.0031
     EDDAV:  cpu time    0.0300: real time    0.0300
       DOS:  cpu time    0.0003: real time    0.0003
    CHARGE:  cpu time    0.0064: real time    0.0064
    MIXING:  cpu time    0.0008: real time    0.0008
    --------------------------------------------
      LOOP:  cpu time    0.0633: real time    0.0655

 eigenvalue-minimisations  :    48
 total energy-change (2. order) : 0.4441196E+00  (-0.3584070E+00)
 number of electron       9.9999967 magnetization 
 augmentation part        0.5930518 magnetization 

 Broyden mixing:
  rms(total) = 0.35035E+00    rms(broyden)= 0.34972E+00
  rms(prec ) = 0.53964E+00
  weight for this iteration     100.00

 eigenvalues of (default mixing * dielectric matrix)
  average eigenvalue GAMMA=   0.9285
  0.9285

 Free energy of the ion-electron system (eV)
  ---------------------------------------------------
  alpha Z        PSCENC =         3.49566040
  Ewald energy   TEWEN  =      -111.50785835
  -Hartree energ DENC   =      -382.74314304
  -exchange      EXHF   =         0.00000000
  -V(xc)+E(xc)   XCENC  =        39.63389112
  PAW double counting   =       581.66094924     -584.09305662
  entropy T*S    EENTRO =         0.00579791
  eigenvalues    EBANDS =      -140.51564298
  atomic energy  EATOM  =       579.07123046
  Solvation  Ediel_sol  =         0.00000000
  ---------------------------------------------------
  free energy    TOTEN  =       -14.99217187 eV

  energy without entropy =      -14.99796977  energy(sigma->0) =      -14.99410450


--------------------------------------------------------------------------------------------------------




----------------------------------------- Iteration    1(   7)  ---------------------------------------


    POTLOK:  cpu time    0.0190: real time    0.0190
    SETDIJ:  cpu time    0.0040: real time    0.0040
     EDDAV:  cpu time    0.0342: real time    0.0343
       DOS:  cpu time    0.0003: real time    0.0003
    CHARGE:  cpu time    0.0067: real time    0.0067
    MIXING:  cpu time    0.0008: real time    0.0008
    --------------------------------------------
      LOOP:  cpu time    0.0690: real time    0.0715

 eigenvalue-minimisations  :    48
 total energy-change (2. order) : 0.1030354E+00  (-0.6361647E-01)
 number of electron       9.9999965 magnetization 
 augmentation part        0.6179010 magnetization 

 Broyden mixing:
  rms(total) = 0.18801E+00    rms(broyden)= 0.18797E+00
  rms(prec ) = 0.27510E+00
  weight for this iteration     100.00

 eigenvalues of (default mixing * dielectric matrix)
  average eigenvalue GAMMA=   1.4480
  0.7135  2.1826

 Free energy of the ion-electron system (eV)
  ---------------------------------------------------
  alpha Z        PSCENC =         3.49566040
  Ewald energy   TEWEN  =      -111.50785835
  -Hartree energ DENC   =      -382.72054719
  -exchange      EXHF   =         0.00000000
  -V(xc)+E(xc)   XCENC  =        39.65302298
  PAW double counting   =       644.33231507     -646.69291722
  entropy T*S    EENTRO =         0.00579791
  eigenvalues    EBANDS =      -140.52584052
  atomic energy  EATOM  =       579.07123046
  Solvation  Ediel_sol  =         0.00000000
  ---------------------------------------------------
  free energy    TOTEN  =       -14.88913646 eV

  energy without entropy =      -14.89493437  energy(sigma->0) =      -14.89106910


--------------------------------------------------------------------------------------------------------




----------------------------------------- Iteration    1(   8)  ---------------------------------------


    POTLOK:  cpu time    0.0208: real time    0.0208
    SETDIJ:  cpu time    0.0039: real time    0.0039
     EDDAV:  cpu time    0.0274: real time    0.0274
       DOS:  cpu time    0.0003: real time    0.0003
    CHARGE:  cpu time    0.0077: real time    0.0077
    MIXING:  cpu time    0.0009: real time    0.0009
    --------------------------------------------
      LOOP:  cpu time    0.0650: real time    0.0676

 eigenvalue-minimisations  :    40
 total energy-change (2. order) : 0.3416372E-01  (-0.8997499E-02)
 number of electron       9.9999966 magnetization 
 augmentation part        0.6130893 magnetization 

 Broyden mixing:
  rms(total) = 0.40025E-01    rms(broyden)= 0.39998E-01
  rms(prec ) = 0.66382E-01
  weight for this iteration     100.00

 eigenvalues of (default mixing * dielectric matrix)
  average eigenvalue GAMMA=   1.3708
  2.3821  1.0145  0.7160

 Free energy of the ion-electron system (eV)
  ---------------------------------------------------
  alpha Z        PSCENC =         3.49566040
  Ewald energy   TEWEN  =      -111.50785835
  -Hartree energ DENC   =      -386.17447768
  -exchange      EXHF   =         0.00000000
  -V(xc)+E(xc)   XCENC  =        39.87104275
  PAW double counting   =       758.95802845     -761.25853172
  entropy T*S    EENTRO =         0.00579791
  eigenvalues    EBANDS =      -137.31586496
  atomic energy  EATOM  =       579.07123046
  Solvation  Ediel_sol  =         0.00000000
  ---------------------------------------------------
  free energy    TOTEN  =       -14.85497274 eV

  energy without entropy =      -14.86077065  energy(sigma->0) =      -14.85690538


--------------------------------------------------------------------------------------------------------




----------------------------------------- Iteration    1(   9)  ---------------------------------------


    POTLOK:  cpu time    0.0212: real time    0.0212
    SETDIJ:  cpu time    0.0030: real time    0.0030
     EDDAV:  cpu time    0.0236: real time    0.0236
       DOS:  cpu time    0.0003: real time    0.0003
    CHARGE:  cpu time    0.0064: real time    0.0064
    MIXING:  cpu time    0.0009: real time    0.0009
    --------------------------------------------
      LOOP:  cpu time    0.0585: real time    0.0610

 eigenvalue-minimisations  :    32
 total energy-change (2. order) : 0.7693871E-03  (-0.1164821E-02)
 number of electron       9.9999966 magnetization 
 augmentation part        0.6084506 magnetization 

 Broyden mixing:
  rms(total) = 0.14539E-01    rms(broyden)= 0.14508E-01
  rms(prec ) = 0.28448E-01
  weight for this iteration     100.00

 eigenvalues of (default mixing * dielectric matrix)
  average eigenvalue GAMMA=   1.4518
  0.7460  0.8832  2.3144  1.8634

 Free energy of the ion-electron system (eV)
  ---------------------------------------------------
  alpha Z        PSCENC =         3.49566040
  Ewald energy   TEWEN  =      -111.50785835
  -Hartree energ DENC   =      -386.46322283
  -exchange      EXHF   =         0.00000000
  -V(xc)+E(xc)   XCENC  =        39.88747513
  PAW double counting   =       781.75527976     -784.03544262
  entropy T*S    EENTRO =         0.00579791
  eigenvalues    EBANDS =      -137.06312320
  atomic energy  EATOM  =       579.07123046
  Solvation  Ediel_sol  =         0.00000000
  ---------------------------------------------------
  free energy    TOTEN  =       -14.85420336 eV

  energy without entropy =      -14.86000126  energy(sigma->0) =      -14.85613599


--------------------------------------------------------------------------------------------------------




----------------------------------------- Iteration    1(  10)  ---------------------------------------


    POTLOK:  cpu time    0.0195: real time    0.0196
    SETDIJ:  cpu time    0.0031: real time    0.0031
     EDDAV:  cpu time    0.0412: real time    0.0419
       DOS:  cpu time    0.0004: real time    0.0004
    CHARGE:  cpu time    0.0083: real time    0.0086
    MIXING:  cpu time    0.0010: real time    0.0010
    --------------------------------------------
      LOOP:  cpu time    0.0770: real time    0.0813

 eigenvalue-minimisations  :    48
 total energy-change (2. order) :-0.9620198E-04  (-0.1782294E-03)
 number of electron       9.9999966 magnetization 
 augmentation part        0.6098755 magnetization 

 Broyden mixing:
  rms(total) = 0.33030E-02    rms(broyden)= 0.32965E-02
  rms(prec ) = 0.99464E-02
  weight for this iteration     100.00

 eigenvalues of (default mixing * dielectric matrix)
  average eigenvalue GAMMA=   1.4520
  2.4293  0.7452  0.8772  1.6041  1.6041

 Free energy of the ion-electron system (eV)
  ---------------------------------------------------
  alpha Z        PSCENC =         3.49566040
  Ewald energy   TEWEN  =      -111.50785835
  -Hartree energ DENC   =      -386.18028431
  -exchange      EXHF   =         0.00000000
  -V(xc)+E(xc)   XCENC  =        39.86960990
  PAW double counting   =       786.00925591     -788.27357464
  entropy T*S    EENTRO =         0.00579791
  eigenvalues    EBANDS =      -137.34413683
  atomic energy  EATOM  =       579.07123046
  Solvation  Ediel_sol  =         0.00000000
  ---------------------------------------------------
  free energy    TOTEN  =       -14.85429956 eV

  energy without entropy =      -14.86009746  energy(sigma->0) =      -14.85623219


--------------------------------------------------------------------------------------------------------




----------------------------------------- Iteration    1(  11)  ---------------------------------------


    POTLOK:  cpu time    0.0240: real time    0.0240
    SETDIJ:  cpu time    0.0038: real time    0.0038
     EDDAV:  cpu time    0.0288: real time    0.0290
       DOS:  cpu time    0.0003: real time    0.0003
    CHARGE:  cpu time    0.0077: real time    0.0077
    MIXING:  cpu time    0.0010: real time    0.0010
    --------------------------------------------
      LOOP:  cpu time    0.0696: real time    0.0722

 eigenvalue-minimisations  :    40
 total energy-change (2. order) :-0.1428089E-03  (-0.1226967E-04)
 number of electron       9.9999966 magnetization 
 augmentation part        0.6097561 magnetization 

 Broyden mixing:
  rms(total) = 0.20748E-02    rms(broyden)= 0.20745E-02
  rms(prec ) = 0.47281E-02
  weight for this iteration     100.00

 eigenvalues of (default mixing * dielectric matrix)
  average eigenvalue GAMMA=   1.6493
  3.1216  2.4310  1.6286  0.7444  0.8837  1.0865

 Free energy of the ion-electron system (eV)
  ---------------------------------------------------
  alpha Z        PSCENC =         3.49566040
  Ewald energy   TEWEN  =      -111.50785835
  -Hartree energ DENC   =      -386.36264284
  -exchange      EXHF   =         0.00000000
  -V(xc)+E(xc)   XCENC  =        39.87997840
  PAW double counting   =       786.39076670     -788.65273849
  entropy T*S    EENTRO =         0.00579791
  eigenvalues    EBANDS =      -137.17463655
  atomic energy  EATOM  =       579.07123046
  Solvation  Ediel_sol  =         0.00000000
  ---------------------------------------------------
  free energy    TOTEN  =       -14.85444237 eV

  energy without entropy =      -14.86024027  energy(sigma->0) =      -14.85637500


--------------------------------------------------------------------------------------------------------




----------------------------------------- Iteration    1(  12)  ---------------------------------------


    POTLOK:  cpu time    0.0206: real time    0.0208
    SETDIJ:  cpu time    0.0043: real time    0.0043
     EDDAV:  cpu time    0.0283: real time    0.0283
       DOS:  cpu time    0.0007: real time    0.0007
    --------------------------------------------
      LOOP:  cpu time    0.0578: real time    0.0604

 eigenvalue-minimisations  :    40
 total energy-change (2. order) :-0.4379368E-04  (-0.1790321E-05)
 number of electron       9.9999966 magnetization 
 augmentation part        0.6097561 magnetization 

 Free energy of the ion-electron system (eV)
  ---------------------------------------------------
  alpha Z        PSCENC =         3.49566040
  Ewald energy   TEWEN  =      -111.50785835
  -Hartree energ DENC   =      -386.36157960
  -exchange      EXHF   =         0.00000000
  -V(xc)+E(xc)   XCENC  =        39.87904835
  PAW double counting   =       785.06593943     -787.32659518
  entropy T*S    EENTRO =         0.00579791
  eigenvalues    EBANDS =      -137.17612957
  atomic energy  EATOM  =       579.07123046
  Solvation  Ediel_sol  =         0.00000000
  ---------------------------------------------------
  free energy    TOTEN  =       -14.85448616 eV

  energy without entropy =      -14.86028407  energy(sigma->0) =      -14.85641879


--------------------------------------------------------------------------------------------------------




 average (electrostatic) potential at core
  the test charge radii are     0.6991  0.7215
  (the norm of the test charge is              1.0000)
       1 -60.9658       2 -82.3582
 
 
 
 E-fermi :  -8.0959     XC(G=0):  -3.6013     alpha+bet : -1.4009


 k-point     1 :       0.0000    0.0000    0.0000
  band No.  band energies     occupation 
      1     -27.3180      2.00000
      2     -12.9067      2.00000
      3     -10.0917      2.00000
      4     -10.0917      2.00000
      5      -8.1801      2.00000
      6      -1.3096      0.00000
      7      -1.3096      0.00000
      8       0.2836      0.00000
      9       4.3024      0.00000
     10       4.5663      0.00000
     11       5.7304      0.00000
     12       5.7304      0.00000
     13       5.9109      0.00000
     14       8.0679      0.00000
     15       8.8855      0.00000
     16      10.1941      0.00000


--------------------------------------------------------------------------------------------------------


 soft charge-density along one line, spin component           1
         0         1         2         3         4         5         6         7         8         9
 total charge-density along one line
 
 pseudopotential strength for first ion, spin component:           1
 10.354  13.774  -0.000   0.000   0.020   0.000  -0.000  -0.066
 13.774  18.321  -0.000   0.000   0.027   0.000  -0.000  -0.087
 -0.000  -0.000  -4.518  -0.000   0.000   8.853   0.000  -0.000
  0.000   0.000  -0.000  -4.518   0.000   0.000   8.853  -0.000
  0.020   0.027   0.000   0.000  -4.516  -0.000  -0.000   8.841
  0.000   0.000   8.853   0.000  -0.000 -19.497  -0.000   0.000
 -0.000  -0.000   0.000   8.853  -0.000  -0.000 -19.497   0.000
 -0.066  -0.087  -0.000  -0.000   8.841   0.000   0.000 -19.452
 total augmentation occupancy for first ion, spin component:           1
  5.846  -2.499   0.000  -0.000   1.710  -0.000   0.000   0.309
 -2.499   1.508   0.000  -0.000  -1.363  -0.000   0.000  -0.194
  0.000   0.000   0.788   0.000   0.000   0.061   0.000  -0.000
 -0.000  -0.000   0.000   0.788  -0.000   0.000   0.061   0.000
  1.710  -1.363   0.000  -0.000   2.057  -0.000  -0.000   0.207
 -0.000  -0.000   0.061   0.000   0.000   0.005   0.000  -0.000
  0.000   0.000   0.000   0.061   0.000   0.000   0.005   0.000
  0.309  -0.194  -0.000   0.000   0.207  -0.000   0.000   0.026


------------------------ aborting loop because EDIFF is reached ----------------------------------------


    CHARGE:  cpu time    0.0069: real time    0.0069
    FORLOC:  cpu time    0.0011: real time    0.0011
    FORNL :  cpu time    0.0020: real time    0.0020
    STRESS:  cpu time    0.0188: real time    0.0188
    FORCOR:  cpu time    0.0207: real time    0.0207
    FORHAR:  cpu time    0.0057: real time    0.0057
    MIXING:  cpu time    0.0014: real time    0.0014
    OFIELD:  cpu time    0.0001: real time    0.0001

  FORCE on cell =-STRESS in cart. coord.  units (eV):
  Direction    XX          YY          ZZ          XY          YZ          ZX
  --------------------------------------------------------------------------------------
  Alpha Z     3.49566     3.49566     3.49566
  Ewald     167.91382  -139.71090  -139.71090     0.00000     0.00000     0.00000
  Hartree   211.64260    87.36058    87.36058    -0.00000    -0.00000    -0.00000
  E(xc)     -42.33633   -43.44281   -43.44281    -0.00000     0.00000     0.00000
  Local    -498.24106   -86.68960   -86.68960    -0.00000    -0.00000     0.00000
  n-local   -28.20052   -18.24504   -18.24504     0.00000    -0.00000     0.00000
  augment     5.81979     6.09033     6.09033    -0.00000    -0.00000     0.00000
  Kinetic   170.39867   188.82839   188.82837    -0.00000    -0.00002    -0.00000
  Fock        0.00000     0.00000     0.00000     0.00000     0.00000     0.00000
  -------------------------------------------------------------------------------------
  Total      -9.50736    -2.31339    -2.31339    -0.00000    -0.00000     0.00000
  in kB    -121.85978   -29.65169   -29.65169    -0.00000    -0.00000     0.00000
  external pressure =      -60.39 kB  Pullay stress =        0.00 kB


 VOLUME and BASIS-vectors are now :
 -----------------------------------------------------------------------------
  energy-cutoff  :      350.00
  volume of cell :      125.00
      direct lattice vectors                 reciprocal lattice vectors
     5.000000000  0.000000000  0.000000000     0.200000000  0.000000000  0.000000000
     0.000000000  5.000000000  0.000000000     0.000000000  0.200000000  0.000000000
     0.000000000  0.000000000  5.000000000     0.000000000  0.000000000  0.200000000

  length of vectors
     5.000000000  5.000000000  5.000000000     0.200000000  0.200000000  0.200000000


 FORCES acting on ions
    electron-ion (+dipol)            ewald-force                    non-local-force                 convergence-correction
 -----------------------------------------------------------------------------------------------
   0.202E+03 0.421E-13 0.324E-04   -.224E+03 -.458E-16 0.795E-16   0.267E+02 0.000E+00 0.165E-23   0.330E-02 0.311E-14 -.273E-14
   -.173E+03 0.335E-12 -.354E-04   0.224E+03 0.131E-15 -.193E-15   -.555E+02 0.000E+00 -.662E-23   -.971E-02 0.536E-14 0.117E-13
 -----------------------------------------------------------------------------------------------
   0.288E+02 0.377E-12 -.305E-05   0.000E+00 0.849E-16 -.114E-15   -.288E+02 0.000E+00 -.496E-23   -.642E-02 0.847E-14 0.900E-14
 
 
 POSITION                                       TOTAL-FORCE (eV/Angst)
 -----------------------------------------------------------------------------------
      1.90000      2.50000      2.50000         5.016834      0.000000     -0.000000
      3.10000      2.50000      2.50000        -5.016834     -0.000000      0.000000
 -----------------------------------------------------------------------------------
    total drift:                               -0.002569      0.000000     -0.000003


--------------------------------------------------------------------------------------------------------



  FREE ENERGIE OF THE ION-ELECTRON SYSTEM (eV)
  ---------------------------------------------------
  free  energy   TOTEN  =       -14.85448616 eV

  energy  without entropy=      -14.86028407  energy(sigma->0) =      -14.85641879
 


--------------------------------------------------------------------------------------------------------


    POTLOK:  cpu time    0.0264: real time    0.0264


--------------------------------------------------------------------------------------------------------


     LOOP+:  cpu time    0.7287: real time    0.7634
    4ORBIT:  cpu time    0.0000: real time    0.0000

 total amount of memory used by VASP on root node    32260. kBytes
========================================================================

   base      :      30000. kBytes
   nonl-proj :        298. kBytes
   fftplans  :        537. kBytes
   grid      :       1359. kBytes
   one-center:          6. kBytes
   wavefun   :         60. kBytes
 
  
  
 General timing and accounting informations for this job:
 ========================================================
  
                  Total CPU time used (sec):        1.238
                            User time (sec):        1.048
                          System time (sec):        0.191
                         Elapsed time (sec):        1.358
  
                   Maximum memory used (kb):       32268.
                   Average memory used (kb):           0.
  
                          Minor page faults:         9739
                          Major page faults:            6
                 Voluntary context switches:          875
