<?xml version="1.0" encoding="ISO-8859-1"?>
<modeling>
 <generator>
  <i name="program" type="string">vasp </i>
  <i name="version" type="string">5.4.1  </i>
  <i name="subversion" type="string">05Feb16 (build Feb 08 2018 09:21:51) complex                          parallel </i>
  <i name="platform" type="string">LinuxIFC </i>
  <i name="date" type="string">2019 10 28 </i>
  <i name="time" type="string">15:46:41 </i>
 </generator>
 <incar>
  <i type="string" name="PREC">normal</i>
  <i name="ENCUT">    350.00000000</i>
  <i type="int" name="ISMEAR">     1</i>
  <i name="SIGMA">      0.10000000</i>
  <i type="logical" name="LWAVE"> F  </i>
  <i type="logical" name="LCHARG"> F  </i>
  <v type="int" name="KPOINT_BSE">    -1     0     0     0</v>
 </incar>
 <kpoints>
  <generation param="Monkhorst-Pack">
   <v type="int" name="divisions">       1        1        1 </v>
   <v name="usershift">      0.00000000       0.00000000       0.00000000 </v>
   <v name="genvec1">      1.00000000       0.00000000       0.00000000 </v>
   <v name="genvec2">      0.00000000       1.00000000       0.00000000 </v>
   <v name="genvec3">      0.00000000       0.00000000       1.00000000 </v>
   <v name="shift">      0.00000000       0.00000000       0.00000000 </v>
  </generation>
  <varray name="kpointlist" >
   <v>       0.00000000       0.00000000       0.00000000 </v>
  </varray>
  <varray name="weights" >
   <v>       1.00000000 </v>
  </varray>
 </kpoints>
 <parameters>
  <separator name="general" >
   <i type="string" name="SYSTEM">unknown system</i>
   <i type="logical" name="LCOMPAT"> F  </i>
  </separator>
  <separator name="electronic" >
   <i type="string" name="PREC">normal</i>
   <i name="ENMAX">    350.00000000</i>
   <i name="ENAUG">    644.87300000</i>
   <i name="EDIFF">      0.00010000</i>
   <i type="int" name="IALGO">    38</i>
   <i type="int" name="IWAVPR">    10</i>
   <i type="int" name="NBANDS">    16</i>
   <i name="NELECT">     10.00000000</i>
   <i type="int" name="TURBO">     0</i>
   <i type="int" name="IRESTART">     0</i>
   <i type="int" name="NREBOOT">     0</i>
   <i type="int" name="NMIN">     0</i>
   <i name="EREF">      0.00000000</i>
   <separator name="electronic smearing" >
    <i type="int" name="ISMEAR">     1</i>
    <i name="SIGMA">      0.10000000</i>
    <i name="KSPACING">      0.50000000</i>
    <i type="logical" name="KGAMMA"> T  </i>
   </separator>
   <separator name="electronic projectors" >
    <i type="logical" name="LREAL"> F  </i>
    <v name="ROPT">      0.00000000      0.00000000</v>
    <i type="int" name="LMAXPAW">  -100</i>
    <i type="int" name="LMAXMIX">     2</i>
    <i type="logical" name="NLSPLINE"> F  </i>
   </separator>
   <separator name="electronic startup" >
    <i type="int" name="ISTART">     0</i>
    <i type="int" name="ICHARG">     2</i>
    <i type="int" name="INIWAV">     1</i>
   </separator>
   <separator name="electronic spin" >
    <i type="int" name="ISPIN">     1</i>
    <i type="logical" name="LNONCOLLINEAR"> F  </i>
    <v name="MAGMOM">      1.00000000      1.00000000</v>
    <i name="NUPDOWN">     -1.00000000</i>
    <i type="logical" name="LSORBIT"> F  </i>
    <v name="SAXIS">      0.00000000      0.00000000      1.00000000</v>
    <i type="logical" name="LSPIRAL"> F  </i>
    <v name="QSPIRAL">      0.00000000      0.00000000      0.00000000</v>
    <i type="logical" name="LZEROZ"> F  </i>
   </separator>
   <separator name="electronic exchange-correlation" >
    <i type="logical" name="LASPH"> F  </i>
    <i type="logical" name="LMETAGGA"> F  </i>
   </separator>
   <separator name="electronic convergence" >
    <i type="int" name="NELM">    60</i>
    <i type="int" name="NELMDL">    -5</i>
    <i type="int" name="NELMIN">     2</i>
    <i name="ENINI">    350.00000000</i>
    <separator name="electronic convergence detail" >
     <i type="logical" name="LDIAG"> T  </i>
     <i type="logical" name="LSUBROT"> F  </i>
     <i name="WEIMIN">      0.00000000</i>
     <i name="EBREAK">      0.00000156</i>
     <i name="DEPER">      0.30000000</i>
     <i type="int" name="NRMM">     4</i>
     <i name="TIME">      0.40000000</i>
    </separator>
   </separator>
   <separator name="electronic mixer" >
    <i name="AMIX">      0.40000000</i>
    <i name="BMIX">      1.00000000</i>
    <i name="AMIN">      0.10000000</i>
    <i name="AMIX_MAG">      1.60000000</i>
    <i name="BMIX_MAG">      1.00000000</i>
    <separator name="electronic mixer details" >
     <i type="int" name="IMIX">     4</i>
     <i type="logical" name="MIXFIRST"> F  </i>
     <i type="int" name="MAXMIX">   -45</i>
     <i name="WC">    100.00000000</i>
     <i type="int" name="INIMIX">     1</i>
     <i type="int" name="MIXPRE">     1</i>
     <i type="int" name="MREMOVE">     5</i>
    </separator>
   </separator>
   <separator name="electronic dipolcorrection" >
    <i type="logical" name="LDIPOL"> F  </i>
    <i type="logical" name="LMONO"> F  </i>
    <i type="int" name="IDIPOL">     0</i>
    <i name="EPSILON">      1.00000000</i>
    <v name="DIPOL">   -100.00000000   -100.00000000   -100.00000000</v>
    <i name="EFIELD">      0.00000000</i>
   </separator>
  </separator>
  <separator name="grids" >
   <i type="int" name="NGX">    24</i>
   <i type="int" name="NGY">    24</i>
   <i type="int" name="NGZ">    24</i>
   <i type="int" name="NGXF">    48</i>
   <i type="int" name="NGYF">    48</i>
   <i type="int" name="NGZF">    48</i>
   <i type="logical" name="ADDGRID"> F  </i>
  </separator>
  <separator name="ionic" >
   <i type="int" name="NSW">     0</i>
   <i type="int" name="IBRION">    -1</i>
   <i type="int" name="ISIF">     2</i>
   <i name="PSTRESS">      0.00000000</i>
   <i name="EDIFFG">      0.00100000</i>
   <i type="int" name="NFREE">     0</i>
   <i name="POTIM">      0.50000000</i>
   <i name="SMASS">     -3.00000000</i>
   <i name="SCALEE">      1.00000000</i>
  </separator>
  <separator name="ionic md" >
   <i name="TEBEG">      0.00010000</i>
   <i name="TEEND">      0.00010000</i>
   <i type="int" name="NBLOCK">     1</i>
   <i type="int" name="KBLOCK">     1</i>
   <i type="int" name="NPACO">   256</i>
   <i name="APACO">     16.00000000</i>
  </separator>
  <separator name="symmetry" >
   <i type="int" name="ISYM">     2</i>
   <i name="SYMPREC">      0.00001000</i>
  </separator>
  <separator name="dos" >
   <i type="logical" name="LORBIT"> F  </i>
   <v name="RWIGS">     -1.00000000     -1.00000000</v>
   <i type="int" name="NEDOS">   301</i>
   <i name="EMIN">     10.00000000</i>
   <i name="EMAX">    -10.00000000</i>
   <i name="EFERMI">      0.00000000</i>
  </separator>
  <separator name="writing" >
   <i type="int" name="NWRITE">     2</i>
   <i type="logical" name="LWAVE"> F  </i>
   <i type="logical" name="LCHARG"> F  </i>
   <i type="logical" name="LPARD"> F  </i>
   <i type="logical" name="LVTOT"> F  </i>
   <i type="logical" name="LVHAR"> F  </i>
   <i type="logical" name="LELF"> F  </i>
   <i type="logical" name="LOPTICS"> F  </i>
   <v name="STM">      0.00000000      0.00000000      0.00000000      0.00000000      0.00000000      0.00000000      0.00000000</v>
  </separator>
  <separator name="performance" >
   <i type="int" name="NPAR">     8</i>
   <i type="int" name="NSIM">     4</i>
   <i type="int" name="NBLK">    -1</i>
   <i type="logical" name="LPLANE"> T  </i>
   <i type="logical" name="LSCALAPACK"> F  </i>
   <i type="logical" name="LSCAAWARE"> F  </i>
   <i type="logical" name="LSCALU"> F  </i>
   <i type="logical" name="LASYNC"> F  </i>
   <i type="logical" name="LORBITALREAL"> F  </i>
  </separator>
  <separator name="miscellaneous" >
   <i type="int" name="IDIOT">     3</i>
   <i type="logical" name="LMUSIC"> F  </i>
   <v name="POMASS">     12.01100000     16.00000000</v>
   <v name="DARWINR">      0.00000000      0.00000000</v>
   <v name="DARWINV">      1.00000000      1.00000000</v>
   <i type="logical" name="LCORR"> T  </i>
  </separator>
  <i type="logical" name="GGA_COMPAT"> T  </i>
  <i type="logical" name="LBERRY"> F  </i>
  <i type="int" name="ICORELEVEL">     0</i>
  <i type="logical" name="LDAU"> F  </i>
  <i type="int" name="I_CONSTRAINED_M">     0</i>
  <separator name="electronic exchange-correlation" >
   <i type="string" name="GGA">--</i>
   <i type="int" name="VOSKOWN">     0</i>
   <i type="logical" name="LHFCALC"> F  </i>
   <i type="string" name="PRECFOCK"></i>
   <i type="logical" name="LSYMGRAD"> F  </i>
   <i type="logical" name="LHFONE"> F  </i>
   <i type="logical" name="LRHFCALC"> F  </i>
   <i type="logical" name="LTHOMAS"> F  </i>
   <i type="logical" name="LMODELHF"> F  </i>
   <i name="ENCUT4O">     -1.00000000</i>
   <i type="int" name="EXXOEP">     0</i>
   <i type="int" name="FOURORBIT">     0</i>
   <i name="AEXX">      0.00000000</i>
   <i name="HFALPHA">      0.00000000</i>
   <i name="MCALPHA">      0.00000000</i>
   <i name="ALDAX">      1.00000000</i>
   <i name="AGGAX">      1.00000000</i>
   <i name="ALDAC">      1.00000000</i>
   <i name="AGGAC">      1.00000000</i>
   <i type="int" name="NKREDX">     1</i>
   <i type="int" name="NKREDY">     1</i>
   <i type="int" name="NKREDZ">     1</i>
   <i type="logical" name="SHIFTRED"> F  </i>
   <i type="logical" name="ODDONLY"> F  </i>
   <i type="logical" name="EVENONLY"> F  </i>
   <i type="int" name="LMAXFOCK">     0</i>
   <i type="int" name="NMAXFOCKAE">     0</i>
   <i type="logical" name="LFOCKAEDFT"> F  </i>
   <i name="HFSCREEN">      0.00000000</i>
   <i name="HFSCREENC">      0.00000000</i>
   <i type="int" name="NBANDSGWLOW">     0</i>
  </separator>
  <separator name="vdW DFT" >
   <i type="logical" name="LUSE_VDW"> F  </i>
   <i name="Zab_VDW">     -0.84910000</i>
   <i name="PARAM1">      0.12340000</i>
   <i name="PARAM2">      1.00000000</i>
   <i name="PARAM3">      0.00000000</i>
  </separator>
  <separator name="model GW" >
   <i type="int" name="MODEL_GW">     0</i>
   <i name="MODEL_EPS0">     37.50000000</i>
   <i name="MODEL_ALPHA">      1.00000000</i>
  </separator>
  <separator name="linear response parameters" >
   <i type="logical" name="LEPSILON"> F  </i>
   <i type="logical" name="LRPA"> F  </i>
   <i type="logical" name="LNABLA"> F  </i>
   <i type="logical" name="LVEL"> F  </i>
   <i type="int" name="KINTER">     0</i>
   <i name="CSHIFT">      0.10000000</i>
   <i name="OMEGAMAX">     -1.00000000</i>
   <i name="DEG_THRESHOLD">      0.00200000</i>
  </separator>
  <separator name="orbital magnetization" >
   <i type="logical" name="NUCIND"> F  </i>
   <v name="MAGPOS">      0.00000000      0.00000000      0.00000000</v>
   <i type="logical" name="LNICSALL"> T  </i>
   <i type="logical" name="ORBITALMAG"> F  </i>
   <i type="logical" name="LMAGBLOCH"> F  </i>
   <i type="logical" name="LCHIMAG"> F  </i>
   <i type="logical" name="LGAUGE"> T  </i>
   <i type="int" name="MAGATOM">     0</i>
   <v name="MAGDIPOL">      0.00000000      0.00000000      0.00000000</v>
   <v name="AVECCONST">      0.00000000      0.00000000      0.00000000</v>
  </separator>
  <separator name="response functions" >
   <i type="logical" name="LADDER"> F  </i>
   <i type="logical" name="LFXC"> F  </i>
   <i type="logical" name="LHARTREE"> T  </i>
   <i type="int" name="IBSE">     0</i>
   <v type="int" name="KPOINT">    -1     0     0     0</v>
   <i type="logical" name="LTCTE"> F  </i>
   <i type="logical" name="LTETE"> F  </i>
   <i type="logical" name="LTRIPLET"> F  </i>
   <i type="logical" name="LFXCEPS"> F  </i>
   <i type="logical" name="LFXHEG"> F  </i>
   <i type="int" name="NATURALO">     0</i>
   <i type="logical" name="L2ORDER"> F  </i>
   <i type="logical" name="LUSEW"> F  </i>
   <i name="ENCUTGW">     -2.00000000</i>
   <i name="ENCUTGWSOFT">     -2.00000000</i>
   <i name="ENCUTLF">     -1.00000000</i>
   <i type="int" name="LMAXMP2">    -1</i>
   <i name="SCISSOR">      0.00000000</i>
   <i type="int" name="NOMEGA">     0</i>
   <i type="int" name="NOMEGAR">     0</i>
   <i type="int" name="NBANDSGW">    -1</i>
   <i type="int" name="NBANDSO">    -1</i>
   <i type="int" name="NBANDSV">    -1</i>
   <i type="int" name="NELM">     1</i>
   <i type="int" name="NELMHF">     1</i>
   <i type="int" name="DIM">     3</i>
   <i type="int" name="ANTIRES">     0</i>
   <i name="OMEGAMAX">    -30.00000000</i>
   <i name="OMEGAMIN">    -30.00000000</i>
   <i name="OMEGATL">   -200.00000000</i>
   <i type="int" name="OMEGAGRID">     0</i>
   <i name="CSHIFT">     -0.10000000</i>
   <i type="logical" name="SELFENERGY"> F  </i>
   <i type="logical" name="LSPECTRAL"> F  </i>
   <i type="logical" name="LSPECTRALGW"> F  </i>
   <i type="logical" name="LSINGLES"> F  </i>
   <i type="logical" name="LFERMIGW"> F  </i>
   <i type="logical" name="ODDONLYGW"> F  </i>
   <i type="logical" name="EVENONLYGW"> F  </i>
   <i type="int" name="NKREDLFX">     1</i>
   <i type="int" name="NKREDLFY">     1</i>
   <i type="int" name="NKREDLFZ">     1</i>
   <i type="int" name="MAXMEM">  1800</i>
   <i type="int" name="TELESCOPE">     0</i>
   <i type="int" name="TAUPAR">     1</i>
   <i type="int" name="OMEGAPAR">    -1</i>
   <i name="LAMBDA">      1.00000000</i>
  </separator>
  <separator name="External order field" >
   <i name="OFIELD_KAPPA">      0.00000000</i>
   <v name="OFIELD_K">      0.00000000      0.00000000      0.00000000</v>
   <i name="OFIELD_Q6_NEAR">      0.00000000</i>
   <i name="OFIELD_Q6_FAR">      0.00000000</i>
   <i name="OFIELD_A">      0.00000000</i>
  </separator>
 </parameters>
 <atominfo>
  <atoms>       2 </atoms>
  <types>       2 </types>
  <array name="atoms" >
   <dimension dim="1">ion</dimension>
   <field type="string">element</field>
   <field type="int">atomtype</field>
   <set>
    <rc><c>C </c><c>   1</c></rc>
    <rc><c>O </c><c>   2</c></rc>
   </set>
  </array>
  <array name="atomtypes" >
   <dimension dim="1">type</dimension>
   <field type="int">atomspertype</field>
   <field type="string">element</field>
   <field>mass</field>
   <field>valence</field>
   <field type="string">pseudopotential</field>
   <set>
    <rc><c>   1</c><c>C </c><c>     12.01100000</c><c>      4.00000000</c><c>  PAW_PBE C 08Apr2002                   </c></rc>
    <rc><c>   1</c><c>O </c><c>     16.00000000</c><c>      6.00000000</c><c>  PAW_PBE O 08Apr2002                   </c></rc>
   </set>
  </array>
 </atominfo>
 <structure name="initialpos" >
  <crystal>
   <varray name="basis" >
    <v>       5.00000000       0.00000000       0.00000000 </v>
    <v>       0.00000000       5.00000000       0.00000000 </v>
    <v>       0.00000000       0.00000000       5.00000000 </v>
   </varray>
   <i name="volume">    125.00000000 </i>
   <varray name="rec_basis" >
    <v>       0.20000000       0.00000000       0.00000000 </v>
    <v>       0.00000000       0.20000000       0.00000000 </v>
    <v>       0.00000000       0.00000000       0.20000000 </v>
   </varray>
  </crystal>
  <varray name="positions" >
   <v>       0.38000000       0.50000000       0.50000000 </v>
   <v>       0.62000000       0.50000000       0.50000000 </v>
  </varray>
 </structure>
 <calculation>
  <scstep>
   <time name="dav">    0.02    0.02</time>
   <time name="total">    0.05    0.05</time>
   <energy>
    <i name="alphaZ">      3.49566040 </i>
    <i name="ewald">   -111.50785835 </i>
    <i name="hartreedc">   -371.23184296 </i>
    <i name="XCdc">     38.95731712 </i>
    <i name="pawpsdc">    455.07152327 </i>
    <i name="pawaedc">   -457.43959975 </i>
    <i name="eentropy">      0.00579791 </i>
    <i name="bandstr">    -91.80192531 </i>
    <i name="atom">    579.07123046 </i>
    <i name="e_fr_energy">     44.62030279 </i>
    <i name="e_wo_entrp">     44.61450488 </i>
    <i name="e_0_energy">     44.61837015 </i>
   </energy>
  </scstep>
  <scstep>
   <time name="dav">    0.02    0.02</time>
   <time name="total">    0.03    0.03</time>
   <energy>
    <i name="e_fr_energy">    -10.97482638 </i>
    <i name="e_wo_entrp">    -10.98062428 </i>
    <i name="e_0_energy">    -10.97675901 </i>
   </energy>
  </scstep>
  <scstep>
   <time name="dav">    0.02    0.02</time>
   <time name="total">    0.03    0.03</time>
   <energy>
    <i name="e_fr_energy">    -15.40143549 </i>
    <i name="e_wo_entrp">    -15.40723339 </i>
    <i name="e_0_energy">    -15.40336812 </i>
   </energy>
  </scstep>
  <scstep>
   <time name="dav">    0.03    0.03</time>
   <time name="total">    0.03    0.03</time>
   <energy>
    <i name="e_fr_energy">    -15.43597354 </i>
    <i name="e_wo_entrp">    -15.44177145 </i>
    <i name="e_0_energy">    -15.43790618 </i>
   </energy>
  </scstep>
  <scstep>
   <time name="dav">    0.03    0.03</time>
   <time name="total">    0.04    0.04</time>
   <energy>
    <i name="e_fr_energy">    -15.43629150 </i>
    <i name="e_wo_entrp">    -15.44208940 </i>
    <i name="e_0_energy">    -15.43822413 </i>
   </energy>
  </scstep>
  <scstep>
   <time name="dav">    0.03    0.03</time>
   <time name="total">    0.06    0.07</time>
   <energy>
    <i name="e_fr_energy">    -14.99217187 </i>
    <i name="e_wo_entrp">    -14.99796977 </i>
    <i name="e_0_energy">    -14.99410450 </i>
   </energy>
  </scstep>
  <scstep>
   <time name="dav">    0.03    0.03</time>
   <time name="total">    0.07    0.07</time>
   <energy>
    <i name="e_fr_energy">    -14.88913646 </i>
    <i name="e_wo_entrp">    -14.89493437 </i>
    <i name="e_0_energy">    -14.89106910 </i>
   </energy>
  </scstep>
  <scstep>
   <time name="dav">    0.03    0.03</time>
   <time name="total">    0.07    0.07</time>
   <energy>
    <i name="e_fr_energy">    -14.85497274 </i>
    <i name="e_wo_entrp">    -14.86077065 </i>
    <i name="e_0_energy">    -14.85690538 </i>
   </energy>
  </scstep>
  <scstep>
   <time name="dav">    0.02    0.02</time>
   <time name="total">    0.06    0.06</time>
   <energy>
    <i name="e_fr_energy">    -14.85420336 </i>
    <i name="e_wo_entrp">    -14.86000126 </i>
    <i name="e_0_energy">    -14.85613599 </i>
   </energy>
  </scstep>
  <scstep>
   <time name="dav">    0.04    0.04</time>
   <time name="total">    0.08    0.08</time>
   <energy>
    <i name="e_fr_energy">    -14.85429956 </i>
    <i name="e_wo_entrp">    -14.86009746 </i>
    <i name="e_0_energy">    -14.85623219 </i>
   </energy>
  </scstep>
  <scstep>
   <time name="dav">    0.03    0.03</time>
   <time name="total">    0.07    0.07</time>
   <energy>
    <i name="e_fr_energy">    -14.85444237 </i>
    <i name="e_wo_entrp">    -14.86024027 </i>
    <i name="e_0_energy">    -14.85637500 </i>
   </energy>
  </scstep>
  <scstep>
   <time name="dav">    0.03    0.03</time>
   <time name="total">    0.06    0.06</time>
   <energy>
    <i name="alphaZ">      3.49566040 </i>
    <i name="ewald">   -111.50785835 </i>
    <i name="hartreedc">   -386.36157960 </i>
    <i name="XCdc">     39.87904835 </i>
    <i name="pawpsdc">    785.06593943 </i>
    <i name="pawaedc">   -787.32659518 </i>
    <i name="eentropy">      0.00579791 </i>
    <i name="bandstr">   -137.17612957 </i>
    <i name="atom">    579.07123046 </i>
    <i name="e_fr_energy">    -14.85448616 </i>
    <i name="e_wo_entrp">    -14.86028407 </i>
    <i name="e_0_energy">    -14.85641879 </i>
   </energy>
  </scstep>
  <structure>
   <crystal>
    <varray name="basis" >
     <v>       5.00000000       0.00000000       0.00000000 </v>
     <v>       0.00000000       5.00000000       0.00000000 </v>
     <v>       0.00000000       0.00000000       5.00000000 </v>
    </varray>
    <i name="volume">    125.00000000 </i>
    <varray name="rec_basis" >
     <v>       0.20000000       0.00000000       0.00000000 </v>
     <v>       0.00000000       0.20000000       0.00000000 </v>
     <v>       0.00000000       0.00000000       0.20000000 </v>
    </varray>
   </crystal>
   <varray name="positions" >
    <v>       0.38000000       0.50000000       0.50000000 </v>
    <v>       0.62000000       0.50000000       0.50000000 </v>
   </varray>
  </structure>
  <varray name="forces" >
   <v>       5.01683425       0.00000000      -0.00000000 </v>
   <v>      -5.01683425      -0.00000000       0.00000000 </v>
  </varray>
  <varray name="stress" >
   <v>    -121.85978180       0.00000000       0.00000000 </v>
   <v>      -0.00000000     -29.65169310      -0.00000000 </v>
   <v>       0.00000000      -0.00000000     -29.65169310 </v>
  </varray>
  <energy>
   <i name="e_fr_energy">    -14.85448616 </i>
   <i name="e_wo_entrp">    -14.85641879 </i>
   <i name="e_0_energy">      0.00579791 </i>
  </energy>
  <time name="totalsc">    0.73    0.76</time>
  <eigenvalues>
   <array>
    <dimension dim="1">band</dimension>
    <dimension dim="2">kpoint</dimension>
    <dimension dim="3">spin</dimension>
    <field>eigene</field>
    <field>occ</field>
    <set>
     <set comment="spin 1">
      <set comment="kpoint 1">
       <r>  -27.3180    1.0000 </r>
       <r>  -12.9067    1.0000 </r>
       <r>  -10.0917    1.0000 </r>
       <r>  -10.0917    1.0000 </r>
       <r>   -8.1801    1.0000 </r>
       <r>   -1.3096    0.0000 </r>
       <r>   -1.3096    0.0000 </r>
       <r>    0.2836    0.0000 </r>
       <r>    4.3024    0.0000 </r>
       <r>    4.5663    0.0000 </r>
       <r>    5.7304    0.0000 </r>
       <r>    5.7304    0.0000 </r>
       <r>    5.9109    0.0000 </r>
       <r>    8.0679    0.0000 </r>
       <r>    8.8855    0.0000 </r>
       <r>   10.1941    0.0000 </r>
      </set>
     </set>
    </set>
   </array>
  </eigenvalues>
  <separator name="orbital magnetization" >
   <v name="MAGDIPOLOUT">      0.00000000      0.00000000      0.00000000</v>
  </separator>
  <dos>
   <i name="efermi">     -8.09591142 </i>
   <total>
    <array>
     <dimension dim="1">gridpoints</dimension>
     <dimension dim="2">spin</dimension>
     <field>energy</field>
     <field>total</field>
     <field>integrated</field>
     <set>
      <set comment="spin 1">
       <r>   -29.1936     0.0000     0.0000 </r>
       <r>   -29.0560     0.0000     0.0000 </r>
       <r>   -28.9185     0.0000     0.0000 </r>
       <r>   -28.7809     0.0000     0.0000 </r>
       <r>   -28.6434     0.0000     0.0000 </r>
       <r>   -28.5058     0.0000     0.0000 </r>
       <r>   -28.3683     0.0000     0.0000 </r>
       <r>   -28.2308    -0.0000    -0.0000 </r>
       <r>   -28.0932    -0.0000    -0.0000 </r>
       <r>   -27.9557    -0.0000    -0.0000 </r>
       <r>   -27.8181    -0.0000    -0.0000 </r>
       <r>   -27.6806    -0.0000    -0.0000 </r>
       <r>   -27.5430    -0.0476    -0.0066 </r>
       <r>   -27.4055    -0.0524    -0.0138 </r>
       <r>   -27.2679    12.7532     1.7404 </r>
       <r>   -27.1304     2.0577     2.0234 </r>
       <r>   -26.9929    -0.1698     2.0000 </r>
       <r>   -26.8553    -0.0003     2.0000 </r>
       <r>   -26.7178    -0.0000     2.0000 </r>
       <r>   -26.5802    -0.0000     2.0000 </r>
       <r>   -26.4427     0.0000     2.0000 </r>
       <r>   -26.3051     0.0000     2.0000 </r>
       <r>   -26.1676     0.0000     2.0000 </r>
       <r>   -26.0300     0.0000     2.0000 </r>
       <r>   -25.8925     0.0000     2.0000 </r>
       <r>   -25.7550     0.0000     2.0000 </r>
       <r>   -25.6174     0.0000     2.0000 </r>
       <r>   -25.4799     0.0000     2.0000 </r>
       <r>   -25.3423     0.0000     2.0000 </r>
       <r>   -25.2048     0.0000     2.0000 </r>
       <r>   -25.0672     0.0000     2.0000 </r>
       <r>   -24.9297     0.0000     2.0000 </r>
       <r>   -24.7921     0.0000     2.0000 </r>
       <r>   -24.6546     0.0000     2.0000 </r>
       <r>   -24.5171     0.0000     2.0000 </r>
       <r>   -24.3795     0.0000     2.0000 </r>
       <r>   -24.2420     0.0000     2.0000 </r>
       <r>   -24.1044     0.0000     2.0000 </r>
       <r>   -23.9669     0.0000     2.0000 </r>
       <r>   -23.8293     0.0000     2.0000 </r>
       <r>   -23.6918     0.0000     2.0000 </r>
       <r>   -23.5543     0.0000     2.0000 </r>
       <r>   -23.4167     0.0000     2.0000 </r>
       <r>   -23.2792     0.0000     2.0000 </r>
       <r>   -23.1416     0.0000     2.0000 </r>
       <r>   -23.0041     0.0000     2.0000 </r>
       <r>   -22.8665     0.0000     2.0000 </r>
       <r>   -22.7290     0.0000     2.0000 </r>
       <r>   -22.5914     0.0000     2.0000 </r>
       <r>   -22.4539     0.0000     2.0000 </r>
       <r>   -22.3164     0.0000     2.0000 </r>
       <r>   -22.1788     0.0000     2.0000 </r>
       <r>   -22.0413     0.0000     2.0000 </r>
       <r>   -21.9037     0.0000     2.0000 </r>
       <r>   -21.7662     0.0000     2.0000 </r>
       <r>   -21.6286     0.0000     2.0000 </r>
       <r>   -21.4911     0.0000     2.0000 </r>
       <r>   -21.3535     0.0000     2.0000 </r>
       <r>   -21.2160     0.0000     2.0000 </r>
       <r>   -21.0785     0.0000     2.0000 </r>
       <r>   -20.9409     0.0000     2.0000 </r>
       <r>   -20.8034     0.0000     2.0000 </r>
       <r>   -20.6658     0.0000     2.0000 </r>
       <r>   -20.5283     0.0000     2.0000 </r>
       <r>   -20.3907     0.0000     2.0000 </r>
       <r>   -20.2532     0.0000     2.0000 </r>
       <r>   -20.1157     0.0000     2.0000 </r>
       <r>   -19.9781     0.0000     2.0000 </r>
       <r>   -19.8406     0.0000     2.0000 </r>
       <r>   -19.7030     0.0000     2.0000 </r>
       <r>   -19.5655     0.0000     2.0000 </r>
       <r>   -19.4279     0.0000     2.0000 </r>
       <r>   -19.2904     0.0000     2.0000 </r>
       <r>   -19.1528     0.0000     2.0000 </r>
       <r>   -19.0153     0.0000     2.0000 </r>
       <r>   -18.8778     0.0000     2.0000 </r>
       <r>   -18.7402     0.0000     2.0000 </r>
       <r>   -18.6027     0.0000     2.0000 </r>
       <r>   -18.4651     0.0000     2.0000 </r>
       <r>   -18.3276     0.0000     2.0000 </r>
       <r>   -18.1900     0.0000     2.0000 </r>
       <r>   -18.0525     0.0000     2.0000 </r>
       <r>   -17.9149     0.0000     2.0000 </r>
       <r>   -17.7774     0.0000     2.0000 </r>
       <r>   -17.6399     0.0000     2.0000 </r>
       <r>   -17.5023     0.0000     2.0000 </r>
       <r>   -17.3648     0.0000     2.0000 </r>
       <r>   -17.2272     0.0000     2.0000 </r>
       <r>   -17.0897     0.0000     2.0000 </r>
       <r>   -16.9521     0.0000     2.0000 </r>
       <r>   -16.8146     0.0000     2.0000 </r>
       <r>   -16.6770     0.0000     2.0000 </r>
       <r>   -16.5395     0.0000     2.0000 </r>
       <r>   -16.4020     0.0000     2.0000 </r>
       <r>   -16.2644     0.0000     2.0000 </r>
       <r>   -16.1269     0.0000     2.0000 </r>
       <r>   -15.9893     0.0000     2.0000 </r>
       <r>   -15.8518     0.0000     2.0000 </r>
       <r>   -15.7142     0.0000     2.0000 </r>
       <r>   -15.5767     0.0000     2.0000 </r>
       <r>   -15.4392     0.0000     2.0000 </r>
       <r>   -15.3016     0.0000     2.0000 </r>
       <r>   -15.1641     0.0000     2.0000 </r>
       <r>   -15.0265     0.0000     2.0000 </r>
       <r>   -14.8890     0.0000     2.0000 </r>
       <r>   -14.7514     0.0000     2.0000 </r>
       <r>   -14.6139     0.0000     2.0000 </r>
       <r>   -14.4763     0.0000     2.0000 </r>
       <r>   -14.3388     0.0000     2.0000 </r>
       <r>   -14.2013     0.0000     2.0000 </r>
       <r>   -14.0637     0.0000     2.0000 </r>
       <r>   -13.9262     0.0000     2.0000 </r>
       <r>   -13.7886    -0.0000     2.0000 </r>
       <r>   -13.6511    -0.0000     2.0000 </r>
       <r>   -13.5135    -0.0000     2.0000 </r>
       <r>   -13.3760    -0.0000     2.0000 </r>
       <r>   -13.2384    -0.0002     2.0000 </r>
       <r>   -13.1009    -0.1394     1.9808 </r>
       <r>   -12.9634     1.5290     2.1911 </r>
       <r>   -12.8258    13.0392     3.9846 </r>
       <r>   -12.6883     0.1735     4.0084 </r>
       <r>   -12.5507    -0.0612     4.0000 </r>
       <r>   -12.4132    -0.0000     4.0000 </r>
       <r>   -12.2756    -0.0000     4.0000 </r>
       <r>   -12.1381     0.0000     4.0000 </r>
       <r>   -12.0006     0.0000     4.0000 </r>
       <r>   -11.8630     0.0000     4.0000 </r>
       <r>   -11.7255     0.0000     4.0000 </r>
       <r>   -11.5879     0.0000     4.0000 </r>
       <r>   -11.4504     0.0000     4.0000 </r>
       <r>   -11.3128     0.0000     4.0000 </r>
       <r>   -11.1753     0.0000     4.0000 </r>
       <r>   -11.0377     0.0000     4.0000 </r>
       <r>   -10.9002    -0.0000     4.0000 </r>
       <r>   -10.7627    -0.0000     4.0000 </r>
       <r>   -10.6251    -0.0000     4.0000 </r>
       <r>   -10.4876    -0.0000     4.0000 </r>
       <r>   -10.3500    -0.0230     3.9968 </r>
       <r>   -10.2125    -1.0069     3.8583 </r>
       <r>   -10.0749    19.6219     6.5572 </r>
       <r>    -9.9374    11.2376     8.1029 </r>
       <r>    -9.7998    -0.7437     8.0006 </r>
       <r>    -9.6623    -0.0043     8.0000 </r>
       <r>    -9.5248    -0.0000     8.0000 </r>
       <r>    -9.3872    -0.0000     8.0000 </r>
       <r>    -9.2497     0.0000     8.0000 </r>
       <r>    -9.1121    -0.0000     8.0000 </r>
       <r>    -8.9746    -0.0000     8.0000 </r>
       <r>    -8.8370    -0.0000     8.0000 </r>
       <r>    -8.6995    -0.0000     8.0000 </r>
       <r>    -8.5619    -0.0000     8.0000 </r>
       <r>    -8.4244    -0.0216     7.9970 </r>
       <r>    -8.2869    -0.4262     7.9384 </r>
       <r>    -8.1493    11.3144     9.4946 </r>
       <r>    -8.0118     3.9546    10.0386 </r>
       <r>    -7.8742    -0.2794    10.0001 </r>
       <r>    -7.7367    -0.0010    10.0000 </r>
       <r>    -7.5991    -0.0000    10.0000 </r>
       <r>    -7.4616    -0.0000    10.0000 </r>
       <r>    -7.3241     0.0000    10.0000 </r>
       <r>    -7.1865     0.0000    10.0000 </r>
       <r>    -7.0490     0.0000    10.0000 </r>
       <r>    -6.9114     0.0000    10.0000 </r>
       <r>    -6.7739     0.0000    10.0000 </r>
       <r>    -6.6363     0.0000    10.0000 </r>
       <r>    -6.4988     0.0000    10.0000 </r>
       <r>    -6.3612     0.0000    10.0000 </r>
       <r>    -6.2237     0.0000    10.0000 </r>
       <r>    -6.0862     0.0000    10.0000 </r>
       <r>    -5.9486     0.0000    10.0000 </r>
       <r>    -5.8111     0.0000    10.0000 </r>
       <r>    -5.6735     0.0000    10.0000 </r>
       <r>    -5.5360     0.0000    10.0000 </r>
       <r>    -5.3984     0.0000    10.0000 </r>
       <r>    -5.2609     0.0000    10.0000 </r>
       <r>    -5.1233     0.0000    10.0000 </r>
       <r>    -4.9858     0.0000    10.0000 </r>
       <r>    -4.8483     0.0000    10.0000 </r>
       <r>    -4.7107     0.0000    10.0000 </r>
       <r>    -4.5732     0.0000    10.0000 </r>
       <r>    -4.4356     0.0000    10.0000 </r>
       <r>    -4.2981     0.0000    10.0000 </r>
       <r>    -4.1605     0.0000    10.0000 </r>
       <r>    -4.0230     0.0000    10.0000 </r>
       <r>    -3.8855     0.0000    10.0000 </r>
       <r>    -3.7479     0.0000    10.0000 </r>
       <r>    -3.6104     0.0000    10.0000 </r>
       <r>    -3.4728     0.0000    10.0000 </r>
       <r>    -3.3353     0.0000    10.0000 </r>
       <r>    -3.1977     0.0000    10.0000 </r>
       <r>    -3.0602     0.0000    10.0000 </r>
       <r>    -2.9226     0.0000    10.0000 </r>
       <r>    -2.7851     0.0000    10.0000 </r>
       <r>    -2.6476     0.0000    10.0000 </r>
       <r>    -2.5100     0.0000    10.0000 </r>
       <r>    -2.3725     0.0000    10.0000 </r>
       <r>    -2.2349    -0.0000    10.0000 </r>
       <r>    -2.0974    -0.0000    10.0000 </r>
       <r>    -1.9598    -0.0000    10.0000 </r>
       <r>    -1.8223    -0.0000    10.0000 </r>
       <r>    -1.6847    -0.0000    10.0000 </r>
       <r>    -1.5472    -0.0575     9.9921 </r>
       <r>    -1.4097    -0.6754     9.8992 </r>
       <r>    -1.2721    23.8173    13.1751 </r>
       <r>    -1.1346     6.4747    14.0657 </r>
       <r>    -0.9970    -0.4761    14.0002 </r>
       <r>    -0.8595    -0.0013    14.0000 </r>
       <r>    -0.7219    -0.0000    14.0000 </r>
       <r>    -0.5844    -0.0000    14.0000 </r>
       <r>    -0.4469    -0.0000    14.0000 </r>
       <r>    -0.3093    -0.0000    14.0000 </r>
       <r>    -0.1718    -0.0000    14.0000 </r>
       <r>    -0.0342    -0.0005    13.9999 </r>
       <r>     0.1033    -0.2080    13.9713 </r>
       <r>     0.2409     2.7178    14.3451 </r>
       <r>     0.3784    12.3064    16.0378 </r>
       <r>     0.5160    -0.2393    16.0049 </r>
       <r>     0.6535    -0.0356    16.0000 </r>
       <r>     0.7910    -0.0000    16.0000 </r>
       <r>     0.9286    -0.0000    16.0000 </r>
       <r>     1.0661     0.0000    16.0000 </r>
       <r>     1.2037     0.0000    16.0000 </r>
       <r>     1.3412     0.0000    16.0000 </r>
       <r>     1.4788     0.0000    16.0000 </r>
       <r>     1.6163     0.0000    16.0000 </r>
       <r>     1.7539     0.0000    16.0000 </r>
       <r>     1.8914     0.0000    16.0000 </r>
       <r>     2.0289     0.0000    16.0000 </r>
       <r>     2.1665     0.0000    16.0000 </r>
       <r>     2.3040     0.0000    16.0000 </r>
       <r>     2.4416     0.0000    16.0000 </r>
       <r>     2.5791     0.0000    16.0000 </r>
       <r>     2.7167     0.0000    16.0000 </r>
       <r>     2.8542     0.0000    16.0000 </r>
       <r>     2.9918     0.0000    16.0000 </r>
       <r>     3.1293     0.0000    16.0000 </r>
       <r>     3.2668     0.0000    16.0000 </r>
       <r>     3.4044    -0.0000    16.0000 </r>
       <r>     3.5419    -0.0000    16.0000 </r>
       <r>     3.6795    -0.0000    16.0000 </r>
       <r>     3.8170    -0.0000    16.0000 </r>
       <r>     3.9546    -0.0001    16.0000 </r>
       <r>     4.0921    -0.0821    15.9887 </r>
       <r>     4.2296     0.5305    16.0617 </r>
       <r>     4.3672    13.1049    17.8642 </r>
       <r>     4.5047     2.1571    18.1609 </r>
       <r>     4.6423    13.0658    19.9580 </r>
       <r>     4.7798     0.3787    20.0101 </r>
       <r>     4.9174    -0.0733    20.0000 </r>
       <r>     5.0549    -0.0001    20.0000 </r>
       <r>     5.1925    -0.0000    20.0000 </r>
       <r>     5.3300    -0.0000    20.0000 </r>
       <r>     5.4675    -0.0186    19.9974 </r>
       <r>     5.6051    -1.0100    19.8585 </r>
       <r>     5.7426    18.2672    22.3711 </r>
       <r>     5.8802    16.3298    24.6171 </r>
       <r>     6.0177    10.5077    26.0624 </r>
       <r>     6.1553    -0.4321    26.0030 </r>
       <r>     6.2928    -0.0216    26.0000 </r>
       <r>     6.4304    -0.0000    26.0000 </r>
       <r>     6.5679    -0.0000    26.0000 </r>
       <r>     6.7054     0.0000    26.0000 </r>
       <r>     6.8430     0.0000    26.0000 </r>
       <r>     6.9805     0.0000    26.0000 </r>
       <r>     7.1181     0.0000    26.0000 </r>
       <r>     7.2556    -0.0000    26.0000 </r>
       <r>     7.3932    -0.0000    26.0000 </r>
       <r>     7.5307    -0.0000    26.0000 </r>
       <r>     7.6682    -0.0000    26.0000 </r>
       <r>     7.8058    -0.0096    25.9987 </r>
       <r>     7.9433    -0.5050    25.9292 </r>
       <r>     8.0809     9.3652    27.2173 </r>
       <r>     8.2184     6.0890    28.0549 </r>
       <r>     8.3560    -0.3962    28.0004 </r>
       <r>     8.4935    -0.0026    28.0000 </r>
       <r>     8.6311    -0.0138    27.9981 </r>
       <r>     8.7686    -0.4943    27.9301 </r>
       <r>     8.9061    10.2594    29.3412 </r>
       <r>     9.0437     5.1371    30.0478 </r>
       <r>     9.1812    -0.3459    30.0002 </r>
       <r>     9.3188    -0.0017    30.0000 </r>
       <r>     9.4563    -0.0000    30.0000 </r>
       <r>     9.5939    -0.0000    30.0000 </r>
       <r>     9.7314    -0.0000    30.0000 </r>
       <r>     9.8690    -0.0003    30.0000 </r>
       <r>    10.0065    -0.1698    29.9766 </r>
       <r>    10.1440     2.0577    30.2596 </r>
       <r>    10.2816    12.7532    32.0138 </r>
       <r>    10.4191    -0.0524    32.0066 </r>
       <r>    10.5567    -0.0476    32.0000 </r>
       <r>    10.6942    -0.0000    32.0000 </r>
       <r>    10.8318    -0.0000    32.0000 </r>
       <r>    10.9693     0.0000    32.0000 </r>
       <r>    11.1069     0.0000    32.0000 </r>
       <r>    11.2444     0.0000    32.0000 </r>
       <r>    11.3819     0.0000    32.0000 </r>
       <r>    11.5195     0.0000    32.0000 </r>
       <r>    11.6570     0.0000    32.0000 </r>
       <r>    11.7946     0.0000    32.0000 </r>
       <r>    11.9321     0.0000    32.0000 </r>
       <r>    12.0697     0.0000    32.0000 </r>
      </set>
     </set>
    </array>
   </total>
  </dos>
 </calculation>
 <structure name="finalpos" >
  <crystal>
   <varray name="basis" >
    <v>       5.00000000       0.00000000       0.00000000 </v>
    <v>       0.00000000       5.00000000       0.00000000 </v>
    <v>       0.00000000       0.00000000       5.00000000 </v>
   </varray>
   <i name="volume">    125.00000000 </i>
   <varray name="rec_basis" >
    <v>       0.20000000       0.00000000       0.00000000 </v>
    <v>       0.00000000       0.20000000       0.00000000 </v>
    <v>       0.00000000       0.00000000       0.20000000 </v>
   </varray>
  </crystal>
  <varray name="positions" >
   <v>       0.38000000       0.50000000       0.50000000 </v>
   <v>       0.62000000       0.50000000       0.50000000 </v>
  </varray>
 </structure>
</modeling>
