unknown system                          
           1
     5.000000    0.000000    0.000000
     0.000000    5.000000    0.000000
     0.000000    0.000000    5.000000
   C    O 
   1   1
Direct configuration=     1
   0.38000000  0.50000000  0.50000000
   0.62000000  0.50000000  0.50000000
