   1   1   1   0
  0.5832000E+04  0.1800000E-08  0.1800000E-08  0.1800000E-08  0.5000000E-15
  1.000000000000000E-004
  CAR 
 LaCoO3                                  
      1.34894983     -8.07573305  301     -7.53970421      1.00000000
     -8.076  0.0000E+00  0.0000E+00  0.0000E+00  0.0000E+00
     -8.044  0.0000E+00  0.0000E+00  0.0000E+00  0.0000E+00
     -8.013  0.0000E+00  0.0000E+00  0.0000E+00  0.0000E+00
     -7.981  0.0000E+00  0.0000E+00  0.0000E+00  0.0000E+00
     -7.950  0.0000E+00  0.0000E+00  0.0000E+00  0.0000E+00
     -7.919  0.0000E+00  0.0000E+00  0.0000E+00  0.0000E+00
     -7.887  0.0000E+00  0.0000E+00  0.0000E+00  0.0000E+00
     -7.856  0.0000E+00  0.0000E+00  0.0000E+00  0.0000E+00
     -7.824  0.0000E+00  0.0000E+00  0.0000E+00  0.0000E+00
     -7.793  0.0000E+00  0.0000E+00  0.0000E+00  0.0000E+00
     -7.762  0.1060E-13  0.0000E+00  0.3331E-15  0.0000E+00
     -7.730  0.7525E-07  0.0000E+00  0.2364E-08  0.0000E+00
     -7.699  0.4423E-02  0.0000E+00  0.1390E-03  0.0000E+00
     -7.667  0.2502E+01  0.0000E+00  0.7874E-01  0.0000E+00
     -7.636  0.2265E+02  0.0000E+00  0.7904E+00  0.0000E+00
     -7.604  0.6633E+01  0.0000E+00  0.9988E+00  0.0000E+00
     -7.573  0.3902E-01  0.0000E+00  0.1000E+01  0.0000E+00
     -7.542  0.2413E-05  0.0000E+00  0.1000E+01  0.0000E+00
     -7.510  0.1258E-11  0.0000E+00  0.1000E+01  0.0000E+00
     -7.479  0.0000E+00  0.0000E+00  0.1000E+01  0.0000E+00
     -7.447  0.0000E+00  0.0000E+00  0.1000E+01  0.0000E+00
     -7.416  0.0000E+00  0.0000E+00  0.1000E+01  0.0000E+00
     -7.385  0.0000E+00  0.0000E+00  0.1000E+01  0.0000E+00
     -7.353  0.0000E+00  0.0000E+00  0.1000E+01  0.0000E+00
     -7.322  0.0000E+00  0.0000E+00  0.1000E+01  0.0000E+00
     -7.290  0.0000E+00  0.0000E+00  0.1000E+01  0.0000E+00
     -7.259  0.0000E+00  0.0000E+00  0.1000E+01  0.0000E+00
     -7.228  0.0000E+00  0.0000E+00  0.1000E+01  0.0000E+00
     -7.196  0.0000E+00  0.0000E+00  0.1000E+01  0.0000E+00
     -7.165  0.0000E+00  0.0000E+00  0.1000E+01  0.0000E+00
     -7.133  0.0000E+00  0.0000E+00  0.1000E+01  0.0000E+00
     -7.102  0.0000E+00  0.0000E+00  0.1000E+01  0.0000E+00
     -7.070  0.0000E+00  0.0000E+00  0.1000E+01  0.0000E+00
     -7.039  0.0000E+00  0.0000E+00  0.1000E+01  0.0000E+00
     -7.008  0.0000E+00  0.0000E+00  0.1000E+01  0.0000E+00
     -6.976  0.0000E+00  0.0000E+00  0.1000E+01  0.0000E+00
     -6.945  0.0000E+00  0.0000E+00  0.1000E+01  0.0000E+00
     -6.913  0.0000E+00  0.0000E+00  0.1000E+01  0.0000E+00
     -6.882  0.0000E+00  0.0000E+00  0.1000E+01  0.0000E+00
     -6.851  0.0000E+00  0.0000E+00  0.1000E+01  0.0000E+00
     -6.819  0.0000E+00  0.0000E+00  0.1000E+01  0.0000E+00
     -6.788  0.0000E+00  0.0000E+00  0.1000E+01  0.0000E+00
     -6.756  0.0000E+00  0.0000E+00  0.1000E+01  0.0000E+00
     -6.725  0.0000E+00  0.0000E+00  0.1000E+01  0.0000E+00
     -6.693  0.0000E+00  0.0000E+00  0.1000E+01  0.0000E+00
     -6.662  0.0000E+00  0.0000E+00  0.1000E+01  0.0000E+00
     -6.631  0.0000E+00  0.0000E+00  0.1000E+01  0.0000E+00
     -6.599  0.0000E+00  0.0000E+00  0.1000E+01  0.0000E+00
     -6.568  0.0000E+00  0.0000E+00  0.1000E+01  0.0000E+00
     -6.536  0.0000E+00  0.0000E+00  0.1000E+01  0.0000E+00
     -6.505  0.0000E+00  0.0000E+00  0.1000E+01  0.0000E+00
     -6.474  0.0000E+00  0.0000E+00  0.1000E+01  0.0000E+00
     -6.442  0.0000E+00  0.0000E+00  0.1000E+01  0.0000E+00
     -6.411  0.0000E+00  0.0000E+00  0.1000E+01  0.0000E+00
     -6.379  0.0000E+00  0.0000E+00  0.1000E+01  0.0000E+00
     -6.348  0.0000E+00  0.0000E+00  0.1000E+01  0.0000E+00
     -6.316  0.0000E+00  0.0000E+00  0.1000E+01  0.0000E+00
     -6.285  0.0000E+00  0.0000E+00  0.1000E+01  0.0000E+00
     -6.254  0.0000E+00  0.0000E+00  0.1000E+01  0.0000E+00
     -6.222  0.0000E+00  0.0000E+00  0.1000E+01  0.0000E+00
     -6.191  0.0000E+00  0.0000E+00  0.1000E+01  0.0000E+00
     -6.159  0.0000E+00  0.0000E+00  0.1000E+01  0.0000E+00
     -6.128  0.0000E+00  0.0000E+00  0.1000E+01  0.0000E+00
     -6.097  0.0000E+00  0.0000E+00  0.1000E+01  0.0000E+00
     -6.065  0.0000E+00  0.0000E+00  0.1000E+01  0.0000E+00
     -6.034  0.0000E+00  0.0000E+00  0.1000E+01  0.0000E+00
     -6.002  0.0000E+00  0.0000E+00  0.1000E+01  0.0000E+00
     -5.971  0.0000E+00  0.0000E+00  0.1000E+01  0.0000E+00
     -5.939  0.0000E+00  0.0000E+00  0.1000E+01  0.0000E+00
     -5.908  0.0000E+00  0.0000E+00  0.1000E+01  0.0000E+00
     -5.877  0.0000E+00  0.0000E+00  0.1000E+01  0.0000E+00
     -5.845  0.0000E+00  0.0000E+00  0.1000E+01  0.0000E+00
     -5.814  0.0000E+00  0.0000E+00  0.1000E+01  0.0000E+00
     -5.782  0.0000E+00  0.0000E+00  0.1000E+01  0.0000E+00
     -5.751  0.0000E+00  0.0000E+00  0.1000E+01  0.0000E+00
     -5.720  0.0000E+00  0.0000E+00  0.1000E+01  0.0000E+00
     -5.688  0.0000E+00  0.0000E+00  0.1000E+01  0.0000E+00
     -5.657  0.0000E+00  0.0000E+00  0.1000E+01  0.0000E+00
     -5.625  0.0000E+00  0.0000E+00  0.1000E+01  0.0000E+00
     -5.594  0.0000E+00  0.0000E+00  0.1000E+01  0.0000E+00
     -5.562  0.0000E+00  0.0000E+00  0.1000E+01  0.0000E+00
     -5.531  0.0000E+00  0.0000E+00  0.1000E+01  0.0000E+00
     -5.500  0.0000E+00  0.0000E+00  0.1000E+01  0.0000E+00
     -5.468  0.0000E+00  0.0000E+00  0.1000E+01  0.0000E+00
     -5.437  0.0000E+00  0.0000E+00  0.1000E+01  0.0000E+00
     -5.405  0.0000E+00  0.0000E+00  0.1000E+01  0.0000E+00
     -5.374  0.0000E+00  0.0000E+00  0.1000E+01  0.0000E+00
     -5.343  0.0000E+00  0.0000E+00  0.1000E+01  0.0000E+00
     -5.311  0.0000E+00  0.0000E+00  0.1000E+01  0.0000E+00
     -5.280  0.0000E+00  0.0000E+00  0.1000E+01  0.0000E+00
     -5.248  0.0000E+00  0.0000E+00  0.1000E+01  0.0000E+00
     -5.217  0.0000E+00  0.0000E+00  0.1000E+01  0.0000E+00
     -5.185  0.0000E+00  0.0000E+00  0.1000E+01  0.0000E+00
     -5.154  0.0000E+00  0.0000E+00  0.1000E+01  0.0000E+00
     -5.123  0.0000E+00  0.0000E+00  0.1000E+01  0.0000E+00
     -5.091  0.0000E+00  0.0000E+00  0.1000E+01  0.0000E+00
     -5.060  0.0000E+00  0.0000E+00  0.1000E+01  0.0000E+00
     -5.028  0.0000E+00  0.0000E+00  0.1000E+01  0.0000E+00
     -4.997  0.0000E+00  0.0000E+00  0.1000E+01  0.0000E+00
     -4.966  0.0000E+00  0.0000E+00  0.1000E+01  0.0000E+00
     -4.934  0.0000E+00  0.0000E+00  0.1000E+01  0.0000E+00
     -4.903  0.0000E+00  0.0000E+00  0.1000E+01  0.0000E+00
     -4.871  0.0000E+00  0.0000E+00  0.1000E+01  0.0000E+00
     -4.840  0.0000E+00  0.0000E+00  0.1000E+01  0.0000E+00
     -4.809  0.0000E+00  0.0000E+00  0.1000E+01  0.0000E+00
     -4.777  0.0000E+00  0.0000E+00  0.1000E+01  0.0000E+00
     -4.746  0.0000E+00  0.0000E+00  0.1000E+01  0.0000E+00
     -4.714  0.0000E+00  0.0000E+00  0.1000E+01  0.0000E+00
     -4.683  0.0000E+00  0.0000E+00  0.1000E+01  0.0000E+00
     -4.651  0.0000E+00  0.0000E+00  0.1000E+01  0.0000E+00
     -4.620  0.0000E+00  0.0000E+00  0.1000E+01  0.0000E+00
     -4.589  0.0000E+00  0.0000E+00  0.1000E+01  0.0000E+00
     -4.557  0.0000E+00  0.0000E+00  0.1000E+01  0.0000E+00
     -4.526  0.0000E+00  0.0000E+00  0.1000E+01  0.0000E+00
     -4.494  0.0000E+00  0.0000E+00  0.1000E+01  0.0000E+00
     -4.463  0.0000E+00  0.0000E+00  0.1000E+01  0.0000E+00
     -4.432  0.0000E+00  0.0000E+00  0.1000E+01  0.0000E+00
     -4.400  0.0000E+00  0.0000E+00  0.1000E+01  0.0000E+00
     -4.369  0.0000E+00  0.0000E+00  0.1000E+01  0.0000E+00
     -4.337  0.0000E+00  0.0000E+00  0.1000E+01  0.0000E+00
     -4.306  0.0000E+00  0.0000E+00  0.1000E+01  0.0000E+00
     -4.274  0.0000E+00  0.0000E+00  0.1000E+01  0.0000E+00
     -4.243  0.0000E+00  0.0000E+00  0.1000E+01  0.0000E+00
     -4.212  0.0000E+00  0.0000E+00  0.1000E+01  0.0000E+00
     -4.180  0.0000E+00  0.0000E+00  0.1000E+01  0.0000E+00
     -4.149  0.0000E+00  0.0000E+00  0.1000E+01  0.0000E+00
     -4.117  0.0000E+00  0.0000E+00  0.1000E+01  0.0000E+00
     -4.086  0.0000E+00  0.0000E+00  0.1000E+01  0.0000E+00
     -4.055  0.0000E+00  0.0000E+00  0.1000E+01  0.0000E+00
     -4.023  0.0000E+00  0.0000E+00  0.1000E+01  0.0000E+00
     -3.992  0.0000E+00  0.0000E+00  0.1000E+01  0.0000E+00
     -3.960  0.0000E+00  0.0000E+00  0.1000E+01  0.0000E+00
     -3.929  0.0000E+00  0.0000E+00  0.1000E+01  0.0000E+00
     -3.897  0.0000E+00  0.0000E+00  0.1000E+01  0.0000E+00
     -3.866  0.0000E+00  0.0000E+00  0.1000E+01  0.0000E+00
     -3.835  0.0000E+00  0.0000E+00  0.1000E+01  0.0000E+00
     -3.803  0.0000E+00  0.0000E+00  0.1000E+01  0.0000E+00
     -3.772  0.0000E+00  0.0000E+00  0.1000E+01  0.0000E+00
     -3.740  0.0000E+00  0.0000E+00  0.1000E+01  0.0000E+00
     -3.709  0.0000E+00  0.0000E+00  0.1000E+01  0.0000E+00
     -3.678  0.0000E+00  0.0000E+00  0.1000E+01  0.0000E+00
     -3.646  0.0000E+00  0.0000E+00  0.1000E+01  0.0000E+00
     -3.615  0.0000E+00  0.0000E+00  0.1000E+01  0.0000E+00
     -3.583  0.0000E+00  0.0000E+00  0.1000E+01  0.0000E+00
     -3.552  0.0000E+00  0.0000E+00  0.1000E+01  0.0000E+00
     -3.520  0.0000E+00  0.0000E+00  0.1000E+01  0.0000E+00
     -3.489  0.0000E+00  0.0000E+00  0.1000E+01  0.0000E+00
     -3.458  0.0000E+00  0.0000E+00  0.1000E+01  0.0000E+00
     -3.426  0.0000E+00  0.0000E+00  0.1000E+01  0.0000E+00
     -3.395  0.0000E+00  0.0000E+00  0.1000E+01  0.0000E+00
     -3.363  0.0000E+00  0.0000E+00  0.1000E+01  0.0000E+00
     -3.332  0.0000E+00  0.0000E+00  0.1000E+01  0.0000E+00
     -3.301  0.0000E+00  0.0000E+00  0.1000E+01  0.0000E+00
     -3.269  0.0000E+00  0.0000E+00  0.1000E+01  0.0000E+00
     -3.238  0.0000E+00  0.0000E+00  0.1000E+01  0.0000E+00
     -3.206  0.0000E+00  0.0000E+00  0.1000E+01  0.0000E+00
     -3.175  0.0000E+00  0.0000E+00  0.1000E+01  0.0000E+00
     -3.143  0.0000E+00  0.0000E+00  0.1000E+01  0.0000E+00
     -3.112  0.0000E+00  0.0000E+00  0.1000E+01  0.0000E+00
     -3.081  0.0000E+00  0.0000E+00  0.1000E+01  0.0000E+00
     -3.049  0.0000E+00  0.0000E+00  0.1000E+01  0.0000E+00
     -3.018  0.0000E+00  0.0000E+00  0.1000E+01  0.0000E+00
     -2.986  0.0000E+00  0.0000E+00  0.1000E+01  0.0000E+00
     -2.955  0.0000E+00  0.0000E+00  0.1000E+01  0.0000E+00
     -2.924  0.0000E+00  0.0000E+00  0.1000E+01  0.0000E+00
     -2.892  0.0000E+00  0.0000E+00  0.1000E+01  0.0000E+00
     -2.861  0.0000E+00  0.0000E+00  0.1000E+01  0.0000E+00
     -2.829  0.0000E+00  0.0000E+00  0.1000E+01  0.0000E+00
     -2.798  0.0000E+00  0.0000E+00  0.1000E+01  0.0000E+00
     -2.766  0.0000E+00  0.0000E+00  0.1000E+01  0.0000E+00
     -2.735  0.0000E+00  0.0000E+00  0.1000E+01  0.0000E+00
     -2.704  0.0000E+00  0.0000E+00  0.1000E+01  0.0000E+00
     -2.672  0.0000E+00  0.0000E+00  0.1000E+01  0.0000E+00
     -2.641  0.0000E+00  0.0000E+00  0.1000E+01  0.0000E+00
     -2.609  0.0000E+00  0.0000E+00  0.1000E+01  0.0000E+00
     -2.578  0.0000E+00  0.0000E+00  0.1000E+01  0.0000E+00
     -2.547  0.0000E+00  0.0000E+00  0.1000E+01  0.0000E+00
     -2.515  0.0000E+00  0.0000E+00  0.1000E+01  0.0000E+00
     -2.484  0.0000E+00  0.0000E+00  0.1000E+01  0.0000E+00
     -2.452  0.0000E+00  0.0000E+00  0.1000E+01  0.0000E+00
     -2.421  0.0000E+00  0.0000E+00  0.1000E+01  0.0000E+00
     -2.390  0.0000E+00  0.0000E+00  0.1000E+01  0.0000E+00
     -2.358  0.0000E+00  0.0000E+00  0.1000E+01  0.0000E+00
     -2.327  0.0000E+00  0.0000E+00  0.1000E+01  0.0000E+00
     -2.295  0.0000E+00  0.0000E+00  0.1000E+01  0.0000E+00
     -2.264  0.0000E+00  0.0000E+00  0.1000E+01  0.0000E+00
     -2.232  0.0000E+00  0.0000E+00  0.1000E+01  0.0000E+00
     -2.201  0.0000E+00  0.0000E+00  0.1000E+01  0.0000E+00
     -2.170  0.0000E+00  0.0000E+00  0.1000E+01  0.0000E+00
     -2.138  0.0000E+00  0.0000E+00  0.1000E+01  0.0000E+00
     -2.107  0.0000E+00  0.0000E+00  0.1000E+01  0.0000E+00
     -2.075  0.0000E+00  0.0000E+00  0.1000E+01  0.0000E+00
     -2.044  0.0000E+00  0.0000E+00  0.1000E+01  0.0000E+00
     -2.013  0.0000E+00  0.0000E+00  0.1000E+01  0.0000E+00
     -1.981  0.0000E+00  0.0000E+00  0.1000E+01  0.0000E+00
     -1.950  0.0000E+00  0.0000E+00  0.1000E+01  0.0000E+00
     -1.918  0.0000E+00  0.0000E+00  0.1000E+01  0.0000E+00
     -1.887  0.0000E+00  0.0000E+00  0.1000E+01  0.0000E+00
     -1.855  0.0000E+00  0.0000E+00  0.1000E+01  0.0000E+00
     -1.824  0.0000E+00  0.0000E+00  0.1000E+01  0.0000E+00
     -1.793  0.0000E+00  0.0000E+00  0.1000E+01  0.0000E+00
     -1.761  0.0000E+00  0.0000E+00  0.1000E+01  0.0000E+00
     -1.730  0.0000E+00  0.0000E+00  0.1000E+01  0.0000E+00
     -1.698  0.0000E+00  0.0000E+00  0.1000E+01  0.0000E+00
     -1.667  0.0000E+00  0.0000E+00  0.1000E+01  0.0000E+00
     -1.636  0.0000E+00  0.0000E+00  0.1000E+01  0.0000E+00
     -1.604  0.0000E+00  0.0000E+00  0.1000E+01  0.0000E+00
     -1.573  0.0000E+00  0.0000E+00  0.1000E+01  0.0000E+00
     -1.541  0.0000E+00  0.0000E+00  0.1000E+01  0.0000E+00
     -1.510  0.0000E+00  0.0000E+00  0.1000E+01  0.0000E+00
     -1.478  0.0000E+00  0.0000E+00  0.1000E+01  0.0000E+00
     -1.447  0.0000E+00  0.0000E+00  0.1000E+01  0.0000E+00
     -1.416  0.0000E+00  0.0000E+00  0.1000E+01  0.0000E+00
     -1.384  0.0000E+00  0.0000E+00  0.1000E+01  0.0000E+00
     -1.353  0.0000E+00  0.0000E+00  0.1000E+01  0.0000E+00
     -1.321  0.0000E+00  0.0000E+00  0.1000E+01  0.0000E+00
     -1.290  0.0000E+00  0.0000E+00  0.1000E+01  0.0000E+00
     -1.259  0.0000E+00  0.0000E+00  0.1000E+01  0.0000E+00
     -1.227  0.0000E+00  0.0000E+00  0.1000E+01  0.0000E+00
     -1.196  0.0000E+00  0.0000E+00  0.1000E+01  0.0000E+00
     -1.164  0.0000E+00  0.0000E+00  0.1000E+01  0.0000E+00
     -1.133  0.0000E+00  0.0000E+00  0.1000E+01  0.0000E+00
     -1.101  0.0000E+00  0.0000E+00  0.1000E+01  0.0000E+00
     -1.070  0.0000E+00  0.0000E+00  0.1000E+01  0.0000E+00
     -1.039  0.0000E+00  0.0000E+00  0.1000E+01  0.0000E+00
     -1.007  0.0000E+00  0.0000E+00  0.1000E+01  0.0000E+00
     -0.976  0.0000E+00  0.0000E+00  0.1000E+01  0.0000E+00
     -0.944  0.0000E+00  0.0000E+00  0.1000E+01  0.0000E+00
     -0.913  0.0000E+00  0.0000E+00  0.1000E+01  0.0000E+00
     -0.882  0.0000E+00  0.0000E+00  0.1000E+01  0.0000E+00
     -0.850  0.0000E+00  0.0000E+00  0.1000E+01  0.0000E+00
     -0.819  0.0000E+00  0.0000E+00  0.1000E+01  0.0000E+00
     -0.787  0.0000E+00  0.0000E+00  0.1000E+01  0.0000E+00
     -0.756  0.0000E+00  0.0000E+00  0.1000E+01  0.0000E+00
     -0.724  0.0000E+00  0.0000E+00  0.1000E+01  0.0000E+00
     -0.693  0.0000E+00  0.0000E+00  0.1000E+01  0.0000E+00
     -0.662  0.0000E+00  0.0000E+00  0.1000E+01  0.0000E+00
     -0.630  0.0000E+00  0.0000E+00  0.1000E+01  0.0000E+00
     -0.599  0.0000E+00  0.0000E+00  0.1000E+01  0.0000E+00
     -0.567  0.0000E+00  0.0000E+00  0.1000E+01  0.0000E+00
     -0.536  0.0000E+00  0.0000E+00  0.1000E+01  0.0000E+00
     -0.505  0.0000E+00  0.0000E+00  0.1000E+01  0.0000E+00
     -0.473  0.0000E+00  0.0000E+00  0.1000E+01  0.0000E+00
     -0.442  0.0000E+00  0.0000E+00  0.1000E+01  0.0000E+00
     -0.410  0.0000E+00  0.0000E+00  0.1000E+01  0.0000E+00
     -0.379  0.0000E+00  0.0000E+00  0.1000E+01  0.0000E+00
     -0.347  0.0000E+00  0.0000E+00  0.1000E+01  0.0000E+00
     -0.316  0.0000E+00  0.0000E+00  0.1000E+01  0.0000E+00
     -0.285  0.0000E+00  0.0000E+00  0.1000E+01  0.0000E+00
     -0.253  0.0000E+00  0.0000E+00  0.1000E+01  0.0000E+00
     -0.222  0.0000E+00  0.0000E+00  0.1000E+01  0.0000E+00
     -0.190  0.2650E-13  0.0000E+00  0.1000E+01  0.0000E+00
     -0.159  0.1491E-06  0.0000E+00  0.1000E+01  0.0000E+00
     -0.128  0.6859E-02  0.1847E-08  0.1000E+01  0.5804E-10
     -0.096  0.3080E+01  0.3838E-03  0.1097E+01  0.1206E-04
     -0.065  0.2307E+02  0.7211E+00  0.1822E+01  0.2267E-01
     -0.033  0.5644E+01  0.1796E+02  0.1999E+01  0.5870E+00
     -0.002  0.2653E-01  0.1291E+02  0.2000E+01  0.9927E+00
      0.029  0.1286E-05  0.2329E+00  0.2000E+01  0.1000E+01
      0.061  0.5230E-12  0.4967E-04  0.2000E+01  0.1000E+01
      0.092  0.0000E+00  0.9253E-10  0.2000E+01  0.1000E+01
      0.124  0.0000E+00  0.0000E+00  0.2000E+01  0.1000E+01
      0.155  0.1025E-12  0.0000E+00  0.2000E+01  0.1000E+01
      0.187  0.3948E-06  0.0000E+00  0.2000E+01  0.1000E+01
      0.218  0.1271E-01  0.0000E+00  0.2000E+01  0.1000E+01
      0.249  0.4089E+01  0.0000E+00  0.2129E+01  0.1000E+01
      0.281  0.2334E+02  0.0000E+00  0.2862E+01  0.1000E+01
      0.312  0.8584E+01  0.2016E-08  0.3132E+01  0.1000E+01
      0.344  0.6239E+02  0.5822E-03  0.5092E+01  0.1000E+01
      0.375  0.2883E+02  0.1532E+01  0.5997E+01  0.1048E+01
      0.406  0.1993E+02  0.5858E+02  0.6624E+01  0.2888E+01
      0.438  0.4115E+02  0.9066E+02  0.7916E+01  0.5737E+01
      0.469  0.2656E+01  0.8382E+01  0.8000E+01  0.6000E+01
      0.501  0.2466E-02  0.4968E+01  0.8000E+01  0.6156E+01
      0.532  0.2153E-07  0.2327E+02  0.8000E+01  0.6887E+01
      0.564  0.1429E-03  0.3588E+01  0.8000E+01  0.7000E+01
      0.595  0.6821E+00  0.9534E-02  0.8021E+01  0.7000E+01
      0.626  0.3843E+02  0.2503E-06  0.9229E+01  0.7000E+01
      0.658  0.5417E+02  0.5654E-13  0.1093E+02  0.7000E+01
      0.689  0.2208E+01  0.0000E+00  0.1100E+02  0.7000E+01
      0.721  0.1238E-02  0.0000E+00  0.1100E+02  0.7000E+01
      0.752  0.2103E+00  0.2710E-10  0.1101E+02  0.7000E+01
      0.783  0.1248E+02  0.3087E-04  0.1140E+02  0.7000E+01
      0.815  0.1835E+02  0.3086E+00  0.1198E+02  0.7010E+01
      0.846  0.2647E+01  0.3456E+02  0.1206E+02  0.8095E+01
      0.878  0.4397E+02  0.8595E+02  0.1344E+02  0.1080E+02
      0.909  0.6930E+02  0.4363E+02  0.1562E+02  0.1217E+02
      0.941  0.1213E+02  0.1112E+03  0.1600E+02  0.1566E+02
      0.972  0.5880E-01  0.1085E+02  0.1600E+02  0.1600E+02
      1.003  0.3034E-05  0.1678E-01  0.1600E+02  0.1600E+02
      1.035  0.1315E-11  0.2526E-06  0.1600E+02  0.1600E+02
      1.066  0.0000E+00  0.3181E-13  0.1600E+02  0.1600E+02
      1.098  0.0000E+00  0.0000E+00  0.1600E+02  0.1600E+02
      1.129  0.0000E+00  0.0000E+00  0.1600E+02  0.1600E+02
      1.160  0.0000E+00  0.0000E+00  0.1600E+02  0.1600E+02
      1.192  0.0000E+00  0.0000E+00  0.1600E+02  0.1600E+02
      1.223  0.0000E+00  0.0000E+00  0.1600E+02  0.1600E+02
      1.255  0.0000E+00  0.0000E+00  0.1600E+02  0.1600E+02
      1.286  0.0000E+00  0.0000E+00  0.1600E+02  0.1600E+02
      1.318  0.0000E+00  0.0000E+00  0.1600E+02  0.1600E+02
      1.349  0.0000E+00  0.0000E+00  0.1600E+02  0.1600E+02
      1.34894983     -8.07573305  301     -7.53970421      1.00000000
     -8.076  0.0000E+00  0.0000E+00  0.0000E+00  0.0000E+00  0.0000E+00  0.0000E+00
     -8.044  0.0000E+00  0.0000E+00  0.0000E+00  0.0000E+00  0.0000E+00  0.0000E+00
     -8.013  0.0000E+00  0.0000E+00  0.0000E+00  0.0000E+00  0.0000E+00  0.0000E+00
     -7.981  0.0000E+00  0.0000E+00  0.0000E+00  0.0000E+00  0.0000E+00  0.0000E+00
     -7.950  0.0000E+00  0.0000E+00  0.0000E+00  0.0000E+00  0.0000E+00  0.0000E+00
     -7.919  0.0000E+00  0.0000E+00  0.0000E+00  0.0000E+00  0.0000E+00  0.0000E+00
     -7.887  0.0000E+00  0.0000E+00  0.0000E+00  0.0000E+00  0.0000E+00  0.0000E+00
     -7.856  0.0000E+00  0.0000E+00  0.0000E+00  0.0000E+00  0.0000E+00  0.0000E+00
     -7.824  0.0000E+00  0.0000E+00  0.0000E+00  0.0000E+00  0.0000E+00  0.0000E+00
     -7.793  0.0000E+00  0.0000E+00  0.0000E+00  0.0000E+00  0.0000E+00  0.0000E+00
     -7.762  0.4045E-14  0.0000E+00  0.2630E-37  0.0000E+00  0.0000E+00  0.0000E+00
     -7.730  0.2871E-07  0.0000E+00  0.1867E-30  0.0000E+00  0.0000E+00  0.0000E+00
     -7.699  0.1688E-02  0.0000E+00  0.1097E-25  0.0000E+00  0.0000E+00  0.0000E+00
     -7.667  0.9545E+00  0.0000E+00  0.6205E-23  0.0000E+00  0.0000E+00  0.0000E+00
     -7.636  0.8643E+01  0.0000E+00  0.5619E-22  0.0000E+00  0.0000E+00  0.0000E+00
     -7.604  0.2531E+01  0.0000E+00  0.1645E-22  0.0000E+00  0.0000E+00  0.0000E+00
     -7.573  0.1489E-01  0.0000E+00  0.9679E-25  0.0000E+00  0.0000E+00  0.0000E+00
     -7.542  0.9205E-06  0.0000E+00  0.5984E-29  0.0000E+00  0.0000E+00  0.0000E+00
     -7.510  0.4800E-12  0.0000E+00  0.3121E-35  0.0000E+00  0.0000E+00  0.0000E+00
     -7.479  0.0000E+00  0.0000E+00  0.0000E+00  0.0000E+00  0.0000E+00  0.0000E+00
     -7.447  0.0000E+00  0.0000E+00  0.0000E+00  0.0000E+00  0.0000E+00  0.0000E+00
     -7.416  0.0000E+00  0.0000E+00  0.0000E+00  0.0000E+00  0.0000E+00  0.0000E+00
     -7.385  0.0000E+00  0.0000E+00  0.0000E+00  0.0000E+00  0.0000E+00  0.0000E+00
     -7.353  0.0000E+00  0.0000E+00  0.0000E+00  0.0000E+00  0.0000E+00  0.0000E+00
     -7.322  0.0000E+00  0.0000E+00  0.0000E+00  0.0000E+00  0.0000E+00  0.0000E+00
     -7.290  0.0000E+00  0.0000E+00  0.0000E+00  0.0000E+00  0.0000E+00  0.0000E+00
     -7.259  0.0000E+00  0.0000E+00  0.0000E+00  0.0000E+00  0.0000E+00  0.0000E+00
     -7.228  0.0000E+00  0.0000E+00  0.0000E+00  0.0000E+00  0.0000E+00  0.0000E+00
     -7.196  0.0000E+00  0.0000E+00  0.0000E+00  0.0000E+00  0.0000E+00  0.0000E+00
     -7.165  0.0000E+00  0.0000E+00  0.0000E+00  0.0000E+00  0.0000E+00  0.0000E+00
     -7.133  0.0000E+00  0.0000E+00  0.0000E+00  0.0000E+00  0.0000E+00  0.0000E+00
     -7.102  0.0000E+00  0.0000E+00  0.0000E+00  0.0000E+00  0.0000E+00  0.0000E+00
     -7.070  0.0000E+00  0.0000E+00  0.0000E+00  0.0000E+00  0.0000E+00  0.0000E+00
     -7.039  0.0000E+00  0.0000E+00  0.0000E+00  0.0000E+00  0.0000E+00  0.0000E+00
     -7.008  0.0000E+00  0.0000E+00  0.0000E+00  0.0000E+00  0.0000E+00  0.0000E+00
     -6.976  0.0000E+00  0.0000E+00  0.0000E+00  0.0000E+00  0.0000E+00  0.0000E+00
     -6.945  0.0000E+00  0.0000E+00  0.0000E+00  0.0000E+00  0.0000E+00  0.0000E+00
     -6.913  0.0000E+00  0.0000E+00  0.0000E+00  0.0000E+00  0.0000E+00  0.0000E+00
     -6.882  0.0000E+00  0.0000E+00  0.0000E+00  0.0000E+00  0.0000E+00  0.0000E+00
     -6.851  0.0000E+00  0.0000E+00  0.0000E+00  0.0000E+00  0.0000E+00  0.0000E+00
     -6.819  0.0000E+00  0.0000E+00  0.0000E+00  0.0000E+00  0.0000E+00  0.0000E+00
     -6.788  0.0000E+00  0.0000E+00  0.0000E+00  0.0000E+00  0.0000E+00  0.0000E+00
     -6.756  0.0000E+00  0.0000E+00  0.0000E+00  0.0000E+00  0.0000E+00  0.0000E+00
     -6.725  0.0000E+00  0.0000E+00  0.0000E+00  0.0000E+00  0.0000E+00  0.0000E+00
     -6.693  0.0000E+00  0.0000E+00  0.0000E+00  0.0000E+00  0.0000E+00  0.0000E+00
     -6.662  0.0000E+00  0.0000E+00  0.0000E+00  0.0000E+00  0.0000E+00  0.0000E+00
     -6.631  0.0000E+00  0.0000E+00  0.0000E+00  0.0000E+00  0.0000E+00  0.0000E+00
     -6.599  0.0000E+00  0.0000E+00  0.0000E+00  0.0000E+00  0.0000E+00  0.0000E+00
     -6.568  0.0000E+00  0.0000E+00  0.0000E+00  0.0000E+00  0.0000E+00  0.0000E+00
     -6.536  0.0000E+00  0.0000E+00  0.0000E+00  0.0000E+00  0.0000E+00  0.0000E+00
     -6.505  0.0000E+00  0.0000E+00  0.0000E+00  0.0000E+00  0.0000E+00  0.0000E+00
     -6.474  0.0000E+00  0.0000E+00  0.0000E+00  0.0000E+00  0.0000E+00  0.0000E+00
     -6.442  0.0000E+00  0.0000E+00  0.0000E+00  0.0000E+00  0.0000E+00  0.0000E+00
     -6.411  0.0000E+00  0.0000E+00  0.0000E+00  0.0000E+00  0.0000E+00  0.0000E+00
     -6.379  0.0000E+00  0.0000E+00  0.0000E+00  0.0000E+00  0.0000E+00  0.0000E+00
     -6.348  0.0000E+00  0.0000E+00  0.0000E+00  0.0000E+00  0.0000E+00  0.0000E+00
     -6.316  0.0000E+00  0.0000E+00  0.0000E+00  0.0000E+00  0.0000E+00  0.0000E+00
     -6.285  0.0000E+00  0.0000E+00  0.0000E+00  0.0000E+00  0.0000E+00  0.0000E+00
     -6.254  0.0000E+00  0.0000E+00  0.0000E+00  0.0000E+00  0.0000E+00  0.0000E+00
     -6.222  0.0000E+00  0.0000E+00  0.0000E+00  0.0000E+00  0.0000E+00  0.0000E+00
     -6.191  0.0000E+00  0.0000E+00  0.0000E+00  0.0000E+00  0.0000E+00  0.0000E+00
     -6.159  0.0000E+00  0.0000E+00  0.0000E+00  0.0000E+00  0.0000E+00  0.0000E+00
     -6.128  0.0000E+00  0.0000E+00  0.0000E+00  0.0000E+00  0.0000E+00  0.0000E+00
     -6.097  0.0000E+00  0.0000E+00  0.0000E+00  0.0000E+00  0.0000E+00  0.0000E+00
     -6.065  0.0000E+00  0.0000E+00  0.0000E+00  0.0000E+00  0.0000E+00  0.0000E+00
     -6.034  0.0000E+00  0.0000E+00  0.0000E+00  0.0000E+00  0.0000E+00  0.0000E+00
     -6.002  0.0000E+00  0.0000E+00  0.0000E+00  0.0000E+00  0.0000E+00  0.0000E+00
     -5.971  0.0000E+00  0.0000E+00  0.0000E+00  0.0000E+00  0.0000E+00  0.0000E+00
     -5.939  0.0000E+00  0.0000E+00  0.0000E+00  0.0000E+00  0.0000E+00  0.0000E+00
     -5.908  0.0000E+00  0.0000E+00  0.0000E+00  0.0000E+00  0.0000E+00  0.0000E+00
     -5.877  0.0000E+00  0.0000E+00  0.0000E+00  0.0000E+00  0.0000E+00  0.0000E+00
     -5.845  0.0000E+00  0.0000E+00  0.0000E+00  0.0000E+00  0.0000E+00  0.0000E+00
     -5.814  0.0000E+00  0.0000E+00  0.0000E+00  0.0000E+00  0.0000E+00  0.0000E+00
     -5.782  0.0000E+00  0.0000E+00  0.0000E+00  0.0000E+00  0.0000E+00  0.0000E+00
     -5.751  0.0000E+00  0.0000E+00  0.0000E+00  0.0000E+00  0.0000E+00  0.0000E+00
     -5.720  0.0000E+00  0.0000E+00  0.0000E+00  0.0000E+00  0.0000E+00  0.0000E+00
     -5.688  0.0000E+00  0.0000E+00  0.0000E+00  0.0000E+00  0.0000E+00  0.0000E+00
     -5.657  0.0000E+00  0.0000E+00  0.0000E+00  0.0000E+00  0.0000E+00  0.0000E+00
     -5.625  0.0000E+00  0.0000E+00  0.0000E+00  0.0000E+00  0.0000E+00  0.0000E+00
     -5.594  0.0000E+00  0.0000E+00  0.0000E+00  0.0000E+00  0.0000E+00  0.0000E+00
     -5.562  0.0000E+00  0.0000E+00  0.0000E+00  0.0000E+00  0.0000E+00  0.0000E+00
     -5.531  0.0000E+00  0.0000E+00  0.0000E+00  0.0000E+00  0.0000E+00  0.0000E+00
     -5.500  0.0000E+00  0.0000E+00  0.0000E+00  0.0000E+00  0.0000E+00  0.0000E+00
     -5.468  0.0000E+00  0.0000E+00  0.0000E+00  0.0000E+00  0.0000E+00  0.0000E+00
     -5.437  0.0000E+00  0.0000E+00  0.0000E+00  0.0000E+00  0.0000E+00  0.0000E+00
     -5.405  0.0000E+00  0.0000E+00  0.0000E+00  0.0000E+00  0.0000E+00  0.0000E+00
     -5.374  0.0000E+00  0.0000E+00  0.0000E+00  0.0000E+00  0.0000E+00  0.0000E+00
     -5.343  0.0000E+00  0.0000E+00  0.0000E+00  0.0000E+00  0.0000E+00  0.0000E+00
     -5.311  0.0000E+00  0.0000E+00  0.0000E+00  0.0000E+00  0.0000E+00  0.0000E+00
     -5.280  0.0000E+00  0.0000E+00  0.0000E+00  0.0000E+00  0.0000E+00  0.0000E+00
     -5.248  0.0000E+00  0.0000E+00  0.0000E+00  0.0000E+00  0.0000E+00  0.0000E+00
     -5.217  0.0000E+00  0.0000E+00  0.0000E+00  0.0000E+00  0.0000E+00  0.0000E+00
     -5.185  0.0000E+00  0.0000E+00  0.0000E+00  0.0000E+00  0.0000E+00  0.0000E+00
     -5.154  0.0000E+00  0.0000E+00  0.0000E+00  0.0000E+00  0.0000E+00  0.0000E+00
     -5.123  0.0000E+00  0.0000E+00  0.0000E+00  0.0000E+00  0.0000E+00  0.0000E+00
     -5.091  0.0000E+00  0.0000E+00  0.0000E+00  0.0000E+00  0.0000E+00  0.0000E+00
     -5.060  0.0000E+00  0.0000E+00  0.0000E+00  0.0000E+00  0.0000E+00  0.0000E+00
     -5.028  0.0000E+00  0.0000E+00  0.0000E+00  0.0000E+00  0.0000E+00  0.0000E+00
     -4.997  0.0000E+00  0.0000E+00  0.0000E+00  0.0000E+00  0.0000E+00  0.0000E+00
     -4.966  0.0000E+00  0.0000E+00  0.0000E+00  0.0000E+00  0.0000E+00  0.0000E+00
     -4.934  0.0000E+00  0.0000E+00  0.0000E+00  0.0000E+00  0.0000E+00  0.0000E+00
     -4.903  0.0000E+00  0.0000E+00  0.0000E+00  0.0000E+00  0.0000E+00  0.0000E+00
     -4.871  0.0000E+00  0.0000E+00  0.0000E+00  0.0000E+00  0.0000E+00  0.0000E+00
     -4.840  0.0000E+00  0.0000E+00  0.0000E+00  0.0000E+00  0.0000E+00  0.0000E+00
     -4.809  0.0000E+00  0.0000E+00  0.0000E+00  0.0000E+00  0.0000E+00  0.0000E+00
     -4.777  0.0000E+00  0.0000E+00  0.0000E+00  0.0000E+00  0.0000E+00  0.0000E+00
     -4.746  0.0000E+00  0.0000E+00  0.0000E+00  0.0000E+00  0.0000E+00  0.0000E+00
     -4.714  0.0000E+00  0.0000E+00  0.0000E+00  0.0000E+00  0.0000E+00  0.0000E+00
     -4.683  0.0000E+00  0.0000E+00  0.0000E+00  0.0000E+00  0.0000E+00  0.0000E+00
     -4.651  0.0000E+00  0.0000E+00  0.0000E+00  0.0000E+00  0.0000E+00  0.0000E+00
     -4.620  0.0000E+00  0.0000E+00  0.0000E+00  0.0000E+00  0.0000E+00  0.0000E+00
     -4.589  0.0000E+00  0.0000E+00  0.0000E+00  0.0000E+00  0.0000E+00  0.0000E+00
     -4.557  0.0000E+00  0.0000E+00  0.0000E+00  0.0000E+00  0.0000E+00  0.0000E+00
     -4.526  0.0000E+00  0.0000E+00  0.0000E+00  0.0000E+00  0.0000E+00  0.0000E+00
     -4.494  0.0000E+00  0.0000E+00  0.0000E+00  0.0000E+00  0.0000E+00  0.0000E+00
     -4.463  0.0000E+00  0.0000E+00  0.0000E+00  0.0000E+00  0.0000E+00  0.0000E+00
     -4.432  0.0000E+00  0.0000E+00  0.0000E+00  0.0000E+00  0.0000E+00  0.0000E+00
     -4.400  0.0000E+00  0.0000E+00  0.0000E+00  0.0000E+00  0.0000E+00  0.0000E+00
     -4.369  0.0000E+00  0.0000E+00  0.0000E+00  0.0000E+00  0.0000E+00  0.0000E+00
     -4.337  0.0000E+00  0.0000E+00  0.0000E+00  0.0000E+00  0.0000E+00  0.0000E+00
     -4.306  0.0000E+00  0.0000E+00  0.0000E+00  0.0000E+00  0.0000E+00  0.0000E+00
     -4.274  0.0000E+00  0.0000E+00  0.0000E+00  0.0000E+00  0.0000E+00  0.0000E+00
     -4.243  0.0000E+00  0.0000E+00  0.0000E+00  0.0000E+00  0.0000E+00  0.0000E+00
     -4.212  0.0000E+00  0.0000E+00  0.0000E+00  0.0000E+00  0.0000E+00  0.0000E+00
     -4.180  0.0000E+00  0.0000E+00  0.0000E+00  0.0000E+00  0.0000E+00  0.0000E+00
     -4.149  0.0000E+00  0.0000E+00  0.0000E+00  0.0000E+00  0.0000E+00  0.0000E+00
     -4.117  0.0000E+00  0.0000E+00  0.0000E+00  0.0000E+00  0.0000E+00  0.0000E+00
     -4.086  0.0000E+00  0.0000E+00  0.0000E+00  0.0000E+00  0.0000E+00  0.0000E+00
     -4.055  0.0000E+00  0.0000E+00  0.0000E+00  0.0000E+00  0.0000E+00  0.0000E+00
     -4.023  0.0000E+00  0.0000E+00  0.0000E+00  0.0000E+00  0.0000E+00  0.0000E+00
     -3.992  0.0000E+00  0.0000E+00  0.0000E+00  0.0000E+00  0.0000E+00  0.0000E+00
     -3.960  0.0000E+00  0.0000E+00  0.0000E+00  0.0000E+00  0.0000E+00  0.0000E+00
     -3.929  0.0000E+00  0.0000E+00  0.0000E+00  0.0000E+00  0.0000E+00  0.0000E+00
     -3.897  0.0000E+00  0.0000E+00  0.0000E+00  0.0000E+00  0.0000E+00  0.0000E+00
     -3.866  0.0000E+00  0.0000E+00  0.0000E+00  0.0000E+00  0.0000E+00  0.0000E+00
     -3.835  0.0000E+00  0.0000E+00  0.0000E+00  0.0000E+00  0.0000E+00  0.0000E+00
     -3.803  0.0000E+00  0.0000E+00  0.0000E+00  0.0000E+00  0.0000E+00  0.0000E+00
     -3.772  0.0000E+00  0.0000E+00  0.0000E+00  0.0000E+00  0.0000E+00  0.0000E+00