    1    1    1    2
  0.5832000E+04  0.1800000E-08  0.1800000E-08  0.1800000E-08  0.5000000E-15
  1.000000000000000E-004
  CAR 
 LaCoO3                                  
    1    1   16
 
  0.0000000E+00  0.0000000E+00  0.0000000E+00  0.1000000E+01
   1       -7.647338     -0.036447
   2       -0.077799      0.405517
   3        0.265410      0.405517
   4        0.336345      0.405517
   5        0.336345      0.420932
   6        0.336345      0.420932
   7        0.413422      0.515023
   8        0.413422      0.853143
   9        0.629622      0.855381
  10        0.629622      0.855381
  11        0.629622      0.855381
  12        0.787097      0.918711
  13        0.873097      0.918711
  14        0.873099      0.918711
  15        0.896508      0.920555
  16        0.896508      0.920555
