       N       E                     dE             d eps       ncg     rms          rms(c)
DAV:   1     0.320028318421E+01    0.32003E+01   -0.91125E+01    64   0.166E+01
DAV:   2    -0.542070258403E+00   -0.37424E+01   -0.37424E+01    80   0.483E+00
DAV:   3    -0.111639345251E+01   -0.57432E+00   -0.57432E+00    64   0.291E+00
DAV:   4    -0.112464491166E+01   -0.82515E-02   -0.82515E-02    96   0.397E-01
DAV:   5    -0.112470631781E+01   -0.61406E-04   -0.61406E-04    96   0.355E-02    0.646E-01
DAV:   6     0.577885080016E+00    0.17026E+01   -0.19411E-03    96   0.601E-02    0.363E-01
DAV:   7    -0.521542667525E+00   -0.10994E+01   -0.14831E-03    80   0.493E-02    0.181E-01
DAV:   8    -0.105239739422E+01   -0.53085E+00   -0.13885E-03    80   0.480E-02    0.271E-02
DAV:   9    -0.105975238188E+01   -0.73550E-02   -0.48747E-04    80   0.273E-02    0.162E-02
DAV:  10    -0.110189482613E+01   -0.42142E-01   -0.10385E-04    64   0.143E-02    0.770E-03
DAV:  11    -0.111525110350E+01   -0.13356E-01   -0.68190E-05    64   0.102E-02    0.370E-03
DAV:  12    -0.111417594056E+01    0.10752E-02   -0.26100E-05    64   0.905E-03    0.268E-03
DAV:  13    -0.111700467796E+01   -0.28287E-02   -0.10911E-05    96   0.614E-03    0.112E-03
DAV:  14    -0.111719728176E+01   -0.19260E-03   -0.48922E-06    64   0.385E-03    0.807E-04
DAV:  15    -0.111825863285E+01   -0.10614E-02   -0.32221E-06    64   0.226E-03    0.718E-04
DAV:  16    -0.111868716884E+01   -0.42854E-03   -0.30109E-06    64   0.198E-03    0.342E-04
DAV:  17    -0.111884860410E+01   -0.16144E-03   -0.21432E-06    64   0.159E-03    0.176E-04
DAV:  18    -0.111885904417E+01   -0.10440E-04   -0.50891E-07    96   0.954E-04
   1 F= -.11188590E+01 E0= -.11188590E+01  d E =-.148953E-14  mag=     1.0000
