PROCAR new format
# of k-points:    1         # of bands:  16         # of ions:   1

 k-point    1 :    0.00000000 0.00000000 0.00000000     weight = 1.00000000

band   1 # energy   -7.64733838 # occ.  1.00000000
 
ion      s      p      d    tot
  1  0.382  0.000  0.000  0.382
 
band   2 # energy   -0.07779862 # occ.  0.00000000
 
ion      s      p      d    tot
  1  0.005  0.000  0.000  0.005
 
band   3 # energy    0.26540955 # occ.  0.00000000
 
ion      s      p      d    tot
  1  0.015  0.000  0.000  0.015
 
band   4 # energy    0.33634543 # occ.  0.00000000
 
ion      s      p      d    tot
  1  0.000  0.001  0.000  0.001
 
band   5 # energy    0.33634543 # occ.  0.00000000
 
ion      s      p      d    tot
  1  0.000  0.001  0.000  0.001
 
band   6 # energy    0.33634543 # occ.  0.00000000
 
ion      s      p      d    tot
  1  0.000  0.001  0.000  0.001
 
band   7 # energy    0.41342219 # occ.  0.00000000
 
ion      s      p      d    tot
  1  0.000  0.000  0.000  0.000
 
band   8 # energy    0.41342219 # occ.  0.00000000
 
ion      s      p      d    tot
  1  0.000  0.000  0.000  0.000
 
band   9 # energy    0.62962247 # occ.  0.00000000
 
ion      s      p      d    tot
  1  0.000  0.001  0.000  0.001
 
band  10 # energy    0.62962247 # occ.  0.00000000
 
ion      s      p      d    tot
  1  0.000  0.001  0.000  0.001
 
band  11 # energy    0.62962247 # occ.  0.00000000
 
ion      s      p      d    tot
  1  0.000  0.001  0.000  0.001
 
band  12 # energy    0.78709682 # occ.  0.00000000
 
ion      s      p      d    tot
  1  0.009  0.000  0.000  0.009
 
band  13 # energy    0.87309741 # occ.  0.00000000
 
ion      s      p      d    tot
  1  0.000  0.000  0.000  0.000
 
band  14 # energy    0.87309891 # occ.  0.00000000
 
ion      s      p      d    tot
  1  0.000  0.000  0.000  0.000
 
band  15 # energy    0.89650778 # occ.  0.00000000
 
ion      s      p      d    tot
  1  0.000  0.000  0.000  0.000
 
band  16 # energy    0.89650813 # occ.  0.00000000
 
ion      s      p      d    tot
  1  0.000  0.000  0.000  0.000
 
# of k-points:    1         # of bands:  16         # of ions:   1

 k-point    1 :    0.00000000 0.00000000 0.00000000     weight = 1.00000000

band   1 # energy   -0.03644663 # occ.  0.00000000
 
ion      s      p      d    tot
  1  0.000  0.000  0.000  0.000
 
band   2 # energy    0.40551725 # occ.  0.00000000
 
ion      s      p      d    tot
  1  0.000  0.000  0.000  0.000
 
band   3 # energy    0.40551725 # occ.  0.00000000
 
ion      s      p      d    tot
  1  0.000  0.000  0.000  0.000
 
band   4 # energy    0.40551725 # occ.  0.00000000
 
ion      s      p      d    tot
  1  0.000  0.000  0.000  0.000
 
band   5 # energy    0.42093203 # occ.  0.00000000
 
ion      s      p      d    tot
  1  0.000  0.000  0.000  0.000
 
band   6 # energy    0.42093203 # occ.  0.00000000
 
ion      s      p      d    tot
  1  0.000  0.000  0.000  0.000
 
band   7 # energy    0.51502300 # occ.  0.00000000
 
ion      s      p      d    tot
  1  0.000  0.000  0.000  0.000
 
band   8 # energy    0.85314332 # occ.  0.00000000
 
ion      s      p      d    tot
  1  0.000  0.000  0.000  0.000
 
band   9 # energy    0.85538067 # occ.  0.00000000
 
ion      s      p      d    tot
  1  0.000  0.000  0.000  0.000
 
band  10 # energy    0.85538067 # occ.  0.00000000
 
ion      s      p      d    tot
  1  0.000  0.000  0.000  0.000
 
band  11 # energy    0.85538067 # occ.  0.00000000
 
ion      s      p      d    tot
  1  0.000  0.000  0.000  0.000
 
band  12 # energy    0.91871069 # occ.  0.00000000
 
ion      s      p      d    tot
  1  0.000  0.000  0.000  0.000
 
band  13 # energy    0.91871073 # occ.  0.00000000
 
ion      s      p      d    tot
  1  0.000  0.000  0.000  0.000
 
band  14 # energy    0.91871073 # occ.  0.00000000
 
ion      s      p      d    tot
  1  0.000  0.000  0.000  0.000
 
band  15 # energy    0.92055499 # occ.  0.00000000
 
ion      s      p      d    tot
  1  0.000  0.000  0.000  0.000
 
band  16 # energy    0.92055515 # occ.  0.00000000
 
ion      s      p      d    tot
  1  0.000  0.000  0.000  0.000
 
