<?xml version="1.0" encoding="ISO-8859-1"?>
<modeling>
 <generator>
  <i name="program" type="string">vasp </i>
  <i name="version" type="string">5.2.11  </i>
  <i name="subversion" type="string">01Dec10 complex  parallel </i>
  <i name="platform" type="string">LinuxIFC </i>
  <i name="date" type="string">2012 01 24 </i>
  <i name="time" type="string">01:34:08 </i>
 </generator>
 <incar>
  <i type="string" name="SYSTEM"> LaCoO3</i>
  <i type="int" name="ISTART">     0</i>
  <i type="string" name="PREC">accurate</i>
  <i type="int" name="IALGO">    38</i>
  <i type="int" name="ISPIN">     2</i>
  <i type="int" name="ICHARG">     2</i>
  <i type="int" name="INIWAV">     1</i>
  <i type="int" name="NELM">   150</i>
  <i type="int" name="IBRION">    -1</i>
  <i type="int" name="NSW">     0</i>
  <i name="ENCUT">    400.00000000</i>
  <i type="int" name="ISMEAR">     0</i>
  <i name="SIGMA">      0.02000000</i>
  <i type="int" name="NWRITE">     1</i>
  <i type="logical" name="LWAVE"> F  </i>
  <i type="logical" name="LORBIT"> F  </i>
  <i type="int" name="NELM">   150</i>
  <i type="logical" name="LPEAD"> F  </i>
  <i type="logical" name="LCALCPOL"> F  </i>
  <i type="logical" name="LCALCEPS"> F  </i>
  <v name="EFIELD_PEAD">      0.00000000      0.00000000      0.00000000</v>
  <i type="logical" name="LEFG"> F  </i>
  <i type="logical" name="LRHFATM"> F  </i>
  <i type="string" name="METAGGA">--</i>
  <i type="int" name="LMAXTAU">     0</i>
 </incar>
 <kpoints>
  <generation param="Gamma">
   <v type="int" name="divisions">       1        1        1 </v>
   <v name="usershift">      0.00000000       0.00000000       0.00000000 </v>
   <v name="genvec1">      1.00000000       0.00000000       0.00000000 </v>
   <v name="genvec2">      0.00000000       1.00000000       0.00000000 </v>
   <v name="genvec3">      0.00000000       0.00000000       1.00000000 </v>
   <v name="shift">      0.00000000       0.00000000       0.00000000 </v>
  </generation>
  <varray name="kpointlist" >
   <v>       0.00000000       0.00000000       0.00000000 </v>
  </varray>
  <varray name="weights" >
   <v>       1.00000000 </v>
  </varray>
 </kpoints>
 <parameters>
  <separator name="general" >
   <i type="string" name="SYSTEM">LaCoO3</i>
   <i type="logical" name="LCOMPAT"> F  </i>
  </separator>
  <separator name="electronic" >
   <i type="string" name="PREC">accura</i>
   <i name="ENMAX">    400.00000000</i>
   <i name="ENAUG">    400.00000000</i>
   <i name="EDIFF">      0.00010000</i>
   <i type="int" name="IALGO">    38</i>
   <i type="int" name="IWAVPR">    10</i>
   <i type="int" name="NBANDS">    16</i>
   <i name="NELECT">      1.00000000</i>
   <i type="int" name="TURBO">     0</i>
   <i type="int" name="IRESTART">     0</i>
   <i type="int" name="NREBOOT">     0</i>
   <i type="int" name="NMIN">     0</i>
   <i name="EREF">      0.00000000</i>
   <separator name="electronic smearing" >
    <i type="int" name="ISMEAR">     0</i>
    <i name="SIGMA">      0.02000000</i>
    <i name="KSPACING">      0.50000000</i>
    <i type="logical" name="KGAMMA"> T  </i>
   </separator>
   <separator name="electronic projectors" >
    <i type="logical" name="LREAL"> F  </i>
    <v name="ROPT">      0.00000000</v>
    <i type="int" name="LMAXPAW">  -100</i>
    <i type="int" name="LMAXMIX">     2</i>
   </separator>
   <separator name="electronic startup" >
    <i type="int" name="ISTART">     0</i>
    <i type="int" name="ICHARG">     2</i>
    <i type="int" name="INIWAV">     1</i>
   </separator>
   <separator name="electronic spin" >
    <i type="int" name="ISPIN">     2</i>
    <i type="logical" name="LNONCOLLINEAR"> F  </i>
    <v name="MAGMOM">      1.00000000</v>
    <i name="NUPDOWN">     -1.00000000</i>
    <i type="logical" name="LSORBIT"> F  </i>
    <v name="SAXIS">      0.00000000      0.00000000      1.00000000</v>
    <i type="logical" name="LSPIRAL"> F  </i>
    <v name="QSPIRAL">      0.00000000      0.00000000      0.00000000</v>
    <i type="logical" name="LZEROZ"> F  </i>
   </separator>
   <separator name="electronic exchange-correlation" >
    <i type="logical" name="LASPH"> F  </i>
    <i type="logical" name="LMETAGGA"> F  </i>
   </separator>
   <separator name="electronic convergence" >
    <i type="int" name="NELM">   150</i>
    <i type="int" name="NELMDL">    -5</i>
    <i type="int" name="NELMIN">     2</i>
    <i name="ENINI">    400.00000000</i>
    <separator name="electronic convergence detail" >
     <i type="logical" name="LDIAG"> T  </i>
     <i type="logical" name="LSUBROT"> T  </i>
     <i name="WEIMIN">      0.00000000</i>
     <i name="EBREAK">      0.00000500</i>
     <i name="DEPER">      0.30000000</i>
     <i type="int" name="NRMM">     4</i>
     <i name="TIME">      0.40000000</i>
    </separator>
   </separator>
   <separator name="electronic mixer" >
    <i name="AMIX">      0.40000000</i>
    <i name="BMIX">      1.00000000</i>
    <i name="AMIN">      0.10000000</i>
    <i name="AMIX_MAG">      1.60000000</i>
    <i name="BMIX_MAG">      1.00000000</i>
    <separator name="electronic mixer details" >
     <i type="int" name="IMIX">     4</i>
     <i type="int" name="MAXMIX">   -45</i>
     <i name="WC">    100.00000000</i>
     <i type="int" name="INIMIX">     1</i>
     <i type="int" name="MIXPRE">     1</i>
     <i type="int" name="MREMOVE">     5</i>
    </separator>
   </separator>
   <separator name="electronic dipolcorrection" >
    <i type="logical" name="LDIPOL"> F  </i>
    <i type="logical" name="LMONO"> F  </i>
    <i type="int" name="IDIPOL">     0</i>
    <i name="EPSILON">      1.00000000</i>
    <v name="DIPOL">   -100.00000000   -100.00000000   -100.00000000</v>
    <i name="EFIELD">      0.00000000</i>
   </separator>
  </separator>
  <separator name="grids" >
   <i type="int" name="NGX">   120</i>
   <i type="int" name="NGY">   120</i>
   <i type="int" name="NGZ">   120</i>
   <i type="int" name="NGXF">   240</i>
   <i type="int" name="NGYF">   240</i>
   <i type="int" name="NGZF">   240</i>
   <i type="logical" name="ADDGRID"> F  </i>
  </separator>
  <separator name="ionic" >
   <i type="int" name="NSW">     0</i>
   <i type="int" name="IBRION">    -1</i>
   <i type="int" name="ISIF">     2</i>
   <i name="PSTRESS">      0.00000000</i>
   <i name="EDIFFG">      0.00100000</i>
   <i type="int" name="NFREE">     0</i>
   <i name="POTIM">      0.50000000</i>
   <i name="SMASS">     -3.00000000</i>
  </separator>
  <separator name="ionic md" >
   <i name="TEBEG">      0.00010000</i>
   <i name="TEEND">      0.00010000</i>
   <i type="int" name="NBLOCK">     1</i>
   <i type="int" name="KBLOCK">     1</i>
   <i type="int" name="NPACO">   256</i>
   <i name="APACO">     16.00000000</i>
  </separator>
  <separator name="symmetry" >
   <i type="int" name="ISYM">     2</i>
   <i name="SYMPREC">      0.00001000</i>
  </separator>
  <separator name="dos" >
   <i type="logical" name="LORBIT"> F  </i>
   <v name="RWIGS">     -1.00000000</v>
   <i type="int" name="NEDOS">   301</i>
   <i name="EMIN">     10.00000000</i>
   <i name="EMAX">    -10.00000000</i>
   <i name="EFERMI">      0.00000000</i>
  </separator>
  <separator name="writing" >
   <i type="int" name="NWRITE">     1</i>
   <i type="logical" name="LWAVE"> F  </i>
   <i type="logical" name="LCHARG"> T  </i>
   <i type="logical" name="LPARD"> F  </i>
   <i type="logical" name="LVTOT"> F  </i>
   <i type="logical" name="LVHAR"> F  </i>
   <i type="logical" name="LELF"> F  </i>
   <i type="logical" name="LOPTICS"> F  </i>
   <v name="STM">      0.00000000      0.00000000      0.00000000      0.00000000      0.00000000</v>
  </separator>
  <separator name="performance" >
   <i type="int" name="NPAR">    16</i>
   <i type="int" name="NSIM">     4</i>
   <i type="int" name="NBLK">    -1</i>
   <i type="logical" name="LPLANE"> T  </i>
   <i type="logical" name="LSCALAPACK"> T  </i>
   <i type="logical" name="LSCAAWARE"> F  </i>
   <i type="logical" name="LSCALU"> F  </i>
   <i type="logical" name="LASYNC"> F  </i>
   <i type="logical" name="LORBITALREAL"> F  </i>
  </separator>
  <separator name="miscellaneous" >
   <i type="int" name="IDIOT">     3</i>
   <i type="logical" name="LMUSIC"> F  </i>
   <v name="POMASS">      1.00000000</v>
   <v name="DARWINR">      0.00000000</v>
   <v name="DARWINV">      1.00000000</v>
   <i type="logical" name="LCORR"> T  </i>
  </separator>
  <i type="logical" name="GGA_COMPAT"> T  </i>
  <i type="logical" name="LBERRY"> F  </i>
  <i type="int" name="ICORELEVEL">     0</i>
  <i type="logical" name="LDAU"> F  </i>
  <i type="int" name="I_CONSTRAINED_M">     0</i>
  <separator name="electronic exchange-correlation" >
   <i type="string" name="GGA">--</i>
   <i type="int" name="VOSKOWN">     0</i>
   <i type="logical" name="LHFCALC"> F  </i>
   <i type="string" name="PRECFOCK"></i>
   <i type="logical" name="LHFONE"> F  </i>
   <i type="logical" name="LRHFCALC"> F  </i>
   <i type="logical" name="LTHOMAS"> F  </i>
   <i type="logical" name="LMODELHF"> F  </i>
   <i name="ENCUT4O">     -1.00000000</i>
   <i type="int" name="EXXOEP">     0</i>
   <i type="int" name="FOURORBIT">     0</i>
   <i name="AEXX">      0.00000000</i>
   <i name="HFALPHA">      0.00000000</i>
   <i name="ALDAX">      1.00000000</i>
   <i name="AGGAX">      1.00000000</i>
   <i name="ALDAC">      1.00000000</i>
   <i name="AGGAC">      1.00000000</i>
   <i type="int" name="NKREDX">     1</i>
   <i type="int" name="NKREDY">     1</i>
   <i type="int" name="NKREDZ">     1</i>
   <i type="logical" name="SHIFTRED"> F  </i>
   <i type="logical" name="ODDONLY"> F  </i>
   <i type="logical" name="EVENONLY"> F  </i>
   <i type="int" name="LMAXFOCK">     0</i>
   <i type="int" name="NMAXFOCKAE">     0</i>
   <i type="logical" name="LFOCKAEDFT"> F  </i>
   <i name="HFSCREEN">      0.00000000</i>
   <i name="HFSCREENC">      0.00000000</i>
  </separator>
  <separator name="model GW" >
   <i type="int" name="MODEL_GW">     0</i>
   <i name="MODEL_EPS0">   3499.20000000</i>
   <i name="MODEL_ALPHA">      1.00000000</i>
  </separator>
  <separator name="linear response parameters" >
   <i type="logical" name="LEPSILON"> F  </i>
   <i type="logical" name="LRPA"> F  </i>
   <i type="logical" name="LNABLA"> F  </i>
   <i type="logical" name="LVEL"> F  </i>
   <i type="int" name="KINTER">     0</i>
   <i name="CSHIFT">      0.10000000</i>
   <i name="OMEGAMAX">     -1.00000000</i>
  </separator>
  <separator name="orbital magnetization" >
   <i type="logical" name="ORBITALMAG"> F  </i>
   <i type="logical" name="LMAGBLOCH"> F  </i>
   <i type="logical" name="LCHIMAG"> F  </i>
   <i type="logical" name="LGAUGE"> T  </i>
   <i type="int" name="MAGATOM">     0</i>
   <v name="MAGDIPOL">      0.00000000      0.00000000      0.00000000</v>
   <v name="AVECCONST">      0.00000000      0.00000000      0.00000000</v>
  </separator>
  <separator name="response functions" >
   <i type="logical" name="LRPA"> T  </i>
   <i type="logical" name="LTCTE"> F  </i>
   <i type="logical" name="LTETE"> F  </i>
   <i type="logical" name="L2ORDER"> F  </i>
   <i type="logical" name="LUSEW"> F  </i>
   <i name="ENCUTGW">     -2.00000000</i>
   <i name="ENCUTGWSOFT">     -2.00000000</i>
   <i name="ENCUTLF">     -1.00000000</i>
   <i type="int" name="LMAXMP2">    -1</i>
   <i name="SCISSOR">      0.00000000</i>
   <i type="int" name="NOMEGA">     0</i>
   <i type="int" name="NOMEGAR">     0</i>
   <i type="int" name="NBANDSGW">    -1</i>
   <i type="int" name="NBANDSO">    -1</i>
   <i type="int" name="NBANDSV">    -1</i>
   <i type="int" name="NELM">   150</i>
   <i type="int" name="DIM">     3</i>
   <i type="int" name="ANTIRES">     0</i>
   <i name="OMEGAMAX">    -30.00000000</i>
   <i name="OMEGATL">   -200.00000000</i>
   <i type="int" name="OMEGAGRID">     0</i>
   <i name="CSHIFT">     -0.10000000</i>
   <i type="logical" name="SELFENERGY"> F  </i>
   <i type="logical" name="LSPECTRAL"> F  </i>
   <i type="logical" name="ODDONLYGW"> F  </i>
   <i type="logical" name="EVENONLYGW"> F  </i>
   <i type="int" name="NKREDLFX">     1</i>
   <i type="int" name="NKREDLFY">     1</i>
   <i type="int" name="NKREDLFZ">     1</i>
   <i type="int" name="MAXMEM">  1800</i>
   <i type="int" name="TELESCOPE">     0</i>
  </separator>
 </parameters>
 <atominfo>
  <atoms>       1 </atoms>
  <types>       1 </types>
  <array name="atoms" >
   <dimension dim="1">ion</dimension>
   <field type="string">element</field>
   <field type="int">atomtype</field>
   <set>
    <rc><c>H </c><c>   1</c></rc>
   </set>
  </array>
  <array name="atomtypes" >
   <dimension dim="1">type</dimension>
   <field type="int">atomspertype</field>
   <field type="string">element</field>
   <field>mass</field>
   <field>valence</field>
   <field type="string">pseudopotential</field>
   <set>
    <rc><c>   1</c><c>H </c><c>      1.00000000</c><c>      1.00000000</c><c> PAW_GGA H 07Jul1998                    </c></rc>
   </set>
  </array>
 </atominfo>
 <structure name="initialpos" >
  <crystal>
   <varray name="basis" >
    <v>      18.00000000       0.00000000       0.00000000 </v>
    <v>       0.00000000      18.00000000       0.00000000 </v>
    <v>       0.00000000       0.00000000      18.00000000 </v>
   </varray>
   <i name="volume">   5832.00000000 </i>
   <varray name="rec_basis" >
    <v>       0.05555556       0.00000000       0.00000000 </v>
    <v>       0.00000000       0.05555556       0.00000000 </v>
    <v>       0.00000000       0.00000000       0.05555556 </v>
   </varray>
  </crystal>
  <varray name="positions" >
   <v>       0.50000000       0.50000000       0.50000000 </v>
  </varray>
  <varray name="selective"  type="logical" >
   <v type="logical" >  T  T  T </v>
  </varray>
  <nose>
   <v>      -3.00000000       0.00000000       0.00010000       0.00010000 </v>
  </nose>
 </structure>
 <calculation>
  <scstep>
   <time name="dav">    1.97    2.10</time>
   <time name="total">   16.78   16.92</time>
   <energy>
    <i name="alphaZ">      0.00041919 </i>
    <i name="ewald">     -1.13490222 </i>
    <i name="hartreedc">     -6.75658295 </i>
    <i name="XCdc">      2.23637466 </i>
    <i name="pawpsdc">      0.52316348 </i>
    <i name="pawaedc">     -0.53145527 </i>
    <i name="eentropy">      0.00000000 </i>
    <i name="bandstr">     -3.65826727 </i>
    <i name="atom">     12.52153358 </i>
    <i name="e_fr_energy">      3.20028318 </i>
    <i name="e_wo_entrp">      3.20028318 </i>
    <i name="e_0_energy">      3.20028318 </i>
   </energy>
  </scstep>
  <scstep>
   <time name="dav">    2.28    2.28</time>
   <time name="total">    2.28    2.28</time>
   <energy>
    <i name="e_fr_energy">     -0.54207026 </i>
    <i name="e_wo_entrp">     -0.54207026 </i>
    <i name="e_0_energy">     -0.54207026 </i>
   </energy>
  </scstep>
  <scstep>
   <time name="dav">    1.95    1.95</time>
   <time name="total">    1.95    1.95</time>
   <energy>
    <i name="e_fr_energy">     -1.11639345 </i>
    <i name="e_wo_entrp">     -1.11639345 </i>
    <i name="e_0_energy">     -1.11639345 </i>
   </energy>
  </scstep>
  <scstep>
   <time name="dav">    2.61    2.61</time>
   <time name="total">    2.62    2.62</time>
   <energy>
    <i name="e_fr_energy">     -1.12464491 </i>
    <i name="e_wo_entrp">     -1.12464491 </i>
    <i name="e_0_energy">     -1.12464491 </i>
   </energy>
  </scstep>
  <scstep>
   <time name="dav">    2.61    2.61</time>
   <time name="total">    4.51    4.52</time>
   <energy>
    <i name="e_fr_energy">     -1.12470632 </i>
    <i name="e_wo_entrp">     -1.12470632 </i>
    <i name="e_0_energy">     -1.12470632 </i>
   </energy>
  </scstep>
  <scstep>
   <time name="dav">    2.72    2.72</time>
   <time name="total">   20.63   20.64</time>
   <energy>
    <i name="e_fr_energy">      0.57788508 </i>
    <i name="e_wo_entrp">      0.57788508 </i>
    <i name="e_0_energy">      0.57788508 </i>
   </energy>
  </scstep>
  <scstep>
   <time name="dav">    2.33    2.33</time>
   <time name="total">   20.33   20.34</time>
   <energy>
    <i name="e_fr_energy">     -0.52154267 </i>
    <i name="e_wo_entrp">     -0.52154267 </i>
    <i name="e_0_energy">     -0.52154267 </i>
   </energy>
  </scstep>
  <scstep>
   <time name="dav">    2.33    2.33</time>
   <time name="total">   20.46   20.47</time>
   <energy>
    <i name="e_fr_energy">     -1.05239739 </i>
    <i name="e_wo_entrp">     -1.05239739 </i>
    <i name="e_0_energy">     -1.05239739 </i>
   </energy>
  </scstep>
  <scstep>
   <time name="dav">    2.35    2.35</time>
   <time name="total">   20.53   20.54</time>
   <energy>
    <i name="e_fr_energy">     -1.05975238 </i>
    <i name="e_wo_entrp">     -1.05975238 </i>
    <i name="e_0_energy">     -1.05975238 </i>
   </energy>
  </scstep>
  <scstep>
   <time name="dav">    1.99    1.99</time>
   <time name="total">   20.07   20.07</time>
   <energy>
    <i name="e_fr_energy">     -1.10189483 </i>
    <i name="e_wo_entrp">     -1.10189483 </i>
    <i name="e_0_energy">     -1.10189483 </i>
   </energy>
  </scstep>
  <scstep>
   <time name="dav">    1.99    1.99</time>
   <time name="total">   20.13   20.14</time>
   <energy>
    <i name="e_fr_energy">     -1.11525110 </i>
    <i name="e_wo_entrp">     -1.11525110 </i>
    <i name="e_0_energy">     -1.11525110 </i>
   </energy>
  </scstep>
  <scstep>
   <time name="dav">    2.01    2.02</time>
   <time name="total">   20.24   20.25</time>
   <energy>
    <i name="e_fr_energy">     -1.11417594 </i>
    <i name="e_wo_entrp">     -1.11417594 </i>
    <i name="e_0_energy">     -1.11417594 </i>
   </energy>
  </scstep>
  <scstep>
   <time name="dav">    2.67    2.67</time>
   <time name="total">   20.68   20.69</time>
   <energy>
    <i name="e_fr_energy">     -1.11700468 </i>
    <i name="e_wo_entrp">     -1.11700468 </i>
    <i name="e_0_energy">     -1.11700468 </i>
   </energy>
  </scstep>
  <scstep>
   <time name="dav">    1.99    1.99</time>
   <time name="total">   20.06   20.07</time>
   <energy>
    <i name="e_fr_energy">     -1.11719728 </i>
    <i name="e_wo_entrp">     -1.11719728 </i>
    <i name="e_0_energy">     -1.11719728 </i>
   </energy>
  </scstep>
  <scstep>
   <time name="dav">    1.99    1.99</time>
   <time name="total">   20.02   20.03</time>
   <energy>
    <i name="e_fr_energy">     -1.11825863 </i>
    <i name="e_wo_entrp">     -1.11825863 </i>
    <i name="e_0_energy">     -1.11825863 </i>
   </energy>
  </scstep>
  <scstep>
   <time name="dav">    1.99    1.99</time>
   <time name="total">   19.98   19.99</time>
   <energy>
    <i name="e_fr_energy">     -1.11868717 </i>
    <i name="e_wo_entrp">     -1.11868717 </i>
    <i name="e_0_energy">     -1.11868717 </i>
   </energy>
  </scstep>
  <scstep>
   <time name="dav">    1.99    1.99</time>
   <time name="total">   19.80   19.82</time>
   <energy>
    <i name="e_fr_energy">     -1.11884860 </i>
    <i name="e_wo_entrp">     -1.11884860 </i>
    <i name="e_0_energy">     -1.11884860 </i>
   </energy>
  </scstep>
  <scstep>
   <time name="dav">    2.67    2.67</time>
   <time name="total">   18.50   18.51</time>
   <energy>
    <i name="alphaZ">      0.00041919 </i>
    <i name="ewald">     -1.13490222 </i>
    <i name="hartreedc">     -7.20990675 </i>
    <i name="XCdc">      2.36124250 </i>
    <i name="pawpsdc">      0.73744055 </i>
    <i name="pawaedc">     -0.74734752 </i>
    <i name="eentropy">      0.00000000 </i>
    <i name="bandstr">     -7.64733838 </i>
    <i name="atom">     12.52153358 </i>
    <i name="e_fr_energy">     -1.11885904 </i>
    <i name="e_wo_entrp">     -1.11885904 </i>
    <i name="e_0_energy">     -1.11885904 </i>
   </energy>
  </scstep>
  <v type="logical" name="LVDW"> F  </v>
  <structure>
   <crystal>
    <varray name="basis" >
     <v>      18.00000000       0.00000000       0.00000000 </v>
     <v>       0.00000000      18.00000000       0.00000000 </v>
     <v>       0.00000000       0.00000000      18.00000000 </v>
    </varray>
    <i name="volume">   5832.00000000 </i>
    <varray name="rec_basis" >
     <v>       0.05555556       0.00000000       0.00000000 </v>
     <v>       0.00000000       0.05555556       0.00000000 </v>
     <v>       0.00000000       0.00000000       0.05555556 </v>
    </varray>
   </crystal>
   <varray name="positions" >
    <v>       0.50000000       0.50000000       0.50000000 </v>
   </varray>
  </structure>
  <varray name="forces" >
   <v>       0.00000000       0.00000000       0.00000000 </v>
  </varray>
  <varray name="stress" >
   <v>      -0.01269308       0.00000000       0.00000000 </v>
   <v>       0.00000000      -0.01269308       0.00000000 </v>
   <v>       0.00000000       0.00000000      -0.01269308 </v>
  </varray>
  <energy>
   <i name="e_fr_energy">     -1.11885904 </i>
   <i name="e_wo_entrp">     -1.11885904 </i>
   <i name="e_0_energy">      0.00000000 </i>
  </energy>
  <time name="totalsc">  364.50  367.00</time>
  <eigenvalues>
   <array>
    <dimension dim="1">band</dimension>
    <dimension dim="2">kpoint</dimension>
    <dimension dim="3">spin</dimension>
    <field>eigene</field>
    <field>occ</field>
    <set>
     <set comment="spin 1">
      <set comment="kpoint 1">
       <r>   -7.6473    1.0000 </r>
       <r>   -0.0778    0.0000 </r>
       <r>    0.2654    0.0000 </r>
       <r>    0.3363    0.0000 </r>
       <r>    0.3363    0.0000 </r>
       <r>    0.3363    0.0000 </r>
       <r>    0.4134    0.0000 </r>
       <r>    0.4134    0.0000 </r>
       <r>    0.6296    0.0000 </r>
       <r>    0.6296    0.0000 </r>
       <r>    0.6296    0.0000 </r>
       <r>    0.7871    0.0000 </r>
       <r>    0.8731    0.0000 </r>
       <r>    0.8731    0.0000 </r>
       <r>    0.8965    0.0000 </r>
       <r>    0.8965    0.0000 </r>
      </set>
     </set>
     <set comment="spin 2">
      <set comment="kpoint 1">
       <r>   -0.0364    0.0000 </r>
       <r>    0.4055    0.0000 </r>
       <r>    0.4055    0.0000 </r>
       <r>    0.4055    0.0000 </r>
       <r>    0.4209    0.0000 </r>
       <r>    0.4209    0.0000 </r>
       <r>    0.5150    0.0000 </r>
       <r>    0.8531    0.0000 </r>
       <r>    0.8554    0.0000 </r>
       <r>    0.8554    0.0000 </r>
       <r>    0.8554    0.0000 </r>
       <r>    0.9187    0.0000 </r>
       <r>    0.9187    0.0000 </r>
       <r>    0.9187    0.0000 </r>
       <r>    0.9206    0.0000 </r>
       <r>    0.9206    0.0000 </r>
      </set>
     </set>
    </set>
   </array>
  </eigenvalues>
  <separator name="orbital magnetization" >
   <v name="MAGDIPOLOUT">      0.00000000      0.00000000      0.00000000</v>
  </separator>
  <dos>
   <i name="efermi">     -7.53970421 </i>
   <total>
    <array>
     <dimension dim="1">gridpoints</dimension>
     <dimension dim="2">spin</dimension>
     <field>energy</field>
     <field>total</field>
     <field>integrated</field>
     <set>
      <set comment="spin 1">
       <r>    -8.0757     0.0000     0.0000 </r>
       <r>    -8.0443     0.0000     0.0000 </r>
       <r>    -8.0129     0.0000     0.0000 </r>
       <r>    -7.9815     0.0000     0.0000 </r>
       <r>    -7.9501     0.0000     0.0000 </r>
       <r>    -7.9187     0.0000     0.0000 </r>
       <r>    -7.8872     0.0000     0.0000 </r>
       <r>    -7.8558     0.0000     0.0000 </r>
       <r>    -7.8244     0.0000     0.0000 </r>
       <r>    -7.7930     0.0000     0.0000 </r>
       <r>    -7.7616     0.0000     0.0000 </r>
       <r>    -7.7302     0.0000     0.0000 </r>
       <r>    -7.6987     0.0044     0.0001 </r>
       <r>    -7.6673     2.5018     0.0787 </r>
       <r>    -7.6359    22.6530     0.7904 </r>
       <r>    -7.6045     6.6330     0.9988 </r>
       <r>    -7.5731     0.0390     1.0000 </r>
       <r>    -7.5417     0.0000     1.0000 </r>
       <r>    -7.5103     0.0000     1.0000 </r>
       <r>    -7.4788     0.0000     1.0000 </r>
       <r>    -7.4474     0.0000     1.0000 </r>
       <r>    -7.4160     0.0000     1.0000 </r>
       <r>    -7.3846     0.0000     1.0000 </r>
       <r>    -7.3532     0.0000     1.0000 </r>
       <r>    -7.3218     0.0000     1.0000 </r>
       <r>    -7.2903     0.0000     1.0000 </r>
       <r>    -7.2589     0.0000     1.0000 </r>
       <r>    -7.2275     0.0000     1.0000 </r>
       <r>    -7.1961     0.0000     1.0000 </r>
       <r>    -7.1647     0.0000     1.0000 </r>
       <r>    -7.1333     0.0000     1.0000 </r>
       <r>    -7.1018     0.0000     1.0000 </r>
       <r>    -7.0704     0.0000     1.0000 </r>
       <r>    -7.0390     0.0000     1.0000 </r>
       <r>    -7.0076     0.0000     1.0000 </r>
       <r>    -6.9762     0.0000     1.0000 </r>
       <r>    -6.9448     0.0000     1.0000 </r>
       <r>    -6.9134     0.0000     1.0000 </r>
       <r>    -6.8819     0.0000     1.0000 </r>
       <r>    -6.8505     0.0000     1.0000 </r>
       <r>    -6.8191     0.0000     1.0000 </r>
       <r>    -6.7877     0.0000     1.0000 </r>
       <r>    -6.7563     0.0000     1.0000 </r>
       <r>    -6.7249     0.0000     1.0000 </r>
       <r>    -6.6934     0.0000     1.0000 </r>
       <r>    -6.6620     0.0000     1.0000 </r>
       <r>    -6.6306     0.0000     1.0000 </r>
       <r>    -6.5992     0.0000     1.0000 </r>
       <r>    -6.5678     0.0000     1.0000 </r>
       <r>    -6.5364     0.0000     1.0000 </r>
       <r>    -6.5050     0.0000     1.0000 </r>
       <r>    -6.4735     0.0000     1.0000 </r>
       <r>    -6.4421     0.0000     1.0000 </r>
       <r>    -6.4107     0.0000     1.0000 </r>
       <r>    -6.3793     0.0000     1.0000 </r>
       <r>    -6.3479     0.0000     1.0000 </r>
       <r>    -6.3165     0.0000     1.0000 </r>
       <r>    -6.2850     0.0000     1.0000 </r>
       <r>    -6.2536     0.0000     1.0000 </r>
       <r>    -6.2222     0.0000     1.0000 </r>
       <r>    -6.1908     0.0000     1.0000 </r>
       <r>    -6.1594     0.0000     1.0000 </r>
       <r>    -6.1280     0.0000     1.0000 </r>
       <r>    -6.0965     0.0000     1.0000 </r>
       <r>    -6.0651     0.0000     1.0000 </r>
       <r>    -6.0337     0.0000     1.0000 </r>
       <r>    -6.0023     0.0000     1.0000 </r>
       <r>    -5.9709     0.0000     1.0000 </r>
       <r>    -5.9395     0.0000     1.0000 </r>
       <r>    -5.9081     0.0000     1.0000 </r>
       <r>    -5.8766     0.0000     1.0000 </r>
       <r>    -5.8452     0.0000     1.0000 </r>
       <r>    -5.8138     0.0000     1.0000 </r>
       <r>    -5.7824     0.0000     1.0000 </r>
       <r>    -5.7510     0.0000     1.0000 </r>
       <r>    -5.7196     0.0000     1.0000 </r>
       <r>    -5.6881     0.0000     1.0000 </r>
       <r>    -5.6567     0.0000     1.0000 </r>
       <r>    -5.6253     0.0000     1.0000 </r>
       <r>    -5.5939     0.0000     1.0000 </r>
       <r>    -5.5625     0.0000     1.0000 </r>
       <r>    -5.5311     0.0000     1.0000 </r>
       <r>    -5.4997     0.0000     1.0000 </r>
       <r>    -5.4682     0.0000     1.0000 </r>
       <r>    -5.4368     0.0000     1.0000 </r>
       <r>    -5.4054     0.0000     1.0000 </r>
       <r>    -5.3740     0.0000     1.0000 </r>
       <r>    -5.3426     0.0000     1.0000 </r>
       <r>    -5.3112     0.0000     1.0000 </r>
       <r>    -5.2797     0.0000     1.0000 </r>
       <r>    -5.2483     0.0000     1.0000 </r>
       <r>    -5.2169     0.0000     1.0000 </r>
       <r>    -5.1855     0.0000     1.0000 </r>
       <r>    -5.1541     0.0000     1.0000 </r>
       <r>    -5.1227     0.0000     1.0000 </r>
       <r>    -5.0913     0.0000     1.0000 </r>
       <r>    -5.0598     0.0000     1.0000 </r>
       <r>    -5.0284     0.0000     1.0000 </r>
       <r>    -4.9970     0.0000     1.0000 </r>
       <r>    -4.9656     0.0000     1.0000 </r>
       <r>    -4.9342     0.0000     1.0000 </r>
       <r>    -4.9028     0.0000     1.0000 </r>
       <r>    -4.8713     0.0000     1.0000 </r>
       <r>    -4.8399     0.0000     1.0000 </r>
       <r>    -4.8085     0.0000     1.0000 </r>
       <r>    -4.7771     0.0000     1.0000 </r>
       <r>    -4.7457     0.0000     1.0000 </r>
       <r>    -4.7143     0.0000     1.0000 </r>
       <r>    -4.6828     0.0000     1.0000 </r>
       <r>    -4.6514     0.0000     1.0000 </r>
       <r>    -4.6200     0.0000     1.0000 </r>
       <r>    -4.5886     0.0000     1.0000 </r>
       <r>    -4.5572     0.0000     1.0000 </r>
       <r>    -4.5258     0.0000     1.0000 </r>
       <r>    -4.4944     0.0000     1.0000 </r>
       <r>    -4.4629     0.0000     1.0000 </r>
       <r>    -4.4315     0.0000     1.0000 </r>
       <r>    -4.4001     0.0000     1.0000 </r>
       <r>    -4.3687     0.0000     1.0000 </r>
       <r>    -4.3373     0.0000     1.0000 </r>
       <r>    -4.3059     0.0000     1.0000 </r>
       <r>    -4.2744     0.0000     1.0000 </r>
       <r>    -4.2430     0.0000     1.0000 </r>
       <r>    -4.2116     0.0000     1.0000 </r>
       <r>    -4.1802     0.0000     1.0000 </r>
       <r>    -4.1488     0.0000     1.0000 </r>
       <r>    -4.1174     0.0000     1.0000 </r>
       <r>    -4.0860     0.0000     1.0000 </r>
       <r>    -4.0545     0.0000     1.0000 </r>
       <r>    -4.0231     0.0000     1.0000 </r>
       <r>    -3.9917     0.0000     1.0000 </r>
       <r>    -3.9603     0.0000     1.0000 </r>
       <r>    -3.9289     0.0000     1.0000 </r>
       <r>    -3.8975     0.0000     1.0000 </r>
       <r>    -3.8660     0.0000     1.0000 </r>
       <r>    -3.8346     0.0000     1.0000 </r>
       <r>    -3.8032     0.0000     1.0000 </r>
       <r>    -3.7718     0.0000     1.0000 </r>
       <r>    -3.7404     0.0000     1.0000 </r>
       <r>    -3.7090     0.0000     1.0000 </r>
       <r>    -3.6775     0.0000     1.0000 </r>
       <r>    -3.6461     0.0000     1.0000 </r>
       <r>    -3.6147     0.0000     1.0000 </r>
       <r>    -3.5833     0.0000     1.0000 </r>
       <r>    -3.5519     0.0000     1.0000 </r>
       <r>    -3.5205     0.0000     1.0000 </r>
       <r>    -3.4891     0.0000     1.0000 </r>
       <r>    -3.4576     0.0000     1.0000 </r>
       <r>    -3.4262     0.0000     1.0000 </r>
       <r>    -3.3948     0.0000     1.0000 </r>
       <r>    -3.3634     0.0000     1.0000 </r>
       <r>    -3.3320     0.0000     1.0000 </r>
       <r>    -3.3006     0.0000     1.0000 </r>
       <r>    -3.2691     0.0000     1.0000 </r>
       <r>    -3.2377     0.0000     1.0000 </r>
       <r>    -3.2063     0.0000     1.0000 </r>
       <r>    -3.1749     0.0000     1.0000 </r>
       <r>    -3.1435     0.0000     1.0000 </r>
       <r>    -3.1121     0.0000     1.0000 </r>
       <r>    -3.0807     0.0000     1.0000 </r>
       <r>    -3.0492     0.0000     1.0000 </r>
       <r>    -3.0178     0.0000     1.0000 </r>
       <r>    -2.9864     0.0000     1.0000 </r>
       <r>    -2.9550     0.0000     1.0000 </r>
       <r>    -2.9236     0.0000     1.0000 </r>
       <r>    -2.8922     0.0000     1.0000 </r>
       <r>    -2.8607     0.0000     1.0000 </r>
       <r>    -2.8293     0.0000     1.0000 </r>
       <r>    -2.7979     0.0000     1.0000 </r>
       <r>    -2.7665     0.0000     1.0000 </r>
       <r>    -2.7351     0.0000     1.0000 </r>
       <r>    -2.7037     0.0000     1.0000 </r>
       <r>    -2.6722     0.0000     1.0000 </r>
       <r>    -2.6408     0.0000     1.0000 </r>
       <r>    -2.6094     0.0000     1.0000 </r>
       <r>    -2.5780     0.0000     1.0000 </r>
       <r>    -2.5466     0.0000     1.0000 </r>
       <r>    -2.5152     0.0000     1.0000 </r>
       <r>    -2.4838     0.0000     1.0000 </r>
       <r>    -2.4523     0.0000     1.0000 </r>
       <r>    -2.4209     0.0000     1.0000 </r>
       <r>    -2.3895     0.0000     1.0000 </r>
       <r>    -2.3581     0.0000     1.0000 </r>
       <r>    -2.3267     0.0000     1.0000 </r>
       <r>    -2.2953     0.0000     1.0000 </r>
       <r>    -2.2638     0.0000     1.0000 </r>
       <r>    -2.2324     0.0000     1.0000 </r>
       <r>    -2.2010     0.0000     1.0000 </r>
       <r>    -2.1696     0.0000     1.0000 </r>
       <r>    -2.1382     0.0000     1.0000 </r>
       <r>    -2.1068     0.0000     1.0000 </r>
       <r>    -2.0754     0.0000     1.0000 </r>
       <r>    -2.0439     0.0000     1.0000 </r>
       <r>    -2.0125     0.0000     1.0000 </r>
       <r>    -1.9811     0.0000     1.0000 </r>
       <r>    -1.9497     0.0000     1.0000 </r>
       <r>    -1.9183     0.0000     1.0000 </r>
       <r>    -1.8869     0.0000     1.0000 </r>
       <r>    -1.8554     0.0000     1.0000 </r>
       <r>    -1.8240     0.0000     1.0000 </r>
       <r>    -1.7926     0.0000     1.0000 </r>
       <r>    -1.7612     0.0000     1.0000 </r>
       <r>    -1.7298     0.0000     1.0000 </r>
       <r>    -1.6984     0.0000     1.0000 </r>
       <r>    -1.6669     0.0000     1.0000 </r>
       <r>    -1.6355     0.0000     1.0000 </r>
       <r>    -1.6041     0.0000     1.0000 </r>
       <r>    -1.5727     0.0000     1.0000 </r>
       <r>    -1.5413     0.0000     1.0000 </r>
       <r>    -1.5099     0.0000     1.0000 </r>
       <r>    -1.4785     0.0000     1.0000 </r>
       <r>    -1.4470     0.0000     1.0000 </r>
       <r>    -1.4156     0.0000     1.0000 </r>
       <r>    -1.3842     0.0000     1.0000 </r>
       <r>    -1.3528     0.0000     1.0000 </r>
       <r>    -1.3214     0.0000     1.0000 </r>
       <r>    -1.2900     0.0000     1.0000 </r>
       <r>    -1.2585     0.0000     1.0000 </r>
       <r>    -1.2271     0.0000     1.0000 </r>
       <r>    -1.1957     0.0000     1.0000 </r>
       <r>    -1.1643     0.0000     1.0000 </r>
       <r>    -1.1329     0.0000     1.0000 </r>
       <r>    -1.1015     0.0000     1.0000 </r>
       <r>    -1.0701     0.0000     1.0000 </r>
       <r>    -1.0386     0.0000     1.0000 </r>
       <r>    -1.0072     0.0000     1.0000 </r>
       <r>    -0.9758     0.0000     1.0000 </r>
       <r>    -0.9444     0.0000     1.0000 </r>
       <r>    -0.9130     0.0000     1.0000 </r>
       <r>    -0.8816     0.0000     1.0000 </r>
       <r>    -0.8501     0.0000     1.0000 </r>
       <r>    -0.8187     0.0000     1.0000 </r>
       <r>    -0.7873     0.0000     1.0000 </r>
       <r>    -0.7559     0.0000     1.0000 </r>
       <r>    -0.7245     0.0000     1.0000 </r>
       <r>    -0.6931     0.0000     1.0000 </r>
       <r>    -0.6616     0.0000     1.0000 </r>
       <r>    -0.6302     0.0000     1.0000 </r>
       <r>    -0.5988     0.0000     1.0000 </r>
       <r>    -0.5674     0.0000     1.0000 </r>
       <r>    -0.5360     0.0000     1.0000 </r>
       <r>    -0.5046     0.0000     1.0000 </r>
       <r>    -0.4732     0.0000     1.0000 </r>
       <r>    -0.4417     0.0000     1.0000 </r>
       <r>    -0.4103     0.0000     1.0000 </r>
       <r>    -0.3789     0.0000     1.0000 </r>
       <r>    -0.3475     0.0000     1.0000 </r>
       <r>    -0.3161     0.0000     1.0000 </r>
       <r>    -0.2847     0.0000     1.0000 </r>
       <r>    -0.2532     0.0000     1.0000 </r>
       <r>    -0.2218     0.0000     1.0000 </r>
       <r>    -0.1904     0.0000     1.0000 </r>
       <r>    -0.1590     0.0000     1.0000 </r>
       <r>    -0.1276     0.0069     1.0002 </r>
       <r>    -0.0962     3.0803     1.0970 </r>
       <r>    -0.0648    23.0739     1.8219 </r>
       <r>    -0.0333     5.6438     1.9992 </r>
       <r>    -0.0019     0.0265     2.0000 </r>
       <r>     0.0295     0.0000     2.0000 </r>
       <r>     0.0609     0.0000     2.0000 </r>
       <r>     0.0923     0.0000     2.0000 </r>
       <r>     0.1237     0.0000     2.0000 </r>
       <r>     0.1552     0.0000     2.0000 </r>
       <r>     0.1866     0.0000     2.0000 </r>
       <r>     0.2180     0.0127     2.0004 </r>
       <r>     0.2494     4.0891     2.1289 </r>
       <r>     0.2808    23.3428     2.8622 </r>
       <r>     0.3122     8.5839     3.1319 </r>
       <r>     0.3437    62.3868     5.0918 </r>
       <r>     0.3751    28.8274     5.9974 </r>
       <r>     0.4065    19.9319     6.6236 </r>
       <r>     0.4379    41.1548     7.9165 </r>
       <r>     0.4693     2.6560     7.9999 </r>
       <r>     0.5007     0.0025     8.0000 </r>
       <r>     0.5321     0.0000     8.0000 </r>
       <r>     0.5636     0.0001     8.0000 </r>
       <r>     0.5950     0.6821     8.0214 </r>
       <r>     0.6264    38.4344     9.2289 </r>
       <r>     0.6578    54.1680    10.9306 </r>
       <r>     0.6892     2.2081    11.0000 </r>
       <r>     0.7206     0.0012    11.0000 </r>
       <r>     0.7521     0.2103    11.0066 </r>
       <r>     0.7835    12.4830    11.3988 </r>
       <r>     0.8149    18.3525    11.9753 </r>
       <r>     0.8463     2.6468    12.0585 </r>
       <r>     0.8777    43.9716    13.4399 </r>
       <r>     0.9091    69.3039    15.6171 </r>
       <r>     0.9405    12.1296    15.9982 </r>
       <r>     0.9720     0.0588    16.0000 </r>
       <r>     1.0034     0.0000    16.0000 </r>
       <r>     1.0348     0.0000    16.0000 </r>
       <r>     1.0662     0.0000    16.0000 </r>
       <r>     1.0976     0.0000    16.0000 </r>
       <r>     1.1290     0.0000    16.0000 </r>
       <r>     1.1605     0.0000    16.0000 </r>
       <r>     1.1919     0.0000    16.0000 </r>
       <r>     1.2233     0.0000    16.0000 </r>
       <r>     1.2547     0.0000    16.0000 </r>
       <r>     1.2861     0.0000    16.0000 </r>
       <r>     1.3175     0.0000    16.0000 </r>
       <r>     1.3489     0.0000    16.0000 </r>
      </set>
      <set comment="spin 2">
       <r>    -8.0757     0.0000     0.0000 </r>
       <r>    -8.0443     0.0000     0.0000 </r>
       <r>    -8.0129     0.0000     0.0000 </r>
       <r>    -7.9815     0.0000     0.0000 </r>
       <r>    -7.9501     0.0000     0.0000 </r>
       <r>    -7.9187     0.0000     0.0000 </r>
       <r>    -7.8872     0.0000     0.0000 </r>
       <r>    -7.8558     0.0000     0.0000 </r>
       <r>    -7.8244     0.0000     0.0000 </r>
       <r>    -7.7930     0.0000     0.0000 </r>
       <r>    -7.7616     0.0000     0.0000 </r>
       <r>    -7.7302     0.0000     0.0000 </r>
       <r>    -7.6987     0.0000     0.0000 </r>
       <r>    -7.6673     0.0000     0.0000 </r>
       <r>    -7.6359     0.0000     0.0000 </r>
       <r>    -7.6045     0.0000     0.0000 </r>
       <r>    -7.5731     0.0000     0.0000 </r>
       <r>    -7.5417     0.0000     0.0000 </r>
       <r>    -7.5103     0.0000     0.0000 </r>
       <r>    -7.4788     0.0000     0.0000 </r>
       <r>    -7.4474     0.0000     0.0000 </r>
       <r>    -7.4160     0.0000     0.0000 </r>
       <r>    -7.3846     0.0000     0.0000 </r>
       <r>    -7.3532     0.0000     0.0000 </r>
       <r>    -7.3218     0.0000     0.0000 </r>
       <r>    -7.2903     0.0000     0.0000 </r>
       <r>    -7.2589     0.0000     0.0000 </r>
       <r>    -7.2275     0.0000     0.0000 </r>
       <r>    -7.1961     0.0000     0.0000 </r>
       <r>    -7.1647     0.0000     0.0000 </r>
       <r>    -7.1333     0.0000     0.0000 </r>
       <r>    -7.1018     0.0000     0.0000 </r>
       <r>    -7.0704     0.0000     0.0000 </r>
       <r>    -7.0390     0.0000     0.0000 </r>
       <r>    -7.0076     0.0000     0.0000 </r>
       <r>    -6.9762     0.0000     0.0000 </r>
       <r>    -6.9448     0.0000     0.0000 </r>
       <r>    -6.9134     0.0000     0.0000 </r>
       <r>    -6.8819     0.0000     0.0000 </r>
       <r>    -6.8505     0.0000     0.0000 </r>
       <r>    -6.8191     0.0000     0.0000 </r>
       <r>    -6.7877     0.0000     0.0000 </r>
       <r>    -6.7563     0.0000     0.0000 </r>
       <r>    -6.7249     0.0000     0.0000 </r>
       <r>    -6.6934     0.0000     0.0000 </r>
       <r>    -6.6620     0.0000     0.0000 </r>
       <r>    -6.6306     0.0000     0.0000 </r>
       <r>    -6.5992     0.0000     0.0000 </r>
       <r>    -6.5678     0.0000     0.0000 </r>
       <r>    -6.5364     0.0000     0.0000 </r>
       <r>    -6.5050     0.0000     0.0000 </r>
       <r>    -6.4735     0.0000     0.0000 </r>
       <r>    -6.4421     0.0000     0.0000 </r>
       <r>    -6.4107     0.0000     0.0000 </r>
       <r>    -6.3793     0.0000     0.0000 </r>
       <r>    -6.3479     0.0000     0.0000 </r>
       <r>    -6.3165     0.0000     0.0000 </r>
       <r>    -6.2850     0.0000     0.0000 </r>
       <r>    -6.2536     0.0000     0.0000 </r>
       <r>    -6.2222     0.0000     0.0000 </r>
       <r>    -6.1908     0.0000     0.0000 </r>
       <r>    -6.1594     0.0000     0.0000 </r>
       <r>    -6.1280     0.0000     0.0000 </r>
       <r>    -6.0965     0.0000     0.0000 </r>
       <r>    -6.0651     0.0000     0.0000 </r>
       <r>    -6.0337     0.0000     0.0000 </r>
       <r>    -6.0023     0.0000     0.0000 </r>
       <r>    -5.9709     0.0000     0.0000 </r>
       <r>    -5.9395     0.0000     0.0000 </r>
       <r>    -5.9081     0.0000     0.0000 </r>
       <r>    -5.8766     0.0000     0.0000 </r>
       <r>    -5.8452     0.0000     0.0000 </r>
       <r>    -5.8138     0.0000     0.0000 </r>
       <r>    -5.7824     0.0000     0.0000 </r>
       <r>    -5.7510     0.0000     0.0000 </r>
       <r>    -5.7196     0.0000     0.0000 </r>
       <r>    -5.6881     0.0000     0.0000 </r>
       <r>    -5.6567     0.0000     0.0000 </r>
       <r>    -5.6253     0.0000     0.0000 </r>
       <r>    -5.5939     0.0000     0.0000 </r>
       <r>    -5.5625     0.0000     0.0000 </r>
       <r>    -5.5311     0.0000     0.0000 </r>
       <r>    -5.4997     0.0000     0.0000 </r>
       <r>    -5.4682     0.0000     0.0000 </r>
       <r>    -5.4368     0.0000     0.0000 </r>
       <r>    -5.4054     0.0000     0.0000 </r>
       <r>    -5.3740     0.0000     0.0000 </r>
       <r>    -5.3426     0.0000     0.0000 </r>
       <r>    -5.3112     0.0000     0.0000 </r>
       <r>    -5.2797     0.0000     0.0000 </r>
       <r>    -5.2483     0.0000     0.0000 </r>
       <r>    -5.2169     0.0000     0.0000 </r>
       <r>    -5.1855     0.0000     0.0000 </r>
       <r>    -5.1541     0.0000     0.0000 </r>
       <r>    -5.1227     0.0000     0.0000 </r>
       <r>    -5.0913     0.0000     0.0000 </r>
       <r>    -5.0598     0.0000     0.0000 </r>
       <r>    -5.0284     0.0000     0.0000 </r>
       <r>    -4.9970     0.0000     0.0000 </r>
       <r>    -4.9656     0.0000     0.0000 </r>
       <r>    -4.9342     0.0000     0.0000 </r>
       <r>    -4.9028     0.0000     0.0000 </r>
       <r>    -4.8713     0.0000     0.0000 </r>
       <r>    -4.8399     0.0000     0.0000 </r>
       <r>    -4.8085     0.0000     0.0000 </r>
       <r>    -4.7771     0.0000     0.0000 </r>
       <r>    -4.7457     0.0000     0.0000 </r>
       <r>    -4.7143     0.0000     0.0000 </r>
       <r>    -4.6828     0.0000     0.0000 </r>
       <r>    -4.6514     0.0000     0.0000 </r>
       <r>    -4.6200     0.0000     0.0000 </r>
       <r>    -4.5886     0.0000     0.0000 </r>
       <r>    -4.5572     0.0000     0.0000 </r>
       <r>    -4.5258     0.0000     0.0000 </r>
       <r>    -4.4944     0.0000     0.0000 </r>
       <r>    -4.4629     0.0000     0.0000 </r>
       <r>    -4.4315     0.0000     0.0000 </r>
       <r>    -4.4001     0.0000     0.0000 </r>
       <r>    -4.3687     0.0000     0.0000 </r>
       <r>    -4.3373     0.0000     0.0000 </r>
       <r>    -4.3059     0.0000     0.0000 </r>
       <r>    -4.2744     0.0000     0.0000 </r>
       <r>    -4.2430     0.0000     0.0000 </r>
       <r>    -4.2116     0.0000     0.0000 </r>
       <r>    -4.1802     0.0000     0.0000 </r>
       <r>    -4.1488     0.0000     0.0000 </r>
       <r>    -4.1174     0.0000     0.0000 </r>
       <r>    -4.0860     0.0000     0.0000 </r>
       <r>    -4.0545     0.0000     0.0000 </r>
       <r>    -4.0231     0.0000     0.0000 </r>
       <r>    -3.9917     0.0000     0.0000 </r>
       <r>    -3.9603     0.0000     0.0000 </r>
       <r>    -3.9289     0.0000     0.0000 </r>
       <r>    -3.8975     0.0000     0.0000 </r>
       <r>    -3.8660     0.0000     0.0000 </r>
       <r>    -3.8346     0.0000     0.0000 </r>
       <r>    -3.8032     0.0000     0.0000 </r>
       <r>    -3.7718     0.0000     0.0000 </r>
       <r>    -3.7404     0.0000     0.0000 </r>
       <r>    -3.7090     0.0000     0.0000 </r>
       <r>    -3.6775     0.0000     0.0000 </r>
       <r>    -3.6461     0.0000     0.0000 </r>
       <r>    -3.6147     0.0000     0.0000 </r>
       <r>    -3.5833     0.0000     0.0000 </r>
       <r>    -3.5519     0.0000     0.0000 </r>
       <r>    -3.5205     0.0000     0.0000 </r>
       <r>    -3.4891     0.0000     0.0000 </r>
       <r>    -3.4576     0.0000     0.0000 </r>
       <r>    -3.4262     0.0000     0.0000 </r>
       <r>    -3.3948     0.0000     0.0000 </r>
       <r>    -3.3634     0.0000     0.0000 </r>
       <r>    -3.3320     0.0000     0.0000 </r>
       <r>    -3.3006     0.0000     0.0000 </r>
       <r>    -3.2691     0.0000     0.0000 </r>
       <r>    -3.2377     0.0000     0.0000 </r>
       <r>    -3.2063     0.0000     0.0000 </r>
       <r>    -3.1749     0.0000     0.0000 </r>
       <r>    -3.1435     0.0000     0.0000 </r>
       <r>    -3.1121     0.0000     0.0000 </r>
       <r>    -3.0807     0.0000     0.0000 </r>
       <r>    -3.0492     0.0000     0.0000 </r>
       <r>    -3.0178     0.0000     0.0000 </r>
       <r>    -2.9864     0.0000     0.0000 </r>
       <r>    -2.9550     0.0000     0.0000 </r>
       <r>    -2.9236     0.0000     0.0000 </r>
       <r>    -2.8922     0.0000     0.0000 </r>
       <r>    -2.8607     0.0000     0.0000 </r>
       <r>    -2.8293     0.0000     0.0000 </r>
       <r>    -2.7979     0.0000     0.0000 </r>
       <r>    -2.7665     0.0000     0.0000 </r>
       <r>    -2.7351     0.0000     0.0000 </r>
       <r>    -2.7037     0.0000     0.0000 </r>
       <r>    -2.6722     0.0000     0.0000 </r>
       <r>    -2.6408     0.0000     0.0000 </r>
       <r>    -2.6094     0.0000     0.0000 </r>
       <r>    -2.5780     0.0000     0.0000 </r>
       <r>    -2.5466     0.0000     0.0000 </r>
       <r>    -2.5152     0.0000     0.0000 </r>
       <r>    -2.4838     0.0000     0.0000 </r>
       <r>    -2.4523     0.0000     0.0000 </r>
       <r>    -2.4209     0.0000     0.0000 </r>
       <r>    -2.3895     0.0000     0.0000 </r>
       <r>    -2.3581     0.0000     0.0000 </r>
       <r>    -2.3267     0.0000     0.0000 </r>
       <r>    -2.2953     0.0000     0.0000 </r>
       <r>    -2.2638     0.0000     0.0000 </r>
       <r>    -2.2324     0.0000     0.0000 </r>
       <r>    -2.2010     0.0000     0.0000 </r>
       <r>    -2.1696     0.0000     0.0000 </r>
       <r>    -2.1382     0.0000     0.0000 </r>
       <r>    -2.1068     0.0000     0.0000 </r>
       <r>    -2.0754     0.0000     0.0000 </r>
       <r>    -2.0439     0.0000     0.0000 </r>
       <r>    -2.0125     0.0000     0.0000 </r>
       <r>    -1.9811     0.0000     0.0000 </r>
       <r>    -1.9497     0.0000     0.0000 </r>
       <r>    -1.9183     0.0000     0.0000 </r>
       <r>    -1.8869     0.0000     0.0000 </r>
       <r>    -1.8554     0.0000     0.0000 </r>
       <r>    -1.8240     0.0000     0.0000 </r>
       <r>    -1.7926     0.0000     0.0000 </r>
       <r>    -1.7612     0.0000     0.0000 </r>
       <r>    -1.7298     0.0000     0.0000 </r>
       <r>    -1.6984     0.0000     0.0000 </r>
       <r>    -1.6669     0.0000     0.0000 </r>
       <r>    -1.6355     0.0000     0.0000 </r>
       <r>    -1.6041     0.0000     0.0000 </r>
       <r>    -1.5727     0.0000     0.0000 </r>
       <r>    -1.5413     0.0000     0.0000 </r>
       <r>    -1.5099     0.0000     0.0000 </r>
       <r>    -1.4785     0.0000     0.0000 </r>
       <r>    -1.4470     0.0000     0.0000 </r>
       <r>    -1.4156     0.0000     0.0000 </r>
       <r>    -1.3842     0.0000     0.0000 </r>
       <r>    -1.3528     0.0000     0.0000 </r>
       <r>    -1.3214     0.0000     0.0000 </r>
       <r>    -1.2900     0.0000     0.0000 </r>
       <r>    -1.2585     0.0000     0.0000 </r>
       <r>    -1.2271     0.0000     0.0000 </r>
       <r>    -1.1957     0.0000     0.0000 </r>
       <r>    -1.1643     0.0000     0.0000 </r>
       <r>    -1.1329     0.0000     0.0000 </r>
       <r>    -1.1015     0.0000     0.0000 </r>
       <r>    -1.0701     0.0000     0.0000 </r>
       <r>    -1.0386     0.0000     0.0000 </r>
       <r>    -1.0072     0.0000     0.0000 </r>
       <r>    -0.9758     0.0000     0.0000 </r>
       <r>    -0.9444     0.0000     0.0000 </r>
       <r>    -0.9130     0.0000     0.0000 </r>
       <r>    -0.8816     0.0000     0.0000 </r>
       <r>    -0.8501     0.0000     0.0000 </r>
       <r>    -0.8187     0.0000     0.0000 </r>
       <r>    -0.7873     0.0000     0.0000 </r>
       <r>    -0.7559     0.0000     0.0000 </r>
       <r>    -0.7245     0.0000     0.0000 </r>
       <r>    -0.6931     0.0000     0.0000 </r>
       <r>    -0.6616     0.0000     0.0000 </r>
       <r>    -0.6302     0.0000     0.0000 </r>
       <r>    -0.5988     0.0000     0.0000 </r>
       <r>    -0.5674     0.0000     0.0000 </r>
       <r>    -0.5360     0.0000     0.0000 </r>
       <r>    -0.5046     0.0000     0.0000 </r>
       <r>    -0.4732     0.0000     0.0000 </r>
       <r>    -0.4417     0.0000     0.0000 </r>
       <r>    -0.4103     0.0000     0.0000 </r>
       <r>    -0.3789     0.0000     0.0000 </r>
       <r>    -0.3475     0.0000     0.0000 </r>
       <r>    -0.3161     0.0000     0.0000 </r>
       <r>    -0.2847     0.0000     0.0000 </r>
       <r>    -0.2532     0.0000     0.0000 </r>
       <r>    -0.2218     0.0000     0.0000 </r>
       <r>    -0.1904     0.0000     0.0000 </r>
       <r>    -0.1590     0.0000     0.0000 </r>
       <r>    -0.1276     0.0000     0.0000 </r>
       <r>    -0.0962     0.0004     0.0000 </r>
       <r>    -0.0648     0.7211     0.0227 </r>
       <r>    -0.0333    17.9641     0.5870 </r>
       <r>    -0.0019    12.9128     0.9927 </r>
       <r>     0.0295     0.2329     1.0000 </r>
       <r>     0.0609     0.0000     1.0000 </r>
       <r>     0.0923     0.0000     1.0000 </r>
       <r>     0.1237     0.0000     1.0000 </r>
       <r>     0.1552     0.0000     1.0000 </r>
       <r>     0.1866     0.0000     1.0000 </r>
       <r>     0.2180     0.0000     1.0000 </r>
       <r>     0.2494     0.0000     1.0000 </r>
       <r>     0.2808     0.0000     1.0000 </r>
       <r>     0.3122     0.0000     1.0000 </r>
       <r>     0.3437     0.0006     1.0000 </r>
       <r>     0.3751     1.5315     1.0481 </r>
       <r>     0.4065    58.5787     2.8884 </r>
       <r>     0.4379    90.6628     5.7366 </r>
       <r>     0.4693     8.3823     6.0000 </r>
       <r>     0.5007     4.9682     6.1561 </r>
       <r>     0.5321    23.2662     6.8870 </r>
       <r>     0.5636     3.5880     6.9997 </r>
       <r>     0.5950     0.0095     7.0000 </r>
       <r>     0.6264     0.0000     7.0000 </r>
       <r>     0.6578     0.0000     7.0000 </r>
       <r>     0.6892     0.0000     7.0000 </r>
       <r>     0.7206     0.0000     7.0000 </r>
       <r>     0.7521     0.0000     7.0000 </r>
       <r>     0.7835     0.0000     7.0000 </r>
       <r>     0.8149     0.3086     7.0097 </r>
       <r>     0.8463    34.5609     8.0954 </r>
       <r>     0.8777    85.9471    10.7955 </r>
       <r>     0.9091    43.6308    12.1662 </r>
       <r>     0.9405   111.1692    15.6587 </r>
       <r>     0.9720    10.8483    15.9995 </r>
       <r>     1.0034     0.0168    16.0000 </r>
       <r>     1.0348     0.0000    16.0000 </r>
       <r>     1.0662     0.0000    16.0000 </r>
       <r>     1.0976     0.0000    16.0000 </r>
       <r>     1.1290     0.0000    16.0000 </r>
       <r>     1.1605     0.0000    16.0000 </r>
       <r>     1.1919     0.0000    16.0000 </r>
       <r>     1.2233     0.0000    16.0000 </r>
       <r>     1.2547     0.0000    16.0000 </r>
       <r>     1.2861     0.0000    16.0000 </r>
       <r>     1.3175     0.0000    16.0000 </r>
       <r>     1.3489     0.0000    16.0000 </r>
      </set>
     </set>
    </array>
   </total>
   <partial>
    <array>
     <dimension dim="1">gridpoints</dimension>
     <dimension dim="2">spin</dimension>
     <dimension dim="3">ion</dimension>
     <field>energy</field>
     <field>  s</field>
     <field>  p</field>
     <field>  d</field>
     <set>
      <set comment="ion 1">
       <set comment="spin 1">
        <r>    -8.0757     0.0000     0.0000     0.0000 </r>
        <r>    -8.0443     0.0000     0.0000     0.0000 </r>
        <r>    -8.0129     0.0000     0.0000     0.0000 </r>
        <r>    -7.9815     0.0000     0.0000     0.0000 </r>
        <r>    -7.9501     0.0000     0.0000     0.0000 </r>
        <r>    -7.9187     0.0000     0.0000     0.0000 </r>
        <r>    -7.8872     0.0000     0.0000     0.0000 </r>
        <r>    -7.8558     0.0000     0.0000     0.0000 </r>
        <r>    -7.8244     0.0000     0.0000     0.0000 </r>
        <r>    -7.7930     0.0000     0.0000     0.0000 </r>
        <r>    -7.7616     0.0000     0.0000     0.0000 </r>
        <r>    -7.7302     0.0000     0.0000     0.0000 </r>
        <r>    -7.6987     0.0017     0.0000     0.0000 </r>
        <r>    -7.6673     0.9545     0.0000     0.0000 </r>
        <r>    -7.6359     8.6430     0.0000     0.0000 </r>
        <r>    -7.6045     2.5308     0.0000     0.0000 </r>
        <r>    -7.5731     0.0149     0.0000     0.0000 </r>
        <r>    -7.5417     0.0000     0.0000     0.0000 </r>
        <r>    -7.5103     0.0000     0.0000     0.0000 </r>
        <r>    -7.4788     0.0000     0.0000     0.0000 </r>
        <r>    -7.4474     0.0000     0.0000     0.0000 </r>
        <r>    -7.4160     0.0000     0.0000     0.0000 </r>
        <r>    -7.3846     0.0000     0.0000     0.0000 </r>
        <r>    -7.3532     0.0000     0.0000     0.0000 </r>
        <r>    -7.3218     0.0000     0.0000     0.0000 </r>
        <r>    -7.2903     0.0000     0.0000     0.0000 </r>
        <r>    -7.2589     0.0000     0.0000     0.0000 </r>
        <r>    -7.2275     0.0000     0.0000     0.0000 </r>
        <r>    -7.1961     0.0000     0.0000     0.0000 </r>
        <r>    -7.1647     0.0000     0.0000     0.0000 </r>
        <r>    -7.1333     0.0000     0.0000     0.0000 </r>
        <r>    -7.1018     0.0000     0.0000     0.0000 </r>
        <r>    -7.0704     0.0000     0.0000     0.0000 </r>
        <r>    -7.0390     0.0000     0.0000     0.0000 </r>
        <r>    -7.0076     0.0000     0.0000     0.0000 </r>
        <r>    -6.9762     0.0000     0.0000     0.0000 </r>
        <r>    -6.9448     0.0000     0.0000     0.0000 </r>
        <r>    -6.9134     0.0000     0.0000     0.0000 </r>
        <r>    -6.8819     0.0000     0.0000     0.0000 </r>
        <r>    -6.8505     0.0000     0.0000     0.0000 </r>
        <r>    -6.8191     0.0000     0.0000     0.0000 </r>
        <r>    -6.7877     0.0000     0.0000     0.0000 </r>
        <r>    -6.7563     0.0000     0.0000     0.0000 </r>
        <r>    -6.7249     0.0000     0.0000     0.0000 </r>
        <r>    -6.6934     0.0000     0.0000     0.0000 </r>
        <r>    -6.6620     0.0000     0.0000     0.0000 </r>
        <r>    -6.6306     0.0000     0.0000     0.0000 </r>
        <r>    -6.5992     0.0000     0.0000     0.0000 </r>
        <r>    -6.5678     0.0000     0.0000     0.0000 </r>
        <r>    -6.5364     0.0000     0.0000     0.0000 </r>
        <r>    -6.5050     0.0000     0.0000     0.0000 </r>
        <r>    -6.4735     0.0000     0.0000     0.0000 </r>
        <r>    -6.4421     0.0000     0.0000     0.0000 </r>
        <r>    -6.4107     0.0000     0.0000     0.0000 </r>
        <r>    -6.3793     0.0000     0.0000     0.0000 </r>
        <r>    -6.3479     0.0000     0.0000     0.0000 </r>
        <r>    -6.3165     0.0000     0.0000     0.0000 </r>
        <r>    -6.2850     0.0000     0.0000     0.0000 </r>
        <r>    -6.2536     0.0000     0.0000     0.0000 </r>
        <r>    -6.2222     0.0000     0.0000     0.0000 </r>
        <r>    -6.1908     0.0000     0.0000     0.0000 </r>
        <r>    -6.1594     0.0000     0.0000     0.0000 </r>
        <r>    -6.1280     0.0000     0.0000     0.0000 </r>
        <r>    -6.0965     0.0000     0.0000     0.0000 </r>
        <r>    -6.0651     0.0000     0.0000     0.0000 </r>
        <r>    -6.0337     0.0000     0.0000     0.0000 </r>
        <r>    -6.0023     0.0000     0.0000     0.0000 </r>
        <r>    -5.9709     0.0000     0.0000     0.0000 </r>
        <r>    -5.9395     0.0000     0.0000     0.0000 </r>
        <r>    -5.9081     0.0000     0.0000     0.0000 </r>
        <r>    -5.8766     0.0000     0.0000     0.0000 </r>
        <r>    -5.8452     0.0000     0.0000     0.0000 </r>
        <r>    -5.8138     0.0000     0.0000     0.0000 </r>
        <r>    -5.7824     0.0000     0.0000     0.0000 </r>
        <r>    -5.7510     0.0000     0.0000     0.0000 </r>
        <r>    -5.7196     0.0000     0.0000     0.0000 </r>
        <r>    -5.6881     0.0000     0.0000     0.0000 </r>
        <r>    -5.6567     0.0000     0.0000     0.0000 </r>
        <r>    -5.6253     0.0000     0.0000     0.0000 </r>
        <r>    -5.5939     0.0000     0.0000     0.0000 </r>
        <r>    -5.5625     0.0000     0.0000     0.0000 </r>
        <r>    -5.5311     0.0000     0.0000     0.0000 </r>
        <r>    -5.4997     0.0000     0.0000     0.0000 </r>
        <r>    -5.4682     0.0000     0.0000     0.0000 </r>
        <r>    -5.4368     0.0000     0.0000     0.0000 </r>
        <r>    -5.4054     0.0000     0.0000     0.0000 </r>
        <r>    -5.3740     0.0000     0.0000     0.0000 </r>
        <r>    -5.3426     0.0000     0.0000     0.0000 </r>
        <r>    -5.3112     0.0000     0.0000     0.0000 </r>
        <r>    -5.2797     0.0000     0.0000     0.0000 </r>
        <r>    -5.2483     0.0000     0.0000     0.0000 </r>
        <r>    -5.2169     0.0000     0.0000     0.0000 </r>
        <r>    -5.1855     0.0000     0.0000     0.0000 </r>
        <r>    -5.1541     0.0000     0.0000     0.0000 </r>
        <r>    -5.1227     0.0000     0.0000     0.0000 </r>
        <r>    -5.0913     0.0000     0.0000     0.0000 </r>
        <r>    -5.0598     0.0000     0.0000     0.0000 </r>
        <r>    -5.0284     0.0000     0.0000     0.0000 </r>
        <r>    -4.9970     0.0000     0.0000     0.0000 </r>
        <r>    -4.9656     0.0000     0.0000     0.0000 </r>
        <r>    -4.9342     0.0000     0.0000     0.0000 </r>
        <r>    -4.9028     0.0000     0.0000     0.0000 </r>
        <r>    -4.8713     0.0000     0.0000     0.0000 </r>
        <r>    -4.8399     0.0000     0.0000     0.0000 </r>
        <r>    -4.8085     0.0000     0.0000     0.0000 </r>
        <r>    -4.7771     0.0000     0.0000     0.0000 </r>
        <r>    -4.7457     0.0000     0.0000     0.0000 </r>
        <r>    -4.7143     0.0000     0.0000     0.0000 </r>
        <r>    -4.6828     0.0000     0.0000     0.0000 </r>
        <r>    -4.6514     0.0000     0.0000     0.0000 </r>
        <r>    -4.6200     0.0000     0.0000     0.0000 </r>
        <r>    -4.5886     0.0000     0.0000     0.0000 </r>
        <r>    -4.5572     0.0000     0.0000     0.0000 </r>
        <r>    -4.5258     0.0000     0.0000     0.0000 </r>
        <r>    -4.4944     0.0000     0.0000     0.0000 </r>
        <r>    -4.4629     0.0000     0.0000     0.0000 </r>
        <r>    -4.4315     0.0000     0.0000     0.0000 </r>
        <r>    -4.4001     0.0000     0.0000     0.0000 </r>
        <r>    -4.3687     0.0000     0.0000     0.0000 </r>
        <r>    -4.3373     0.0000     0.0000     0.0000 </r>
        <r>    -4.3059     0.0000     0.0000     0.0000 </r>
        <r>    -4.2744     0.0000     0.0000     0.0000 </r>
        <r>    -4.2430     0.0000     0.0000     0.0000 </r>
        <r>    -4.2116     0.0000     0.0000     0.0000 </r>
        <r>    -4.1802     0.0000     0.0000     0.0000 </r>
        <r>    -4.1488     0.0000     0.0000     0.0000 </r>
        <r>    -4.1174     0.0000     0.0000     0.0000 </r>
        <r>    -4.0860     0.0000     0.0000     0.0000 </r>
        <r>    -4.0545     0.0000     0.0000     0.0000 </r>
        <r>    -4.0231     0.0000     0.0000     0.0000 </r>
        <r>    -3.9917     0.0000     0.0000     0.0000 </r>
        <r>    -3.9603     0.0000     0.0000     0.0000 </r>
        <r>    -3.9289     0.0000     0.0000     0.0000 </r>
        <r>    -3.8975     0.0000     0.0000     0.0000 </r>
        <r>    -3.8660     0.0000     0.0000     0.0000 </r>
        <r>    -3.8346     0.0000     0.0000     0.0000 </r>
        <r>    -3.8032     0.0000     0.0000     0.0000 </r>
        <r>    -3.7718     0.0000     0.0000     0.0000 </r>
        <r>    -3.7404     0.0000     0.0000     0.0000 </r>
        <r>    -3.7090     0.0000     0.0000     0.0000 </r>
        <r>    -3.6775     0.0000     0.0000     0.0000 </r>
        <r>    -3.6461     0.0000     0.0000     0.0000 </r>
        <r>    -3.6147     0.0000     0.0000     0.0000 </r>
        <r>    -3.5833     0.0000     0.0000     0.0000 </r>
        <r>    -3.5519     0.0000     0.0000     0.0000 </r>
        <r>    -3.5205     0.0000     0.0000     0.0000 </r>
        <r>    -3.4891     0.0000     0.0000     0.0000 </r>
        <r>    -3.4576     0.0000     0.0000     0.0000 </r>
        <r>    -3.4262     0.0000     0.0000     0.0000 </r>
        <r>    -3.3948     0.0000     0.0000     0.0000 </r>
        <r>    -3.3634     0.0000     0.0000     0.0000 </r>
        <r>    -3.3320     0.0000     0.0000     0.0000 </r>
        <r>    -3.3006     0.0000     0.0000     0.0000 </r>
        <r>    -3.2691     0.0000     0.0000     0.0000 </r>
        <r>    -3.2377     0.0000     0.0000     0.0000 </r>
        <r>    -3.2063     0.0000     0.0000     0.0000 </r>
        <r>    -3.1749     0.0000     0.0000     0.0000 </r>
        <r>    -3.1435     0.0000     0.0000     0.0000 </r>
        <r>    -3.1121     0.0000     0.0000     0.0000 </r>
        <r>    -3.0807     0.0000     0.0000     0.0000 </r>
        <r>    -3.0492     0.0000     0.0000     0.0000 </r>
        <r>    -3.0178     0.0000     0.0000     0.0000 </r>
        <r>    -2.9864     0.0000     0.0000     0.0000 </r>
        <r>    -2.9550     0.0000     0.0000     0.0000 </r>
        <r>    -2.9236     0.0000     0.0000     0.0000 </r>
        <r>    -2.8922     0.0000     0.0000     0.0000 </r>
        <r>    -2.8607     0.0000     0.0000     0.0000 </r>
        <r>    -2.8293     0.0000     0.0000     0.0000 </r>
        <r>    -2.7979     0.0000     0.0000     0.0000 </r>
        <r>    -2.7665     0.0000     0.0000     0.0000 </r>
        <r>    -2.7351     0.0000     0.0000     0.0000 </r>
        <r>    -2.7037     0.0000     0.0000     0.0000 </r>
        <r>    -2.6722     0.0000     0.0000     0.0000 </r>
        <r>    -2.6408     0.0000     0.0000     0.0000 </r>
        <r>    -2.6094     0.0000     0.0000     0.0000 </r>
        <r>    -2.5780     0.0000     0.0000     0.0000 </r>
        <r>    -2.5466     0.0000     0.0000     0.0000 </r>
        <r>    -2.5152     0.0000     0.0000     0.0000 </r>
        <r>    -2.4838     0.0000     0.0000     0.0000 </r>
        <r>    -2.4523     0.0000     0.0000     0.0000 </r>
        <r>    -2.4209     0.0000     0.0000     0.0000 </r>
        <r>    -2.3895     0.0000     0.0000     0.0000 </r>
        <r>    -2.3581     0.0000     0.0000     0.0000 </r>
        <r>    -2.3267     0.0000     0.0000     0.0000 </r>
        <r>    -2.2953     0.0000     0.0000     0.0000 </r>
        <r>    -2.2638     0.0000     0.0000     0.0000 </r>
        <r>    -2.2324     0.0000     0.0000     0.0000 </r>
        <r>    -2.2010     0.0000     0.0000     0.0000 </r>
        <r>    -2.1696     0.0000     0.0000     0.0000 </r>
        <r>    -2.1382     0.0000     0.0000     0.0000 </r>
        <r>    -2.1068     0.0000     0.0000     0.0000 </r>
        <r>    -2.0754     0.0000     0.0000     0.0000 </r>
        <r>    -2.0439     0.0000     0.0000     0.0000 </r>
        <r>    -2.0125     0.0000     0.0000     0.0000 </r>
        <r>    -1.9811     0.0000     0.0000     0.0000 </r>
        <r>    -1.9497     0.0000     0.0000     0.0000 </r>
        <r>    -1.9183     0.0000     0.0000     0.0000 </r>
        <r>    -1.8869     0.0000     0.0000     0.0000 </r>
        <r>    -1.8554     0.0000     0.0000     0.0000 </r>
        <r>    -1.8240     0.0000     0.0000     0.0000 </r>
        <r>    -1.7926     0.0000     0.0000     0.0000 </r>
        <r>    -1.7612     0.0000     0.0000     0.0000 </r>
        <r>    -1.7298     0.0000     0.0000     0.0000 </r>
        <r>    -1.6984     0.0000     0.0000     0.0000 </r>
        <r>    -1.6669     0.0000     0.0000     0.0000 </r>
        <r>    -1.6355     0.0000     0.0000     0.0000 </r>
        <r>    -1.6041     0.0000     0.0000     0.0000 </r>
        <r>    -1.5727     0.0000     0.0000     0.0000 </r>
        <r>    -1.5413     0.0000     0.0000     0.0000 </r>
        <r>    -1.5099     0.0000     0.0000     0.0000 </r>
        <r>    -1.4785     0.0000     0.0000     0.0000 </r>
        <r>    -1.4470     0.0000     0.0000     0.0000 </r>
        <r>    -1.4156     0.0000     0.0000     0.0000 </r>
        <r>    -1.3842     0.0000     0.0000     0.0000 </r>
        <r>    -1.3528     0.0000     0.0000     0.0000 </r>
        <r>    -1.3214     0.0000     0.0000     0.0000 </r>
        <r>    -1.2900     0.0000     0.0000     0.0000 </r>
        <r>    -1.2585     0.0000     0.0000     0.0000 </r>
        <r>    -1.2271     0.0000     0.0000     0.0000 </r>
        <r>    -1.1957     0.0000     0.0000     0.0000 </r>
        <r>    -1.1643     0.0000     0.0000     0.0000 </r>
        <r>    -1.1329     0.0000     0.0000     0.0000 </r>
        <r>    -1.1015     0.0000     0.0000     0.0000 </r>
        <r>    -1.0701     0.0000     0.0000     0.0000 </r>
        <r>    -1.0386     0.0000     0.0000     0.0000 </r>
        <r>    -1.0072     0.0000     0.0000     0.0000 </r>
        <r>    -0.9758     0.0000     0.0000     0.0000 </r>
        <r>    -0.9444     0.0000     0.0000     0.0000 </r>
        <r>    -0.9130     0.0000     0.0000     0.0000 </r>
        <r>    -0.8816     0.0000     0.0000     0.0000 </r>
        <r>    -0.8501     0.0000     0.0000     0.0000 </r>
        <r>    -0.8187     0.0000     0.0000     0.0000 </r>
        <r>    -0.7873     0.0000     0.0000     0.0000 </r>
        <r>    -0.7559     0.0000     0.0000     0.0000 </r>
        <r>    -0.7245     0.0000     0.0000     0.0000 </r>
        <r>    -0.6931     0.0000     0.0000     0.0000 </r>
        <r>    -0.6616     0.0000     0.0000     0.0000 </r>
        <r>    -0.6302     0.0000     0.0000     0.0000 </r>
        <r>    -0.5988     0.0000     0.0000     0.0000 </r>
        <r>    -0.5674     0.0000     0.0000     0.0000 </r>
        <r>    -0.5360     0.0000     0.0000     0.0000 </r>
        <r>    -0.5046     0.0000     0.0000     0.0000 </r>
        <r>    -0.4732     0.0000     0.0000     0.0000 </r>
        <r>    -0.4417     0.0000     0.0000     0.0000 </r>
        <r>    -0.4103     0.0000     0.0000     0.0000 </r>
        <r>    -0.3789     0.0000     0.0000     0.0000 </r>
        <r>    -0.3475     0.0000     0.0000     0.0000 </r>
        <r>    -0.3161     0.0000     0.0000     0.0000 </r>
        <r>    -0.2847     0.0000     0.0000     0.0000 </r>
        <r>    -0.2532     0.0000     0.0000     0.0000 </r>
        <r>    -0.2218     0.0000     0.0000     0.0000 </r>
        <r>    -0.1904     0.0000     0.0000     0.0000 </r>
        <r>    -0.1590     0.0000     0.0000     0.0000 </r>
        <r>    -0.1276     0.0000     0.0000     0.0000 </r>
        <r>    -0.0962     0.0146     0.0000     0.0000 </r>
        <r>    -0.0648     0.1092     0.0000     0.0000 </r>
        <r>    -0.0333     0.0267     0.0000     0.0000 </r>
        <r>    -0.0019     0.0001     0.0000     0.0000 </r>
        <r>     0.0295     0.0000     0.0000     0.0000 </r>
        <r>     0.0609     0.0000     0.0000     0.0000 </r>
        <r>     0.0923     0.0000     0.0000     0.0000 </r>
        <r>     0.1237     0.0000     0.0000     0.0000 </r>
        <r>     0.1552     0.0000     0.0000     0.0000 </r>
        <r>     0.1866     0.0000     0.0000     0.0000 </r>
        <r>     0.2180     0.0002     0.0000     0.0000 </r>
        <r>     0.2494     0.0624     0.0000     0.0000 </r>
        <r>     0.2808     0.3559     0.0000     0.0000 </r>
        <r>     0.3122     0.0667     0.0024     0.0000 </r>
        <r>     0.3437     0.0002     0.0356     0.0000 </r>
        <r>     0.3751     0.0000     0.0163     0.0000 </r>
        <r>     0.4065     0.0000     0.0002     0.0000 </r>
        <r>     0.4379     0.0000     0.0000     0.0000 </r>
        <r>     0.4693     0.0000     0.0000     0.0000 </r>
        <r>     0.5007     0.0000     0.0000     0.0000 </r>
        <r>     0.5321     0.0000     0.0000     0.0000 </r>
        <r>     0.5636     0.0000     0.0000     0.0000 </r>
        <r>     0.5950     0.0000     0.0005     0.0000 </r>
        <r>     0.6264     0.0000     0.0309     0.0000 </r>
        <r>     0.6578     0.0000     0.0436     0.0000 </r>
        <r>     0.6892     0.0000     0.0018     0.0000 </r>
        <r>     0.7206     0.0000     0.0000     0.0000 </r>
        <r>     0.7521     0.0020     0.0000     0.0000 </r>
        <r>     0.7835     0.1182     0.0000     0.0000 </r>
        <r>     0.8149     0.1737     0.0000     0.0000 </r>
        <r>     0.8463     0.0074     0.0000     0.0000 </r>
        <r>     0.8777     0.0000     0.0000     0.0000 </r>
        <r>     0.9091     0.0000     0.0000     0.0000 </r>
        <r>     0.9405     0.0000     0.0000     0.0000 </r>
        <r>     0.9720     0.0000     0.0000     0.0000 </r>
        <r>     1.0034     0.0000     0.0000     0.0000 </r>
        <r>     1.0348     0.0000     0.0000     0.0000 </r>
        <r>     1.0662     0.0000     0.0000     0.0000 </r>
        <r>     1.0976     0.0000     0.0000     0.0000 </r>
        <r>     1.1290     0.0000     0.0000     0.0000 </r>
        <r>     1.1605     0.0000     0.0000     0.0000 </r>
        <r>     1.1919     0.0000     0.0000     0.0000 </r>
        <r>     1.2233     0.0000     0.0000     0.0000 </r>
        <r>     1.2547     0.0000     0.0000     0.0000 </r>
        <r>     1.2861     0.0000     0.0000     0.0000 </r>
        <r>     1.3175     0.0000     0.0000     0.0000 </r>
        <r>     1.3489     0.0000     0.0000     0.0000 </r>
       </set>
       <set comment="spin 2">
        <r>    -8.0757     0.0000     0.0000     0.0000 </r>
        <r>    -8.0443     0.0000     0.0000     0.0000 </r>
        <r>    -8.0129     0.0000     0.0000     0.0000 </r>
        <r>    -7.9815     0.0000     0.0000     0.0000 </r>
        <r>    -7.9501     0.0000     0.0000     0.0000 </r>
        <r>    -7.9187     0.0000     0.0000     0.0000 </r>
        <r>    -7.8872     0.0000     0.0000     0.0000 </r>
        <r>    -7.8558     0.0000     0.0000     0.0000 </r>
        <r>    -7.8244     0.0000     0.0000     0.0000 </r>
        <r>    -7.7930     0.0000     0.0000     0.0000 </r>
        <r>    -7.7616     0.0000     0.0000     0.0000 </r>
        <r>    -7.7302     0.0000     0.0000     0.0000 </r>
        <r>    -7.6987     0.0000     0.0000     0.0000 </r>
        <r>    -7.6673     0.0000     0.0000     0.0000 </r>
        <r>    -7.6359     0.0000     0.0000     0.0000 </r>
        <r>    -7.6045     0.0000     0.0000     0.0000 </r>
        <r>    -7.5731     0.0000     0.0000     0.0000 </r>
        <r>    -7.5417     0.0000     0.0000     0.0000 </r>
        <r>    -7.5103     0.0000     0.0000     0.0000 </r>
        <r>    -7.4788     0.0000     0.0000     0.0000 </r>
        <r>    -7.4474     0.0000     0.0000     0.0000 </r>
        <r>    -7.4160     0.0000     0.0000     0.0000 </r>
        <r>    -7.3846     0.0000     0.0000     0.0000 </r>
        <r>    -7.3532     0.0000     0.0000     0.0000 </r>
        <r>    -7.3218     0.0000     0.0000     0.0000 </r>
        <r>    -7.2903     0.0000     0.0000     0.0000 </r>
        <r>    -7.2589     0.0000     0.0000     0.0000 </r>
        <r>    -7.2275     0.0000     0.0000     0.0000 </r>
        <r>    -7.1961     0.0000     0.0000     0.0000 </r>
        <r>    -7.1647     0.0000     0.0000     0.0000 </r>
        <r>    -7.1333     0.0000     0.0000     0.0000 </r>
        <r>    -7.1018     0.0000     0.0000     0.0000 </r>
        <r>    -7.0704     0.0000     0.0000     0.0000 </r>
        <r>    -7.0390     0.0000     0.0000     0.0000 </r>
        <r>    -7.0076     0.0000     0.0000     0.0000 </r>
        <r>    -6.9762     0.0000     0.0000     0.0000 </r>
        <r>    -6.9448     0.0000     0.0000     0.0000 </r>
        <r>    -6.9134     0.0000     0.0000     0.0000 </r>
        <r>    -6.8819     0.0000     0.0000     0.0000 </r>
        <r>    -6.8505     0.0000     0.0000     0.0000 </r>
        <r>    -6.8191     0.0000     0.0000     0.0000 </r>
        <r>    -6.7877     0.0000     0.0000     0.0000 </r>
        <r>    -6.7563     0.0000     0.0000     0.0000 </r>
        <r>    -6.7249     0.0000     0.0000     0.0000 </r>
        <r>    -6.6934     0.0000     0.0000     0.0000 </r>
        <r>    -6.6620     0.0000     0.0000     0.0000 </r>
        <r>    -6.6306     0.0000     0.0000     0.0000 </r>
        <r>    -6.5992     0.0000     0.0000     0.0000 </r>
        <r>    -6.5678     0.0000     0.0000     0.0000 </r>
        <r>    -6.5364     0.0000     0.0000     0.0000 </r>
        <r>    -6.5050     0.0000     0.0000     0.0000 </r>
        <r>    -6.4735     0.0000     0.0000     0.0000 </r>
        <r>    -6.4421     0.0000     0.0000     0.0000 </r>
        <r>    -6.4107     0.0000     0.0000     0.0000 </r>
        <r>    -6.3793     0.0000     0.0000     0.0000 </r>
        <r>    -6.3479     0.0000     0.0000     0.0000 </r>
        <r>    -6.3165     0.0000     0.0000     0.0000 </r>
        <r>    -6.2850     0.0000     0.0000     0.0000 </r>
        <r>    -6.2536     0.0000     0.0000     0.0000 </r>
        <r>    -6.2222     0.0000     0.0000     0.0000 </r>
        <r>    -6.1908     0.0000     0.0000     0.0000 </r>
        <r>    -6.1594     0.0000     0.0000     0.0000 </r>
        <r>    -6.1280     0.0000     0.0000     0.0000 </r>
        <r>    -6.0965     0.0000     0.0000     0.0000 </r>
        <r>    -6.0651     0.0000     0.0000     0.0000 </r>
        <r>    -6.0337     0.0000     0.0000     0.0000 </r>
        <r>    -6.0023     0.0000     0.0000     0.0000 </r>
        <r>    -5.9709     0.0000     0.0000     0.0000 </r>
        <r>    -5.9395     0.0000     0.0000     0.0000 </r>
        <r>    -5.9081     0.0000     0.0000     0.0000 </r>
        <r>    -5.8766     0.0000     0.0000     0.0000 </r>
        <r>    -5.8452     0.0000     0.0000     0.0000 </r>
        <r>    -5.8138     0.0000     0.0000     0.0000 </r>
        <r>    -5.7824     0.0000     0.0000     0.0000 </r>
        <r>    -5.7510     0.0000     0.0000     0.0000 </r>
        <r>    -5.7196     0.0000     0.0000     0.0000 </r>
        <r>    -5.6881     0.0000     0.0000     0.0000 </r>
        <r>    -5.6567     0.0000     0.0000     0.0000 </r>
        <r>    -5.6253     0.0000     0.0000     0.0000 </r>
        <r>    -5.5939     0.0000     0.0000     0.0000 </r>
        <r>    -5.5625     0.0000     0.0000     0.0000 </r>
        <r>    -5.5311     0.0000     0.0000     0.0000 </r>
        <r>    -5.4997     0.0000     0.0000     0.0000 </r>
        <r>    -5.4682     0.0000     0.0000     0.0000 </r>
        <r>    -5.4368     0.0000     0.0000     0.0000 </r>
        <r>    -5.4054     0.0000     0.0000     0.0000 </r>
        <r>    -5.3740     0.0000     0.0000     0.0000 </r>
        <r>    -5.3426     0.0000     0.0000     0.0000 </r>
        <r>    -5.3112     0.0000     0.0000     0.0000 </r>
        <r>    -5.2797     0.0000     0.0000     0.0000 </r>
        <r>    -5.2483     0.0000     0.0000     0.0000 </r>
        <r>    -5.2169     0.0000     0.0000     0.0000 </r>
        <r>    -5.1855     0.0000     0.0000     0.0000 </r>
        <r>    -5.1541     0.0000     0.0000     0.0000 </r>
        <r>    -5.1227     0.0000     0.0000     0.0000 </r>
        <r>    -5.0913     0.0000     0.0000     0.0000 </r>
        <r>    -5.0598     0.0000     0.0000     0.0000 </r>
        <r>    -5.0284     0.0000     0.0000     0.0000 </r>
        <r>    -4.9970     0.0000     0.0000     0.0000 </r>
        <r>    -4.9656     0.0000     0.0000     0.0000 </r>
        <r>    -4.9342     0.0000     0.0000     0.0000 </r>
        <r>    -4.9028     0.0000     0.0000     0.0000 </r>
        <r>    -4.8713     0.0000     0.0000     0.0000 </r>
        <r>    -4.8399     0.0000     0.0000     0.0000 </r>
        <r>    -4.8085     0.0000     0.0000     0.0000 </r>
        <r>    -4.7771     0.0000     0.0000     0.0000 </r>
        <r>    -4.7457     0.0000     0.0000     0.0000 </r>
        <r>    -4.7143     0.0000     0.0000     0.0000 </r>
        <r>    -4.6828     0.0000     0.0000     0.0000 </r>
        <r>    -4.6514     0.0000     0.0000     0.0000 </r>
        <r>    -4.6200     0.0000     0.0000     0.0000 </r>
        <r>    -4.5886     0.0000     0.0000     0.0000 </r>
        <r>    -4.5572     0.0000     0.0000     0.0000 </r>
        <r>    -4.5258     0.0000     0.0000     0.0000 </r>
        <r>    -4.4944     0.0000     0.0000     0.0000 </r>
        <r>    -4.4629     0.0000     0.0000     0.0000 </r>
        <r>    -4.4315     0.0000     0.0000     0.0000 </r>
        <r>    -4.4001     0.0000     0.0000     0.0000 </r>
        <r>    -4.3687     0.0000     0.0000     0.0000 </r>
        <r>    -4.3373     0.0000     0.0000     0.0000 </r>
        <r>    -4.3059     0.0000     0.0000     0.0000 </r>
        <r>    -4.2744     0.0000     0.0000     0.0000 </r>
        <r>    -4.2430     0.0000     0.0000     0.0000 </r>
        <r>    -4.2116     0.0000     0.0000     0.0000 </r>
        <r>    -4.1802     0.0000     0.0000     0.0000 </r>
        <r>    -4.1488     0.0000     0.0000     0.0000 </r>
        <r>    -4.1174     0.0000     0.0000     0.0000 </r>
        <r>    -4.0860     0.0000     0.0000     0.0000 </r>
        <r>    -4.0545     0.0000     0.0000     0.0000 </r>
        <r>    -4.0231     0.0000     0.0000     0.0000 </r>
        <r>    -3.9917     0.0000     0.0000     0.0000 </r>
        <r>    -3.9603     0.0000     0.0000     0.0000 </r>
        <r>    -3.9289     0.0000     0.0000     0.0000 </r>
        <r>    -3.8975     0.0000     0.0000     0.0000 </r>
        <r>    -3.8660     0.0000     0.0000     0.0000 </r>
        <r>    -3.8346     0.0000     0.0000     0.0000 </r>
        <r>    -3.8032     0.0000     0.0000     0.0000 </r>
        <r>    -3.7718     0.0000     0.0000     0.0000 </r>
        <r>    -3.7404     0.0000     0.0000     0.0000 </r>
        <r>    -3.7090     0.0000     0.0000     0.0000 </r>
        <r>    -3.6775     0.0000     0.0000     0.0000 </r>
        <r>    -3.6461     0.0000     0.0000     0.0000 </r>
        <r>    -3.6147     0.0000     0.0000     0.0000 </r>
        <r>    -3.5833     0.0000     0.0000     0.0000 </r>
        <r>    -3.5519     0.0000     0.0000     0.0000 </r>
        <r>    -3.5205     0.0000     0.0000     0.0000 </r>
        <r>    -3.4891     0.0000     0.0000     0.0000 </r>
        <r>    -3.4576     0.0000     0.0000     0.0000 </r>
        <r>    -3.4262     0.0000     0.0000     0.0000 </r>
        <r>    -3.3948     0.0000     0.0000     0.0000 </r>
        <r>    -3.3634     0.0000     0.0000     0.0000 </r>
        <r>    -3.3320     0.0000     0.0000     0.0000 </r>
        <r>    -3.3006     0.0000     0.0000     0.0000 </r>
        <r>    -3.2691     0.0000     0.0000     0.0000 </r>
        <r>    -3.2377     0.0000     0.0000     0.0000 </r>
        <r>    -3.2063     0.0000     0.0000     0.0000 </r>
        <r>    -3.1749     0.0000     0.0000     0.0000 </r>
        <r>    -3.1435     0.0000     0.0000     0.0000 </r>
        <r>    -3.1121     0.0000     0.0000     0.0000 </r>
        <r>    -3.0807     0.0000     0.0000     0.0000 </r>
        <r>    -3.0492     0.0000     0.0000     0.0000 </r>
        <r>    -3.0178     0.0000     0.0000     0.0000 </r>
        <r>    -2.9864     0.0000     0.0000     0.0000 </r>
        <r>    -2.9550     0.0000     0.0000     0.0000 </r>
        <r>    -2.9236     0.0000     0.0000     0.0000 </r>
        <r>    -2.8922     0.0000     0.0000     0.0000 </r>
        <r>    -2.8607     0.0000     0.0000     0.0000 </r>
        <r>    -2.8293     0.0000     0.0000     0.0000 </r>
        <r>    -2.7979     0.0000     0.0000     0.0000 </r>
        <r>    -2.7665     0.0000     0.0000     0.0000 </r>
        <r>    -2.7351     0.0000     0.0000     0.0000 </r>
        <r>    -2.7037     0.0000     0.0000     0.0000 </r>
        <r>    -2.6722     0.0000     0.0000     0.0000 </r>
        <r>    -2.6408     0.0000     0.0000     0.0000 </r>
        <r>    -2.6094     0.0000     0.0000     0.0000 </r>
        <r>    -2.5780     0.0000     0.0000     0.0000 </r>
        <r>    -2.5466     0.0000     0.0000     0.0000 </r>
        <r>    -2.5152     0.0000     0.0000     0.0000 </r>
        <r>    -2.4838     0.0000     0.0000     0.0000 </r>
        <r>    -2.4523     0.0000     0.0000     0.0000 </r>
        <r>    -2.4209     0.0000     0.0000     0.0000 </r>
        <r>    -2.3895     0.0000     0.0000     0.0000 </r>
        <r>    -2.3581     0.0000     0.0000     0.0000 </r>
        <r>    -2.3267     0.0000     0.0000     0.0000 </r>
        <r>    -2.2953     0.0000     0.0000     0.0000 </r>
        <r>    -2.2638     0.0000     0.0000     0.0000 </r>
        <r>    -2.2324     0.0000     0.0000     0.0000 </r>
        <r>    -2.2010     0.0000     0.0000     0.0000 </r>
        <r>    -2.1696     0.0000     0.0000     0.0000 </r>
        <r>    -2.1382     0.0000     0.0000     0.0000 </r>
        <r>    -2.1068     0.0000     0.0000     0.0000 </r>
        <r>    -2.0754     0.0000     0.0000     0.0000 </r>
        <r>    -2.0439     0.0000     0.0000     0.0000 </r>
        <r>    -2.0125     0.0000     0.0000     0.0000 </r>
        <r>    -1.9811     0.0000     0.0000     0.0000 </r>
        <r>    -1.9497     0.0000     0.0000     0.0000 </r>
        <r>    -1.9183     0.0000     0.0000     0.0000 </r>
        <r>    -1.8869     0.0000     0.0000     0.0000 </r>
        <r>    -1.8554     0.0000     0.0000     0.0000 </r>
        <r>    -1.8240     0.0000     0.0000     0.0000 </r>
        <r>    -1.7926     0.0000     0.0000     0.0000 </r>
        <r>    -1.7612     0.0000     0.0000     0.0000 </r>
        <r>    -1.7298     0.0000     0.0000     0.0000 </r>
        <r>    -1.6984     0.0000     0.0000     0.0000 </r>
        <r>    -1.6669     0.0000     0.0000     0.0000 </r>
        <r>    -1.6355     0.0000     0.0000     0.0000 </r>
        <r>    -1.6041     0.0000     0.0000     0.0000 </r>
        <r>    -1.5727     0.0000     0.0000     0.0000 </r>
        <r>    -1.5413     0.0000     0.0000     0.0000 </r>
        <r>    -1.5099     0.0000     0.0000     0.0000 </r>
        <r>    -1.4785     0.0000     0.0000     0.0000 </r>
        <r>    -1.4470     0.0000     0.0000     0.0000 </r>
        <r>    -1.4156     0.0000     0.0000     0.0000 </r>
        <r>    -1.3842     0.0000     0.0000     0.0000 </r>
        <r>    -1.3528     0.0000     0.0000     0.0000 </r>
        <r>    -1.3214     0.0000     0.0000     0.0000 </r>
        <r>    -1.2900     0.0000     0.0000     0.0000 </r>
        <r>    -1.2585     0.0000     0.0000     0.0000 </r>
        <r>    -1.2271     0.0000     0.0000     0.0000 </r>
        <r>    -1.1957     0.0000     0.0000     0.0000 </r>
        <r>    -1.1643     0.0000     0.0000     0.0000 </r>
        <r>    -1.1329     0.0000     0.0000     0.0000 </r>
        <r>    -1.1015     0.0000     0.0000     0.0000 </r>
        <r>    -1.0701     0.0000     0.0000     0.0000 </r>
        <r>    -1.0386     0.0000     0.0000     0.0000 </r>
        <r>    -1.0072     0.0000     0.0000     0.0000 </r>
        <r>    -0.9758     0.0000     0.0000     0.0000 </r>
        <r>    -0.9444     0.0000     0.0000     0.0000 </r>
        <r>    -0.9130     0.0000     0.0000     0.0000 </r>
        <r>    -0.8816     0.0000     0.0000     0.0000 </r>
        <r>    -0.8501     0.0000     0.0000     0.0000 </r>
        <r>    -0.8187     0.0000     0.0000     0.0000 </r>
        <r>    -0.7873     0.0000     0.0000     0.0000 </r>
        <r>    -0.7559     0.0000     0.0000     0.0000 </r>
        <r>    -0.7245     0.0000     0.0000     0.0000 </r>
        <r>    -0.6931     0.0000     0.0000     0.0000 </r>
        <r>    -0.6616     0.0000     0.0000     0.0000 </r>
        <r>    -0.6302     0.0000     0.0000     0.0000 </r>
        <r>    -0.5988     0.0000     0.0000     0.0000 </r>
        <r>    -0.5674     0.0000     0.0000     0.0000 </r>
        <r>    -0.5360     0.0000     0.0000     0.0000 </r>
        <r>    -0.5046     0.0000     0.0000     0.0000 </r>
        <r>    -0.4732     0.0000     0.0000     0.0000 </r>
        <r>    -0.4417     0.0000     0.0000     0.0000 </r>
        <r>    -0.4103     0.0000     0.0000     0.0000 </r>
        <r>    -0.3789     0.0000     0.0000     0.0000 </r>
        <r>    -0.3475     0.0000     0.0000     0.0000 </r>
        <r>    -0.3161     0.0000     0.0000     0.0000 </r>
        <r>    -0.2847     0.0000     0.0000     0.0000 </r>
        <r>    -0.2532     0.0000     0.0000     0.0000 </r>
        <r>    -0.2218     0.0000     0.0000     0.0000 </r>
        <r>    -0.1904     0.0000     0.0000     0.0000 </r>
        <r>    -0.1590     0.0000     0.0000     0.0000 </r>
        <r>    -0.1276     0.0000     0.0000     0.0000 </r>
        <r>    -0.0962     0.0000     0.0000     0.0000 </r>
        <r>    -0.0648     0.0000     0.0000     0.0000 </r>
        <r>    -0.0333     0.0002     0.0000     0.0000 </r>
        <r>    -0.0019     0.0001     0.0000     0.0000 </r>
        <r>     0.0295     0.0000     0.0000     0.0000 </r>
        <r>     0.0609     0.0000     0.0000     0.0000 </r>
        <r>     0.0923     0.0000     0.0000     0.0000 </r>
        <r>     0.1237     0.0000     0.0000     0.0000 </r>
        <r>     0.1552     0.0000     0.0000     0.0000 </r>
        <r>     0.1866     0.0000     0.0000     0.0000 </r>
        <r>     0.2180     0.0000     0.0000     0.0000 </r>
        <r>     0.2494     0.0000     0.0000     0.0000 </r>
        <r>     0.2808     0.0000     0.0000     0.0000 </r>
        <r>     0.3122     0.0000     0.0000     0.0000 </r>
        <r>     0.3437     0.0000     0.0000     0.0000 </r>
        <r>     0.3751     0.0000     0.0000     0.0000 </r>
        <r>     0.4065     0.0000     0.0000     0.0000 </r>
        <r>     0.4379     0.0000     0.0000     0.0000 </r>
        <r>     0.4693     0.0000     0.0000     0.0000 </r>
        <r>     0.5007     0.0003     0.0000     0.0000 </r>
        <r>     0.5321     0.0012     0.0000     0.0000 </r>
        <r>     0.5636     0.0002     0.0000     0.0000 </r>
        <r>     0.5950     0.0000     0.0000     0.0000 </r>
        <r>     0.6264     0.0000     0.0000     0.0000 </r>
        <r>     0.6578     0.0000     0.0000     0.0000 </r>
        <r>     0.6892     0.0000     0.0000     0.0000 </r>
        <r>     0.7206     0.0000     0.0000     0.0000 </r>
        <r>     0.7521     0.0000     0.0000     0.0000 </r>
        <r>     0.7835     0.0000     0.0000     0.0000 </r>
        <r>     0.8149     0.0000     0.0000     0.0000 </r>
        <r>     0.8463     0.0000     0.0000     0.0000 </r>
        <r>     0.8777     0.0000     0.0000     0.0000 </r>
        <r>     0.9091     0.0000     0.0000     0.0000 </r>
        <r>     0.9405     0.0000     0.0001     0.0000 </r>
        <r>     0.9720     0.0000     0.0000     0.0000 </r>
        <r>     1.0034     0.0000     0.0000     0.0000 </r>
        <r>     1.0348     0.0000     0.0000     0.0000 </r>
        <r>     1.0662     0.0000     0.0000     0.0000 </r>
        <r>     1.0976     0.0000     0.0000     0.0000 </r>
        <r>     1.1290     0.0000     0.0000     0.0000 </r>
        <r>     1.1605     0.0000     0.0000     0.0000 </r>
        <r>     1.1919     0.0000     0.0000     0.0000 </r>
        <r>     1.2233     0.0000     0.0000     0.0000 </r>
        <r>     1.2547     0.0000     0.0000     0.0000 </r>
        <r>     1.2861     0.0000     0.0000     0.0000 </r>
        <r>     1.3175     0.0000     0.0000     0.0000 </r>
        <r>     1.3489     0.0000     0.0000     0.0000 </r>
       </set>
      </set>
     </set>
    </array>
   </partial>
  </dos>
  <projected>
   <eigenvalues>
    <array>
     <dimension dim="1">band</dimension>
     <dimension dim="2">kpoint</dimension>
     <dimension dim="3">spin</dimension>
     <field>eigene</field>
     <field>occ</field>
     <set>
      <set comment="spin 1">
       <set comment="kpoint 1">
        <r>   -7.6473    1.0000 </r>
        <r>   -0.0778    0.0000 </r>
        <r>    0.2654    0.0000 </r>
        <r>    0.3363    0.0000 </r>
        <r>    0.3363    0.0000 </r>
        <r>    0.3363    0.0000 </r>
        <r>    0.4134    0.0000 </r>
        <r>    0.4134    0.0000 </r>
        <r>    0.6296    0.0000 </r>
        <r>    0.6296    0.0000 </r>
        <r>    0.6296    0.0000 </r>
        <r>    0.7871    0.0000 </r>
        <r>    0.8731    0.0000 </r>
        <r>    0.8731    0.0000 </r>
        <r>    0.8965    0.0000 </r>
        <r>    0.8965    0.0000 </r>
       </set>
      </set>
      <set comment="spin 2">
       <set comment="kpoint 1">
        <r>   -0.0364    0.0000 </r>
        <r>    0.4055    0.0000 </r>
        <r>    0.4055    0.0000 </r>
        <r>    0.4055    0.0000 </r>
        <r>    0.4209    0.0000 </r>
        <r>    0.4209    0.0000 </r>
        <r>    0.5150    0.0000 </r>
        <r>    0.8531    0.0000 </r>
        <r>    0.8554    0.0000 </r>
        <r>    0.8554    0.0000 </r>
        <r>    0.8554    0.0000 </r>
        <r>    0.9187    0.0000 </r>
        <r>    0.9187    0.0000 </r>
        <r>    0.9187    0.0000 </r>
        <r>    0.9206    0.0000 </r>
        <r>    0.9206    0.0000 </r>
       </set>
      </set>
     </set>
    </array>
   </eigenvalues>
   <array>
    <dimension dim="1">ion</dimension>
    <dimension dim="2">band</dimension>
    <dimension dim="3">kpoint</dimension>
    <dimension dim="4">spin</dimension>
    <field>  s</field>
    <field>  p</field>
    <field>  d</field>
    <set>
     <set comment="spin1">
      <set comment="kpoint 1">
       <set comment="band 1">
        <r>  0.3815  0.0000  0.0000 </r>
       </set>
       <set comment="band 2">
        <r>  0.0047  0.0000  0.0000 </r>
       </set>
       <set comment="band 3">
        <r>  0.0152  0.0000  0.0000 </r>
       </set>
       <set comment="band 4">
        <r>  0.0000  0.0006  0.0000 </r>
       </set>
       <set comment="band 5">
        <r>  0.0000  0.0006  0.0000 </r>
       </set>
       <set comment="band 6">
        <r>  0.0000  0.0006  0.0000 </r>
       </set>
       <set comment="band 7">
        <r>  0.0000  0.0000  0.0000 </r>
       </set>
       <set comment="band 8">
        <r>  0.0000  0.0000  0.0000 </r>
       </set>
       <set comment="band 9">
        <r>  0.0000  0.0008  0.0000 </r>
       </set>
       <set comment="band 10">
        <r>  0.0000  0.0008  0.0000 </r>
       </set>
       <set comment="band 11">
        <r>  0.0000  0.0008  0.0000 </r>
       </set>
       <set comment="band 12">
        <r>  0.0095  0.0000  0.0000 </r>
       </set>
       <set comment="band 13">
        <r>  0.0000  0.0000  0.0000 </r>
       </set>
       <set comment="band 14">
        <r>  0.0000  0.0000  0.0000 </r>
       </set>
       <set comment="band 15">
        <r>  0.0000  0.0000  0.0000 </r>
       </set>
       <set comment="band 16">
        <r>  0.0000  0.0000  0.0000 </r>
       </set>
      </set>
     </set>
     <set comment="spin2">
      <set comment="kpoint 1">
       <set comment="band 1">
        <r>  0.0000  0.0000  0.0000 </r>
       </set>
       <set comment="band 2">
        <r>  0.0000  0.0000  0.0000 </r>
       </set>
       <set comment="band 3">
        <r>  0.0000  0.0000  0.0000 </r>
       </set>
       <set comment="band 4">
        <r>  0.0000  0.0000  0.0000 </r>
       </set>
       <set comment="band 5">
        <r>  0.0000  0.0000  0.0000 </r>
       </set>
       <set comment="band 6">
        <r>  0.0000  0.0000  0.0000 </r>
       </set>
       <set comment="band 7">
        <r>  0.0001  0.0000  0.0000 </r>
       </set>
       <set comment="band 8">
        <r>  0.0000  0.0000  0.0000 </r>
       </set>
       <set comment="band 9">
        <r>  0.0000  0.0000  0.0000 </r>
       </set>
       <set comment="band 10">
        <r>  0.0000  0.0000  0.0000 </r>
       </set>
       <set comment="band 11">
        <r>  0.0000  0.0000  0.0000 </r>
       </set>
       <set comment="band 12">
        <r>  0.0000  0.0000  0.0000 </r>
       </set>
       <set comment="band 13">
        <r>  0.0000  0.0000  0.0000 </r>
       </set>
       <set comment="band 14">
        <r>  0.0000  0.0000  0.0000 </r>
       </set>
       <set comment="band 15">
        <r>  0.0000  0.0000  0.0000 </r>
       </set>
       <set comment="band 16">
        <r>  0.0000  0.0000  0.0000 </r>
       </set>
      </set>
     </set>
    </set>
   </array>
  </projected>
 </calculation>
 <structure name="finalpos" >
  <crystal>
   <varray name="basis" >
    <v>      18.00000000       0.00000000       0.00000000 </v>
    <v>       0.00000000      18.00000000       0.00000000 </v>
    <v>       0.00000000       0.00000000      18.00000000 </v>
   </varray>
   <i name="volume">   5832.00000000 </i>
   <varray name="rec_basis" >
    <v>       0.05555556       0.00000000       0.00000000 </v>
    <v>       0.00000000       0.05555556       0.00000000 </v>
    <v>       0.00000000       0.00000000       0.05555556 </v>
   </varray>
  </crystal>
  <varray name="positions" >
   <v>       0.50000000       0.50000000       0.50000000 </v>
  </varray>
  <varray name="selective"  type="logical" >
   <v type="logical" >  T  T  T </v>
  </varray>
  <nose>
   <v>      -3.00000000       0.00000000       0.00010000       0.00010000 </v>
  </nose>
 </structure>
</modeling>
