LaCoO3                                  
           1
    18.000000    0.000000    0.000000
     0.000000   18.000000    0.000000
     0.000000    0.000000   18.000000
   H 
   1
Direct configuration=     1
   0.50000000  0.50000000  0.50000000
