----- GAMESS execution script 'rungms' -----
This job is running on host dftfe.crc.nd.edu
under operating system Linux at Thu Feb 26 00:19:42 EST 2015
Available scratch disk space (Kbyte units) at beginning of the job is
Filesystem     1K-blocks     Used Available Use% Mounted on
/dev/sda2      147771864 22815904 117449528  17% /
GAMESS temporary binary files will be written to /tmp
GAMESS supplementary output files will be written to /tmp
Copying input file gamess.inp to your run's scratch directory...

 Distributed Data Interface kickoff program.
 Initiating 1 compute processes on 1 nodes to run the following command:
 /opt/crc/gamess/2012R1/gamess/gamess.00.x gamess 

          ******************************************************
          *         GAMESS VERSION =  1 MAY 2012 (R1)          *
          *             FROM IOWA STATE UNIVERSITY             *
          * M.W.SCHMIDT, K.K.BALDRIDGE, J.A.BOATZ, S.T.ELBERT, *
          *   M.S.GORDON, J.H.JENSEN, S.KOSEKI, N.MATSUNAGA,   *
          *          K.A.NGUYEN, S.J.SU, T.L.WINDUS,           *
          *       TOGETHER WITH M.DUPUIS, J.A.MONTGOMERY       *
          *         J.COMPUT.CHEM.  14, 1347-1363(1993)        *
          **************** 64 BIT LINUX VERSION ****************

  SINCE 1993, STUDENTS AND POSTDOCS WORKING AT IOWA STATE UNIVERSITY
  AND ALSO IN THEIR VARIOUS JOBS AFTER LEAVING ISU HAVE MADE IMPORTANT
  CONTRIBUTIONS TO THE CODE:
     IVANA ADAMOVIC, CHRISTINE AIKENS, YURI ALEXEEV, POOJA ARORA,
     ANDREY ASADCHEV, ROB BELL, PRADIPTA BANDYOPADHYAY, JONATHAN BENTZ,
     BRETT BODE, GALINA CHABAN, WEI CHEN, CHEOL HO CHOI, PAUL DAY,
     ALBERT DEFUSCO, TIM DUDLEY, DMITRI FEDOROV, GRAHAM FLETCHER,
     MARK FREITAG, KURT GLAESEMANN, DAN KEMP, GRANT MERRILL,
     NORIYUKI MINEZAWA, JONATHAN MULLIN, TAKESHI NAGATA,
     SEAN NEDD, HEATHER NETZLOFF, BOSILJKA NJEGIC, RYAN OLSON, MIKE PAK,
     JIM SHOEMAKER, LYUDMILA SLIPCHENKO, SAROM SOK, JIE SONG,
     TETSUYA TAKETSUGU, SIMON WEBB, SOOHAENG YOO, FEDERICO ZAHARIEV

  ADDITIONAL CODE HAS BEEN PROVIDED BY COLLABORATORS IN OTHER GROUPS:
     IOWA STATE UNIVERSITY:
          JOE IVANIC, LAIMUTIS BYTAUTAS, KLAUS RUEDENBERG
     UNIVERSITY OF TOKYO: KIMIHIKO HIRAO, TAKAHITO NAKAJIMA,
          TAKAO TSUNEDA, MUNEAKI KAMIYA, SUSUMU YANAGISAWA,
          KIYOSHI YAGI, MAHITO CHIBA, SEIKEN TOKURA, NAOAKI KAWAKAMI
     UNIVERSITY OF AARHUS: FRANK JENSEN
     UNIVERSITY OF IOWA: VISVALDAS KAIRYS, HUI LI
     NATIONAL INST. OF STANDARDS AND TECHNOLOGY: WALT STEVENS, DAVID GARMER
     UNIVERSITY OF PISA: BENEDETTA MENNUCCI, JACOPO TOMASI
     UNIVERSITY OF MEMPHIS: HENRY KURTZ, PRAKASHAN KORAMBATH
     UNIVERSITY OF ALBERTA: TOBY ZENG, MARIUSZ KLOBUKOWSKI
     UNIVERSITY OF NEW ENGLAND: MARK SPACKMAN
     MIE UNIVERSITY: HIROAKI UMEDA
     MICHIGAN STATE UNIVERSITY:
          KAROL KOWALSKI, MARTA WLOCH, JEFFREY GOUR, JESSE LUTZ, PIOTR PIECUCH
     UNIVERSITY OF SILESIA: MONIKA MUSIAL, STANISLAW KUCHARSKI
     FACULTES UNIVERSITAIRES NOTRE-DAME DE LA PAIX:
          OLIVIER QUINET, BENOIT CHAMPAGNE
     UNIVERSITY OF CALIFORNIA - SANTA BARBARA: BERNARD KIRTMAN
     INSTITUTE FOR MOLECULAR SCIENCE:
          KAZUYA ISHIMURA, MICHIO KATOUDA, AND SHIGERU NAGASE
     UNIVERSITY OF NOTRE DAME: DAN CHIPMAN
     KYUSHU UNIVERSITY:
          HARUYUKI NAKANO,
          FENG LONG GU, JACEK KORCHOWIEC, MARCIN MAKOWSKI, AND YURIKO AOKI,
          HIROTOSHI MORI AND EISAKU MIYOSHI
     PENNSYLVANIA STATE UNIVERSITY:
          TZVETELIN IORDANOV, CHET SWALINA, JONATHAN SKONE,
          SHARON HAMMES-SCHIFFER
     WASEDA UNIVERSITY:
          MASATO KOBAYASHI, TOMOKO AKAMA, TSUGUKI TOUMA,
          TAKESHI YOSHIKAWA, YASUHIRO IKABATA, HIROMI NAKAI
     UNIVERSITY OF NEBRASKA:
          PEIFENG SU, DEJUN SI, NANDUN THELLAMUREGE, YALI WANG, HUI LI
     UNIVERSITY OF ZURICH:
          ROBERTO PEVERATI, KIM BALDRIDGE
     N. COPERNICUS UNIVERSITY AND JACKSON STATE UNIVERSITY:
          MARIA BARYSZ

 EXECUTION OF GAMESS BEGUN Thu Feb 26 00:19:42 2015

            ECHO OF THE FIRST FEW INPUT CARDS -
 INPUT CARD> $BASIS GBASIS=PC1 $END                                                         
 INPUT CARD> $CONTRL COORD=ZMT ISPHER=1 RUNTYP=ENERGY DFTTYP=PBE $END                       
 INPUT CARD>                                                                                
 INPUT CARD> $DATA                                                                          
 INPUT CARD>Title                                                                           
 INPUT CARD>Cnv 2                                                                           
 INPUT CARD>                                                                                
 INPUT CARD>S                                                                               
 INPUT CARD>O 1 1.70                                                                        
 INPUT CARD>O 1 1.70 2 150.0                                                                
 INPUT CARD> $END                                                                           
    1000000 WORDS OF MEMORY AVAILABLE

     BASIS OPTIONS
     -------------
     GBASIS=PC1          IGAUSS=       0      POLAR=NONE    
     NDFUNC=       0     NFFUNC=       0     DIFFSP=       F
     NPFUNC=       0      DIFFS=       F     BASNAM=        


     RUN TITLE
     ---------
 Title                                                                           

 THE POINT GROUP OF THE MOLECULE IS CNV     
 THE ORDER OF THE PRINCIPAL AXIS IS     2

 YOUR FULLY SUBSTITUTED Z-MATRIX IS
 S   
 O      1   1.7000000
 O      1   1.7000000  2  150.0000

 THE MOMENTS OF INERTIA ARE (AMU-ANGSTROM**2)
 IXX=     3.096   IYY=    86.258   IZZ=    89.353

 ATOM      ATOMIC                      COORDINATES (BOHR)
           CHARGE         X                   Y                   Z
 S          16.0     0.0000000000        0.0000000000       -0.4158478838
 O           8.0    -3.1030697315        0.0000000000        0.4156171448
 O           8.0     3.1030697315        0.0000000000        0.4156171448

          INTERNUCLEAR DISTANCES (ANGS.)
          ------------------------------

                1 S          2 O          3 O     

   1 S       0.0000000    1.7000000 *  1.7000000 *
   2 O       1.7000000 *  0.0000000    3.2841478  
   3 O       1.7000000 *  3.2841478    0.0000000  

  * ... LESS THAN  3.000


     ATOMIC BASIS SET
     ----------------
 THE CONTRACTED PRIMITIVE FUNCTIONS HAVE BEEN UNNORMALIZED
 THE CONTRACTED BASIS FUNCTIONS ARE NOW NORMALIZED TO UNITY

  SHELL TYPE  PRIMITIVE        EXPONENT          CONTRACTION COEFFICIENT(S)

 S         

      1   S       1         55510.0000000    0.000587229760
      1   S       2          8326.7000000    0.004532413947
      1   S       3          1895.6000000    0.023265261648
      1   S       4           536.7700000    0.089696133027
      1   S       5           174.6700000    0.254098332277
      1   S       6            62.5780000    0.438665087637
      1   S       7            23.5730000    0.314547135094
      1   S       8             5.8908000    0.032727897102

      2   S       9          8326.7000000   -0.000019755715
      2   S      10          1895.6000000   -0.000043822381
      2   S      11           536.7700000   -0.001730264906
      2   S      12           174.6700000   -0.009381263460
      2   S      13            62.5780000   -0.064050766303
      2   S      14            23.5730000   -0.082478179196
      2   S      15             5.8908000    0.478342956889
      2   S      16             2.1852000    0.626896670208

      3   S      17          1895.6000000    0.000016227260
      3   S      18           536.7700000    0.000191135619
      3   S      19           174.6700000    0.001952069674
      3   S      20            62.5780000    0.010578701087
      3   S      21            23.5730000    0.022164934551
      3   S      22             5.8908000   -0.184968323118
      3   S      23             2.1852000   -0.480920750976
      3   S      24             0.4528200    1.243822243872

      4   S      25             0.1620200    1.000000000000

      5   P      26           395.4500000    0.004642761329
      5   P      27            92.8340000    0.036023396489
      5   P      28            29.2660000    0.149058869978
      5   P      29            10.5950000    0.360033266263
      5   P      30             4.0272000    0.455756476221
      5   P      31             1.5484000    0.206167664178

      6   P      32            92.8340000    0.000169901442
      6   P      33            29.2660000   -0.002541839934
      6   P      34            10.5950000   -0.007867614595
      6   P      35             4.0272000   -0.037231009184
      6   P      36             1.5484000    0.161417246830
      6   P      37             0.4613400    0.902230419976

      7   P      38             0.1313100    1.000000000000

      8   D      39             0.5500000    1.000000000000

 O         

     15   S      40          2306.7000000    0.005424388755
     15   S      41           347.1500000    0.040474749465
     15   S      42            78.8900000    0.180219634554
     15   S      43            21.8760000    0.462370311787
     15   S      44             6.6646000    0.454888396263

     16   S      45           347.1500000   -0.000655003786
     16   S      46            78.8900000   -0.005362052952
     16   S      47            21.8760000   -0.074902158894
     16   S      48             6.6646000   -0.181442579655
     16   S      49             1.0669000    1.102006874042

     17   S      50             0.3070000    1.000000000000

     18   P      51            17.0220000    0.068979967443
     18   P      52             3.6838000    0.351985516325
     18   P      53             0.9923400    0.724036547822

     19   P      54             0.2448700    1.000000000000

     20   D      55             1.0000000    1.000000000000

 TOTAL NUMBER OF BASIS SET SHELLS             =   20
 NUMBER OF CARTESIAN GAUSSIAN BASIS FUNCTIONS =   49
 NOTE: THIS RUN WILL RESTRICT THE MO VARIATION SPACE TO SPHERICAL HARMONICS.
 THE NUMBER OF ORBITALS KEPT IN THE VARIATIONAL SPACE WILL BE PRINTED LATER.
 NUMBER OF ELECTRONS                          =   32
 CHARGE OF MOLECULE                           =    0
 SPIN MULTIPLICITY                            =    1
 NUMBER OF OCCUPIED ORBITALS (ALPHA)          =   16
 NUMBER OF OCCUPIED ORBITALS (BETA )          =   16
 TOTAL NUMBER OF ATOMS                        =    3
 THE NUCLEAR REPULSION ENERGY IS       90.0002370875

     LEBEDEV GRID-BASED DFT OPTIONS
     ------------------------------
     DFTTYP=PBE     
     NRAD  =      96     NLEB  =     302
     NRAD0 =      24     NLEB0 =     110
     SWOFF =    5.00E-03 (PURE SCF -> DFT)
     SWITCH=    3.00E-04 (COARSE -> TIGHT GRID)
     THRESH=    0.00E+00 GTHRE=    1.00E+00

 GRIMME'S EMPIRICAL DISPERSION CORRECTION= F

     $CONTRL OPTIONS
     ---------------
 SCFTYP=RHF          RUNTYP=ENERGY       EXETYP=RUN     
 MPLEVL=       0     CITYP =NONE         CCTYP =NONE         VBTYP =NONE    
 DFTTYP=PBE          TDDFT =NONE    
 MULT  =       1     ICHARG=       0     NZVAR =       0     COORD =ZMT     
 PP    =NONE         RELWFN=NONE         LOCAL =NONE         NUMGRD=       F
 ISPHER=       1     NOSYM =       0     MAXIT =      30     UNITS =ANGS    
 PLTORB=       F     MOLPLT=       F     AIMPAC=       F     FRIEND=        
 NPRINT=       7     IREST =       0     GEOM  =INPUT   
 NORMF =       0     NORMP =       0     ITOL  =      20     ICUT  =       9
 INTTYP=BEST         GRDTYP=BEST         QMTTOL= 1.0E-06

     $SYSTEM OPTIONS
     ---------------
  REPLICATED MEMORY=     1000000 WORDS (ON EVERY NODE).
 DISTRIBUTED MEMDDI=           0 MILLION WORDS IN AGGREGATE,
 MEMDDI DISTRIBUTED OVER   1 PROCESSORS IS           0 WORDS/PROCESSOR.
 TOTAL MEMORY REQUESTED ON EACH PROCESSOR=     1000000 WORDS.
 TIMLIM=      525600.00 MINUTES, OR     365.0 DAYS.
 PARALL= F  BALTYP=  DLB     KDIAG=    0  COREFL= F
 MXSEQ2=     300 MXSEQ3=     150

          ----------------
          PROPERTIES INPUT
          ----------------

     MOMENTS            FIELD           POTENTIAL          DENSITY
 IEMOM =       1   IEFLD =       0   IEPOT =       0   IEDEN =       0
 WHERE =COMASS     WHERE =NUCLEI     WHERE =NUCLEI     WHERE =NUCLEI  
 OUTPUT=BOTH       OUTPUT=BOTH       OUTPUT=BOTH       OUTPUT=BOTH    
 IEMINT=       0   IEFINT=       0                     IEDINT=       0
                                                       MORB  =       0
          EXTRAPOLATION IN EFFECT
          DIIS IN EFFECT
 ORBITAL PRINTING OPTION: NPREO=     1    49     2     1

     -------------------------------
     INTEGRAL TRANSFORMATION OPTIONS
     -------------------------------
     NWORD  =            0
     CUTOFF = 1.0E-09     MPTRAN =       0
     DIRTRF =       F     AOINTS =DUP     

          ----------------------
          INTEGRAL INPUT OPTIONS
          ----------------------
 NOPK  =       1 NORDER=       0 SCHWRZ=       F

   --- ENCODED Z MATRIX ---
 COORD  TYPE   I   J   K   L   M   N
    1      1    3   1
    2      1    2   1
    3      2    2   1   3

 THE DETERMINANT OF THE G MATRIX IS 10**(    -4)

 THE DETERMINANT OF THE G MATRIX IS 10**(    -4)
 * * * WARNING * * *
 YOUR B MATRIX HAS A SMALL DETERMINANT.
 THIS SUGGESTS YOU MAY HAVE BADLY CHOSEN COORDINATES.

     ------------------------------------------
     THE POINT GROUP IS CNV, NAXIS= 2, ORDER= 4
     ------------------------------------------

 -- VARIATIONAL SPACE WILL BE RESTRICTED TO PURE SPHERICAL HARMONICS ONLY --
 AFTER EXCLUDING CONTAMINANT COMBINATIONS FROM THE CARTESIAN GAUSSIAN BASIS
 SET, THE NUMBER OF SPHERICAL HARMONICS KEPT IN THE VARIATION SPACE IS   46

     DIMENSIONS OF THE SYMMETRY SUBSPACES ARE
 A1  =   19     A2  =    5     B1  =   14     B2  =    8

 ..... DONE SETTING UP THE RUN .....
 STEP CPU TIME =     0.01 TOTAL CPU TIME =        0.0 (    0.0 MIN)
 TOTAL WALL CLOCK TIME=        0.0 SECONDS, CPU UTILIZATION IS  50.00%

          ********************
          1 ELECTRON INTEGRALS
          ********************
 ...... END OF ONE-ELECTRON INTEGRALS ......
 STEP CPU TIME =     0.00 TOTAL CPU TIME =        0.0 (    0.0 MIN)
 TOTAL WALL CLOCK TIME=        0.0 SECONDS, CPU UTILIZATION IS  50.00%

          -------------
          GUESS OPTIONS
          -------------
          GUESS =HUCKEL            NORB  =       0          NORDER=       0
          MIX   =       F          PRTMO =       F          PUNMO =       F
          TOLZ  = 1.0E-08          TOLE  = 1.0E-05
          SYMDEN=       F          PURIFY=       F

 INITIAL GUESS ORBITALS GENERATED BY HUCKEL   ROUTINE.
 HUCKEL GUESS REQUIRES     21583 WORDS.

 STATISTICS FOR GENERATION OF SYMMETRY ORBITAL -Q- MATRIX
 NUMBER OF CARTESIAN ATOMIC ORBITALS=         49
 NUMBER OF SPHERICAL CONTAMINANTS DROPPED=     3
 NUMBER OF LINEARLY DEPENDENT MOS DROPPED=     0
 TOTAL NUMBER OF MOS IN VARIATION SPACE=      46

 SYMMETRIES FOR INITIAL GUESS ORBITALS FOLLOW.   BOTH SET(S).
    16 ORBITALS ARE OCCUPIED (    7 CORE ORBITALS).
     8=?A1      9=?B1     10=A1      11=B2      12=A1      13=B1      14=A2  
    15=B1      16=?A1     17=B2      18=A1      19=B1      20=A1      21=A1  
    22=A1      23=A1      24=A1      25=A1      26=A1  
 ...... END OF INITIAL ORBITAL SELECTION ......
 STEP CPU TIME =     0.01 TOTAL CPU TIME =        0.0 (    0.0 MIN)
 TOTAL WALL CLOCK TIME=        0.0 SECONDS, CPU UTILIZATION IS 100.00%

                    ----------------------
                    AO INTEGRAL TECHNOLOGY
                    ----------------------
     S,P,L SHELL ROTATED AXIS INTEGRALS, REPROGRAMMED BY
        KAZUYA ISHIMURA (IMS) AND JOSE SIERRA (SYNSTAR).
     S,P,D,L SHELL ROTATED AXIS INTEGRALS PROGRAMMED BY
        KAZUYA ISHIMURA (INSTITUTE FOR MOLECULAR SCIENCE).
     S,P,D,F,G SHELL TO TOTAL QUARTET ANGULAR MOMENTUM SUM 5,
        ERIC PROGRAM BY GRAHAM FLETCHER (ELORET AND NASA ADVANCED
        SUPERCOMPUTING DIVISION, AMES RESEARCH CENTER).
     S,P,D,F,G,L SHELL GENERAL RYS QUADRATURE PROGRAMMED BY
        MICHEL DUPUIS (PACIFIC NORTHWEST NATIONAL LABORATORY).

          --------------------
          2 ELECTRON INTEGRALS
          --------------------

 THE -PK- OPTION IS OFF, THE INTEGRALS ARE NOT IN SUPERMATRIX FORM.
 STORING   15000 INTEGRALS/RECORD ON DISK, USING 12 BYTES/INTEGRAL.
 TWO ELECTRON INTEGRAL EVALUATION REQUIRES   90606 WORDS OF MEMORY.
 II,JST,KST,LST =  1  1  1  1 NREC =         1 INTLOC =    1
 II,JST,KST,LST =  2  1  1  1 NREC =         1 INTLOC =    2
 II,JST,KST,LST =  3  1  1  1 NREC =         1 INTLOC =    7
 II,JST,KST,LST =  4  1  1  1 NREC =         1 INTLOC =   22
 II,JST,KST,LST =  5  1  1  1 NREC =         1 INTLOC =   56
 II,JST,KST,LST =  6  1  1  1 NREC =         1 INTLOC =  125
 II,JST,KST,LST =  7  1  1  1 NREC =         1 INTLOC =  329
 II,JST,KST,LST =  8  1  1  1 NREC =         1 INTLOC =  776
 II,JST,KST,LST =  9  1  1  1 NREC =         1 INTLOC = 2864
 II,JST,KST,LST = 10  1  1  1 NREC =         1 INTLOC = 2864
 II,JST,KST,LST = 11  1  1  1 NREC =         1 INTLOC = 2864
 II,JST,KST,LST = 12  1  1  1 NREC =         1 INTLOC = 2864
 II,JST,KST,LST = 13  1  1  1 NREC =         1 INTLOC = 2864
 II,JST,KST,LST = 14  1  1  1 NREC =         1 INTLOC = 2864
 II,JST,KST,LST = 15  1  1  1 NREC =         1 INTLOC = 2864
 II,JST,KST,LST = 16  1  1  1 NREC =         1 INTLOC = 4946
 II,JST,KST,LST = 17  1  1  1 NREC =         1 INTLOC = 7983
 II,JST,KST,LST = 18  1  1  1 NREC =         1 INTLOC =12341
 II,JST,KST,LST = 19  1  1  1 NREC =         2 INTLOC =13226
 II,JST,KST,LST = 20  1  1  1 NREC =         4 INTLOC =13359
 TOTAL NUMBER OF NONZERO TWO-ELECTRON INTEGRALS =              155986
         11 INTEGRAL RECORDS WERE STORED ON DISK FILE  8.
  ...... END OF TWO-ELECTRON INTEGRALS .....
 STEP CPU TIME =     0.15 TOTAL CPU TIME =        0.2 (    0.0 MIN)
 TOTAL WALL CLOCK TIME=        0.2 SECONDS, CPU UTILIZATION IS  94.44%

          --------------------------
               R-PBE SCF CALCULATION
          --------------------------

     NUCLEAR ENERGY =        90.0002370875
     MAXIT =   30     NPUNCH=    2
     EXTRAP=T  DAMP=F  SHIFT=F  RSTRCT=F  DIIS=T  DEM=F  SOSCF=F
         DENSITY MATRIX CONVERGENCE THRESHOLD=  1.00E-05
     COARSE -> FINE DFT GRID SWITCH THRESHOLD=  3.00E-04 (SWITCH IN $DFT)
                   HF -> DFT SWITCH THRESHOLD=  5.00E-03 (SWOFF IN $DFT)
     MEMORY REQUIRED FOR RHF ITERS=    183108 WORDS.

 DFT CODE IS SWITCHING FROM THE FINE GRID NRAD= 96,  NLEB=  302
                      TO THE COARSE GRID NRAD0= 24, NLEB0=  110

     EXCHANGE FUNCTIONAL   =PBE       
     CORRELATION FUNCTIONAL=PBE       
     DFT THRESHOLD         =.460E-07
     GRID CHANGE THRESHOLD =.300E-03
 FOR AN EULER-MACLAURIN QUADRATURE USING  96 RADIAL POINTS:
 SMALLEST GAUSSIAN PRIMITIVE EXPONENT=        0.1313100000 OF TYPE -P-
 ON ATOM NUMBER   1 HAS RADIAL NORMALIZATION=  1.000000
  LARGEST GAUSSIAN PRIMITIVE EXPONENT=    55510.0000000000 OF TYPE -S-
 ON ATOM NUMBER   1 HAS RADIAL NORMALIZATION=  0.999999
 DFT IS SWITCHED OFF, PERFORMING PURE SCF UNTIL SWOFF THRESHOLD IS REACHED.

 ITER EX DEM     TOTAL ENERGY        E CHANGE  DENSITY CHANGE    DIIS ERROR
   1  0  0     -545.8963137006  -545.8963137006   0.484609069   1.263535301
          * * *   INITIATING DIIS PROCEDURE   * * *
   2  1  0     -546.3429770394    -0.4466633388   0.681324941   0.456692125
   3  2  0     -546.2644319910     0.0785450484   0.281679442   0.498006427
   4  3  0     -546.9370950676    -0.6726630766   0.030478528   0.016168456
   5  4  0     -546.9394399166    -0.0023448490   0.010256780   0.007129038
   6  5  0     -546.9400103941    -0.0005704776   0.007184489   0.005473938
   7  6  0     -546.9402346266    -0.0002242324   0.005342445   0.003196517
   8  7  0     -546.9403038485    -0.0000692219   0.001621279   0.000792942
 CONVERGED TO SWOFF, SO DFT CALCULATION IS NOW SWITCHED ON.
          * * *   INITIATING DIIS PROCEDURE   * * *
   9  8  0     -548.1119959155    -1.1716920670   0.376987151   0.111019718
  10  9  0     -548.0886619863     0.0233339293   0.316895505   0.162807489
  11 10  0     -548.0909633821    -0.0023013958   0.122043160   0.193478752
  12 11  0     -548.1684491233    -0.0774857412   0.018380147   0.018169969
  13 12  0     -548.1697762335    -0.0013271102   0.003577198   0.003534491
  14 13  0     -548.1698051866    -0.0000289531   0.001417497   0.000436001
  15 14  0     -548.1698064439    -0.0000012573   0.000198546   0.000069160
 DFT CODE IS SWITCHING BACK TO THE FINE GRID
          * * *   INITIATING DIIS PROCEDURE   * * *
  16 15  0     -548.1801178619    -0.0103114180   0.024499891   0.011919072
  17 16  0     -548.1801765765    -0.0000587147   0.021495191   0.012480049
  18 17  0     -548.1797883863     0.0003881902   0.014923492   0.018521685
  19 18  0     -548.1805344534    -0.0007460670   0.001621150   0.001234646
  20 19  0     -548.1805418422    -0.0000073889   0.000176785   0.000120293
  21 20  0     -548.1805419235    -0.0000000812   0.000040165   0.000034161
  22 21  0     -548.1805419264    -0.0000000030   0.000009210   0.000003745
  23 22  0     -548.1805419265    -0.0000000001   0.000001326   0.000000371

          -----------------
          DENSITY CONVERGED
          -----------------
     TIME TO FORM FOCK OPERATORS=       4.2 SECONDS (       0.2 SEC/ITER)
     TIME TO SOLVE SCF EQUATIONS=       0.0 SECONDS (       0.0 SEC/ITER)

 FINAL R-PBE ENERGY IS     -548.1805419265 AFTER  23 ITERATIONS
 DFT EXCHANGE + CORRELATION ENERGY =       -42.2514651878
 TOTAL ELECTRON NUMBER             =        31.9999824859

          ------------
          EIGENVECTORS
          ------------

                      1          2          3          4          5
                  -88.2242   -18.8312   -18.8311    -7.8418    -5.8634
                     A1         B1         A1         A1         B1  
    1  S  1  S    1.002979   0.000000  -0.000039  -0.274126   0.000000
    2  S  1  S   -0.010294   0.000000  -0.000737   1.039373   0.000000
    3  S  1  S    0.001760   0.000000  -0.001231   0.040147   0.000000
    4  S  1  S   -0.000843   0.000000   0.006548  -0.011314   0.000000
    5  S  1  X    0.000000   0.000152   0.000000   0.000000   0.996897
    6  S  1  Y    0.000000   0.000000   0.000000   0.000000   0.000000
    7  S  1  Z    0.000061   0.000000  -0.000040   0.010135   0.000000
    8  S  1  X    0.000000  -0.001223   0.000000   0.000000   0.008800
    9  S  1  Y    0.000000   0.000000   0.000000   0.000000   0.000000
   10  S  1  Z    0.000005   0.000000   0.000345   0.000796   0.000000
   11  S  1  X    0.000000  -0.007143   0.000000   0.000000  -0.000307
   12  S  1  Y    0.000000   0.000000   0.000000   0.000000   0.000000
   13  S  1  Z   -0.000009   0.000000   0.001458  -0.000313   0.000000
   14  S  1 XX    0.000050   0.000000   0.001373   0.000867   0.000000
   15  S  1 YY   -0.000027   0.000000  -0.000802  -0.000417   0.000000
   16  S  1 ZZ   -0.000023   0.000000  -0.000571  -0.000450   0.000000
   17  S  1 XY    0.000000   0.000000   0.000000   0.000000   0.000000
   18  S  1 XZ    0.000000  -0.000939   0.000000   0.000000   0.000639
   19  S  1 YZ    0.000000   0.000000   0.000000   0.000000   0.000000
   20  O  2  S    0.000004   0.703296   0.703233   0.000051   0.000112
   21  O  2  S    0.000028   0.025861   0.025008   0.000184   0.000121
   22  O  2  S    0.000010  -0.012933  -0.010221   0.000058  -0.000290
   23  O  2  X    0.000002   0.000794   0.000826  -0.000179  -0.000108
   24  O  2  Y    0.000000   0.000000   0.000000   0.000000   0.000000
   25  O  2  Z   -0.000002  -0.000305  -0.000073   0.000026   0.000012
   26  O  2  X   -0.000072  -0.002944  -0.002724  -0.000847  -0.000188
   27  O  2  Y    0.000000   0.000000   0.000000   0.000000   0.000000
   28  O  2  Z    0.000028   0.001308   0.000294   0.000343   0.000144
   29  O  2 XX   -0.000084  -0.000293  -0.000435  -0.000804  -0.000304
   30  O  2 YY    0.000047   0.000181   0.000250   0.000455   0.000183
   31  O  2 ZZ    0.000036   0.000111   0.000184   0.000350   0.000121
   32  O  2 XY    0.000000   0.000000   0.000000   0.000000   0.000000
   33  O  2 XZ    0.000044   0.000192   0.000190   0.000419   0.000202
   34  O  2 YZ    0.000000   0.000000   0.000000   0.000000   0.000000
   35  O  3  S    0.000004  -0.703296   0.703233   0.000051  -0.000112
   36  O  3  S    0.000028  -0.025861   0.025008   0.000184  -0.000121
   37  O  3  S    0.000010   0.012933  -0.010221   0.000058   0.000290
   38  O  3  X   -0.000002   0.000794  -0.000826   0.000179  -0.000108
   39  O  3  Y    0.000000   0.000000   0.000000   0.000000   0.000000
   40  O  3  Z   -0.000002   0.000305  -0.000073   0.000026  -0.000012
   41  O  3  X    0.000072  -0.002944   0.002724   0.000847  -0.000188
   42  O  3  Y    0.000000   0.000000   0.000000   0.000000   0.000000
   43  O  3  Z    0.000028  -0.001308   0.000294   0.000343  -0.000144
   44  O  3 XX   -0.000084   0.000293  -0.000435  -0.000804   0.000304
   45  O  3 YY    0.000047  -0.000181   0.000250   0.000455  -0.000183
   46  O  3 ZZ    0.000036  -0.000111   0.000184   0.000350  -0.000121
   47  O  3 XY    0.000000   0.000000   0.000000   0.000000   0.000000
   48  O  3 XZ   -0.000044   0.000192  -0.000190  -0.000419   0.000202
   49  O  3 YZ    0.000000   0.000000   0.000000   0.000000   0.000000

                      6          7          8          9         10
                   -5.8611    -5.8585    -0.9541    -0.9125    -0.6378
                     B2         A1         A1         B1         A1  
    1  S  1  S    0.000000   0.002822   0.044299   0.000000   0.072065
    2  S  1  S    0.000000  -0.010700  -0.130125   0.000000  -0.204711
    3  S  1  S    0.000000   0.000094   0.259582   0.000000   0.452223
    4  S  1  S    0.000000  -0.000557   0.180742   0.000000   0.426421
    5  S  1  X    0.000000   0.000000   0.000000   0.093166   0.000000
    6  S  1  Y    0.996975   0.000000   0.000000   0.000000   0.000000
    7  S  1  Z    0.000000   0.996968  -0.026324   0.000000   0.000205
    8  S  1  X    0.000000   0.000000   0.000000  -0.184431   0.000000
    9  S  1  Y    0.008680   0.000000   0.000000   0.000000   0.000000
   10  S  1  Z    0.000000   0.008515   0.055072   0.000000   0.006719
   11  S  1  X    0.000000   0.000000   0.000000  -0.021151   0.000000
   12  S  1  Y   -0.000113   0.000000   0.000000   0.000000   0.000000
   13  S  1  Z    0.000000  -0.000142   0.008379   0.000000  -0.010601
   14  S  1 XX    0.000000  -0.000534   0.047446   0.000000  -0.015709
   15  S  1 YY    0.000000  -0.000245  -0.026450   0.000000   0.010595
   16  S  1 ZZ    0.000000   0.000779  -0.020996   0.000000   0.005114
   17  S  1 XY    0.000000   0.000000   0.000000   0.000000   0.000000
   18  S  1 XZ    0.000000   0.000000   0.000000  -0.028511   0.000000
   19  S  1 YZ    0.000596   0.000000   0.000000   0.000000   0.000000
   20  O  2  S    0.000000  -0.000043  -0.130391  -0.150613   0.099221
   21  O  2  S    0.000000  -0.000127   0.262607   0.302131  -0.206243
   22  O  2  S    0.000000   0.000362   0.315634   0.386566  -0.318900
   23  O  2  X    0.000000   0.000054   0.082767   0.074623   0.120905
   24  O  2  Y    0.000006   0.000000   0.000000   0.000000   0.000000
   25  O  2  Z    0.000000  -0.000008  -0.019038  -0.018150  -0.029304
   26  O  2  X    0.000000   0.000238   0.037951   0.041203   0.055440
   27  O  2  Y   -0.000042   0.000000   0.000000   0.000000   0.000000
   28  O  2  Z    0.000000  -0.000120  -0.007642  -0.011544  -0.009842
   29  O  2 XX    0.000000   0.000164   0.009998   0.008798   0.007839
   30  O  2 YY    0.000000  -0.000086  -0.004058  -0.003466  -0.005272
   31  O  2 ZZ    0.000000  -0.000077  -0.005940  -0.005332  -0.002568
   32  O  2 XY    0.000007   0.000000   0.000000   0.000000   0.000000
   33  O  2 XZ    0.000000  -0.000085  -0.002230  -0.002787  -0.004570
   34  O  2 YZ   -0.000009   0.000000   0.000000   0.000000   0.000000
   35  O  3  S    0.000000  -0.000043  -0.130391   0.150613   0.099221
   36  O  3  S    0.000000  -0.000127   0.262607  -0.302131  -0.206243
   37  O  3  S    0.000000   0.000362   0.315634  -0.386566  -0.318900
   38  O  3  X    0.000000  -0.000054  -0.082767   0.074623  -0.120905
   39  O  3  Y    0.000006   0.000000   0.000000   0.000000   0.000000
   40  O  3  Z    0.000000  -0.000008  -0.019038   0.018150  -0.029304
   41  O  3  X    0.000000  -0.000238  -0.037951   0.041203  -0.055440
   42  O  3  Y   -0.000042   0.000000   0.000000   0.000000   0.000000
   43  O  3  Z    0.000000  -0.000120  -0.007642   0.011544  -0.009842
   44  O  3 XX    0.000000   0.000164   0.009998  -0.008798   0.007839
   45  O  3 YY    0.000000  -0.000086  -0.004058   0.003466  -0.005272
   46  O  3 ZZ    0.000000  -0.000077  -0.005940   0.005332  -0.002568
   47  O  3 XY   -0.000007   0.000000   0.000000   0.000000   0.000000
   48  O  3 XZ    0.000000   0.000085   0.002230  -0.002787   0.004570
   49  O  3 YZ   -0.000009   0.000000   0.000000   0.000000   0.000000

                     11         12         13         14         15
                   -0.4401    -0.3974    -0.3948    -0.3214    -0.3138
                     B1         B2         A1         A2         B1  
    1  S  1  S    0.000000   0.000000  -0.009105   0.000000   0.000000
    2  S  1  S    0.000000   0.000000   0.032915   0.000000   0.000000
    3  S  1  S    0.000000   0.000000  -0.048529   0.000000   0.000000
    4  S  1  S    0.000000   0.000000  -0.122223   0.000000   0.000000
    5  S  1  X   -0.177105   0.000000   0.000000   0.000000  -0.018682
    6  S  1  Y    0.000000  -0.205288   0.000000   0.000000   0.000000
    7  S  1  Z    0.000000   0.000000  -0.205005   0.000000   0.000000
    8  S  1  X    0.418255   0.000000   0.000000   0.000000   0.041835
    9  S  1  Y    0.000000   0.482255   0.000000   0.000000   0.000000
   10  S  1  Z    0.000000   0.000000   0.480583   0.000000   0.000000
   11  S  1  X    0.068185   0.000000   0.000000   0.000000   0.072604
   12  S  1  Y    0.000000   0.305526   0.000000   0.000000   0.000000
   13  S  1  Z    0.000000   0.000000   0.294478   0.000000   0.000000
   14  S  1 XX    0.000000   0.000000  -0.010884   0.000000   0.000000
   15  S  1 YY    0.000000   0.000000  -0.017298   0.000000   0.000000
   16  S  1 ZZ    0.000000   0.000000   0.028181   0.000000   0.000000
   17  S  1 XY    0.000000   0.000000   0.000000  -0.094286   0.000000
   18  S  1 XZ    0.029112   0.000000   0.000000   0.000000  -0.089532
   19  S  1 YZ    0.000000   0.026113   0.000000   0.000000   0.000000
   20  O  2  S   -0.057633   0.000000   0.009842   0.000000  -0.002462
   21  O  2  S    0.125500   0.000000  -0.019010   0.000000   0.001869
   22  O  2  S    0.189753   0.000000  -0.043158   0.000000   0.032366
   23  O  2  X   -0.351567   0.000000   0.172549   0.000000   0.156778
   24  O  2  Y    0.000000   0.297918   0.000000   0.468598   0.000000
   25  O  2  Z    0.099259   0.000000   0.242575   0.000000   0.439977
   26  O  2  X   -0.218206   0.000000   0.110348   0.000000   0.116628
   27  O  2  Y    0.000000   0.184431   0.000000   0.334357   0.000000
   28  O  2  Z    0.066344   0.000000   0.151416   0.000000   0.311007
   29  O  2 XX   -0.012979   0.000000   0.010781   0.000000   0.005960
   30  O  2 YY    0.008156   0.000000  -0.002648   0.000000   0.000362
   31  O  2 ZZ    0.004823   0.000000  -0.008133   0.000000  -0.006322
   32  O  2 XY    0.000000   0.016087   0.000000   0.014949   0.000000
   33  O  2 XZ    0.008634   0.000000   0.011835   0.000000   0.013678
   34  O  2 YZ    0.000000  -0.003865   0.000000  -0.003950   0.000000
   35  O  3  S    0.057633   0.000000   0.009842   0.000000   0.002462
   36  O  3  S   -0.125500   0.000000  -0.019010   0.000000  -0.001869
   37  O  3  S   -0.189753   0.000000  -0.043158   0.000000  -0.032366
   38  O  3  X   -0.351567   0.000000  -0.172549   0.000000   0.156778
   39  O  3  Y    0.000000   0.297918   0.000000  -0.468598   0.000000
   40  O  3  Z   -0.099259   0.000000   0.242575   0.000000  -0.439977
   41  O  3  X   -0.218206   0.000000  -0.110348   0.000000   0.116628
   42  O  3  Y    0.000000   0.184431   0.000000  -0.334357   0.000000
   43  O  3  Z   -0.066344   0.000000   0.151416   0.000000  -0.311007
   44  O  3 XX    0.012979   0.000000   0.010781   0.000000  -0.005960
   45  O  3 YY   -0.008156   0.000000  -0.002648   0.000000  -0.000362
   46  O  3 ZZ   -0.004823   0.000000  -0.008133   0.000000   0.006322
   47  O  3 XY    0.000000  -0.016087   0.000000   0.014949   0.000000
   48  O  3 XZ    0.008634   0.000000  -0.011835   0.000000   0.013678
   49  O  3 YZ    0.000000  -0.003865   0.000000   0.003950   0.000000

                     16         17         18         19         20
                   -0.2710    -0.2170    -0.1802     0.0333     0.3409
                     A1         B2         A1         B1         B1  
    1  S  1  S    0.024414   0.000000   0.018531   0.000000   0.000000
    2  S  1  S   -0.099882   0.000000  -0.064412   0.000000   0.000000
    3  S  1  S    0.119551   0.000000   0.108831   0.000000   0.000000
    4  S  1  S    0.467788   0.000000   0.334272   0.000000   0.000000
    5  S  1  X    0.000000   0.000000   0.000000  -0.226525   0.271205
    6  S  1  Y    0.000000  -0.206118   0.000000   0.000000   0.000000
    7  S  1  Z    0.072119   0.000000  -0.192428   0.000000   0.000000
    8  S  1  X    0.000000   0.000000   0.000000   0.596554  -1.036975
    9  S  1  Y    0.000000   0.515401   0.000000   0.000000   0.000000
   10  S  1  Z   -0.176219   0.000000   0.487031   0.000000   0.000000
   11  S  1  X    0.000000   0.000000   0.000000   1.027236   1.670362
   12  S  1  Y    0.000000   0.389577   0.000000   0.000000   0.000000
   13  S  1  Z   -0.069446   0.000000   0.423390   0.000000   0.000000
   14  S  1 XX   -0.139539   0.000000  -0.093422   0.000000   0.000000
   15  S  1 YY    0.068093   0.000000   0.061223   0.000000   0.000000
   16  S  1 ZZ    0.071447   0.000000   0.032199   0.000000   0.000000
   17  S  1 XY    0.000000   0.000000   0.000000   0.000000   0.000000
   18  S  1 XZ    0.000000   0.000000   0.000000  -0.127400  -0.078445
   19  S  1 YZ    0.000000  -0.012251   0.000000   0.000000   0.000000
   20  O  2  S    0.002526   0.000000   0.018264  -0.061380  -0.021356
   21  O  2  S   -0.007192   0.000000  -0.038901   0.112687  -0.017058
   22  O  2  S   -0.044529   0.000000  -0.125496   0.534324   0.606945
   23  O  2  X   -0.294384   0.000000  -0.335775   0.275905  -0.264404
   24  O  2  Y    0.000000  -0.396497   0.000000   0.000000   0.000000
   25  O  2  Z    0.352023   0.000000  -0.230868  -0.190250  -0.010738
   26  O  2  X   -0.214328   0.000000  -0.267480   0.356268   0.213758
   27  O  2  Y    0.000000  -0.300711   0.000000   0.000000   0.000000
   28  O  2  Z    0.253973   0.000000  -0.177276  -0.173936  -0.079860
   29  O  2 XX   -0.003921   0.000000  -0.000806   0.003032   0.047551
   30  O  2 YY    0.003440   0.000000   0.001233   0.001012  -0.025247
   31  O  2 ZZ    0.000481   0.000000  -0.000427  -0.004044  -0.022304
   32  O  2 XY    0.000000  -0.000292   0.000000   0.000000   0.000000
   33  O  2 XZ    0.007644   0.000000   0.003243   0.007359  -0.018247
   34  O  2 YZ    0.000000  -0.000129   0.000000   0.000000   0.000000
   35  O  3  S    0.002526   0.000000   0.018264   0.061380   0.021356
   36  O  3  S   -0.007192   0.000000  -0.038901  -0.112687   0.017058
   37  O  3  S   -0.044529   0.000000  -0.125496  -0.534324  -0.606945
   38  O  3  X    0.294384   0.000000   0.335775   0.275905  -0.264404
   39  O  3  Y    0.000000  -0.396497   0.000000   0.000000   0.000000
   40  O  3  Z    0.352023   0.000000  -0.230868   0.190250   0.010738
   41  O  3  X    0.214328   0.000000   0.267480   0.356268   0.213758
   42  O  3  Y    0.000000  -0.300711   0.000000   0.000000   0.000000
   43  O  3  Z    0.253973   0.000000  -0.177276   0.173936   0.079860
   44  O  3 XX   -0.003921   0.000000  -0.000806  -0.003032  -0.047551
   45  O  3 YY    0.003440   0.000000   0.001233  -0.001012   0.025247
   46  O  3 ZZ    0.000481   0.000000  -0.000427   0.004044   0.022304
   47  O  3 XY    0.000000   0.000292   0.000000   0.000000   0.000000
   48  O  3 XZ   -0.007644   0.000000  -0.003243   0.007359  -0.018247
   49  O  3 YZ    0.000000  -0.000129   0.000000   0.000000   0.000000

                     21         22         23         24         25
                    0.3667     0.3683     0.3888     0.4795     0.5023
                     A1         B2         A1         A2         B2  
    1  S  1  S   -0.042247   0.000000  -0.105197   0.000000   0.000000
    2  S  1  S   -0.175670   0.000000  -0.359308   0.000000   0.000000
    3  S  1  S   -0.680643   0.000000  -1.597774   0.000000   0.000000
    4  S  1  S    0.954262   0.000000   1.861907   0.000000   0.000000
    5  S  1  X    0.000000   0.000000   0.000000   0.000000   0.000000
    6  S  1  Y    0.000000   0.292933   0.000000   0.000000   0.040193
    7  S  1  Z    0.265224   0.000000  -0.116547   0.000000   0.000000
    8  S  1  X    0.000000   0.000000   0.000000   0.000000   0.000000
    9  S  1  Y    0.000000  -1.135913   0.000000   0.000000  -0.150854
   10  S  1  Z   -1.028184   0.000000   0.451554   0.000000   0.000000
   11  S  1  X    0.000000   0.000000   0.000000   0.000000   0.000000
   12  S  1  Y    0.000000   1.242441   0.000000   0.000000   0.113311
   13  S  1  Z    1.204426   0.000000  -0.424798   0.000000   0.000000
   14  S  1 XX   -0.029909   0.000000  -0.222469   0.000000   0.000000
   15  S  1 YY    0.129173   0.000000   0.077450   0.000000   0.000000
   16  S  1 ZZ   -0.099264   0.000000   0.145019   0.000000   0.000000
   17  S  1 XY    0.000000   0.000000   0.000000   0.836988   0.000000
   18  S  1 XZ    0.000000   0.000000   0.000000   0.000000   0.000000
   19  S  1 YZ    0.000000  -0.130177   0.000000   0.000000   0.973060
   20  O  2  S    0.011212   0.000000   0.008553   0.000000   0.000000
   21  O  2  S   -0.008734   0.000000  -0.021249   0.000000   0.000000
   22  O  2  S   -0.237704   0.000000  -0.171051   0.000000   0.000000
   23  O  2  X    0.071244   0.000000   0.089890   0.000000   0.000000
   24  O  2  Y    0.000000  -0.093101   0.000000   0.360496  -0.129309
   25  O  2  Z   -0.127332   0.000000  -0.042029   0.000000   0.000000
   26  O  2  X   -0.153388   0.000000  -0.107622   0.000000   0.000000
   27  O  2  Y    0.000000  -0.095928   0.000000  -0.187173   0.064981
   28  O  2  Z   -0.047812   0.000000   0.077509   0.000000   0.000000
   29  O  2 XX   -0.034840   0.000000  -0.033770   0.000000   0.000000
   30  O  2 YY    0.018872   0.000000   0.021624   0.000000   0.000000
   31  O  2 ZZ    0.015968   0.000000   0.012146   0.000000   0.000000
   32  O  2 XY    0.000000  -0.014730   0.000000  -0.057863   0.021510
   33  O  2 XZ    0.004621   0.000000   0.030288   0.000000   0.000000
   34  O  2 YZ    0.000000   0.001583   0.000000   0.019796   0.015163
   35  O  3  S    0.011212   0.000000   0.008553   0.000000   0.000000
   36  O  3  S   -0.008734   0.000000  -0.021249   0.000000   0.000000
   37  O  3  S   -0.237704   0.000000  -0.171051   0.000000   0.000000
   38  O  3  X   -0.071244   0.000000  -0.089890   0.000000   0.000000
   39  O  3  Y    0.000000  -0.093101   0.000000  -0.360496  -0.129309
   40  O  3  Z   -0.127332   0.000000  -0.042029   0.000000   0.000000
   41  O  3  X    0.153388   0.000000   0.107622   0.000000   0.000000
   42  O  3  Y    0.000000  -0.095928   0.000000   0.187173   0.064981
   43  O  3  Z   -0.047812   0.000000   0.077509   0.000000   0.000000
   44  O  3 XX   -0.034840   0.000000  -0.033770   0.000000   0.000000
   45  O  3 YY    0.018872   0.000000   0.021624   0.000000   0.000000
   46  O  3 ZZ    0.015968   0.000000   0.012146   0.000000   0.000000
   47  O  3 XY    0.000000   0.014730   0.000000  -0.057863  -0.021510
   48  O  3 XZ   -0.004621   0.000000  -0.030288   0.000000   0.000000
   49  O  3 YZ    0.000000   0.001583   0.000000  -0.019796   0.015163

                     26         27         28         29         30
                    0.5028     0.5594     0.7043     0.7772     0.7946
                     A1         B1         A1         B1         A2  
    1  S  1  S    0.001813   0.000000  -0.011791   0.000000   0.000000
    2  S  1  S    0.002694   0.000000  -0.134568   0.000000   0.000000
    3  S  1  S    0.023081   0.000000  -0.288738   0.000000   0.000000
    4  S  1  S   -0.012524   0.000000   1.219319   0.000000   0.000000
    5  S  1  X    0.000000  -0.011222   0.000000  -0.071458   0.000000
    6  S  1  Y    0.000000   0.000000   0.000000   0.000000   0.000000
    7  S  1  Z    0.043022   0.000000  -0.031468   0.000000   0.000000
    8  S  1  X    0.000000   0.017993   0.000000   0.414466   0.000000
    9  S  1  Y    0.000000   0.000000   0.000000   0.000000   0.000000
   10  S  1  Z   -0.161703   0.000000   0.138476   0.000000   0.000000
   11  S  1  X    0.000000   0.705255   0.000000  -0.133079   0.000000
   12  S  1  Y    0.000000   0.000000   0.000000   0.000000   0.000000
   13  S  1  Z    0.126935   0.000000   0.199275   0.000000   0.000000
   14  S  1 XX   -0.050014   0.000000   0.774867   0.000000   0.000000
   15  S  1 YY   -0.813647   0.000000  -0.467649   0.000000   0.000000
   16  S  1 ZZ    0.863661   0.000000  -0.307218   0.000000   0.000000
   17  S  1 XY    0.000000   0.000000   0.000000   0.000000   0.562591
   18  S  1 XZ    0.000000   0.845561   0.000000   0.345344   0.000000
   19  S  1 YZ    0.000000   0.000000   0.000000   0.000000   0.000000
   20  O  2  S    0.000315  -0.043486   0.060686  -0.016382   0.000000
   21  O  2  S    0.000629   0.168709  -0.299548   0.077941   0.000000
   22  O  2  S   -0.010791   0.277612  -0.175018  -0.016227   0.000000
   23  O  2  X   -0.030515   0.076070   0.300183  -0.456709   0.000000
   24  O  2  Y    0.000000   0.000000   0.000000   0.000000  -0.543175
   25  O  2  Z   -0.133635   0.315883   0.054860  -0.340002   0.000000
   26  O  2  X    0.013753   0.284742  -0.886850   0.731058   0.000000
   27  O  2  Y    0.000000   0.000000   0.000000   0.000000   0.743803
   28  O  2  Z    0.065981  -0.315132   0.093547   0.404258   0.000000
   29  O  2 XX    0.007570  -0.026146   0.019062  -0.054586   0.000000
   30  O  2 YY   -0.016693  -0.002441  -0.018374   0.022225   0.000000
   31  O  2 ZZ    0.009124   0.028587  -0.000687   0.032361   0.000000
   32  O  2 XY    0.000000   0.000000   0.000000   0.000000  -0.061051
   33  O  2 XZ    0.020951  -0.046888  -0.028399  -0.005220   0.000000
   34  O  2 YZ    0.000000   0.000000   0.000000   0.000000   0.020066
   35  O  3  S    0.000315   0.043486   0.060686   0.016382   0.000000
   36  O  3  S    0.000629  -0.168709  -0.299548  -0.077941   0.000000
   37  O  3  S   -0.010791  -0.277612  -0.175018   0.016227   0.000000
   38  O  3  X    0.030515   0.076070  -0.300183  -0.456709   0.000000
   39  O  3  Y    0.000000   0.000000   0.000000   0.000000   0.543175
   40  O  3  Z   -0.133635  -0.315883   0.054860   0.340002   0.000000
   41  O  3  X   -0.013753   0.284742   0.886850   0.731058   0.000000
   42  O  3  Y    0.000000   0.000000   0.000000   0.000000  -0.743803
   43  O  3  Z    0.065981   0.315132   0.093547  -0.404258   0.000000
   44  O  3 XX    0.007570   0.026146   0.019062   0.054586   0.000000
   45  O  3 YY   -0.016693   0.002441  -0.018374  -0.022225   0.000000
   46  O  3 ZZ    0.009124  -0.028587  -0.000687  -0.032361   0.000000
   47  O  3 XY    0.000000   0.000000   0.000000   0.000000  -0.061051
   48  O  3 XZ   -0.020951  -0.046888   0.028399  -0.005220   0.000000
   49  O  3 YZ    0.000000   0.000000   0.000000   0.000000  -0.020066

                     31         32         33         34         35
                    0.8194     0.8230     0.8291     0.8956     1.5001
                     A1         B2         B1         A1         A1  
    1  S  1  S    0.017117   0.000000   0.000000  -0.037277  -0.020058
    2  S  1  S    0.070256   0.000000   0.000000  -0.178347  -0.220630
    3  S  1  S    0.284013   0.000000   0.000000  -0.647311  -0.483615
    4  S  1  S   -0.116945   0.000000   0.000000   0.541093   1.570356
    5  S  1  X    0.000000   0.000000   0.063932   0.000000   0.000000
    6  S  1  Y    0.000000  -0.026427   0.000000   0.000000   0.000000
    7  S  1  Z   -0.031420   0.000000   0.000000  -0.006111  -0.008776
    8  S  1  X    0.000000   0.000000  -0.401751   0.000000   0.000000
    9  S  1  Y    0.000000   0.138372   0.000000   0.000000   0.000000
   10  S  1  Z    0.177393   0.000000   0.000000  -0.009771   0.047963
   11  S  1  X    0.000000   0.000000   0.112316   0.000000   0.000000
   12  S  1  Y    0.000000  -0.589616   0.000000   0.000000   0.000000
   13  S  1  Z   -0.554781   0.000000   0.000000  -0.109410   0.358183
   14  S  1 XX    0.015498   0.000000   0.000000   0.706346   0.408405
   15  S  1 YY    0.153707   0.000000   0.000000  -0.340905  -0.244726
   16  S  1 ZZ   -0.169206   0.000000   0.000000  -0.365442  -0.163680
   17  S  1 XY    0.000000   0.000000   0.000000   0.000000   0.000000
   18  S  1 XZ    0.000000   0.000000   0.452478   0.000000   0.000000
   19  S  1 YZ    0.000000  -0.190948   0.000000   0.000000   0.000000
   20  O  2  S   -0.003117   0.000000   0.007645   0.020155  -0.011928
   21  O  2  S    0.043476   0.000000  -0.100817  -0.052907   1.118772
   22  O  2  S    0.016693   0.000000   0.112634  -0.138125  -1.540034
   23  O  2  X    0.074776   0.000000   0.375152  -0.551998   0.092829
   24  O  2  Y    0.000000  -0.621522   0.000000   0.000000   0.000000
   25  O  2  Z   -0.614724   0.000000  -0.433824  -0.039659   0.037458
   26  O  2  X   -0.070635   0.000000  -0.464857   0.448807  -0.598531
   27  O  2  Y    0.000000   0.870823   0.000000   0.000000   0.000000
   28  O  2  Z    0.843193   0.000000   0.598161   0.194438   0.022170
   29  O  2 XX    0.011769   0.000000   0.005665  -0.017964   0.180374
   30  O  2 YY   -0.006995   0.000000  -0.019052  -0.003035  -0.104825
   31  O  2 ZZ   -0.004773   0.000000   0.013387   0.020999  -0.075549
   32  O  2 XY    0.000000  -0.027403   0.000000   0.000000   0.000000
   33  O  2 XZ   -0.030536   0.000000  -0.059902  -0.044704  -0.076913
   34  O  2 YZ    0.000000   0.001145   0.000000   0.000000   0.000000
   35  O  3  S   -0.003117   0.000000  -0.007645   0.020155  -0.011928
   36  O  3  S    0.043476   0.000000   0.100817  -0.052907   1.118772
   37  O  3  S    0.016693   0.000000  -0.112634  -0.138125  -1.540034
   38  O  3  X   -0.074776   0.000000   0.375152   0.551998  -0.092829
   39  O  3  Y    0.000000  -0.621522   0.000000   0.000000   0.000000
   40  O  3  Z   -0.614724   0.000000   0.433824  -0.039659   0.037458
   41  O  3  X    0.070635   0.000000  -0.464857  -0.448807   0.598531
   42  O  3  Y    0.000000   0.870823   0.000000   0.000000   0.000000
   43  O  3  Z    0.843193   0.000000  -0.598161   0.194438   0.022170
   44  O  3 XX    0.011769   0.000000  -0.005665  -0.017964   0.180374
   45  O  3 YY   -0.006995   0.000000   0.019052  -0.003035  -0.104825
   46  O  3 ZZ   -0.004773   0.000000  -0.013387   0.020999  -0.075549
   47  O  3 XY    0.000000   0.027403   0.000000   0.000000   0.000000
   48  O  3 XZ    0.030536   0.000000  -0.059902   0.044704   0.076913
   49  O  3 YZ    0.000000   0.001145   0.000000   0.000000   0.000000

                     36         37         38         39         40
                    1.7115     2.0717     2.0718     2.0778     2.0787
                     B1         B1         A2         B2         A1  
    1  S  1  S    0.000000   0.000000   0.000000   0.000000  -0.000766
    2  S  1  S    0.000000   0.000000   0.000000   0.000000  -0.002336
    3  S  1  S    0.000000   0.000000   0.000000   0.000000  -0.011486
    4  S  1  S    0.000000   0.000000   0.000000   0.000000   0.011204
    5  S  1  X   -0.026919  -0.000142   0.000000   0.000000   0.000000
    6  S  1  Y    0.000000   0.000000   0.000000  -0.007902   0.000000
    7  S  1  Z    0.000000   0.000000   0.000000   0.000000   0.002437
    8  S  1  X    0.140737  -0.000670   0.000000   0.000000   0.000000
    9  S  1  Y    0.000000   0.000000   0.000000   0.018397   0.000000
   10  S  1  Z    0.000000   0.000000   0.000000   0.000000  -0.007715
   11  S  1  X    1.462759   0.012206   0.000000   0.000000   0.000000
   12  S  1  Y    0.000000   0.000000   0.000000   0.033277   0.000000
   13  S  1  Z    0.000000   0.000000   0.000000   0.000000   0.000840
   14  S  1 XX    0.000000   0.000000   0.000000   0.000000   0.008250
   15  S  1 YY    0.000000   0.000000   0.000000   0.000000  -0.051719
   16  S  1 ZZ    0.000000   0.000000   0.000000   0.000000   0.043470
   17  S  1 XY    0.000000   0.000000   0.023237   0.000000   0.000000
   18  S  1 XZ    0.232932  -0.023781   0.000000   0.000000   0.000000
   19  S  1 YZ    0.000000   0.000000   0.000000  -0.031738   0.000000
   20  O  2  S    0.003420   0.000403   0.000000   0.000000   0.000617
   21  O  2  S   -1.228464  -0.007018   0.000000   0.000000  -0.000631
   22  O  2  S    1.952312   0.009354   0.000000   0.000000  -0.004501
   23  O  2  X   -0.069924  -0.000710   0.000000   0.000000  -0.003519
   24  O  2  Y    0.000000   0.000000  -0.003714   0.010799   0.000000
   25  O  2  Z    0.079821   0.004878   0.000000   0.000000   0.000782
   26  O  2  X    0.539796  -0.000046   0.000000   0.000000   0.000354
   27  O  2  Y    0.000000   0.000000   0.006448  -0.018072   0.000000
   28  O  2  Z   -0.283440  -0.008026   0.000000   0.000000  -0.001921
   29  O  2 XX   -0.193024  -0.085076   0.000000   0.000000  -0.009615
   30  O  2 YY    0.102033   0.609253   0.000000   0.000000   0.603519
   31  O  2 ZZ    0.090991  -0.524178   0.000000   0.000000  -0.593904
   32  O  2 XY    0.000000   0.000000   0.262968  -0.020587   0.000000
   33  O  2 XZ    0.086519  -0.254247   0.000000   0.000000  -0.148084
   34  O  2 YZ    0.000000   0.000000   0.656459   0.707160   0.000000
   35  O  3  S   -0.003420  -0.000403   0.000000   0.000000   0.000617
   36  O  3  S    1.228464   0.007018   0.000000   0.000000  -0.000631
   37  O  3  S   -1.952312  -0.009354   0.000000   0.000000  -0.004501
   38  O  3  X   -0.069924  -0.000710   0.000000   0.000000   0.003519
   39  O  3  Y    0.000000   0.000000   0.003714   0.010799   0.000000
   40  O  3  Z   -0.079821  -0.004878   0.000000   0.000000   0.000782
   41  O  3  X    0.539796  -0.000046   0.000000   0.000000  -0.000354
   42  O  3  Y    0.000000   0.000000  -0.006448  -0.018072   0.000000
   43  O  3  Z    0.283440   0.008026   0.000000   0.000000  -0.001921
   44  O  3 XX    0.193024   0.085076   0.000000   0.000000  -0.009615
   45  O  3 YY   -0.102033  -0.609253   0.000000   0.000000   0.603519
   46  O  3 ZZ   -0.090991   0.524178   0.000000   0.000000  -0.593904
   47  O  3 XY    0.000000   0.000000   0.262968   0.020587   0.000000
   48  O  3 XZ    0.086519  -0.254247   0.000000   0.000000   0.148084
   49  O  3 YZ    0.000000   0.000000  -0.656459   0.707160   0.000000

                     41         42         43         44         45
                    2.0884     2.1160     2.1578     2.1915     2.4724
                     B2         A1         B1         A2         B1  
    1  S  1  S    0.000000  -0.003764   0.000000   0.000000   0.000000
    2  S  1  S    0.000000   0.015090   0.000000   0.000000   0.000000
    3  S  1  S    0.000000  -0.025100   0.000000   0.000000   0.000000
    4  S  1  S    0.000000  -0.143781   0.000000   0.000000   0.000000
    5  S  1  X    0.000000   0.000000   0.041111   0.000000  -0.165506
    6  S  1  Y    0.025196   0.000000   0.000000   0.000000   0.000000
    7  S  1  Z    0.000000   0.032148   0.000000   0.000000   0.000000
    8  S  1  X    0.000000   0.000000  -0.164688   0.000000   0.691126
    9  S  1  Y   -0.054638   0.000000   0.000000   0.000000   0.000000
   10  S  1  Z    0.000000  -0.084956   0.000000   0.000000   0.000000
   11  S  1  X    0.000000   0.000000  -0.066626   0.000000   0.420107
   12  S  1  Y   -0.134388   0.000000   0.000000   0.000000   0.000000
   13  S  1  Z    0.000000  -0.163615   0.000000   0.000000   0.000000
   14  S  1 XX    0.000000   0.053290   0.000000   0.000000   0.000000
   15  S  1 YY    0.000000   0.058882   0.000000   0.000000   0.000000
   16  S  1 ZZ    0.000000  -0.112172   0.000000   0.000000   0.000000
   17  S  1 XY    0.000000   0.000000   0.000000   0.337869   0.000000
   18  S  1 XZ    0.000000   0.000000   0.242902   0.000000   0.366128
   19  S  1 YZ   -0.104790   0.000000   0.000000   0.000000   0.000000
   20  O  2  S    0.000000   0.001161  -0.000682   0.000000  -0.011862
   21  O  2  S    0.000000  -0.114738   0.106482   0.000000  -0.505403
   22  O  2  S    0.000000   0.162607  -0.146485   0.000000   0.857314
   23  O  2  X    0.000000  -0.053121   0.035611   0.000000  -0.084074
   24  O  2  Y   -0.045848   0.000000   0.000000  -0.039782   0.000000
   25  O  2  Z    0.000000  -0.039873  -0.047338   0.000000   0.022799
   26  O  2  X    0.000000   0.122002  -0.070927   0.000000   0.481612
   27  O  2  Y    0.087012   0.000000   0.000000   0.093243   0.000000
   28  O  2  Z    0.000000   0.077530   0.098181   0.000000  -0.117300
   29  O  2 XX    0.000000   0.411714   0.161119   0.000000   0.705830
   30  O  2 YY    0.000000  -0.095534   0.151566   0.000000  -0.334973
   31  O  2 ZZ    0.000000  -0.316179  -0.312685   0.000000  -0.370857
   32  O  2 XY    0.712361   0.000000   0.000000   0.665135   0.000000
   33  O  2 XZ    0.000000   0.566759   0.638730   0.000000  -0.175689
   34  O  2 YZ    0.017937   0.000000   0.000000  -0.264772   0.000000
   35  O  3  S    0.000000   0.001161   0.000682   0.000000   0.011862
   36  O  3  S    0.000000  -0.114738  -0.106482   0.000000   0.505403
   37  O  3  S    0.000000   0.162607   0.146485   0.000000  -0.857314
   38  O  3  X    0.000000   0.053121   0.035611   0.000000  -0.084074
   39  O  3  Y   -0.045848   0.000000   0.000000   0.039782   0.000000
   40  O  3  Z    0.000000  -0.039873   0.047338   0.000000  -0.022799
   41  O  3  X    0.000000  -0.122002  -0.070927   0.000000   0.481612
   42  O  3  Y    0.087012   0.000000   0.000000  -0.093243   0.000000
   43  O  3  Z    0.000000   0.077530  -0.098181   0.000000   0.117300
   44  O  3 XX    0.000000   0.411714  -0.161119   0.000000  -0.705830
   45  O  3 YY    0.000000  -0.095534  -0.151566   0.000000   0.334973
   46  O  3 ZZ    0.000000  -0.316179   0.312685   0.000000   0.370857
   47  O  3 XY   -0.712361   0.000000   0.000000   0.665135   0.000000
   48  O  3 XZ    0.000000  -0.566759   0.638730   0.000000  -0.175689
   49  O  3 YZ    0.017937   0.000000   0.000000   0.264772   0.000000

                     46
                    2.6191
                     A1  
    1  S  1  S    0.016753
    2  S  1  S   -0.139235
    3  S  1  S    0.021881
    4  S  1  S    1.063253
    5  S  1  X    0.000000
    6  S  1  Y    0.000000
    7  S  1  Z   -0.045933
    8  S  1  X    0.000000
    9  S  1  Y    0.000000
   10  S  1  Z    0.199604
   11  S  1  X    0.000000
   12  S  1  Y    0.000000
   13  S  1  Z    0.115140
   14  S  1 XX    0.751735
   15  S  1 YY   -0.404579
   16  S  1 ZZ   -0.347156
   17  S  1 XY    0.000000
   18  S  1 XZ    0.000000
   19  S  1 YZ    0.000000
   20  O  2  S    0.019680
   21  O  2  S    0.513882
   22  O  2  S   -0.925614
   23  O  2  X    0.049901
   24  O  2  Y    0.000000
   25  O  2  Z   -0.012761
   26  O  2  X   -0.570833
   27  O  2  Y    0.000000
   28  O  2  Z    0.163270
   29  O  2 XX   -0.619912
   30  O  2 YY    0.381808
   31  O  2 ZZ    0.238103
   32  O  2 XY    0.000000
   33  O  2 XZ    0.435966
   34  O  2 YZ    0.000000
   35  O  3  S    0.019680
   36  O  3  S    0.513882
   37  O  3  S   -0.925614
   38  O  3  X   -0.049901
   39  O  3  Y    0.000000
   40  O  3  Z   -0.012761
   41  O  3  X    0.570833
   42  O  3  Y    0.000000
   43  O  3  Z    0.163270
   44  O  3 XX   -0.619912
   45  O  3 YY    0.381808
   46  O  3 ZZ    0.238103
   47  O  3 XY    0.000000
   48  O  3 XZ   -0.435966
   49  O  3 YZ    0.000000
 ...... END OF RHF CALCULATION ......
 STEP CPU TIME =     4.22 TOTAL CPU TIME =        4.4 (    0.1 MIN)
 TOTAL WALL CLOCK TIME=        4.4 SECONDS, CPU UTILIZATION IS 100.00%

     ---------------------------------------------------------------------
     PROPERTIES FOR THE PBE      DFT FUNCTIONAL (RHF  TYPE) DENSITY MATRIX
     ---------------------------------------------------------------------

          -----------------
          ENERGY COMPONENTS
          -----------------

         WAVEFUNCTION NORMALIZATION =       1.0000000000

                ONE ELECTRON ENERGY =    -934.4378046672
                TWO ELECTRON ENERGY =     296.2570256532
           NUCLEAR REPULSION ENERGY =      90.0002370875
                                      ------------------
                       TOTAL ENERGY =    -548.1805419265

 ELECTRON-ELECTRON POTENTIAL ENERGY =     296.2570256532
  NUCLEUS-ELECTRON POTENTIAL ENERGY =   -1481.3186555707
   NUCLEUS-NUCLEUS POTENTIAL ENERGY =      90.0002370875
                                      ------------------
             TOTAL POTENTIAL ENERGY =   -1095.0613928300
               TOTAL KINETIC ENERGY =     546.8808509035
                 VIRIAL RATIO (V/T) =       2.0023765524

          ---------------------------------------
          MULLIKEN AND LOWDIN POPULATION ANALYSES
          ---------------------------------------

     ATOMIC MULLIKEN POPULATION IN EACH MOLECULAR ORBITAL

                      1          2          3          4          5

                  2.000000   2.000000   2.000000   2.000000   2.000000

    1             2.000005   0.001325   0.000571   2.000479   1.999896
    2            -0.000002   0.999337   0.999714  -0.000240   0.000052
    3            -0.000002   0.999337   0.999714  -0.000240   0.000052

                      6          7          8          9         10

                  2.000000   2.000000   2.000000   2.000000   2.000000

    1             2.000003   1.999977   0.580259   0.205589   1.147934
    2            -0.000001   0.000012   0.709870   0.897206   0.426033
    3            -0.000001   0.000012   0.709870   0.897206   0.426033

                     11         12         13         14         15

                  2.000000   2.000000   2.000000   2.000000   2.000000

    1             0.499452   1.115900   1.115087   0.053561   0.071683
    2             0.750274   0.442050   0.442456   0.973220   0.964158
    3             0.750274   0.442050   0.442456   0.973220   0.964158

                     16

                  2.000000

    1             0.426647
    2             0.786677
    3             0.786677

               ----- POPULATIONS IN EACH AO -----
                             MULLIKEN      LOWDIN
              1  S  1  S      2.00021     1.99605
              2  S  1  S      2.01050     1.97447
              3  S  1  S      1.01559     0.64620
              4  S  1  S      0.91805     0.56563
              5  S  1  X      1.99636     1.95231
              6  S  1  Y      1.99624     1.95485
              7  S  1  Z      1.99661     1.95810
              8  S  1  X      0.63759     0.57995
              9  S  1  Y      0.65096     0.62848
             10  S  1  Z      0.73354     0.71082
             11  S  1  X      0.08201     0.28037
             12  S  1  Y      0.46579     0.51349
             13  S  1  Z      0.44763     0.51340
             14  S  1 XX      0.04037     0.27963
             15  S  1 YY      0.10845     0.29098
             16  S  1 ZZ      0.05356     0.28646
             17  S  1 XY      0.06198     0.06298
             18  S  1 XZ      0.00292     0.07590
             19  S  1 YZ      0.00000     0.00274
             20  O  2  S      1.99807     1.98109
             21  O  2  S      0.85377     0.67023
             22  O  2  S      1.10028     0.59459
             23  O  2  X      0.82190     0.78517
             24  O  2  Y      0.84147     0.80845
             25  O  2  Z      1.04773     1.01647
             26  O  2  X      0.47653     0.55928
             27  O  2  Y      0.57066     0.60648
             28  O  2  Z      0.66845     0.70363
             29  O  2 XX      0.00160     0.21281
             30  O  2 YY      0.00414     0.21097
             31  O  2 ZZ      0.00294     0.20644
             32  O  2 XY      0.00308     0.00356
             33  O  2 XZ      0.00019     0.00419
             34  O  2 YZ      0.00000     0.00023
             35  O  3  S      1.99807     1.98109
             36  O  3  S      0.85377     0.67023
             37  O  3  S      1.10028     0.59459
             38  O  3  X      0.82190     0.78517
             39  O  3  Y      0.84147     0.80845
             40  O  3  Z      1.04773     1.01647
             41  O  3  X      0.47653     0.55928
             42  O  3  Y      0.57066     0.60648
             43  O  3  Z      0.66845     0.70363
             44  O  3 XX      0.00160     0.21281
             45  O  3 YY      0.00414     0.21097
             46  O  3 ZZ      0.00294     0.20644
             47  O  3 XY      0.00308     0.00356
             48  O  3 XZ      0.00019     0.00419
             49  O  3 YZ      0.00000     0.00023

          ----- MULLIKEN ATOMIC OVERLAP POPULATIONS -----
          (OFF-DIAGONAL ELEMENTS NEED TO BE MULTIPLIED BY 2)

             1           2           3

    1   14.8370082
    2    0.1906800   8.2003395
    3    0.1906800  -0.0002035   8.2003395

          TOTAL MULLIKEN AND LOWDIN ATOMIC POPULATIONS
       ATOM         MULL.POP.    CHARGE          LOW.POP.     CHARGE
    1 S            15.218368    0.781632        15.272815    0.727185
    2 O             8.390816   -0.390816         8.363593   -0.363593
    3 O             8.390816   -0.390816         8.363593   -0.363593

          MULLIKEN SPHERICAL HARMONIC POPULATIONS
       ATOM           S       P       D      F      G      H      I    TOTAL
    1 S             5.94    9.01    0.27   0.00   0.00   0.00   0.00   15.22
    2 O             3.95    4.43    0.01   0.00   0.00   0.00   0.00    8.39
    3 O             3.95    4.43    0.01   0.00   0.00   0.00   0.00    8.39

          -------------------------------
          BOND ORDER AND VALENCE ANALYSIS     BOND ORDER THRESHOLD=0.050
          -------------------------------

                   BOND                       BOND                       BOND
  ATOM PAIR DIST  ORDER      ATOM PAIR DIST  ORDER      ATOM PAIR DIST  ORDER
    1   2  1.700  1.640        1   3  1.700  1.640        2   3  3.284  0.513

                       TOTAL       BONDED        FREE
      ATOM            VALENCE     VALENCE     VALENCE
    1 S                 3.280       3.280       0.000
    2 O                 2.153       2.153       0.000
    3 O                 2.153       2.153       0.000

          ---------------------
          ELECTROSTATIC MOMENTS
          ---------------------

 POINT   1           X           Y           Z (BOHR)    CHARGE
                 0.000000    0.000000    0.000000        0.00 (A.U.)
         DX          DY          DZ         /D/  (DEBYE)
     0.000000    0.000000   -0.831653    0.831653
 ...... END OF PROPERTY EVALUATION ......
 STEP CPU TIME =     0.00 TOTAL CPU TIME =        4.4 (    0.1 MIN)
 TOTAL WALL CLOCK TIME=        4.4 SECONDS, CPU UTILIZATION IS  99.77%
               580000  WORDS OF DYNAMIC MEMORY USED
 EXECUTION OF GAMESS TERMINATED NORMALLY Thu Feb 26 00:19:46 2015
 DDI: 263624 bytes (0.3 MB / 0 MWords) used by master data server.

 ----------------------------------------
 CPU timing information for all processes
 ========================================
 0: 4.378 + 0.29 = 4.408
 ----------------------------------------
 ddikick.x: exited gracefully.
----- accounting info -----
Files used on the master node dftfe.crc.nd.edu were:
-rw-r--r-- 1 pmehta1 campus   37475 Feb 26 00:19 /tmp/gamess.dat
-rw-r--r-- 1 pmehta1 campus     142 Feb 26 00:19 /tmp/gamess.F05
-rw-r--r-- 1 pmehta1 campus 1980264 Feb 26 00:19 /tmp/gamess.F08
-rw-r--r-- 1 pmehta1 campus 1220440 Feb 26 00:19 /tmp/gamess.F10
Thu Feb 26 00:19:49 EST 2015
0.245u 0.176s 0:07.84 5.2%	0+0k 0+104io 0pf+0w
