----- GAMESS execution script 'rungms' -----
This job is running on host dftfe.crc.nd.edu
under operating system Linux at Thu Feb 26 00:15:31 EST 2015
Available scratch disk space (Kbyte units) at beginning of the job is
Filesystem     1K-blocks     Used Available Use% Mounted on
/dev/sda2      147771864 22812428 117453004  17% /
GAMESS temporary binary files will be written to /tmp
GAMESS supplementary output files will be written to /tmp
Copying input file gamess.inp to your run's scratch directory...

 Distributed Data Interface kickoff program.
 Initiating 1 compute processes on 1 nodes to run the following command:
 /opt/crc/gamess/2012R1/gamess/gamess.00.x gamess 

          ******************************************************
          *         GAMESS VERSION =  1 MAY 2012 (R1)          *
          *             FROM IOWA STATE UNIVERSITY             *
          * M.W.SCHMIDT, K.K.BALDRIDGE, J.A.BOATZ, S.T.ELBERT, *
          *   M.S.GORDON, J.H.JENSEN, S.KOSEKI, N.MATSUNAGA,   *
          *          K.A.NGUYEN, S.J.SU, T.L.WINDUS,           *
          *       TOGETHER WITH M.DUPUIS, J.A.MONTGOMERY       *
          *         J.COMPUT.CHEM.  14, 1347-1363(1993)        *
          **************** 64 BIT LINUX VERSION ****************

  SINCE 1993, STUDENTS AND POSTDOCS WORKING AT IOWA STATE UNIVERSITY
  AND ALSO IN THEIR VARIOUS JOBS AFTER LEAVING ISU HAVE MADE IMPORTANT
  CONTRIBUTIONS TO THE CODE:
     IVANA ADAMOVIC, CHRISTINE AIKENS, YURI ALEXEEV, POOJA ARORA,
     ANDREY ASADCHEV, ROB BELL, PRADIPTA BANDYOPADHYAY, JONATHAN BENTZ,
     BRETT BODE, GALINA CHABAN, WEI CHEN, CHEOL HO CHOI, PAUL DAY,
     ALBERT DEFUSCO, TIM DUDLEY, DMITRI FEDOROV, GRAHAM FLETCHER,
     MARK FREITAG, KURT GLAESEMANN, DAN KEMP, GRANT MERRILL,
     NORIYUKI MINEZAWA, JONATHAN MULLIN, TAKESHI NAGATA,
     SEAN NEDD, HEATHER NETZLOFF, BOSILJKA NJEGIC, RYAN OLSON, MIKE PAK,
     JIM SHOEMAKER, LYUDMILA SLIPCHENKO, SAROM SOK, JIE SONG,
     TETSUYA TAKETSUGU, SIMON WEBB, SOOHAENG YOO, FEDERICO ZAHARIEV

  ADDITIONAL CODE HAS BEEN PROVIDED BY COLLABORATORS IN OTHER GROUPS:
     IOWA STATE UNIVERSITY:
          JOE IVANIC, LAIMUTIS BYTAUTAS, KLAUS RUEDENBERG
     UNIVERSITY OF TOKYO: KIMIHIKO HIRAO, TAKAHITO NAKAJIMA,
          TAKAO TSUNEDA, MUNEAKI KAMIYA, SUSUMU YANAGISAWA,
          KIYOSHI YAGI, MAHITO CHIBA, SEIKEN TOKURA, NAOAKI KAWAKAMI
     UNIVERSITY OF AARHUS: FRANK JENSEN
     UNIVERSITY OF IOWA: VISVALDAS KAIRYS, HUI LI
     NATIONAL INST. OF STANDARDS AND TECHNOLOGY: WALT STEVENS, DAVID GARMER
     UNIVERSITY OF PISA: BENEDETTA MENNUCCI, JACOPO TOMASI
     UNIVERSITY OF MEMPHIS: HENRY KURTZ, PRAKASHAN KORAMBATH
     UNIVERSITY OF ALBERTA: TOBY ZENG, MARIUSZ KLOBUKOWSKI
     UNIVERSITY OF NEW ENGLAND: MARK SPACKMAN
     MIE UNIVERSITY: HIROAKI UMEDA
     MICHIGAN STATE UNIVERSITY:
          KAROL KOWALSKI, MARTA WLOCH, JEFFREY GOUR, JESSE LUTZ, PIOTR PIECUCH
     UNIVERSITY OF SILESIA: MONIKA MUSIAL, STANISLAW KUCHARSKI
     FACULTES UNIVERSITAIRES NOTRE-DAME DE LA PAIX:
          OLIVIER QUINET, BENOIT CHAMPAGNE
     UNIVERSITY OF CALIFORNIA - SANTA BARBARA: BERNARD KIRTMAN
     INSTITUTE FOR MOLECULAR SCIENCE:
          KAZUYA ISHIMURA, MICHIO KATOUDA, AND SHIGERU NAGASE
     UNIVERSITY OF NOTRE DAME: DAN CHIPMAN
     KYUSHU UNIVERSITY:
          HARUYUKI NAKANO,
          FENG LONG GU, JACEK KORCHOWIEC, MARCIN MAKOWSKI, AND YURIKO AOKI,
          HIROTOSHI MORI AND EISAKU MIYOSHI
     PENNSYLVANIA STATE UNIVERSITY:
          TZVETELIN IORDANOV, CHET SWALINA, JONATHAN SKONE,
          SHARON HAMMES-SCHIFFER
     WASEDA UNIVERSITY:
          MASATO KOBAYASHI, TOMOKO AKAMA, TSUGUKI TOUMA,
          TAKESHI YOSHIKAWA, YASUHIRO IKABATA, HIROMI NAKAI
     UNIVERSITY OF NEBRASKA:
          PEIFENG SU, DEJUN SI, NANDUN THELLAMUREGE, YALI WANG, HUI LI
     UNIVERSITY OF ZURICH:
          ROBERTO PEVERATI, KIM BALDRIDGE
     N. COPERNICUS UNIVERSITY AND JACKSON STATE UNIVERSITY:
          MARIA BARYSZ

 EXECUTION OF GAMESS BEGUN Thu Feb 26 00:15:31 2015

            ECHO OF THE FIRST FEW INPUT CARDS -
 INPUT CARD> $BASIS GBASIS=PC1 $END                                                         
 INPUT CARD> $CONTRL COORD=ZMT ISPHER=1 RUNTYP=ENERGY DFTTYP=PBE $END                       
 INPUT CARD>                                                                                
 INPUT CARD> $DATA                                                                          
 INPUT CARD>Title                                                                           
 INPUT CARD>Cnv 2                                                                           
 INPUT CARD>                                                                                
 INPUT CARD>S                                                                               
 INPUT CARD>O 1 1.40                                                                        
 INPUT CARD>O 1 1.40 2 120.0                                                                
 INPUT CARD> $END                                                                           
    1000000 WORDS OF MEMORY AVAILABLE

     BASIS OPTIONS
     -------------
     GBASIS=PC1          IGAUSS=       0      POLAR=NONE    
     NDFUNC=       0     NFFUNC=       0     DIFFSP=       F
     NPFUNC=       0      DIFFS=       F     BASNAM=        


     RUN TITLE
     ---------
 Title                                                                           

 THE POINT GROUP OF THE MOLECULE IS CNV     
 THE ORDER OF THE PRINCIPAL AXIS IS     2

 YOUR FULLY SUBSTITUTED Z-MATRIX IS
 S   
 O      1   1.4000000
 O      1   1.4000000  2  120.0000

 THE MOMENTS OF INERTIA ARE (AMU-ANGSTROM**2)
 IXX=     7.835   IYY=    47.025   IZZ=    54.860

 ATOM      ATOMIC                      COORDINATES (BOHR)
           CHARGE         X                   Y                   Z
 S          16.0     0.0000000000        0.0000000000       -0.6615876413
 O           8.0    -2.2911709962        0.0000000000        0.6612205501
 O           8.0     2.2911709962        0.0000000000        0.6612205501

          INTERNUCLEAR DISTANCES (ANGS.)
          ------------------------------

                1 S          2 O          3 O     

   1 S       0.0000000    1.4000000 *  1.4000000 *
   2 O       1.4000000 *  0.0000000    2.4248711 *
   3 O       1.4000000 *  2.4248711 *  0.0000000  

  * ... LESS THAN  3.000


     ATOMIC BASIS SET
     ----------------
 THE CONTRACTED PRIMITIVE FUNCTIONS HAVE BEEN UNNORMALIZED
 THE CONTRACTED BASIS FUNCTIONS ARE NOW NORMALIZED TO UNITY

  SHELL TYPE  PRIMITIVE        EXPONENT          CONTRACTION COEFFICIENT(S)

 S         

      1   S       1         55510.0000000    0.000587229760
      1   S       2          8326.7000000    0.004532413947
      1   S       3          1895.6000000    0.023265261648
      1   S       4           536.7700000    0.089696133027
      1   S       5           174.6700000    0.254098332277
      1   S       6            62.5780000    0.438665087637
      1   S       7            23.5730000    0.314547135094
      1   S       8             5.8908000    0.032727897102

      2   S       9          8326.7000000   -0.000019755715
      2   S      10          1895.6000000   -0.000043822381
      2   S      11           536.7700000   -0.001730264906
      2   S      12           174.6700000   -0.009381263460
      2   S      13            62.5780000   -0.064050766303
      2   S      14            23.5730000   -0.082478179196
      2   S      15             5.8908000    0.478342956889
      2   S      16             2.1852000    0.626896670208

      3   S      17          1895.6000000    0.000016227260
      3   S      18           536.7700000    0.000191135619
      3   S      19           174.6700000    0.001952069674
      3   S      20            62.5780000    0.010578701087
      3   S      21            23.5730000    0.022164934551
      3   S      22             5.8908000   -0.184968323118
      3   S      23             2.1852000   -0.480920750976
      3   S      24             0.4528200    1.243822243872

      4   S      25             0.1620200    1.000000000000

      5   P      26           395.4500000    0.004642761329
      5   P      27            92.8340000    0.036023396489
      5   P      28            29.2660000    0.149058869978
      5   P      29            10.5950000    0.360033266263
      5   P      30             4.0272000    0.455756476221
      5   P      31             1.5484000    0.206167664178

      6   P      32            92.8340000    0.000169901442
      6   P      33            29.2660000   -0.002541839934
      6   P      34            10.5950000   -0.007867614595
      6   P      35             4.0272000   -0.037231009184
      6   P      36             1.5484000    0.161417246830
      6   P      37             0.4613400    0.902230419976

      7   P      38             0.1313100    1.000000000000

      8   D      39             0.5500000    1.000000000000

 O         

     15   S      40          2306.7000000    0.005424388755
     15   S      41           347.1500000    0.040474749465
     15   S      42            78.8900000    0.180219634554
     15   S      43            21.8760000    0.462370311787
     15   S      44             6.6646000    0.454888396263

     16   S      45           347.1500000   -0.000655003786
     16   S      46            78.8900000   -0.005362052952
     16   S      47            21.8760000   -0.074902158894
     16   S      48             6.6646000   -0.181442579655
     16   S      49             1.0669000    1.102006874042

     17   S      50             0.3070000    1.000000000000

     18   P      51            17.0220000    0.068979967443
     18   P      52             3.6838000    0.351985516325
     18   P      53             0.9923400    0.724036547822

     19   P      54             0.2448700    1.000000000000

     20   D      55             1.0000000    1.000000000000

 TOTAL NUMBER OF BASIS SET SHELLS             =   20
 NUMBER OF CARTESIAN GAUSSIAN BASIS FUNCTIONS =   49
 NOTE: THIS RUN WILL RESTRICT THE MO VARIATION SPACE TO SPHERICAL HARMONICS.
 THE NUMBER OF ORBITALS KEPT IN THE VARIATIONAL SPACE WILL BE PRINTED LATER.
 NUMBER OF ELECTRONS                          =   32
 CHARGE OF MOLECULE                           =    0
 SPIN MULTIPLICITY                            =    1
 NUMBER OF OCCUPIED ORBITALS (ALPHA)          =   16
 NUMBER OF OCCUPIED ORBITALS (BETA )          =   16
 TOTAL NUMBER OF ATOMS                        =    3
 THE NUCLEAR REPULSION ENERGY IS      110.7304971089

     LEBEDEV GRID-BASED DFT OPTIONS
     ------------------------------
     DFTTYP=PBE     
     NRAD  =      96     NLEB  =     302
     NRAD0 =      24     NLEB0 =     110
     SWOFF =    5.00E-03 (PURE SCF -> DFT)
     SWITCH=    3.00E-04 (COARSE -> TIGHT GRID)
     THRESH=    0.00E+00 GTHRE=    1.00E+00

 GRIMME'S EMPIRICAL DISPERSION CORRECTION= F

     $CONTRL OPTIONS
     ---------------
 SCFTYP=RHF          RUNTYP=ENERGY       EXETYP=RUN     
 MPLEVL=       0     CITYP =NONE         CCTYP =NONE         VBTYP =NONE    
 DFTTYP=PBE          TDDFT =NONE    
 MULT  =       1     ICHARG=       0     NZVAR =       0     COORD =ZMT     
 PP    =NONE         RELWFN=NONE         LOCAL =NONE         NUMGRD=       F
 ISPHER=       1     NOSYM =       0     MAXIT =      30     UNITS =ANGS    
 PLTORB=       F     MOLPLT=       F     AIMPAC=       F     FRIEND=        
 NPRINT=       7     IREST =       0     GEOM  =INPUT   
 NORMF =       0     NORMP =       0     ITOL  =      20     ICUT  =       9
 INTTYP=BEST         GRDTYP=BEST         QMTTOL= 1.0E-06

     $SYSTEM OPTIONS
     ---------------
  REPLICATED MEMORY=     1000000 WORDS (ON EVERY NODE).
 DISTRIBUTED MEMDDI=           0 MILLION WORDS IN AGGREGATE,
 MEMDDI DISTRIBUTED OVER   1 PROCESSORS IS           0 WORDS/PROCESSOR.
 TOTAL MEMORY REQUESTED ON EACH PROCESSOR=     1000000 WORDS.
 TIMLIM=      525600.00 MINUTES, OR     365.0 DAYS.
 PARALL= F  BALTYP=  DLB     KDIAG=    0  COREFL= F
 MXSEQ2=     300 MXSEQ3=     150

          ----------------
          PROPERTIES INPUT
          ----------------

     MOMENTS            FIELD           POTENTIAL          DENSITY
 IEMOM =       1   IEFLD =       0   IEPOT =       0   IEDEN =       0
 WHERE =COMASS     WHERE =NUCLEI     WHERE =NUCLEI     WHERE =NUCLEI  
 OUTPUT=BOTH       OUTPUT=BOTH       OUTPUT=BOTH       OUTPUT=BOTH    
 IEMINT=       0   IEFINT=       0                     IEDINT=       0
                                                       MORB  =       0
          EXTRAPOLATION IN EFFECT
          DIIS IN EFFECT
 ORBITAL PRINTING OPTION: NPREO=     1    49     2     1

     -------------------------------
     INTEGRAL TRANSFORMATION OPTIONS
     -------------------------------
     NWORD  =            0
     CUTOFF = 1.0E-09     MPTRAN =       0
     DIRTRF =       F     AOINTS =DUP     

          ----------------------
          INTEGRAL INPUT OPTIONS
          ----------------------
 NOPK  =       1 NORDER=       0 SCHWRZ=       F

   --- ENCODED Z MATRIX ---
 COORD  TYPE   I   J   K   L   M   N
    1      1    3   1
    2      1    2   1
    3      2    2   1   3

 THE DETERMINANT OF THE G MATRIX IS 10**(    -4)

 THE DETERMINANT OF THE G MATRIX IS 10**(    -4)
 * * * WARNING * * *
 YOUR B MATRIX HAS A SMALL DETERMINANT.
 THIS SUGGESTS YOU MAY HAVE BADLY CHOSEN COORDINATES.

     ------------------------------------------
     THE POINT GROUP IS CNV, NAXIS= 2, ORDER= 4
     ------------------------------------------

 -- VARIATIONAL SPACE WILL BE RESTRICTED TO PURE SPHERICAL HARMONICS ONLY --
 AFTER EXCLUDING CONTAMINANT COMBINATIONS FROM THE CARTESIAN GAUSSIAN BASIS
 SET, THE NUMBER OF SPHERICAL HARMONICS KEPT IN THE VARIATION SPACE IS   46

     DIMENSIONS OF THE SYMMETRY SUBSPACES ARE
 A1  =   19     A2  =    5     B1  =   14     B2  =    8

 ..... DONE SETTING UP THE RUN .....
 STEP CPU TIME =     0.01 TOTAL CPU TIME =        0.0 (    0.0 MIN)
 TOTAL WALL CLOCK TIME=        0.0 SECONDS, CPU UTILIZATION IS  50.00%

          ********************
          1 ELECTRON INTEGRALS
          ********************
 ...... END OF ONE-ELECTRON INTEGRALS ......
 STEP CPU TIME =     0.00 TOTAL CPU TIME =        0.0 (    0.0 MIN)
 TOTAL WALL CLOCK TIME=        0.0 SECONDS, CPU UTILIZATION IS  33.33%

          -------------
          GUESS OPTIONS
          -------------
          GUESS =HUCKEL            NORB  =       0          NORDER=       0
          MIX   =       F          PRTMO =       F          PUNMO =       F
          TOLZ  = 1.0E-08          TOLE  = 1.0E-05
          SYMDEN=       F          PURIFY=       F

 INITIAL GUESS ORBITALS GENERATED BY HUCKEL   ROUTINE.
 HUCKEL GUESS REQUIRES     21583 WORDS.

 STATISTICS FOR GENERATION OF SYMMETRY ORBITAL -Q- MATRIX
 NUMBER OF CARTESIAN ATOMIC ORBITALS=         49
 NUMBER OF SPHERICAL CONTAMINANTS DROPPED=     3
 NUMBER OF LINEARLY DEPENDENT MOS DROPPED=     0
 TOTAL NUMBER OF MOS IN VARIATION SPACE=      46

 SYMMETRIES FOR INITIAL GUESS ORBITALS FOLLOW.   BOTH SET(S).
    16 ORBITALS ARE OCCUPIED (    7 CORE ORBITALS).
     8=?A1      9=?B1     10=?A1     11=B2      12=A1      13=B1      14=A2  
    15=B1      16=A1      17=B2      18=?A1     19=B1      20=A1      21=A1  
    22=A1      23=A1      24=A1      25=A1      26=A1  
 ...... END OF INITIAL ORBITAL SELECTION ......
 STEP CPU TIME =     0.01 TOTAL CPU TIME =        0.0 (    0.0 MIN)
 TOTAL WALL CLOCK TIME=        0.0 SECONDS, CPU UTILIZATION IS  66.67%

                    ----------------------
                    AO INTEGRAL TECHNOLOGY
                    ----------------------
     S,P,L SHELL ROTATED AXIS INTEGRALS, REPROGRAMMED BY
        KAZUYA ISHIMURA (IMS) AND JOSE SIERRA (SYNSTAR).
     S,P,D,L SHELL ROTATED AXIS INTEGRALS PROGRAMMED BY
        KAZUYA ISHIMURA (INSTITUTE FOR MOLECULAR SCIENCE).
     S,P,D,F,G SHELL TO TOTAL QUARTET ANGULAR MOMENTUM SUM 5,
        ERIC PROGRAM BY GRAHAM FLETCHER (ELORET AND NASA ADVANCED
        SUPERCOMPUTING DIVISION, AMES RESEARCH CENTER).
     S,P,D,F,G,L SHELL GENERAL RYS QUADRATURE PROGRAMMED BY
        MICHEL DUPUIS (PACIFIC NORTHWEST NATIONAL LABORATORY).

          --------------------
          2 ELECTRON INTEGRALS
          --------------------

 THE -PK- OPTION IS OFF, THE INTEGRALS ARE NOT IN SUPERMATRIX FORM.
 STORING   15000 INTEGRALS/RECORD ON DISK, USING 12 BYTES/INTEGRAL.
 TWO ELECTRON INTEGRAL EVALUATION REQUIRES   90606 WORDS OF MEMORY.
 II,JST,KST,LST =  1  1  1  1 NREC =         1 INTLOC =    1
 II,JST,KST,LST =  2  1  1  1 NREC =         1 INTLOC =    2
 II,JST,KST,LST =  3  1  1  1 NREC =         1 INTLOC =    7
 II,JST,KST,LST =  4  1  1  1 NREC =         1 INTLOC =   22
 II,JST,KST,LST =  5  1  1  1 NREC =         1 INTLOC =   56
 II,JST,KST,LST =  6  1  1  1 NREC =         1 INTLOC =  125
 II,JST,KST,LST =  7  1  1  1 NREC =         1 INTLOC =  329
 II,JST,KST,LST =  8  1  1  1 NREC =         1 INTLOC =  776
 II,JST,KST,LST =  9  1  1  1 NREC =         1 INTLOC = 2864
 II,JST,KST,LST = 10  1  1  1 NREC =         1 INTLOC = 2864
 II,JST,KST,LST = 11  1  1  1 NREC =         1 INTLOC = 2864
 II,JST,KST,LST = 12  1  1  1 NREC =         1 INTLOC = 2864
 II,JST,KST,LST = 13  1  1  1 NREC =         1 INTLOC = 2864
 II,JST,KST,LST = 14  1  1  1 NREC =         1 INTLOC = 2864
 II,JST,KST,LST = 15  1  1  1 NREC =         1 INTLOC = 2864
 II,JST,KST,LST = 16  1  1  1 NREC =         1 INTLOC = 5120
 II,JST,KST,LST = 17  1  1  1 NREC =         1 INTLOC = 8317
 II,JST,KST,LST = 18  1  1  1 NREC =         1 INTLOC =12754
 II,JST,KST,LST = 19  1  1  1 NREC =         3 INTLOC =  735
 II,JST,KST,LST = 20  1  1  1 NREC =         5 INTLOC = 1977
 TOTAL NUMBER OF NONZERO TWO-ELECTRON INTEGRALS =              178755
         12 INTEGRAL RECORDS WERE STORED ON DISK FILE  8.
  ...... END OF TWO-ELECTRON INTEGRALS .....
 STEP CPU TIME =     0.17 TOTAL CPU TIME =        0.2 (    0.0 MIN)
 TOTAL WALL CLOCK TIME=        0.2 SECONDS, CPU UTILIZATION IS  95.00%

          --------------------------
               R-PBE SCF CALCULATION
          --------------------------

     NUCLEAR ENERGY =       110.7304971089
     MAXIT =   30     NPUNCH=    2
     EXTRAP=T  DAMP=F  SHIFT=F  RSTRCT=F  DIIS=T  DEM=F  SOSCF=F
         DENSITY MATRIX CONVERGENCE THRESHOLD=  1.00E-05
     COARSE -> FINE DFT GRID SWITCH THRESHOLD=  3.00E-04 (SWITCH IN $DFT)
                   HF -> DFT SWITCH THRESHOLD=  5.00E-03 (SWOFF IN $DFT)
     MEMORY REQUIRED FOR RHF ITERS=    183108 WORDS.

 DFT CODE IS SWITCHING FROM THE FINE GRID NRAD= 96,  NLEB=  302
                      TO THE COARSE GRID NRAD0= 24, NLEB0=  110

     EXCHANGE FUNCTIONAL   =PBE       
     CORRELATION FUNCTIONAL=PBE       
     DFT THRESHOLD         =.460E-07
     GRID CHANGE THRESHOLD =.300E-03
 FOR AN EULER-MACLAURIN QUADRATURE USING  96 RADIAL POINTS:
 SMALLEST GAUSSIAN PRIMITIVE EXPONENT=        0.1313100000 OF TYPE -P-
 ON ATOM NUMBER   1 HAS RADIAL NORMALIZATION=  1.000000
  LARGEST GAUSSIAN PRIMITIVE EXPONENT=    55510.0000000000 OF TYPE -S-
 ON ATOM NUMBER   1 HAS RADIAL NORMALIZATION=  0.999999
 DFT IS SWITCHED OFF, PERFORMING PURE SCF UNTIL SWOFF THRESHOLD IS REACHED.

 ITER EX DEM     TOTAL ENERGY        E CHANGE  DENSITY CHANGE    DIIS ERROR
   1  0  0     -546.0738382974  -546.0738382974   0.327615606   1.414332251
          * * *   INITIATING DIIS PROCEDURE   * * *
   2  1  0     -546.9488208668    -0.8749825694   0.403123774   0.203536917
   3  2  0     -547.0428701262    -0.0940492594   0.100286642   0.199475937
   4  3  0     -547.1227817679    -0.0799116417   0.029726748   0.015201582
   5  4  0     -547.1237379748    -0.0009562069   0.018585355   0.004680048
   6  5  0     -547.1238728730    -0.0001348982   0.005293602   0.001408147
   7  6  0     -547.1238908756    -0.0000180026   0.000811686   0.000339101
 CONVERGED TO SWOFF, SO DFT CALCULATION IS NOW SWITCHED ON.
          * * *   INITIATING DIIS PROCEDURE   * * *
   8  7  0     -548.2350030664    -1.1111121907   0.200440344   0.106383637
   9  8  0     -548.2502274910    -0.0152244247   0.161699108   0.067763927
  10  9  0     -548.2466039856     0.0036235054   0.064382618   0.091009889
  11 10  0     -548.2655935793    -0.0189895937   0.014968950   0.013287175
  12 11  0     -548.2659402502    -0.0003466710   0.000587346   0.000950493
  13 12  0     -548.2659415674    -0.0000013171   0.000392995   0.000143834
  14 13  0     -548.2659416345    -0.0000000672   0.000017972   0.000016471
 DFT CODE IS SWITCHING BACK TO THE FINE GRID
          * * *   INITIATING DIIS PROCEDURE   * * *
  15 14  0     -548.2457311886     0.0202104459   0.005619479   0.006470490
  16 15  0     -548.2458540928    -0.0001229042   0.002234745   0.002102000
  17 16  0     -548.2458475609     0.0000065319   0.002054299   0.002903469
  18 17  0     -548.2458615426    -0.0000139817   0.000585629   0.000558865
  19 18  0     -548.2458623838    -0.0000008413   0.000107463   0.000065738
  20 19  0     -548.2458623964    -0.0000000126   0.000014181   0.000004093
  21 20  0     -548.2458623964    -0.0000000001   0.000002260   0.000000613
  22 21  0     -548.2458623964     0.0000000000   0.000000190   0.000000079

          -----------------
          DENSITY CONVERGED
          -----------------
     TIME TO FORM FOCK OPERATORS=       4.4 SECONDS (       0.2 SEC/ITER)
     TIME TO SOLVE SCF EQUATIONS=       0.0 SECONDS (       0.0 SEC/ITER)

 FINAL R-PBE ENERGY IS     -548.2458623964 AFTER  22 ITERATIONS
 DFT EXCHANGE + CORRELATION ENERGY =       -42.6345739923
 TOTAL ELECTRON NUMBER             =        31.9999966941

          ------------
          EIGENVECTORS
          ------------

                      1          2          3          4          5
                  -88.2016   -18.7917   -18.7917    -7.8300    -5.8509
                     A1         A1         B1         A1         B1  
    1  S  1  S    1.002985  -0.000062   0.000000  -0.273992   0.000000
    2  S  1  S   -0.010255  -0.000212   0.000000   1.039483   0.000000
    3  S  1  S    0.001912  -0.000816   0.000000   0.041775   0.000000
    4  S  1  S   -0.000589   0.012153   0.000000  -0.010288   0.000000
    5  S  1  X    0.000000   0.000000  -0.000171   0.000000   0.996264
    6  S  1  Y    0.000000   0.000000   0.000000   0.000000   0.000000
    7  S  1  Z    0.000054  -0.000042   0.000000   0.012468   0.000000
    8  S  1  X    0.000000   0.000000  -0.001023   0.000000   0.010307
    9  S  1  Y    0.000000   0.000000   0.000000   0.000000   0.000000
   10  S  1  Z    0.000167   0.001385   0.000000   0.002111   0.000000
   11  S  1  X    0.000000   0.000000  -0.005306   0.000000  -0.000222
   12  S  1  Y    0.000000   0.000000   0.000000   0.000000   0.000000
   13  S  1  Z    0.000016   0.004773   0.000000  -0.000406   0.000000
   14  S  1 XX    0.000157   0.000306   0.000000   0.001485   0.000000
   15  S  1 YY   -0.000113  -0.000672   0.000000  -0.000899   0.000000
   16  S  1 ZZ   -0.000044   0.000366   0.000000  -0.000586   0.000000
   17  S  1 XY    0.000000   0.000000   0.000000   0.000000   0.000000
   18  S  1 XZ    0.000000   0.000000   0.000301   0.000000   0.001499
   19  S  1 YZ    0.000000   0.000000   0.000000   0.000000   0.000000
   20  O  2  S    0.000016   0.703301   0.703231  -0.000182   0.000624
   21  O  2  S    0.000039   0.026448   0.025949  -0.000089  -0.000609
   22  O  2  S   -0.000211  -0.014868  -0.012422  -0.000747   0.000113
   23  O  2  X   -0.000073   0.000976   0.001099  -0.000353  -0.000932
   24  O  2  Y    0.000000   0.000000   0.000000   0.000000   0.000000
   25  O  2  Z    0.000041  -0.000399  -0.000692   0.000189   0.000647
   26  O  2  X   -0.000196  -0.004143  -0.002072  -0.001454   0.000129
   27  O  2  Y    0.000000   0.000000   0.000000   0.000000   0.000000
   28  O  2  Z    0.000138   0.001124   0.002077   0.001160   0.000046
   29  O  2 XX   -0.000087  -0.000416  -0.000024  -0.000081  -0.000346
   30  O  2 YY    0.000081   0.000197   0.000152   0.000151   0.000431
   31  O  2 ZZ    0.000006   0.000219  -0.000128  -0.000070  -0.000086
   32  O  2 XY    0.000000   0.000000   0.000000   0.000000   0.000000
   33  O  2 XZ    0.000124   0.000242   0.000183   0.000256   0.000722
   34  O  2 YZ    0.000000   0.000000   0.000000   0.000000   0.000000
   35  O  3  S    0.000016   0.703301  -0.703231  -0.000182  -0.000624
   36  O  3  S    0.000039   0.026448  -0.025949  -0.000089   0.000609
   37  O  3  S   -0.000211  -0.014868   0.012422  -0.000747  -0.000113
   38  O  3  X    0.000073  -0.000976   0.001099   0.000353  -0.000932
   39  O  3  Y    0.000000   0.000000   0.000000   0.000000   0.000000
   40  O  3  Z    0.000041  -0.000399   0.000692   0.000189  -0.000647
   41  O  3  X    0.000196   0.004143  -0.002072   0.001454   0.000129
   42  O  3  Y    0.000000   0.000000   0.000000   0.000000   0.000000
   43  O  3  Z    0.000138   0.001124  -0.002077   0.001160  -0.000046
   44  O  3 XX   -0.000087  -0.000416   0.000024  -0.000081   0.000346
   45  O  3 YY    0.000081   0.000197  -0.000152   0.000151  -0.000431
   46  O  3 ZZ    0.000006   0.000219   0.000128  -0.000070   0.000086
   47  O  3 XY    0.000000   0.000000   0.000000   0.000000   0.000000
   48  O  3 XZ   -0.000124  -0.000242   0.000183  -0.000256   0.000722
   49  O  3 YZ    0.000000   0.000000   0.000000   0.000000   0.000000

                      6          7          8          9         10
                   -5.8497    -5.8434    -1.0858    -0.9889    -0.5653
                     B2         A1         A1         B1         A1  
    1  S  1  S    0.000000   0.003578   0.053513   0.000000   0.062732
    2  S  1  S    0.000000  -0.013606  -0.153703   0.000000  -0.169633
    3  S  1  S    0.000000   0.000179   0.310353   0.000000   0.407597
    4  S  1  S    0.000000  -0.000834   0.112414   0.000000   0.351343
    5  S  1  X    0.000000   0.000000   0.000000   0.147387   0.000000
    6  S  1  Y    0.996735   0.000000   0.000000   0.000000   0.000000
    7  S  1  Z    0.000000   0.996652  -0.069955   0.000000   0.055889
    8  S  1  X    0.000000   0.000000   0.000000  -0.281873   0.000000
    9  S  1  Y    0.009400   0.000000   0.000000   0.000000   0.000000
   10  S  1  Z    0.000000   0.009094   0.128240   0.000000  -0.113894
   11  S  1  X    0.000000   0.000000   0.000000  -0.021064   0.000000
   12  S  1  Y   -0.000301   0.000000   0.000000   0.000000   0.000000
   13  S  1  Z    0.000000  -0.000371  -0.007280   0.000000  -0.087136
   14  S  1 XX    0.000000  -0.000600   0.046774   0.000000  -0.010628
   15  S  1 YY    0.000000  -0.000441  -0.036760   0.000000   0.023303
   16  S  1 ZZ    0.000000   0.001041  -0.010014   0.000000  -0.012675
   17  S  1 XY    0.000000   0.000000   0.000000   0.000000   0.000000
   18  S  1 XZ    0.000000   0.000000   0.000000  -0.086036   0.000000
   19  S  1 YZ    0.000822   0.000000   0.000000   0.000000   0.000000
   20  O  2  S    0.000000  -0.000375  -0.121439  -0.144144   0.101188
   21  O  2  S    0.000000   0.000295   0.237842   0.288349  -0.207333
   22  O  2  S    0.000000   0.000648   0.259423   0.312708  -0.343656
   23  O  2  X    0.000000   0.000773   0.117434   0.101803   0.139476
   24  O  2  Y    0.000141   0.000000   0.000000   0.000000   0.000000
   25  O  2  Z    0.000000  -0.000319  -0.059237  -0.066644  -0.127114
   26  O  2  X    0.000000   0.000196   0.041795   0.025502   0.068414
   27  O  2  Y   -0.000088   0.000000   0.000000   0.000000   0.000000
   28  O  2  Z    0.000000  -0.000279  -0.016751  -0.020619  -0.056799
   29  O  2 XX    0.000000   0.000449   0.011867   0.003446   0.004093
   30  O  2 YY    0.000000  -0.000276  -0.006588  -0.003482  -0.006300
   31  O  2 ZZ    0.000000  -0.000172  -0.005279   0.000036   0.002207
   32  O  2 XY    0.000153   0.000000   0.000000   0.000000   0.000000
   33  O  2 XZ    0.000000  -0.000417  -0.011071  -0.009057  -0.010238
   34  O  2 YZ   -0.000123   0.000000   0.000000   0.000000   0.000000
   35  O  3  S    0.000000  -0.000375  -0.121439   0.144144   0.101188
   36  O  3  S    0.000000   0.000295   0.237842  -0.288349  -0.207333
   37  O  3  S    0.000000   0.000648   0.259423  -0.312708  -0.343656
   38  O  3  X    0.000000  -0.000773  -0.117434   0.101803  -0.139476
   39  O  3  Y    0.000141   0.000000   0.000000   0.000000   0.000000
   40  O  3  Z    0.000000  -0.000319  -0.059237   0.066644  -0.127114
   41  O  3  X    0.000000  -0.000196  -0.041795   0.025502  -0.068414
   42  O  3  Y   -0.000088   0.000000   0.000000   0.000000   0.000000
   43  O  3  Z    0.000000  -0.000279  -0.016751   0.020619  -0.056799
   44  O  3 XX    0.000000   0.000449   0.011867  -0.003446   0.004093
   45  O  3 YY    0.000000  -0.000276  -0.006588   0.003482  -0.006300
   46  O  3 ZZ    0.000000  -0.000172  -0.005279  -0.000036   0.002207
   47  O  3 XY   -0.000153   0.000000   0.000000   0.000000   0.000000
   48  O  3 XZ    0.000000   0.000417   0.011071  -0.009057   0.010238
   49  O  3 YZ   -0.000123   0.000000   0.000000   0.000000   0.000000

                     11         12         13         14         15
                   -0.4632    -0.4497    -0.4388    -0.3420    -0.3143
                     B2         A1         B1         A2         B1  
    1  S  1  S    0.000000  -0.003947   0.000000   0.000000   0.000000
    2  S  1  S    0.000000   0.032281   0.000000   0.000000   0.000000
    3  S  1  S    0.000000   0.002640   0.000000   0.000000   0.000000
    4  S  1  S    0.000000  -0.201281   0.000000   0.000000   0.000000
    5  S  1  X    0.000000   0.000000  -0.163882   0.000000  -0.009516
    6  S  1  Y   -0.203981   0.000000   0.000000   0.000000   0.000000
    7  S  1  Z    0.000000  -0.186327   0.000000   0.000000   0.000000
    8  S  1  X    0.000000   0.000000   0.386879   0.000000   0.013703
    9  S  1  Y    0.471987   0.000000   0.000000   0.000000   0.000000
   10  S  1  Z    0.000000   0.427891   0.000000   0.000000   0.000000
   11  S  1  X    0.000000   0.000000   0.032946   0.000000   0.120629
   12  S  1  Y    0.223249   0.000000   0.000000   0.000000   0.000000
   13  S  1  Z    0.000000   0.155438   0.000000   0.000000   0.000000
   14  S  1 XX    0.000000  -0.067227   0.000000   0.000000   0.000000
   15  S  1 YY    0.000000  -0.011227   0.000000   0.000000   0.000000
   16  S  1 ZZ    0.000000   0.078454   0.000000   0.000000   0.000000
   17  S  1 XY    0.000000   0.000000   0.000000  -0.142684   0.000000
   18  S  1 XZ    0.000000   0.000000   0.036592   0.000000  -0.131065
   19  S  1 YZ    0.059086   0.000000   0.000000   0.000000   0.000000
   20  O  2  S    0.000000   0.034245  -0.069207   0.000000  -0.000259
   21  O  2  S    0.000000  -0.069915   0.138850   0.000000  -0.000458
   22  O  2  S    0.000000  -0.118011   0.270360   0.000000   0.021876
   23  O  2  X    0.000000   0.289362  -0.274878   0.000000   0.344990
   24  O  2  Y    0.312844   0.000000   0.000000   0.462028   0.000000
   25  O  2  Z    0.000000   0.166292   0.261831   0.000000   0.321847
   26  O  2  X    0.000000   0.178461  -0.143077   0.000000   0.222633
   27  O  2  Y    0.178328   0.000000   0.000000   0.321466   0.000000
   28  O  2  Z    0.000000   0.096932   0.151157   0.000000   0.224872
   29  O  2 XX    0.000000   0.021642  -0.003759   0.000000   0.018877
   30  O  2 YY    0.000000  -0.005924   0.009039   0.000000   0.000037
   31  O  2 ZZ    0.000000  -0.015718  -0.005280   0.000000  -0.018914
   32  O  2 XY    0.022298   0.000000   0.000000   0.019512   0.000000
   33  O  2 XZ    0.000000   0.003159   0.015710   0.000000   0.010403
   34  O  2 YZ   -0.011984   0.000000   0.000000  -0.012083   0.000000
   35  O  3  S    0.000000   0.034245   0.069207   0.000000   0.000259
   36  O  3  S    0.000000  -0.069915  -0.138850   0.000000   0.000458
   37  O  3  S    0.000000  -0.118011  -0.270360   0.000000  -0.021876
   38  O  3  X    0.000000  -0.289362  -0.274878   0.000000   0.344990
   39  O  3  Y    0.312844   0.000000   0.000000  -0.462028   0.000000
   40  O  3  Z    0.000000   0.166292  -0.261831   0.000000  -0.321847
   41  O  3  X    0.000000  -0.178461  -0.143077   0.000000   0.222633
   42  O  3  Y    0.178328   0.000000   0.000000  -0.321466   0.000000
   43  O  3  Z    0.000000   0.096932  -0.151157   0.000000  -0.224872
   44  O  3 XX    0.000000   0.021642   0.003759   0.000000  -0.018877
   45  O  3 YY    0.000000  -0.005924  -0.009039   0.000000  -0.000037
   46  O  3 ZZ    0.000000  -0.015718   0.005280   0.000000   0.018914
   47  O  3 XY   -0.022298   0.000000   0.000000   0.019512   0.000000
   48  O  3 XZ    0.000000  -0.003159   0.015710   0.000000   0.010403
   49  O  3 YZ   -0.011984   0.000000   0.000000   0.012083   0.000000

                     16         17         18         19         20
                   -0.2795    -0.1423     0.0457     0.0754     0.3425
                     A1         B2         A1         B1         B2  
    1  S  1  S    0.020381   0.000000   0.020051   0.000000   0.000000
    2  S  1  S   -0.108540   0.000000  -0.141473   0.000000   0.000000
    3  S  1  S    0.068285   0.000000   0.034274   0.000000   0.000000
    4  S  1  S    0.618760   0.000000   1.152224   0.000000   0.000000
    5  S  1  X    0.000000   0.000000   0.000000  -0.136396   0.000000
    6  S  1  Y    0.000000  -0.210866   0.000000   0.000000   0.284041
    7  S  1  Z    0.121454   0.000000  -0.137638   0.000000   0.000000
    8  S  1  X    0.000000   0.000000   0.000000   0.350379   0.000000
    9  S  1  Y    0.000000   0.539573   0.000000   0.000000  -1.094307
   10  S  1  Z   -0.286869   0.000000   0.374917   0.000000   0.000000
   11  S  1  X    0.000000   0.000000   0.000000   1.311080   0.000000
   12  S  1  Y    0.000000   0.541814   0.000000   0.000000   1.237236
   13  S  1  Z   -0.110762   0.000000   0.967545   0.000000   0.000000
   14  S  1 XX   -0.161953   0.000000  -0.160582   0.000000   0.000000
   15  S  1 YY    0.068576   0.000000   0.237844   0.000000   0.000000
   16  S  1 ZZ    0.093377   0.000000  -0.077262   0.000000   0.000000
   17  S  1 XY    0.000000   0.000000   0.000000   0.000000   0.000000
   18  S  1 XZ    0.000000   0.000000   0.000000  -0.225880   0.000000
   19  S  1 YZ    0.000000  -0.082179   0.000000   0.000000  -0.208954
   20  O  2  S    0.005034   0.000000   0.058370  -0.056364   0.000000
   21  O  2  S   -0.011901   0.000000  -0.102122   0.084335   0.000000
   22  O  2  S   -0.062387   0.000000  -0.602261   0.670506   0.000000
   23  O  2  X   -0.084580   0.000000  -0.311781   0.029625   0.000000
   24  O  2  Y    0.000000  -0.379168   0.000000   0.000000  -0.011105
   25  O  2  Z    0.402783   0.000000  -0.056046  -0.264000   0.000000
   26  O  2  X   -0.060012   0.000000  -0.428824   0.084399   0.000000
   27  O  2  Y    0.000000  -0.350421   0.000000   0.000000  -0.098246
   28  O  2  Z    0.300280   0.000000  -0.062415  -0.311740   0.000000
   29  O  2 XX    0.000238   0.000000  -0.002735   0.003835   0.000000
   30  O  2 YY    0.004513   0.000000   0.009575   0.001129   0.000000
   31  O  2 ZZ   -0.004751   0.000000  -0.006840  -0.004964   0.000000
   32  O  2 XY    0.000000  -0.003646   0.000000   0.000000  -0.033786
   33  O  2 XZ    0.011942   0.000000   0.004574  -0.001959   0.000000
   34  O  2 YZ    0.000000  -0.000489   0.000000   0.000000   0.011831
   35  O  3  S    0.005034   0.000000   0.058370   0.056364   0.000000
   36  O  3  S   -0.011901   0.000000  -0.102122  -0.084335   0.000000
   37  O  3  S   -0.062387   0.000000  -0.602261  -0.670506   0.000000
   38  O  3  X    0.084580   0.000000   0.311781   0.029625   0.000000
   39  O  3  Y    0.000000  -0.379168   0.000000   0.000000  -0.011105
   40  O  3  Z    0.402783   0.000000  -0.056046   0.264000   0.000000
   41  O  3  X    0.060012   0.000000   0.428824   0.084399   0.000000
   42  O  3  Y    0.000000  -0.350421   0.000000   0.000000  -0.098246
   43  O  3  Z    0.300280   0.000000  -0.062415   0.311740   0.000000
   44  O  3 XX    0.000238   0.000000  -0.002735  -0.003835   0.000000
   45  O  3 YY    0.004513   0.000000   0.009575  -0.001129   0.000000
   46  O  3 ZZ   -0.004751   0.000000  -0.006840   0.004964   0.000000
   47  O  3 XY    0.000000   0.003646   0.000000   0.000000   0.033786
   48  O  3 XZ   -0.011942   0.000000  -0.004574  -0.001959   0.000000
   49  O  3 YZ    0.000000  -0.000489   0.000000   0.000000   0.011831

                     21         22         23         24         25
                    0.3625     0.4201     0.4324     0.5417     0.5645
                     A1         A1         B1         B2         A1  
    1  S  1  S    0.019427  -0.114991   0.000000   0.000000   0.004724
    2  S  1  S    0.049928  -0.387428   0.000000   0.000000  -0.021425
    3  S  1  S    0.278858  -1.730955   0.000000   0.000000   0.029298
    4  S  1  S   -0.042721   2.469340   0.000000   0.000000   0.583423
    5  S  1  X    0.000000   0.000000   0.269187   0.000000   0.000000
    6  S  1  Y    0.000000   0.000000   0.000000   0.057589   0.000000
    7  S  1  Z    0.282452   0.022715   0.000000   0.000000   0.006829
    8  S  1  X    0.000000   0.000000  -0.936142   0.000000   0.000000
    9  S  1  Y    0.000000   0.000000   0.000000  -0.243763   0.000000
   10  S  1  Z   -1.049420  -0.032867   0.000000   0.000000  -0.011855
   11  S  1  X    0.000000   0.000000   1.428350   0.000000   0.000000
   12  S  1  Y    0.000000   0.000000   0.000000   0.295146   0.000000
   13  S  1  Z    1.227749   0.393345   0.000000   0.000000   0.360015
   14  S  1 XX    0.303357   0.181093   0.000000   0.000000  -0.057188
   15  S  1 YY   -0.102975  -0.060669   0.000000   0.000000  -0.755368
   16  S  1 ZZ   -0.200382  -0.120423   0.000000   0.000000   0.812556
   17  S  1 XY    0.000000   0.000000   0.000000   0.000000   0.000000
   18  S  1 XZ    0.000000   0.000000   0.473221   0.000000   0.000000
   19  S  1 YZ    0.000000   0.000000   0.000000   0.924628   0.000000
   20  O  2  S    0.004792   0.019321  -0.014264   0.000000   0.025812
   21  O  2  S    0.050851  -0.011487  -0.046105   0.000000  -0.079138
   22  O  2  S   -0.309379  -0.569170   0.608761   0.000000  -0.280135
   23  O  2  X    0.143637   0.213474  -0.239665   0.000000  -0.112524
   24  O  2  Y    0.000000   0.000000   0.000000  -0.273798   0.000000
   25  O  2  Z   -0.020289  -0.129935   0.150999   0.000000  -0.289467
   26  O  2  X   -0.092282  -0.232666   0.144510   0.000000  -0.244751
   27  O  2  Y    0.000000   0.000000   0.000000   0.033257   0.000000
   28  O  2  Z   -0.015678   0.127747  -0.095224   0.000000   0.195342
   29  O  2 XX   -0.039976  -0.046787   0.018091   0.000000   0.023058
   30  O  2 YY    0.011165   0.036113  -0.033814   0.000000  -0.022834
   31  O  2 ZZ    0.028810   0.010675   0.015722   0.000000  -0.000224
   32  O  2 XY    0.000000   0.000000   0.000000   0.036521   0.000000
   33  O  2 XZ   -0.004417   0.044973  -0.055009   0.000000   0.042409
   34  O  2 YZ    0.000000   0.000000   0.000000   0.021422   0.000000
   35  O  3  S    0.004792   0.019321   0.014264   0.000000   0.025812
   36  O  3  S    0.050851  -0.011487   0.046105   0.000000  -0.079138
   37  O  3  S   -0.309379  -0.569170  -0.608761   0.000000  -0.280135
   38  O  3  X   -0.143637  -0.213474  -0.239665   0.000000   0.112524
   39  O  3  Y    0.000000   0.000000   0.000000  -0.273798   0.000000
   40  O  3  Z   -0.020289  -0.129935  -0.150999   0.000000  -0.289467
   41  O  3  X    0.092282   0.232666   0.144510   0.000000   0.244751
   42  O  3  Y    0.000000   0.000000   0.000000   0.033257   0.000000
   43  O  3  Z   -0.015678   0.127747   0.095224   0.000000   0.195342
   44  O  3 XX   -0.039976  -0.046787  -0.018091   0.000000   0.023058
   45  O  3 YY    0.011165   0.036113   0.033814   0.000000  -0.022834
   46  O  3 ZZ    0.028810   0.010675  -0.015722   0.000000  -0.000224
   47  O  3 XY    0.000000   0.000000   0.000000  -0.036521   0.000000
   48  O  3 XZ    0.004417  -0.044973  -0.055009   0.000000  -0.042409
   49  O  3 YZ    0.000000   0.000000   0.000000   0.021422   0.000000

                     26         27         28         29         30
                    0.5802     0.6438     0.6573     0.7694     0.7876
                     A2         A1         B1         A2         A1  
    1  S  1  S    0.000000   0.034132   0.000000   0.000000   0.014311
    2  S  1  S    0.000000   0.118465   0.000000   0.000000   0.080983
    3  S  1  S    0.000000   0.539064   0.000000   0.000000   0.262012
    4  S  1  S    0.000000   1.076014   0.000000   0.000000  -0.116419
    5  S  1  X    0.000000   0.000000  -0.187267   0.000000   0.000000
    6  S  1  Y    0.000000   0.000000   0.000000   0.000000   0.000000
    7  S  1  Z    0.000000  -0.114537   0.000000   0.000000  -0.045094
    8  S  1  X    0.000000   0.000000   1.003320   0.000000   0.000000
    9  S  1  Y    0.000000   0.000000   0.000000   0.000000   0.000000
   10  S  1  Z    0.000000   0.616311   0.000000   0.000000   0.198869
   11  S  1  X    0.000000   0.000000   0.132768   0.000000   0.000000
   12  S  1  Y    0.000000   0.000000   0.000000   0.000000   0.000000
   13  S  1  Z    0.000000   0.123610   0.000000   0.000000  -0.746019
   14  S  1 XX    0.000000   0.505748   0.000000   0.000000   0.358983
   15  S  1 YY    0.000000  -0.298594   0.000000   0.000000   0.135043
   16  S  1 ZZ    0.000000  -0.207154   0.000000   0.000000  -0.494026
   17  S  1 XY    0.932597   0.000000   0.000000   0.418345   0.000000
   18  S  1 XZ    0.000000   0.000000   0.465888   0.000000   0.000000
   19  S  1 YZ    0.000000   0.000000   0.000000   0.000000   0.000000
   20  O  2  S    0.000000   0.056092  -0.058948   0.000000  -0.000139
   21  O  2  S    0.000000  -0.098563   0.139670   0.000000   0.051236
   22  O  2  S    0.000000  -0.602286   0.486648   0.000000   0.025156
   23  O  2  X    0.000000   0.352755  -0.161857   0.000000  -0.245966
   24  O  2  Y    0.342762   0.000000   0.000000  -0.564448   0.000000
   25  O  2  Z    0.000000   0.059475   0.210655   0.000000  -0.454911
   26  O  2  X    0.000000  -1.015631   0.926080   0.000000   0.280269
   27  O  2  Y   -0.008684   0.000000   0.000000   0.824371   0.000000
   28  O  2  Z    0.000000   0.411545  -0.610686   0.000000   0.877123
   29  O  2 XX    0.000000  -0.000902  -0.012323   0.000000  -0.022165
   30  O  2 YY    0.000000  -0.005938   0.008280   0.000000  -0.007166
   31  O  2 ZZ    0.000000   0.006841   0.004043   0.000000   0.029332
   32  O  2 XY   -0.038097   0.000000   0.000000  -0.042254   0.000000
   33  O  2 XZ    0.000000  -0.017615   0.015023   0.000000  -0.039843
   34  O  2 YZ    0.047999   0.000000   0.000000   0.028648   0.000000
   35  O  3  S    0.000000   0.056092   0.058948   0.000000  -0.000139
   36  O  3  S    0.000000  -0.098563  -0.139670   0.000000   0.051236
   37  O  3  S    0.000000  -0.602286  -0.486648   0.000000   0.025156
   38  O  3  X    0.000000  -0.352755  -0.161857   0.000000   0.245966
   39  O  3  Y   -0.342762   0.000000   0.000000   0.564448   0.000000
   40  O  3  Z    0.000000   0.059475  -0.210655   0.000000  -0.454911
   41  O  3  X    0.000000   1.015631   0.926080   0.000000  -0.280269
   42  O  3  Y    0.008684   0.000000   0.000000  -0.824371   0.000000
   43  O  3  Z    0.000000   0.411545   0.610686   0.000000   0.877123
   44  O  3 XX    0.000000  -0.000902   0.012323   0.000000  -0.022165
   45  O  3 YY    0.000000  -0.005938  -0.008280   0.000000  -0.007166
   46  O  3 ZZ    0.000000   0.006841  -0.004043   0.000000   0.029332
   47  O  3 XY   -0.038097   0.000000   0.000000  -0.042254   0.000000
   48  O  3 XZ    0.000000   0.017615   0.015023   0.000000   0.039843
   49  O  3 YZ   -0.047999   0.000000   0.000000  -0.028648   0.000000

                     31         32         33         34         35
                    0.8449     0.8637     1.0147     1.1668     1.6135
                     B2         B1         A1         B1         B1  
    1  S  1  S    0.000000   0.000000  -0.005619   0.000000   0.000000
    2  S  1  S    0.000000   0.000000  -0.213325   0.000000   0.000000
    3  S  1  S    0.000000   0.000000  -0.333588   0.000000   0.000000
    4  S  1  S    0.000000   0.000000   0.674594   0.000000   0.000000
    5  S  1  X    0.000000  -0.050498   0.000000  -0.136795  -0.011269
    6  S  1  Y   -0.029320   0.000000   0.000000   0.000000   0.000000
    7  S  1  Z    0.000000   0.000000  -0.094054   0.000000   0.000000
    8  S  1  X    0.000000   0.225848   0.000000   0.388776   0.293256
    9  S  1  Y    0.097383   0.000000   0.000000   0.000000   0.000000
   10  S  1  Z    0.000000   0.000000   0.279344   0.000000   0.000000
   11  S  1  X    0.000000  -0.503893   0.000000   0.604062   1.191196
   12  S  1  Y   -0.807938   0.000000   0.000000   0.000000   0.000000
   13  S  1  Z    0.000000   0.000000   0.123076   0.000000   0.000000
   14  S  1 XX    0.000000   0.000000   0.906414   0.000000   0.000000
   15  S  1 YY    0.000000   0.000000  -0.695061   0.000000   0.000000
   16  S  1 ZZ    0.000000   0.000000  -0.211353   0.000000   0.000000
   17  S  1 XY    0.000000   0.000000   0.000000   0.000000   0.000000
   18  S  1 XZ    0.000000   0.228214   0.000000   0.984659   0.158225
   19  S  1 YZ   -0.353863   0.000000   0.000000   0.000000   0.000000
   20  O  2  S    0.000000  -0.000213   0.032866  -0.035720   0.006416
   21  O  2  S    0.000000  -0.047352  -0.216044   0.088664  -1.241553
   22  O  2  S    0.000000  -0.017874  -0.275978   0.587201   2.000196
   23  O  2  X    0.000000  -0.253975  -0.439965   0.617426   0.004289
   24  O  2  Y   -0.585130   0.000000   0.000000   0.000000   0.000000
   25  O  2  Z    0.000000  -0.560108   0.380836  -0.191783   0.065296
   26  O  2  X    0.000000   0.558918   0.199564  -0.235821   0.341845
   27  O  2  Y    0.982306   0.000000   0.000000   0.000000   0.000000
   28  O  2  Z    0.000000   0.718155  -0.116999  -0.015527  -0.444418
   29  O  2 XX    0.000000  -0.051161  -0.050102  -0.049824  -0.066090
   30  O  2 YY    0.000000   0.017638  -0.025072  -0.032060   0.109289
   31  O  2 ZZ    0.000000   0.033523   0.075174   0.081883  -0.043200
   32  O  2 XY   -0.046460   0.000000   0.000000   0.000000   0.000000
   33  O  2 XZ    0.000000  -0.015116   0.006958   0.013995   0.140808
   34  O  2 YZ    0.014918   0.000000   0.000000   0.000000   0.000000
   35  O  3  S    0.000000   0.000213   0.032866   0.035720  -0.006416
   36  O  3  S    0.000000   0.047352  -0.216044  -0.088664   1.241553
   37  O  3  S    0.000000   0.017874  -0.275978  -0.587201  -2.000196
   38  O  3  X    0.000000  -0.253975   0.439965   0.617426   0.004289
   39  O  3  Y   -0.585130   0.000000   0.000000   0.000000   0.000000
   40  O  3  Z    0.000000   0.560108   0.380836   0.191783  -0.065296
   41  O  3  X    0.000000   0.558918  -0.199564  -0.235821   0.341845
   42  O  3  Y    0.982306   0.000000   0.000000   0.000000   0.000000
   43  O  3  Z    0.000000  -0.718155  -0.116999   0.015527   0.444418
   44  O  3 XX    0.000000   0.051161  -0.050102   0.049824   0.066090
   45  O  3 YY    0.000000  -0.017638  -0.025072   0.032060  -0.109289
   46  O  3 ZZ    0.000000  -0.033523   0.075174  -0.081883   0.043200
   47  O  3 XY    0.046460   0.000000   0.000000   0.000000   0.000000
   48  O  3 XZ    0.000000  -0.015116  -0.006958   0.013995   0.140808
   49  O  3 YZ    0.014918   0.000000   0.000000   0.000000   0.000000

                     36         37         38         39         40
                    1.7257     2.0514     2.0620     2.0643     2.0900
                     A1         A2         B1         B2         A1  
    1  S  1  S   -0.019399   0.000000   0.000000   0.000000  -0.001273
    2  S  1  S   -0.190684   0.000000   0.000000   0.000000  -0.017366
    3  S  1  S   -0.433506   0.000000   0.000000   0.000000  -0.038719
    4  S  1  S    2.548310   0.000000   0.000000   0.000000  -0.015332
    5  S  1  X    0.000000   0.000000  -0.008334   0.000000   0.000000
    6  S  1  Y    0.000000   0.000000   0.000000  -0.024789   0.000000
    7  S  1  Z   -0.026832   0.000000   0.000000   0.000000  -0.000023
    8  S  1  X    0.000000   0.000000  -0.000883   0.000000   0.000000
    9  S  1  Y    0.000000   0.000000   0.000000   0.092440   0.000000
   10  S  1  Z    0.251400   0.000000   0.000000   0.000000  -0.016936
   11  S  1  X    0.000000   0.000000   0.050926   0.000000   0.000000
   12  S  1  Y    0.000000   0.000000   0.000000   0.024413   0.000000
   13  S  1  Z    0.992368   0.000000   0.000000   0.000000  -0.010063
   14  S  1 XX    0.289766   0.000000   0.000000   0.000000   0.080289
   15  S  1 YY   -0.315392   0.000000   0.000000   0.000000  -0.162004
   16  S  1 ZZ    0.025626   0.000000   0.000000   0.000000   0.081716
   17  S  1 XY    0.000000   0.035506   0.000000   0.000000   0.000000
   18  S  1 XZ    0.000000   0.000000  -0.006969   0.000000   0.000000
   19  S  1 YZ    0.000000   0.000000   0.000000  -0.041849   0.000000
   20  O  2  S    0.008754   0.000000  -0.001046   0.000000   0.002610
   21  O  2  S    1.231885   0.000000   0.038715   0.000000  -0.071649
   22  O  2  S   -2.315214   0.000000  -0.027116   0.000000   0.056474
   23  O  2  X   -0.027161   0.000000   0.049842   0.000000  -0.045611
   24  O  2  Y    0.000000  -0.018432   0.000000   0.027769   0.000000
   25  O  2  Z    0.077982   0.000000   0.023671   0.000000   0.014382
   26  O  2  X   -0.695962   0.000000  -0.083082   0.000000   0.048994
   27  O  2  Y    0.000000   0.030166   0.000000  -0.045104   0.000000
   28  O  2  Z    0.122285   0.000000  -0.037437   0.000000  -0.008449
   29  O  2 XX    0.176884   0.000000  -0.325134   0.000000  -0.128571
   30  O  2 YY   -0.092366   0.000000   0.595209   0.000000   0.604063
   31  O  2 ZZ   -0.084518   0.000000  -0.270075   0.000000  -0.475492
   32  O  2 XY    0.000000   0.487172   0.000000   0.138617   0.000000
   33  O  2 XZ   -0.124696   0.000000  -0.380993   0.000000  -0.308808
   34  O  2 YZ    0.000000   0.513329   0.000000   0.694989   0.000000
   35  O  3  S    0.008754   0.000000   0.001046   0.000000   0.002610
   36  O  3  S    1.231885   0.000000  -0.038715   0.000000  -0.071649
   37  O  3  S   -2.315214   0.000000   0.027116   0.000000   0.056474
   38  O  3  X    0.027161   0.000000   0.049842   0.000000   0.045611
   39  O  3  Y    0.000000   0.018432   0.000000   0.027769   0.000000
   40  O  3  Z    0.077982   0.000000  -0.023671   0.000000   0.014382
   41  O  3  X    0.695962   0.000000  -0.083082   0.000000  -0.048994
   42  O  3  Y    0.000000  -0.030166   0.000000  -0.045104   0.000000
   43  O  3  Z    0.122285   0.000000   0.037437   0.000000  -0.008449
   44  O  3 XX    0.176884   0.000000   0.325134   0.000000  -0.128571
   45  O  3 YY   -0.092366   0.000000  -0.595209   0.000000   0.604063
   46  O  3 ZZ   -0.084518   0.000000   0.270075   0.000000  -0.475492
   47  O  3 XY    0.000000   0.487172   0.000000  -0.138617   0.000000
   48  O  3 XZ    0.124696   0.000000  -0.380993   0.000000   0.308808
   49  O  3 YZ    0.000000  -0.513329   0.000000   0.694989   0.000000

                     41         42         43         44         45
                    2.1700     2.2719     2.3538     2.5255     2.8351
                     B1         B2         A2         A1         A1  
    1  S  1  S    0.000000   0.000000   0.000000  -0.000508  -0.053484
    2  S  1  S    0.000000   0.000000   0.000000   0.006629  -0.107136
    3  S  1  S    0.000000   0.000000   0.000000  -0.007081  -0.820232
    4  S  1  S    0.000000   0.000000   0.000000  -0.384076  -1.440412
    5  S  1  X   -0.030534   0.000000   0.000000   0.000000   0.000000
    6  S  1  Y    0.000000   0.073162   0.000000   0.000000   0.000000
    7  S  1  Z    0.000000   0.000000   0.000000   0.072587   0.117704
    8  S  1  X    0.173245   0.000000   0.000000   0.000000   0.000000
    9  S  1  Y    0.000000  -0.268786   0.000000   0.000000   0.000000
   10  S  1  Z    0.000000   0.000000   0.000000  -0.311375  -0.790603
   11  S  1  X    0.096544   0.000000   0.000000   0.000000   0.000000
   12  S  1  Y    0.000000  -0.164562   0.000000   0.000000   0.000000
   13  S  1  Z    0.000000   0.000000   0.000000  -0.331155  -0.314826
   14  S  1 XX    0.000000   0.000000   0.000000   0.480442  -0.644332
   15  S  1 YY    0.000000   0.000000   0.000000   0.045479   0.481090
   16  S  1 ZZ    0.000000   0.000000   0.000000  -0.525921   0.163242
   17  S  1 XY    0.000000   0.000000   0.560657   0.000000   0.000000
   18  S  1 XZ   -0.358717   0.000000   0.000000   0.000000   0.000000
   19  S  1 YZ    0.000000  -0.351764   0.000000   0.000000   0.000000
   20  O  2  S    0.002739   0.000000   0.000000  -0.003211  -0.038691
   21  O  2  S   -0.185618   0.000000   0.000000  -0.241659  -0.646592
   22  O  2  S    0.189727   0.000000   0.000000   0.409431   1.610016
   23  O  2  X   -0.043525   0.000000   0.000000  -0.055543   0.072071
   24  O  2  Y    0.000000  -0.061711  -0.028307   0.000000   0.000000
   25  O  2  Z    0.099145   0.000000   0.000000   0.005954  -0.054790
   26  O  2  X   -0.002657   0.000000   0.000000   0.261602   0.757504
   27  O  2  Y    0.000000   0.212019   0.185647   0.000000   0.000000
   28  O  2  Z   -0.180796   0.000000   0.000000   0.169872  -0.431772
   29  O  2 XX   -0.454694   0.000000   0.000000   0.615960   0.459557
   30  O  2 YY   -0.195410   0.000000   0.000000  -0.047486  -0.445038
   31  O  2 ZZ    0.650105   0.000000   0.000000  -0.568474  -0.014519
   32  O  2 XY    0.000000   0.729040   0.560883   0.000000   0.000000
   33  O  2 XZ   -0.275721   0.000000   0.000000   0.365062  -0.669022
   34  O  2 YZ    0.000000  -0.157332  -0.515670   0.000000   0.000000
   35  O  3  S   -0.002739   0.000000   0.000000  -0.003211  -0.038691
   36  O  3  S    0.185618   0.000000   0.000000  -0.241659  -0.646592
   37  O  3  S   -0.189727   0.000000   0.000000   0.409431   1.610016
   38  O  3  X   -0.043525   0.000000   0.000000   0.055543  -0.072071
   39  O  3  Y    0.000000  -0.061711   0.028307   0.000000   0.000000
   40  O  3  Z   -0.099145   0.000000   0.000000   0.005954  -0.054790
   41  O  3  X   -0.002657   0.000000   0.000000  -0.261602  -0.757504
   42  O  3  Y    0.000000   0.212019  -0.185647   0.000000   0.000000
   43  O  3  Z    0.180796   0.000000   0.000000   0.169872  -0.431772
   44  O  3 XX    0.454694   0.000000   0.000000   0.615960   0.459557
   45  O  3 YY    0.195410   0.000000   0.000000  -0.047486  -0.445038
   46  O  3 ZZ   -0.650105   0.000000   0.000000  -0.568474  -0.014519
   47  O  3 XY    0.000000  -0.729040   0.560883   0.000000   0.000000
   48  O  3 XZ   -0.275721   0.000000   0.000000  -0.365062   0.669022
   49  O  3 YZ    0.000000  -0.157332   0.515670   0.000000   0.000000

                     46
                    2.9205
                     B1  
    1  S  1  S    0.000000
    2  S  1  S    0.000000
    3  S  1  S    0.000000
    4  S  1  S    0.000000
    5  S  1  X   -0.225853
    6  S  1  Y    0.000000
    7  S  1  Z    0.000000
    8  S  1  X    1.436694
    9  S  1  Y    0.000000
   10  S  1  Z    0.000000
   11  S  1  X    0.426886
   12  S  1  Y    0.000000
   13  S  1  Z    0.000000
   14  S  1 XX    0.000000
   15  S  1 YY    0.000000
   16  S  1 ZZ    0.000000
   17  S  1 XY    0.000000
   18  S  1 XZ    0.760232
   19  S  1 YZ    0.000000
   20  O  2  S   -0.040269
   21  O  2  S   -0.522801
   22  O  2  S    1.435649
   23  O  2  X    0.140802
   24  O  2  Y    0.000000
   25  O  2  Z   -0.071473
   26  O  2  X    0.707828
   27  O  2  Y    0.000000
   28  O  2  Z   -0.409030
   29  O  2 XX    0.590380
   30  O  2 YY   -0.406445
   31  O  2 ZZ   -0.183934
   32  O  2 XY    0.000000
   33  O  2 XZ   -0.653892
   34  O  2 YZ    0.000000
   35  O  3  S    0.040269
   36  O  3  S    0.522801
   37  O  3  S   -1.435649
   38  O  3  X    0.140802
   39  O  3  Y    0.000000
   40  O  3  Z    0.071473
   41  O  3  X    0.707828
   42  O  3  Y    0.000000
   43  O  3  Z    0.409030
   44  O  3 XX   -0.590380
   45  O  3 YY    0.406445
   46  O  3 ZZ    0.183934
   47  O  3 XY    0.000000
   48  O  3 XZ   -0.653892
   49  O  3 YZ    0.000000
 ...... END OF RHF CALCULATION ......
 STEP CPU TIME =     4.44 TOTAL CPU TIME =        4.6 (    0.1 MIN)
 TOTAL WALL CLOCK TIME=        4.7 SECONDS, CPU UTILIZATION IS  99.57%

     ---------------------------------------------------------------------
     PROPERTIES FOR THE PBE      DFT FUNCTIONAL (RHF  TYPE) DENSITY MATRIX
     ---------------------------------------------------------------------

          -----------------
          ENERGY COMPONENTS
          -----------------

         WAVEFUNCTION NORMALIZATION =       1.0000000000

                ONE ELECTRON ENERGY =    -975.5108714555
                TWO ELECTRON ENERGY =     316.5345119501
           NUCLEAR REPULSION ENERGY =     110.7304971089
                                      ------------------
                       TOTAL ENERGY =    -548.2458623964

 ELECTRON-ELECTRON POTENTIAL ENERGY =     316.5345119501
  NUCLEUS-ELECTRON POTENTIAL ENERGY =   -1523.6225827499
   NUCLEUS-NUCLEUS POTENTIAL ENERGY =     110.7304971089
                                      ------------------
             TOTAL POTENTIAL ENERGY =   -1096.3575736908
               TOTAL KINETIC ENERGY =     548.1117112944
                 VIRIAL RATIO (V/T) =       2.0002447514

          ---------------------------------------
          MULLIKEN AND LOWDIN POPULATION ANALYSES
          ---------------------------------------

     ATOMIC MULLIKEN POPULATION IN EACH MOLECULAR ORBITAL

                      1          2          3          4          5

                  2.000000   2.000000   2.000000   2.000000   2.000000

    1             2.000036   0.002072   0.001124   2.001883   1.999711
    2            -0.000018   0.998964   0.999438  -0.000942   0.000144
    3            -0.000018   0.998964   0.999438  -0.000942   0.000144

                      6          7          8          9         10

                  2.000000   2.000000   2.000000   2.000000   2.000000

    1             1.999999   1.999777   0.693034   0.447615   0.892530
    2             0.000000   0.000111   0.653483   0.776193   0.553735
    3             0.000000   0.000111   0.653483   0.776193   0.553735

                     11         12         13         14         15

                  2.000000   2.000000   2.000000   2.000000   2.000000

    1             0.997288   0.791315   0.340306   0.127199   0.167570
    2             0.501356   0.604342   0.829847   0.936400   0.916215
    3             0.501356   0.604342   0.829847   0.936400   0.916215

                     16

                  2.000000

    1             0.776882
    2             0.611559
    3             0.611559

               ----- POPULATIONS IN EACH AO -----
                             MULLIKEN      LOWDIN
              1  S  1  S      2.00024     1.99576
              2  S  1  S      2.01011     1.95802
              3  S  1  S      0.94043     0.56333
              4  S  1  S      0.87628     0.55030
              5  S  1  X      1.99662     1.95527
              6  S  1  Y      1.99602     1.95425
              7  S  1  Z      1.99716     1.96264
              8  S  1  X      0.69688     0.61044
              9  S  1  Y      0.65062     0.60268
             10  S  1  Z      0.84226     0.81311
             11  S  1  X      0.09803     0.25140
             12  S  1  Y      0.33073     0.39177
             13  S  1  Z      0.25744     0.40096
             14  S  1 XX      0.09350     0.32027
             15  S  1 YY      0.14010     0.25342
             16  S  1 ZZ      0.12720     0.28911
             17  S  1 XY      0.16479     0.15521
             18  S  1 XZ      0.01991     0.19730
             19  S  1 YZ      0.00000     0.01945
             20  O  2  S      1.99792     1.98051
             21  O  2  S      0.82569     0.63690
             22  O  2  S      1.01491     0.54016
             23  O  2  X      0.95850     0.91633
             24  O  2  Y      0.86979     0.82815
             25  O  2  Z      1.06903     1.03866
             26  O  2  X      0.46264     0.55918
             27  O  2  Y      0.55934     0.59903
             28  O  2  Z      0.59743     0.65680
             29  O  2 XX      0.00442     0.20563
             30  O  2 YY      0.00562     0.19717
             31  O  2 ZZ      0.00647     0.19540
             32  O  2 XY      0.00691     0.00847
             33  O  2 XZ      0.00216     0.01260
             34  O  2 YZ      0.00000     0.00267
             35  O  3  S      1.99792     1.98051
             36  O  3  S      0.82569     0.63690
             37  O  3  S      1.01491     0.54016
             38  O  3  X      0.95850     0.91633
             39  O  3  Y      0.86979     0.82815
             40  O  3  Z      1.06903     1.03866
             41  O  3  X      0.46264     0.55918
             42  O  3  Y      0.55934     0.59903
             43  O  3  Z      0.59743     0.65680
             44  O  3 XX      0.00442     0.20563
             45  O  3 YY      0.00562     0.19717
             46  O  3 ZZ      0.00647     0.19540
             47  O  3 XY      0.00691     0.00847
             48  O  3 XZ      0.00216     0.01260
             49  O  3 YZ      0.00000     0.00267

          ----- MULLIKEN ATOMIC OVERLAP POPULATIONS -----
          (OFF-DIAGONAL ELEMENTS NEED TO BE MULTIPLIED BY 2)

             1           2           3

    1   14.5162136
    2    0.3610640   8.0569964
    3    0.3610640  -0.0372312   8.0569964

          TOTAL MULLIKEN AND LOWDIN ATOMIC POPULATIONS
       ATOM         MULL.POP.    CHARGE          LOW.POP.     CHARGE
    1 S            15.238342    0.761658        15.244671    0.755329
    2 O             8.380829   -0.380829         8.377665   -0.377665
    3 O             8.380829   -0.380829         8.377665   -0.377665

          MULLIKEN SPHERICAL HARMONIC POPULATIONS
       ATOM           S       P       D      F      G      H      I    TOTAL
    1 S             5.83    8.87    0.55   0.00   0.00   0.00   0.00   15.24
    2 O             3.84    4.52    0.03   0.00   0.00   0.00   0.00    8.38
    3 O             3.84    4.52    0.03   0.00   0.00   0.00   0.00    8.38

          -------------------------------
          BOND ORDER AND VALENCE ANALYSIS     BOND ORDER THRESHOLD=0.050
          -------------------------------

                   BOND                       BOND                       BOND
  ATOM PAIR DIST  ORDER      ATOM PAIR DIST  ORDER      ATOM PAIR DIST  ORDER
    1   2  1.400  1.893        1   3  1.400  1.893        2   3  2.425  0.217

                       TOTAL       BONDED        FREE
      ATOM            VALENCE     VALENCE     VALENCE
    1 S                 3.786       3.786       0.000
    2 O                 2.111       2.111       0.000
    3 O                 2.111       2.111       0.000

          ---------------------
          ELECTROSTATIC MOMENTS
          ---------------------

 POINT   1           X           Y           Z (BOHR)    CHARGE
                 0.000000    0.000000    0.000000        0.00 (A.U.)
         DX          DY          DZ         /D/  (DEBYE)
     0.000000    0.000000   -1.557127    1.557127
 ...... END OF PROPERTY EVALUATION ......
 STEP CPU TIME =     0.01 TOTAL CPU TIME =        4.6 (    0.1 MIN)
 TOTAL WALL CLOCK TIME=        4.7 SECONDS, CPU UTILIZATION IS  99.78%
               580000  WORDS OF DYNAMIC MEMORY USED
 EXECUTION OF GAMESS TERMINATED NORMALLY Thu Feb 26 00:15:36 2015
 DDI: 263624 bytes (0.3 MB / 0 MWords) used by master data server.

 ----------------------------------------
 CPU timing information for all processes
 ========================================
 0: 4.614 + 0.37 = 4.652
 ----------------------------------------
 ddikick.x: exited gracefully.
----- accounting info -----
Files used on the master node dftfe.crc.nd.edu were:
-rw-r--r-- 1 pmehta1 campus   37475 Feb 26 00:15 /tmp/gamess.dat
-rw-r--r-- 1 pmehta1 campus     142 Feb 26 00:15 /tmp/gamess.F05
-rw-r--r-- 1 pmehta1 campus 2160288 Feb 26 00:15 /tmp/gamess.F08
-rw-r--r-- 1 pmehta1 campus 1220440 Feb 26 00:15 /tmp/gamess.F10
Thu Feb 26 00:15:39 EST 2015
0.249u 0.168s 0:08.07 4.9%	0+0k 0+104io 0pf+0w
