   1   1   1   0
  0.1820629E+02  0.2952878E-09  0.2952878E-09  0.2952878E-09  0.5000000E-15
   1.0000000000000000E-004
  CAR 
 Au, FCC                                 
     10.00000000    -10.00000000  500      4.83422392      1.00000000
    -10.000  0.0000E+00  0.0000E+00
     -9.960  0.0000E+00  0.0000E+00
     -9.920  0.0000E+00  0.0000E+00
     -9.880  0.0000E+00  0.0000E+00
     -9.840  0.0000E+00  0.0000E+00
     -9.800  0.0000E+00  0.0000E+00
     -9.760  0.0000E+00  0.0000E+00
     -9.719  0.0000E+00  0.0000E+00
     -9.679  0.0000E+00  0.0000E+00
     -9.639  0.0000E+00  0.0000E+00
     -9.599  0.0000E+00  0.0000E+00
     -9.559  0.0000E+00  0.0000E+00
     -9.519  0.0000E+00  0.0000E+00
     -9.479  0.0000E+00  0.0000E+00
     -9.439  0.0000E+00  0.0000E+00
     -9.399  0.0000E+00  0.0000E+00
     -9.359  0.0000E+00  0.0000E+00
     -9.319  0.0000E+00  0.0000E+00
     -9.279  0.0000E+00  0.0000E+00
     -9.238  0.0000E+00  0.0000E+00
     -9.198  0.0000E+00  0.0000E+00
     -9.158  0.0000E+00  0.0000E+00
     -9.118  0.0000E+00  0.0000E+00
     -9.078  0.0000E+00  0.0000E+00
     -9.038  0.0000E+00  0.0000E+00
     -8.998  0.0000E+00  0.0000E+00
     -8.958  0.0000E+00  0.0000E+00
     -8.918  0.0000E+00  0.0000E+00
     -8.878  0.0000E+00  0.0000E+00
     -8.838  0.0000E+00  0.0000E+00
     -8.798  0.0000E+00  0.0000E+00
     -8.758  0.0000E+00  0.0000E+00
     -8.717  0.0000E+00  0.0000E+00
     -8.677  0.0000E+00  0.0000E+00
     -8.637  0.0000E+00  0.0000E+00
     -8.597  0.0000E+00  0.0000E+00
     -8.557  0.0000E+00  0.0000E+00
     -8.517  0.0000E+00  0.0000E+00
     -8.477  0.0000E+00  0.0000E+00
     -8.437  0.0000E+00  0.0000E+00
     -8.397  0.0000E+00  0.0000E+00
     -8.357  0.0000E+00  0.0000E+00
     -8.317  0.0000E+00  0.0000E+00
     -8.277  0.0000E+00  0.0000E+00
     -8.236  0.0000E+00  0.0000E+00
     -8.196  0.0000E+00  0.0000E+00
     -8.156  0.0000E+00  0.0000E+00
     -8.116  0.0000E+00  0.0000E+00
     -8.076  0.0000E+00  0.0000E+00
     -8.036  0.0000E+00  0.0000E+00
     -7.996  0.0000E+00  0.0000E+00
     -7.956  0.0000E+00  0.0000E+00
     -7.916  0.0000E+00  0.0000E+00
     -7.876  0.0000E+00  0.0000E+00
     -7.836  0.0000E+00  0.0000E+00
     -7.796  0.0000E+00  0.0000E+00
     -7.756  0.0000E+00  0.0000E+00
     -7.715  0.0000E+00  0.0000E+00
     -7.675  0.0000E+00  0.0000E+00
     -7.635  0.0000E+00  0.0000E+00
     -7.595  0.0000E+00  0.0000E+00
     -7.555  0.0000E+00  0.0000E+00
     -7.515  0.0000E+00  0.0000E+00
     -7.475  0.0000E+00  0.0000E+00
     -7.435  0.0000E+00  0.0000E+00
     -7.395  0.0000E+00  0.0000E+00
     -7.355  0.0000E+00  0.0000E+00
     -7.315  0.0000E+00  0.0000E+00
     -7.275  0.0000E+00  0.0000E+00
     -7.234  0.0000E+00  0.0000E+00
     -7.194  0.0000E+00  0.0000E+00
     -7.154  0.0000E+00  0.0000E+00
     -7.114  0.0000E+00  0.0000E+00
     -7.074  0.0000E+00  0.0000E+00
     -7.034  0.0000E+00  0.0000E+00
     -6.994  0.0000E+00  0.0000E+00
     -6.954  0.0000E+00  0.0000E+00
     -6.914  0.0000E+00  0.0000E+00
     -6.874  0.0000E+00  0.0000E+00
     -6.834  0.0000E+00  0.0000E+00
     -6.794  0.0000E+00  0.0000E+00
     -6.754  0.0000E+00  0.0000E+00
     -6.713  0.0000E+00  0.0000E+00
     -6.673  0.0000E+00  0.0000E+00
     -6.633  0.0000E+00  0.0000E+00
     -6.593  0.0000E+00  0.0000E+00
     -6.553  0.0000E+00  0.0000E+00
     -6.513  0.0000E+00  0.0000E+00
     -6.473  0.0000E+00  0.0000E+00
     -6.433  0.0000E+00  0.0000E+00
     -6.393  0.0000E+00  0.0000E+00
     -6.353  0.0000E+00  0.0000E+00
     -6.313  0.0000E+00  0.0000E+00
     -6.273  0.0000E+00  0.0000E+00
     -6.232  0.0000E+00  0.0000E+00
     -6.192  0.0000E+00  0.0000E+00
     -6.152  0.0000E+00  0.0000E+00
     -6.112  0.0000E+00  0.0000E+00
     -6.072  0.0000E+00  0.0000E+00
     -6.032  0.0000E+00  0.0000E+00
     -5.992  0.0000E+00  0.0000E+00
     -5.952  0.0000E+00  0.0000E+00
     -5.912  0.0000E+00  0.0000E+00
     -5.872  0.0000E+00  0.0000E+00
     -5.832  0.0000E+00  0.0000E+00
     -5.792  0.0000E+00  0.0000E+00
     -5.752  0.0000E+00  0.0000E+00
     -5.711  0.0000E+00  0.0000E+00
     -5.671  0.0000E+00  0.0000E+00
     -5.631  0.0000E+00  0.0000E+00
     -5.591  0.0000E+00  0.0000E+00
     -5.551  0.0000E+00  0.0000E+00
     -5.511  0.0000E+00  0.0000E+00
     -5.471  0.0000E+00  0.0000E+00
     -5.431  0.0000E+00  0.0000E+00
     -5.391  0.0000E+00  0.0000E+00
     -5.351  0.0000E+00  0.0000E+00
     -5.311  0.0000E+00  0.0000E+00
     -5.271  0.0000E+00  0.0000E+00
     -5.230  0.0000E+00  0.0000E+00
     -5.190  0.0000E+00  0.0000E+00
     -5.150  0.0000E+00  0.0000E+00
     -5.110  0.0000E+00  0.0000E+00
     -5.070  0.0000E+00  0.0000E+00
     -5.030  0.0000E+00  0.0000E+00
     -4.990  0.0000E+00  0.0000E+00
     -4.950  0.0000E+00  0.0000E+00
     -4.910  0.0000E+00  0.0000E+00
     -4.870  0.0000E+00  0.0000E+00
     -4.830  0.0000E+00  0.0000E+00
     -4.790  0.0000E+00  0.0000E+00
     -4.749  0.2050E-15  0.8216E-17
     -4.709  0.1572E-13  0.6382E-15
     -4.669  0.8955E-12  0.3653E-13
     -4.629  0.3716E-10  0.1526E-11
     -4.589  0.1124E-08  0.4657E-10
     -4.549  0.2478E-07  0.1040E-08
     -4.509  0.3986E-06  0.1702E-07
     -4.469  0.4678E-05  0.2045E-06
     -4.429  0.4008E-04  0.1811E-05
     -4.389  0.2508E-03  0.1186E-04
     -4.349  0.1147E-02  0.5782E-04
     -4.309  0.3832E-02  0.2114E-03
     -4.269  0.9363E-02  0.5867E-03
     -4.228  0.1677E-01  0.1259E-02
     -4.188  0.2220E-01  0.2148E-02
     -4.148  0.2274E-01  0.3060E-02
     -4.108  0.2175E-01  0.3931E-02
     -4.068  0.2744E-01  0.5031E-02
     -4.028  0.4357E-01  0.6777E-02
     -3.988  0.6177E-01  0.9253E-02
     -3.948  0.6773E-01  0.1197E-01
     -3.908  0.5822E-01  0.1430E-01
     -3.868  0.4685E-01  0.1618E-01
     -3.828  0.4840E-01  0.1812E-01
     -3.788  0.6102E-01  0.2056E-01
     -3.747  0.6897E-01  0.2333E-01
     -3.707  0.6309E-01  0.2586E-01
     -3.667  0.5354E-01  0.2800E-01
     -3.627  0.5728E-01  0.3030E-01
     -3.587  0.7571E-01  0.3333E-01
     -3.547  0.9128E-01  0.3699E-01
     -3.507  0.8990E-01  0.4060E-01
     -3.467  0.8172E-01  0.4387E-01
     -3.427  0.8956E-01  0.4746E-01
     -3.387  0.1166E+00  0.5213E-01
     -3.347  0.1376E+00  0.5765E-01
     -3.307  0.1300E+00  0.6286E-01
     -3.267  0.1032E+00  0.6699E-01
     -3.226  0.8313E-01  0.7032E-01
     -3.186  0.7719E-01  0.7342E-01
     -3.146  0.7252E-01  0.7632E-01
     -3.106  0.6365E-01  0.7888E-01
     -3.066  0.6430E-01  0.8145E-01
     -3.026  0.8776E-01  0.8497E-01
     -2.986  0.1248E+00  0.8997E-01
     -2.946  0.1518E+00  0.9606E-01
     -2.906  0.1613E+00  0.1025E+00
     -2.866  0.1705E+00  0.1094E+00
     -2.826  0.1901E+00  0.1170E+00
     -2.786  0.2023E+00  0.1251E+00
     -2.745  0.1865E+00  0.1326E+00
     -2.705  0.1510E+00  0.1386E+00
     -2.665  0.1209E+00  0.1435E+00
     -2.625  0.1061E+00  0.1477E+00
     -2.585  0.9962E-01  0.1517E+00
     -2.545  0.1022E+00  0.1558E+00
     -2.505  0.1262E+00  0.1609E+00
     -2.465  0.1726E+00  0.1678E+00
     -2.425  0.2202E+00  0.1766E+00
     -2.385  0.2434E+00  0.1864E+00
     -2.345  0.2357E+00  0.1958E+00
     -2.305  0.2124E+00  0.2043E+00
     -2.265  0.1929E+00  0.2121E+00
     -2.224  0.1848E+00  0.2195E+00
     -2.184  0.1881E+00  0.2270E+00
     -2.144  0.2069E+00  0.2353E+00
     -2.104  0.2446E+00  0.2451E+00
     -2.064  0.2951E+00  0.2569E+00
     -2.024  0.3395E+00  0.2705E+00
     -1.984  0.3570E+00  0.2848E+00
     -1.944  0.3616E+00  0.2993E+00
     -1.904  0.4105E+00  0.3158E+00
     -1.864  0.5312E+00  0.3371E+00
     -1.824  0.6591E+00  0.3635E+00
     -1.784  0.7043E+00  0.3917E+00
     -1.743  0.6682E+00  0.4185E+00
     -1.703  0.6317E+00  0.4438E+00
     -1.663  0.6419E+00  0.4696E+00
     -1.623  0.6787E+00  0.4968E+00
     -1.583  0.7346E+00  0.5262E+00
     -1.543  0.8548E+00  0.5605E+00
     -1.503  0.1055E+01  0.6027E+00
     -1.463  0.1256E+01  0.6531E+00
     -1.423  0.1358E+01  0.7075E+00
     -1.383  0.1351E+01  0.7617E+00
     -1.343  0.1324E+01  0.8148E+00
     -1.303  0.1388E+01  0.8704E+00
     -1.263  0.1583E+01  0.9339E+00
     -1.222  0.1831E+01  0.1007E+01
     -1.182  0.2009E+01  0.1088E+01
     -1.142  0.2061E+01  0.1170E+01
     -1.102  0.2016E+01  0.1251E+01
     -1.062  0.1941E+01  0.1329E+01
     -1.022  0.1908E+01  0.1405E+01
     -0.982  0.1950E+01  0.1484E+01
     -0.942  0.2046E+01  0.1566E+01
     -0.902  0.2126E+01  0.1651E+01
     -0.862  0.2104E+01  0.1735E+01
     -0.822  0.1950E+01  0.1813E+01
     -0.782  0.1742E+01  0.1883E+01
     -0.741  0.1595E+01  0.1947E+01
     -0.701  0.1572E+01  0.2010E+01
     -0.661  0.1657E+01  0.2077E+01
     -0.621  0.1784E+01  0.2148E+01
     -0.581  0.1867E+01  0.2223E+01
     -0.541  0.1834E+01  0.2296E+01
     -0.501  0.1667E+01  0.2363E+01
     -0.461  0.1432E+01  0.2421E+01
     -0.421  0.1239E+01  0.2470E+01
     -0.381  0.1157E+01  0.2517E+01
     -0.341  0.1195E+01  0.2564E+01
     -0.301  0.1348E+01  0.2619E+01
     -0.261  0.1597E+01  0.2683E+01
     -0.220  0.1862E+01  0.2757E+01
     -0.180  0.2023E+01  0.2838E+01
     -0.140  0.2032E+01  0.2920E+01
     -0.100  0.1980E+01  0.2999E+01
     -0.060  0.2000E+01  0.3079E+01
     -0.020  0.2117E+01  0.3164E+01
      0.020  0.2238E+01  0.3254E+01
      0.060  0.2272E+01  0.3345E+01
      0.100  0.2211E+01  0.3433E+01
      0.140  0.2108E+01  0.3518E+01
      0.180  0.2024E+01  0.3599E+01
      0.220  0.2005E+01  0.3679E+01
      0.261  0.2083E+01  0.3763E+01
      0.301  0.2263E+01  0.3854E+01
      0.341  0.2473E+01  0.3953E+01
      0.381  0.2599E+01  0.4057E+01
      0.421  0.2591E+01  0.4161E+01
      0.461  0.2518E+01  0.4262E+01
      0.501  0.2489E+01  0.4361E+01
      0.541  0.2550E+01  0.4464E+01
      0.581  0.2664E+01  0.4570E+01
      0.621  0.2755E+01  0.4681E+01
      0.661  0.2811E+01  0.4794E+01
      0.701  0.2956E+01  0.4912E+01
      0.741  0.3299E+01  0.5044E+01
      0.782  0.3699E+01  0.5192E+01
      0.822  0.3831E+01  0.5346E+01
      0.862  0.3542E+01  0.5488E+01
      0.902  0.3032E+01  0.5609E+01
      0.942  0.2622E+01  0.5715E+01
      0.982  0.2440E+01  0.5812E+01
      1.022  0.2372E+01  0.5907E+01
      1.062  0.2250E+01  0.5998E+01
      1.102  0.2022E+01  0.6079E+01
      1.142  0.1755E+01  0.6149E+01
      1.182  0.1555E+01  0.6211E+01
      1.222  0.1510E+01  0.6272E+01
      1.263  0.1630E+01  0.6337E+01
      1.303  0.1821E+01  0.6410E+01
      1.343  0.1958E+01  0.6489E+01
      1.383  0.1986E+01  0.6568E+01
      1.423  0.1944E+01  0.6646E+01
      1.463  0.1920E+01  0.6723E+01
      1.503  0.1980E+01  0.6803E+01
      1.543  0.2113E+01  0.6887E+01
      1.583  0.2261E+01  0.6978E+01
      1.623  0.2411E+01  0.7074E+01
      1.663  0.2575E+01  0.7178E+01
      1.703  0.2702E+01  0.7286E+01
      1.743  0.2693E+01  0.7394E+01
      1.784  0.2508E+01  0.7494E+01
      1.824  0.2209E+01  0.7583E+01
      1.864  0.1909E+01  0.7660E+01
      1.904  0.1727E+01  0.7729E+01
      1.944  0.1753E+01  0.7799E+01
      1.984  0.1974E+01  0.7878E+01
      2.024  0.2262E+01  0.7969E+01
      2.064  0.2450E+01  0.8067E+01
      2.104  0.2421E+01  0.8164E+01
      2.144  0.2155E+01  0.8250E+01
      2.184  0.1761E+01  0.8321E+01
      2.224  0.1451E+01  0.8379E+01
      2.265  0.1402E+01  0.8435E+01
      2.305  0.1610E+01  0.8500E+01
      2.345  0.1912E+01  0.8577E+01
      2.385  0.2133E+01  0.8662E+01
      2.425  0.2165E+01  0.8749E+01
      2.465  0.2015E+01  0.8830E+01
      2.505  0.1821E+01  0.8902E+01
      2.545  0.1741E+01  0.8972E+01
      2.585  0.1837E+01  0.9046E+01
      2.625  0.2077E+01  0.9129E+01
      2.665  0.2397E+01  0.9225E+01
      2.705  0.2715E+01  0.9334E+01
      2.745  0.2948E+01  0.9452E+01
      2.786  0.3061E+01  0.9575E+01
      2.826  0.3058E+01  0.9697E+01
      2.866  0.2971E+01  0.9817E+01
      2.906  0.2858E+01  0.9931E+01
      2.946  0.2742E+01  0.1004E+02
      2.986  0.2547E+01  0.1014E+02
      3.026  0.2186E+01  0.1023E+02
      3.066  0.1725E+01  0.1030E+02
      3.106  0.1343E+01  0.1035E+02
      3.146  0.1142E+01  0.1040E+02
      3.186  0.1065E+01  0.1044E+02
      3.226  0.1006E+01  0.1048E+02
      3.267  0.9033E+00  0.1052E+02
      3.307  0.7355E+00  0.1055E+02
      3.347  0.5238E+00  0.1057E+02
      3.387  0.3299E+00  0.1058E+02
      3.427  0.2125E+00  0.1059E+02
      3.467  0.1834E+00  0.1060E+02
      3.507  0.2045E+00  0.1061E+02
      3.547  0.2180E+00  0.1062E+02
      3.587  0.1958E+00  0.1062E+02
      3.627  0.1573E+00  0.1063E+02
      3.667  0.1325E+00  0.1063E+02
      3.707  0.1317E+00  0.1064E+02
      3.747  0.1627E+00  0.1065E+02
      3.788  0.2458E+00  0.1066E+02
      3.828  0.3809E+00  0.1067E+02
      3.868  0.5094E+00  0.1069E+02
      3.908  0.5516E+00  0.1071E+02
      3.948  0.4908E+00  0.1073E+02
      3.988  0.3875E+00  0.1075E+02
      4.028  0.3068E+00  0.1076E+02
      4.068  0.2681E+00  0.1077E+02
      4.108  0.2569E+00  0.1078E+02
      4.148  0.2520E+00  0.1079E+02
      4.188  0.2387E+00  0.1080E+02
      4.228  0.2090E+00  0.1081E+02
      4.269  0.1602E+00  0.1082E+02
      4.309  0.1022E+00  0.1082E+02
      4.349  0.5843E-01  0.1082E+02
      4.389  0.5507E-01  0.1083E+02
      4.429  0.1174E+00  0.1083E+02
      4.469  0.2641E+00  0.1084E+02
      4.509  0.4713E+00  0.1086E+02
      4.549  0.6448E+00  0.1089E+02
      4.589  0.6821E+00  0.1091E+02
      4.629  0.5813E+00  0.1094E+02
      4.669  0.4378E+00  0.1095E+02
      4.709  0.3334E+00  0.1097E+02
      4.749  0.2822E+00  0.1098E+02
      4.790  0.2628E+00  0.1099E+02
      4.830  0.2455E+00  0.1100E+02
      4.870  0.2089E+00  0.1101E+02
      4.910  0.1662E+00  0.1101E+02
      4.950  0.1571E+00  0.1102E+02
      4.990  0.1976E+00  0.1103E+02
      5.030  0.2501E+00  0.1104E+02
      5.070  0.2573E+00  0.1105E+02
      5.110  0.2049E+00  0.1106E+02
      5.150  0.1377E+00  0.1106E+02
      5.190  0.1150E+00  0.1107E+02
      5.230  0.1637E+00  0.1107E+02
      5.271  0.2638E+00  0.1108E+02
      5.311  0.3665E+00  0.1110E+02
      5.351  0.4335E+00  0.1112E+02
      5.391  0.4632E+00  0.1113E+02
      5.431  0.4712E+00  0.1115E+02
      5.471  0.4617E+00  0.1117E+02
      5.511  0.4234E+00  0.1119E+02
      5.551  0.3456E+00  0.1120E+02
      5.591  0.2423E+00  0.1121E+02
      5.631  0.1591E+00  0.1122E+02
      5.671  0.1448E+00  0.1122E+02
      5.711  0.2125E+00  0.1123E+02
      5.752  0.3253E+00  0.1125E+02
      5.792  0.4116E+00  0.1126E+02
      5.832  0.4118E+00  0.1128E+02
      5.872  0.3290E+00  0.1129E+02
      5.912  0.2299E+00  0.1130E+02
      5.952  0.1844E+00  0.1131E+02
      5.992  0.2071E+00  0.1132E+02
      6.032  0.2596E+00  0.1133E+02
      6.072  0.2967E+00  0.1134E+02
      6.112  0.2971E+00  0.1135E+02
      6.152  0.2610E+00  0.1136E+02
      6.192  0.2074E+00  0.1137E+02
      6.232  0.1758E+00  0.1138E+02
      6.273  0.1979E+00  0.1139E+02
      6.313  0.2567E+00  0.1140E+02
      6.353  0.2991E+00  0.1141E+02
      6.393  0.3051E+00  0.1142E+02
      6.433  0.3123E+00  0.1143E+02
      6.473  0.3490E+00  0.1145E+02
      6.513  0.3820E+00  0.1146E+02
      6.553  0.3614E+00  0.1148E+02
      6.593  0.2923E+00  0.1149E+02
      6.633  0.2366E+00  0.1150E+02
      6.673  0.2468E+00  0.1151E+02
      6.713  0.3124E+00  0.1152E+02
      6.754  0.3673E+00  0.1153E+02
      6.794  0.3520E+00  0.1155E+02
      6.834  0.2704E+00  0.1156E+02
      6.874  0.1823E+00  0.1157E+02
      6.914  0.1399E+00  0.1157E+02
      6.954  0.1422E+00  0.1158E+02
      6.994  0.1555E+00  0.1158E+02
      7.034  0.1671E+00  0.1159E+02
      7.074  0.2010E+00  0.1160E+02
      7.114  0.2775E+00  0.1161E+02
      7.154  0.3726E+00  0.1163E+02
      7.194  0.4325E+00  0.1164E+02
      7.234  0.4251E+00  0.1166E+02
      7.275  0.3674E+00  0.1167E+02
      7.315  0.3031E+00  0.1169E+02
      7.355  0.2654E+00  0.1170E+02
      7.395  0.2633E+00  0.1171E+02
      7.435  0.2778E+00  0.1172E+02
      7.475  0.2711E+00  0.1173E+02
      7.515  0.2213E+00  0.1174E+02
      7.555  0.1501E+00  0.1174E+02
      7.595  0.1093E+00  0.1175E+02
      7.635  0.1457E+00  0.1175E+02
      7.675  0.2728E+00  0.1177E+02
      7.715  0.4497E+00  0.1178E+02
      7.756  0.5952E+00  0.1181E+02
      7.796  0.6542E+00  0.1183E+02
      7.836  0.6394E+00  0.1186E+02
      7.876  0.5955E+00  0.1188E+02
      7.916  0.5493E+00  0.1191E+02
      7.956  0.5047E+00  0.1193E+02
      7.996  0.4540E+00  0.1194E+02
      8.036  0.3895E+00  0.1196E+02
      8.076  0.3181E+00  0.1197E+02
      8.116  0.2553E+00  0.1198E+02
      8.156  0.2063E+00  0.1199E+02
      8.196  0.1702E+00  0.1200E+02
      8.236  0.1545E+00  0.1200E+02
      8.277  0.1611E+00  0.1201E+02
      8.317  0.1751E+00  0.1202E+02
      8.357  0.1884E+00  0.1202E+02
      8.397  0.2120E+00  0.1203E+02
      8.437  0.2515E+00  0.1204E+02
      8.477  0.2986E+00  0.1206E+02
      8.517  0.3590E+00  0.1207E+02
      8.557  0.4418E+00  0.1209E+02
      8.597  0.5115E+00  0.1211E+02
      8.637  0.5120E+00  0.1213E+02
      8.677  0.4502E+00  0.1215E+02
      8.717  0.3883E+00  0.1216E+02
      8.758  0.3576E+00  0.1218E+02
      8.798  0.3389E+00  0.1219E+02
      8.838  0.3150E+00  0.1220E+02
      8.878  0.2969E+00  0.1221E+02
      8.918  0.2994E+00  0.1223E+02
      8.958  0.3102E+00  0.1224E+02
      8.998  0.2918E+00  0.1225E+02
      9.038  0.2241E+00  0.1226E+02
      9.078  0.1334E+00  0.1226E+02
      9.118  0.6418E-01  0.1227E+02
      9.158  0.3996E-01  0.1227E+02
      9.198  0.6265E-01  0.1227E+02
      9.238  0.1218E+00  0.1228E+02
      9.279  0.1908E+00  0.1228E+02
      9.319  0.2391E+00  0.1229E+02
      9.359  0.2656E+00  0.1230E+02
      9.399  0.2978E+00  0.1232E+02
      9.439  0.3451E+00  0.1233E+02
      9.479  0.3876E+00  0.1235E+02
      9.519  0.4208E+00  0.1236E+02
      9.559  0.4645E+00  0.1238E+02
      9.599  0.5120E+00  0.1240E+02
      9.639  0.5171E+00  0.1242E+02
      9.679  0.4560E+00  0.1244E+02
      9.719  0.3708E+00  0.1246E+02
      9.760  0.3234E+00  0.1247E+02
      9.800  0.3224E+00  0.1248E+02
      9.840  0.3290E+00  0.1249E+02
      9.880  0.3307E+00  0.1251E+02
      9.920  0.3584E+00  0.1252E+02
      9.960  0.4180E+00  0.1254E+02
     10.000  0.4548E+00  0.1256E+02
     10.00000000    -10.00000000  500      4.83422392      1.00000000
    -10.000  0.0000E+00  0.0000E+00  0.0000E+00  0.0000E+00  0.0000E+00  0.0000E+00  0.0000E+00  0.0000E+00  0.0000E+00
     -9.960  0.0000E+00  0.0000E+00  0.0000E+00  0.0000E+00  0.0000E+00  0.0000E+00  0.0000E+00  0.0000E+00  0.0000E+00
     -9.920  0.0000E+00  0.0000E+00  0.0000E+00  0.0000E+00  0.0000E+00  0.0000E+00  0.0000E+00  0.0000E+00  0.0000E+00
     -9.880  0.0000E+00  0.0000E+00  0.0000E+00  0.0000E+00  0.0000E+00  0.0000E+00  0.0000E+00  0.0000E+00  0.0000E+00
     -9.840  0.0000E+00  0.0000E+00  0.0000E+00  0.0000E+00  0.0000E+00  0.0000E+00  0.0000E+00  0.0000E+00  0.0000E+00
     -9.800  0.0000E+00  0.0000E+00  0.0000E+00  0.0000E+00  0.0000E+00  0.0000E+00  0.0000E+00  0.0000E+00  0.0000E+00
     -9.760  0.0000E+00  0.0000E+00  0.0000E+00  0.0000E+00  0.0000E+00  0.0000E+00  0.0000E+00  0.0000E+00  0.0000E+00
     -9.719  0.0000E+00  0.0000E+00  0.0000E+00  0.0000E+00  0.0000E+00  0.0000E+00  0.0000E+00  0.0000E+00  0.0000E+00
     -9.679  0.0000E+00  0.0000E+00  0.0000E+00  0.0000E+00  0.0000E+00  0.0000E+00  0.0000E+00  0.0000E+00  0.0000E+00
     -9.639  0.0000E+00  0.0000E+00  0.0000E+00  0.0000E+00  0.0000E+00  0.0000E+00  0.0000E+00  0.0000E+00  0.0000E+00
     -9.599  0.0000E+00  0.0000E+00  0.0000E+00  0.0000E+00  0.0000E+00  0.0000E+00  0.0000E+00  0.0000E+00  0.0000E+00
     -9.559  0.0000E+00  0.0000E+00  0.0000E+00  0.0000E+00  0.0000E+00  0.0000E+00  0.0000E+00  0.0000E+00  0.0000E+00
     -9.519  0.0000E+00  0.0000E+00  0.0000E+00  0.0000E+00  0.0000E+00  0.0000E+00  0.0000E+00  0.0000E+00  0.0000E+00
     -9.479  0.0000E+00  0.0000E+00  0.0000E+00  0.0000E+00  0.0000E+00  0.0000E+00  0.0000E+00  0.0000E+00  0.0000E+00
     -9.439  0.0000E+00  0.0000E+00  0.0000E+00  0.0000E+00  0.0000E+00  0.0000E+00  0.0000E+00  0.0000E+00  0.0000E+00
     -9.399  0.0000E+00  0.0000E+00  0.0000E+00  0.0000E+00  0.0000E+00  0.0000E+00  0.0000E+00  0.0000E+00  0.0000E+00
     -9.359  0.0000E+00  0.0000E+00  0.0000E+00  0.0000E+00  0.0000E+00  0.0000E+00  0.0000E+00  0.0000E+00  0.0000E+00
     -9.319  0.0000E+00  0.0000E+00  0.0000E+00  0.0000E+00  0.0000E+00  0.0000E+00  0.0000E+00  0.0000E+00  0.0000E+00
     -9.279  0.0000E+00  0.0000E+00  0.0000E+00  0.0000E+00  0.0000E+00  0.0000E+00  0.0000E+00  0.0000E+00  0.0000E+00
     -9.238  0.0000E+00  0.0000E+00  0.0000E+00  0.0000E+00  0.0000E+00  0.0000E+00  0.0000E+00  0.0000E+00  0.0000E+00
     -9.198  0.0000E+00  0.0000E+00  0.0000E+00  0.0000E+00  0.0000E+00  0.0000E+00  0.0000E+00  0.0000E+00  0.0000E+00
     -9.158  0.0000E+00  0.0000E+00  0.0000E+00  0.0000E+00  0.0000E+00  0.0000E+00  0.0000E+00  0.0000E+00  0.0000E+00
     -9.118  0.0000E+00  0.0000E+00  0.0000E+00  0.0000E+00  0.0000E+00  0.0000E+00  0.0000E+00  0.0000E+00  0.0000E+00
     -9.078  0.0000E+00  0.0000E+00  0.0000E+00  0.0000E+00  0.0000E+00  0.0000E+00  0.0000E+00  0.0000E+00  0.0000E+00
     -9.038  0.0000E+00  0.0000E+00  0.0000E+00  0.0000E+00  0.0000E+00  0.0000E+00  0.0000E+00  0.0000E+00  0.0000E+00
     -8.998  0.0000E+00  0.0000E+00  0.0000E+00  0.0000E+00  0.0000E+00  0.0000E+00  0.0000E+00  0.0000E+00  0.0000E+00
     -8.958  0.0000E+00  0.0000E+00  0.0000E+00  0.0000E+00  0.0000E+00  0.0000E+00  0.0000E+00  0.0000E+00  0.0000E+00
     -8.918  0.0000E+00  0.0000E+00  0.0000E+00  0.0000E+00  0.0000E+00  0.0000E+00  0.0000E+00  0.0000E+00  0.0000E+00
     -8.878  0.0000E+00  0.0000E+00  0.0000E+00  0.0000E+00  0.0000E+00  0.0000E+00  0.0000E+00  0.0000E+00  0.0000E+00
     -8.838  0.0000E+00  0.0000E+00  0.0000E+00  0.0000E+00  0.0000E+00  0.0000E+00  0.0000E+00  0.0000E+00  0.0000E+00
     -8.798  0.0000E+00  0.0000E+00  0.0000E+00  0.0000E+00  0.0000E+00  0.0000E+00  0.0000E+00  0.0000E+00  0.0000E+00
     -8.758  0.0000E+00  0.0000E+00  0.0000E+00  0.0000E+00  0.0000E+00  0.0000E+00  0.0000E+00  0.0000E+00  0.0000E+00
     -8.717  0.0000E+00  0.0000E+00  0.0000E+00  0.0000E+00  0.0000E+00  0.0000E+00  0.0000E+00  0.0000E+00  0.0000E+00
     -8.677  0.0000E+00  0.0000E+00  0.0000E+00  0.0000E+00  0.0000E+00  0.0000E+00  0.0000E+00  0.0000E+00  0.0000E+00
     -8.637  0.0000E+00  0.0000E+00  0.0000E+00  0.0000E+00  0.0000E+00  0.0000E+00  0.0000E+00  0.0000E+00  0.0000E+00
     -8.597  0.0000E+00  0.0000E+00  0.0000E+00  0.0000E+00  0.0000E+00  0.0000E+00  0.0000E+00  0.0000E+00  0.0000E+00
     -8.557  0.0000E+00  0.0000E+00  0.0000E+00  0.0000E+00  0.0000E+00  0.0000E+00  0.0000E+00  0.0000E+00  0.0000E+00
     -8.517  0.0000E+00  0.0000E+00  0.0000E+00  0.0000E+00  0.0000E+00  0.0000E+00  0.0000E+00  0.0000E+00  0.0000E+00
     -8.477  0.0000E+00  0.0000E+00  0.0000E+00  0.0000E+00  0.0000E+00  0.0000E+00  0.0000E+00  0.0000E+00  0.0000E+00
     -8.437  0.0000E+00  0.0000E+00  0.0000E+00  0.0000E+00  0.0000E+00  0.0000E+00  0.0000E+00  0.0000E+00  0.0000E+00
     -8.397  0.0000E+00  0.0000E+00  0.0000E+00  0.0000E+00  0.0000E+00  0.0000E+00  0.0000E+00  0.0000E+00  0.0000E+00
     -8.357  0.0000E+00  0.0000E+00  0.0000E+00  0.0000E+00  0.0000E+00  0.0000E+00  0.0000E+00  0.0000E+00  0.0000E+00
     -8.317  0.0000E+00  0.0000E+00  0.0000E+00  0.0000E+00  0.0000E+00  0.0000E+00  0.0000E+00  0.0000E+00  0.0000E+00
     -8.277  0.0000E+00  0.0000E+00  0.0000E+00  0.0000E+00  0.0000E+00  0.0000E+00  0.0000E+00  0.0000E+00  0.0000E+00
     -8.236  0.0000E+00  0.0000E+00  0.0000E+00  0.0000E+00  0.0000E+00  0.0000E+00  0.0000E+00  0.0000E+00  0.0000E+00
     -8.196  0.0000E+00  0.0000E+00  0.0000E+00  0.0000E+00  0.0000E+00  0.0000E+00  0.0000E+00  0.0000E+00  0.0000E+00
     -8.156  0.0000E+00  0.0000E+00  0.0000E+00  0.0000E+00  0.0000E+00  0.0000E+00  0.0000E+00  0.0000E+00  0.0000E+00
     -8.116  0.0000E+00  0.0000E+00  0.0000E+00  0.0000E+00  0.0000E+00  0.0000E+00  0.0000E+00  0.0000E+00  0.0000E+00
     -8.076  0.0000E+00  0.0000E+00  0.0000E+00  0.0000E+00  0.0000E+00  0.0000E+00  0.0000E+00  0.0000E+00  0.0000E+00
     -8.036  0.0000E+00  0.0000E+00  0.0000E+00  0.0000E+00  0.0000E+00  0.0000E+00  0.0000E+00  0.0000E+00  0.0000E+00
     -7.996  0.0000E+00  0.0000E+00  0.0000E+00  0.0000E+00  0.0000E+00  0.0000E+00  0.0000E+00  0.0000E+00  0.0000E+00
     -7.956  0.0000E+00  0.0000E+00  0.0000E+00  0.0000E+00  0.0000E+00  0.0000E+00  0.0000E+00  0.0000E+00  0.0000E+00
     -7.916  0.0000E+00  0.0000E+00  0.0000E+00  0.0000E+00  0.0000E+00  0.0000E+00  0.0000E+00  0.0000E+00  0.0000E+00
     -7.876  0.0000E+00  0.0000E+00  0.0000E+00  0.0000E+00  0.0000E+00  0.0000E+00  0.0000E+00  0.0000E+00  0.0000E+00
     -7.836  0.0000E+00  0.0000E+00  0.0000E+00  0.0000E+00  0.0000E+00  0.0000E+00  0.0000E+00  0.0000E+00  0.0000E+00
     -7.796  0.0000E+00  0.0000E+00  0.0000E+00  0.0000E+00  0.0000E+00  0.0000E+00  0.0000E+00  0.0000E+00  0.0000E+00
     -7.756  0.0000E+00  0.0000E+00  0.0000E+00  0.0000E+00  0.0000E+00  0.0000E+00  0.0000E+00  0.0000E+00  0.0000E+00
     -7.715  0.0000E+00  0.0000E+00  0.0000E+00  0.0000E+00  0.0000E+00  0.0000E+00  0.0000E+00  0.0000E+00  0.0000E+00
     -7.675  0.0000E+00  0.0000E+00  0.0000E+00  0.0000E+00  0.0000E+00  0.0000E+00  0.0000E+00  0.0000E+00  0.0000E+00
     -7.635  0.0000E+00  0.0000E+00  0.0000E+00  0.0000E+00  0.0000E+00  0.0000E+00  0.0000E+00  0.0000E+00  0.0000E+00
     -7.595  0.0000E+00  0.0000E+00  0.0000E+00  0.0000E+00  0.0000E+00  0.0000E+00  0.0000E+00  0.0000E+00  0.0000E+00
     -7.555  0.0000E+00  0.0000E+00  0.0000E+00  0.0000E+00  0.0000E+00  0.0000E+00  0.0000E+00  0.0000E+00  0.0000E+00
     -7.515  0.0000E+00  0.0000E+00  0.0000E+00  0.0000E+00  0.0000E+00  0.0000E+00  0.0000E+00  0.0000E+00  0.0000E+00
     -7.475  0.0000E+00  0.0000E+00  0.0000E+00  0.0000E+00  0.0000E+00  0.0000E+00  0.0000E+00  0.0000E+00  0.0000E+00
     -7.435  0.0000E+00  0.0000E+00  0.0000E+00  0.0000E+00  0.0000E+00  0.0000E+00  0.0000E+00  0.0000E+00  0.0000E+00
     -7.395  0.0000E+00  0.0000E+00  0.0000E+00  0.0000E+00  0.0000E+00  0.0000E+00  0.0000E+00  0.0000E+00  0.0000E+00
     -7.355  0.0000E+00  0.0000E+00  0.0000E+00  0.0000E+00  0.0000E+00  0.0000E+00  0.0000E+00  0.0000E+00  0.0000E+00
     -7.315  0.0000E+00  0.0000E+00  0.0000E+00  0.0000E+00  0.0000E+00  0.0000E+00  0.0000E+00  0.0000E+00  0.0000E+00
     -7.275  0.0000E+00  0.0000E+00  0.0000E+00  0.0000E+00  0.0000E+00  0.0000E+00  0.0000E+00  0.0000E+00  0.0000E+00
     -7.234  0.0000E+00  0.0000E+00  0.0000E+00  0.0000E+00  0.0000E+00  0.0000E+00  0.0000E+00  0.0000E+00  0.0000E+00
     -7.194  0.0000E+00  0.0000E+00  0.0000E+00  0.0000E+00  0.0000E+00  0.0000E+00  0.0000E+00  0.0000E+00  0.0000E+00
     -7.154  0.0000E+00  0.0000E+00  0.0000E+00  0.0000E+00  0.0000E+00  0.0000E+00  0.0000E+00  0.0000E+00  0.0000E+00
     -7.114  0.0000E+00  0.0000E+00  0.0000E+00  0.0000E+00  0.0000E+00  0.0000E+00  0.0000E+00  0.0000E+00  0.0000E+00
     -7.074  0.0000E+00  0.0000E+00  0.0000E+00  0.0000E+00  0.0000E+00  0.0000E+00  0.0000E+00  0.0000E+00  0.0000E+00
     -7.034  0.0000E+00  0.0000E+00  0.0000E+00  0.0000E+00  0.0000E+00  0.0000E+00  0.0000E+00  0.0000E+00  0.0000E+00
     -6.994  0.0000E+00  0.0000E+00  0.0000E+00  0.0000E+00  0.0000E+00  0.0000E+00  0.0000E+00  0.0000E+00  0.0000E+00
     -6.954  0.0000E+00  0.0000E+00  0.0000E+00  0.0000E+00  0.0000E+00  0.0000E+00  0.0000E+00  0.0000E+00  0.0000E+00
     -6.914  0.0000E+00  0.0000E+00  0.0000E+00  0.0000E+00  0.0000E+00  0.0000E+00  0.0000E+00  0.0000E+00  0.0000E+00
     -6.874  0.0000E+00  0.0000E+00  0.0000E+00  0.0000E+00  0.0000E+00  0.0000E+00  0.0000E+00  0.0000E+00  0.0000E+00
     -6.834  0.0000E+00  0.0000E+00  0.0000E+00  0.0000E+00  0.0000E+00  0.0000E+00  0.0000E+00  0.0000E+00  0.0000E+00
     -6.794  0.0000E+00  0.0000E+00  0.0000E+00  0.0000E+00  0.0000E+00  0.0000E+00  0.0000E+00  0.0000E+00  0.0000E+00
     -6.754  0.0000E+00  0.0000E+00  0.0000E+00  0.0000E+00  0.0000E+00  0.0000E+00  0.0000E+00  0.0000E+00  0.0000E+00
     -6.713  0.0000E+00  0.0000E+00  0.0000E+00  0.0000E+00  0.0000E+00  0.0000E+00  0.0000E+00  0.0000E+00  0.0000E+00
     -6.673  0.0000E+00  0.0000E+00  0.0000E+00  0.0000E+00  0.0000E+00  0.0000E+00  0.0000E+00  0.0000E+00  0.0000E+00
     -6.633  0.0000E+00  0.0000E+00  0.0000E+00  0.0000E+00  0.0000E+00  0.0000E+00  0.0000E+00  0.0000E+00  0.0000E+00
     -6.593  0.0000E+00  0.0000E+00  0.0000E+00  0.0000E+00  0.0000E+00  0.0000E+00  0.0000E+00  0.0000E+00  0.0000E+00
     -6.553  0.0000E+00  0.0000E+00  0.0000E+00  0.0000E+00  0.0000E+00  0.0000E+00  0.0000E+00  0.0000E+00  0.0000E+00
     -6.513  0.0000E+00  0.0000E+00  0.0000E+00  0.0000E+00  0.0000E+00  0.0000E+00  0.0000E+00  0.0000E+00  0.0000E+00
     -6.473  0.0000E+00  0.0000E+00  0.0000E+00  0.0000E+00  0.0000E+00  0.0000E+00  0.0000E+00  0.0000E+00  0.0000E+00
     -6.433  0.0000E+00  0.0000E+00  0.0000E+00  0.0000E+00  0.0000E+00  0.0000E+00  0.0000E+00  0.0000E+00  0.0000E+00
     -6.393  0.0000E+00  0.0000E+00  0.0000E+00  0.0000E+00  0.0000E+00  0.0000E+00  0.0000E+00  0.0000E+00  0.0000E+00
     -6.353  0.0000E+00  0.0000E+00  0.0000E+00  0.0000E+00  0.0000E+00  0.0000E+00  0.0000E+00  0.0000E+00  0.0000E+00
     -6.313  0.0000E+00  0.0000E+00  0.0000E+00  0.0000E+00  0.0000E+00  0.0000E+00  0.0000E+00  0.0000E+00  0.0000E+00
     -6.273  0.0000E+00  0.0000E+00  0.0000E+00  0.0000E+00  0.0000E+00  0.0000E+00  0.0000E+00  0.0000E+00  0.0000E+00
     -6.232  0.0000E+00  0.0000E+00  0.0000E+00  0.0000E+00  0.0000E+00  0.0000E+00  0.0000E+00  0.0000E+00  0.0000E+00
     -6.192  0.0000E+00  0.0000E+00  0.0000E+00  0.0000E+00  0.0000E+00  0.0000E+00  0.0000E+00  0.0000E+00  0.0000E+00
     -6.152  0.0000E+00  0.0000E+00  0.0000E+00  0.0000E+00  0.0000E+00  0.0000E+00  0.0000E+00  0.0000E+00  0.0000E+00