    1    1    1    1
  0.1820629E+02  0.2952878E-09  0.2952878E-09  0.2952878E-09  0.5000000E-15
   1.0000000000000000E-004
  CAR 
 Au, FCC                                 
   11  110    9

  0.5000000E-01  0.5000000E-01  0.5000000E-01  0.2000000E-02
   1       -4.1942
   2        0.4682
   3        0.5207
   4        0.5207
   5        1.8326
   6        1.8326
   7       20.3265
   8       23.0257
   9       23.7745

  0.1500000E+00  0.5000000E-01  0.5000000E-01  0.6000000E-02
   1       -3.7666
   2        0.3379
   3        0.6442
   4        0.6736
   5        1.7061
   6        1.8790
   7       20.4223
   8       21.1610
   9       23.3017

  0.2500000E+00  0.5000000E-01  0.5000000E-01  0.6000000E-02
   1       -2.8388
   2        0.2511
   3        0.7815
   4        0.7985
   5        1.7213
   6        2.0753
   7       17.0865
   8       21.0297
   9       23.3069

  0.3500000E+00  0.5000000E-01  0.5000000E-01  0.6000000E-02
   1       -2.0130
   2        0.6268
   3        0.6962
   4        0.9102
   5        2.1544
   6        2.5898
   7       13.1147
   8       20.4275
   9       22.3275

  0.4500000E+00  0.5000000E-01  0.5000000E-01  0.6000000E-02
   1       -1.8134
   2        0.4876
   3        0.5483
   4        2.2862
   5        2.6752
   6        3.5198
   7        9.4167
   8       19.7679
   9       21.4890

 -0.4500000E+00  0.5000000E-01  0.5000000E-01  0.6000000E-02
   1       -1.8095
   2        0.4291
   3        0.5136
   4        2.5747
   5        2.9200
   6        4.5543
   7        7.7200
   8       19.5916
   9       21.5626

 -0.3500000E+00  0.5000000E-01  0.5000000E-01  0.6000000E-02
   1       -1.8367
   2        0.5144
   3        0.6111
   4        1.7886
   5        2.7443
   6        2.9536
   7       10.5720
   8       19.9996
   9       21.9067

 -0.2500000E+00  0.5000000E-01  0.5000000E-01  0.6000000E-02
   1       -2.2197
   2        0.5022
   3        0.7188
   4        0.7632
   5        2.0843
   6        2.3044
   7       14.4360
   8       20.8106
   9       22.7369

 -0.1500000E+00  0.5000000E-01  0.5000000E-01  0.6000000E-02
   1       -3.1800
   2        0.2330
   3        0.7734
   4        0.7835
   5        1.6821
   6        1.9614
   7       18.3771
   8       21.2050
   9       23.3003

 -0.5000000E-01  0.5000000E-01  0.5000000E-01  0.6000000E-02
   1       -3.9768
   2        0.3751
   3        0.6059
   4        0.6107
   5        1.7260
   6        1.8833
   7       20.5040
   8       22.1153
   9       23.4430

  0.1500000E+00  0.1500000E+00  0.5000000E-01  0.6000000E-02
   1       -3.5541
   2        0.1875
   3        0.7847
   4        0.7876
   5        1.5401
   6        1.9808
   7       20.6928
   8       21.3082
   9       22.6593

  0.2500000E+00  0.1500000E+00  0.5000000E-01  0.1200000E-01
   1       -2.7832
   2       -0.0256
   3        0.8734
   4        1.0344
   5        1.5051
   6        2.1799
   7       18.6161
   8       20.4186
   9       22.4738

  0.3500000E+00  0.1500000E+00  0.5000000E-01  0.1200000E-01
   1       -1.8401
   2        0.0731
   3        0.6111
   4        1.0424
   5        2.0997
   6        2.7128
   7       14.6641
   8       19.8471
   9       21.4435

  0.4500000E+00  0.1500000E+00  0.5000000E-01  0.1200000E-01
   1       -1.4932
   2        0.3473
   3        0.8404
   4        1.0040
   5        2.7386
   6        3.8772
   7       10.7906
   8       19.4858
   9       20.1089

 -0.4500000E+00  0.1500000E+00  0.5000000E-01  0.1200000E-01
   1       -1.4764
   2        0.2341
   3        0.7794
   4        1.6802
   5        2.8805
   6        5.8174
   7        7.7418
   8       19.0803
   9       19.7003

 -0.3500000E+00  0.1500000E+00  0.5000000E-01  0.1200000E-01
   1       -1.4601
   2        0.3038
   3        0.8020
   4        1.4032
   5        2.6100
   6        4.5591
   7        9.6711
   8       18.6307
   9       20.3509

 -0.2500000E+00  0.1500000E+00  0.5000000E-01  0.1200000E-01
   1       -1.6193
   2        0.3258
   3        0.5868
   4        0.9690
   5        2.0102
   6        3.2147
   7       13.3633
   8       18.8108
   9       21.4664

 -0.1500000E+00  0.1500000E+00  0.5000000E-01  0.1200000E-01
   1       -2.4495
   2        0.0173
   3        0.7838
   4        1.0538
   5        1.4968
   6        2.4206
   7       17.2292
   8       19.4163
   9       23.0902

 -0.5000000E-01  0.1500000E+00  0.5000000E-01  0.1200000E-01
   1       -3.3583
   2        0.1940
   3        0.7878
   4        0.7953
   5        1.5756
   6        1.9923
   7       19.6547
   8       20.8289
   9       22.8758

  0.2500000E+00  0.2500000E+00  0.5000000E-01  0.6000000E-02
   1       -2.2678
   2       -0.3414
   3        1.0181
   4        1.3733
   5        1.5510
   6        2.2824
   7       19.0156
   8       20.0875
   9       21.4178

  0.3500000E+00  0.2500000E+00  0.5000000E-01  0.1200000E-01
   1       -1.5238
   2       -0.5372
   3        0.8033
   4        1.6818
   5        2.1423
   6        2.7299
   7       16.3459
   8       18.2485
   9       19.8537

  0.4500000E+00  0.2500000E+00  0.5000000E-01  0.1200000E-01
   1       -1.1123
   2       -0.2876
   3        0.5960
   4        1.5643
   5        2.8118
   6        4.1261
   7       12.4297
   8       17.5573
   9       18.1903

 -0.4500000E+00  0.2500000E+00  0.5000000E-01  0.1200000E-01
   1       -1.0138
   2       -0.0560
   3        0.7894
   4        1.3896
   5        2.9124
   6        6.4737
   7        8.9854
   8       16.2838
   9       18.2746

 -0.3500000E+00  0.2500000E+00  0.5000000E-01  0.1200000E-01
   1       -0.8595
   2       -0.0032
   3        0.8182
   4        1.2960
   5        2.5687
   6        6.3258
   7        9.4421
   8       15.2531
   9       19.4234

 -0.2500000E+00  0.2500000E+00  0.5000000E-01  0.1200000E-01
   1       -0.7721
   2        0.0601
   3        0.3066
   4        1.3695
   5        1.9710
   6        4.5447
   7       12.7270
   8       15.1481
   9       20.7633

 -0.1500000E+00  0.2500000E+00  0.5000000E-01  0.1200000E-01
   1       -1.4725
   2       -0.0437
   3        0.5531
   4        1.2575
   5        1.6232
   6        3.2906
   7       14.7960
   8       17.3084
   9       21.8849

 -0.5000000E-01  0.2500000E+00  0.5000000E-01  0.1200000E-01
   1       -2.3698
   2        0.1895
   3        0.7587
   4        0.8838
   5        1.7849
   6        2.3548
   7       15.8506
   8       20.5933
   9       22.4582

  0.3500000E+00  0.3500000E+00  0.5000000E-01  0.6000000E-02
   1       -1.3964
   2       -0.8755
   3        1.6434
   4        2.1447
   5        2.5853
   6        2.6467
   7       16.2500
   8       17.3670
   9       17.4543

  0.4500000E+00  0.3500000E+00  0.5000000E-01  0.1200000E-01
   1       -1.2676
   2       -0.9702
   3        1.6609
   4        2.4098
   5        2.8249
   6        4.2245
   7       13.5415
   8       15.6647
   9       16.3089

 -0.4500000E+00  0.3500000E+00  0.5000000E-01  0.1200000E-01
   1       -1.1251
   2       -0.6794
   3        1.3376
   4        2.1400
   5        2.9986
   6        6.7052
   7       10.5321
   8       13.8770
   9       16.4513

 -0.3500000E+00  0.3500000E+00  0.5000000E-01  0.1200000E-01
   1       -0.8681
   2       -0.2134
   3        0.8467
   4        1.8500
   5        2.7203
   6        7.8751
   7        9.9441
   8       12.2622
   9       17.6741

 -0.2500000E+00  0.3500000E+00  0.5000000E-01  0.1200000E-01
   1       -0.6141
   2        0.0517
   3        0.4092
   4        1.5367
   5        2.3618
   6        6.1393
   7       11.2342
   8       13.2609
   9       19.3824

 -0.1500000E+00  0.3500000E+00  0.5000000E-01  0.1200000E-01
   1       -1.1314
   2        0.2191
   3        0.7138
   4        1.1038
   5        2.2885
   6        4.5510
   7       11.1694
   8       16.8696
   9       20.5887

 -0.5000000E-01  0.3500000E+00  0.5000000E-01  0.1200000E-01
   1       -1.7648
   2        0.5190
   3        0.7372
   4        1.0528
   5        2.4110
   6        3.0680
   7       11.8993
   8       20.0213
   9       21.2852

  0.4500000E+00  0.4500000E+00  0.5000000E-01  0.6000000E-02
   1       -1.5050
   2       -1.2306
   3        2.7262
   4        2.7767
   5        3.0265
   6        4.8421
   7       12.0557
   8       15.1134
   9       15.4669

 -0.4500000E+00  0.4500000E+00  0.5000000E-01  0.1200000E-01
   1       -1.4395
   2       -1.1843
   3        2.4502
   4        2.6897
   5        3.1554
   6        6.7785
   7       10.2406
   8       14.0827
   9       15.0548

 -0.3500000E+00  0.4500000E+00  0.5000000E-01  0.1200000E-01
   1       -1.1733
   2       -0.7620
   3        1.5924
   4        2.2840
   5        2.9980
   6        8.1349
   7        9.6075
   8       12.6534
   9       16.1280

 -0.2500000E+00  0.4500000E+00  0.5000000E-01  0.1200000E-01
   1       -0.8979
   2       -0.1737
   3        0.8097
   4        1.6563
   5        2.8259
   6        7.8549
   7        8.6060
   8       14.2000
   9       17.8737

 -0.1500000E+00  0.4500000E+00  0.5000000E-01  0.1200000E-01
   1       -1.1854
   2        0.0890
   3        1.0150
   4        1.2584
   5        2.7728
   6        6.5485
   7        7.9375
   8       17.2621
   9       19.5142

 -0.5000000E-01  0.4500000E+00  0.5000000E-01  0.1200000E-01
   1       -1.6913
   2        0.3791
   3        0.6172
   4        2.0633
   5        2.8437
   6        4.5613
   7        8.4515
   8       19.6247
   9       20.6977

 -0.4500000E+00 -0.4500000E+00  0.5000000E-01  0.6000000E-02
   1       -1.5732
   2       -1.3064
   3        2.8240
   4        3.0099
   5        3.1663
   6        6.0994
   7       10.4053
   8       14.6641
   9       15.0407

 -0.3500000E+00 -0.4500000E+00  0.5000000E-01  0.1200000E-01
   1       -1.3688
   2       -1.1113
   3        2.1398
   4        2.6412
   5        3.0211
   6        5.5049
   7       11.7945
   8       14.6062
   9       15.4712

 -0.2500000E+00 -0.4500000E+00  0.5000000E-01  0.1200000E-01
   1       -1.0734
   2       -0.5136
   3        0.9522
   4        1.8746
   5        2.9545
   6        5.3130
   7       11.4309
   8       15.7101
   9       17.0945

 -0.1500000E+00 -0.4500000E+00  0.5000000E-01  0.1200000E-01
   1       -1.2274
   2        0.1369
   3        0.8227
   4        1.1344
   5        2.8985
   6        5.0544
   7        9.8034
   8       18.3220
   9       18.8689

 -0.3500000E+00 -0.3500000E+00  0.5000000E-01  0.6000000E-02
   1       -1.4085
   2       -1.0836
   3        2.3143
   4        2.4960
   5        2.8326
   6        3.5209
   7       14.1940
   8       15.9928
   9       16.2687

 -0.2500000E+00 -0.3500000E+00  0.5000000E-01  0.1200000E-01
   1       -1.2502
   2       -0.7732
   3        1.1260
   4        2.0579
   5        2.5559
   6        3.2717
   7       15.0497
   8       16.9876
   9       17.7938

 -0.1500000E+00 -0.3500000E+00  0.5000000E-01  0.1200000E-01
   1       -1.3703
   2       -0.0747
   3        0.4744
   4        1.2746
   5        2.5238
   6        3.2459
   7       13.5189
   8       18.8041
   9       19.9923

 -0.2500000E+00 -0.2500000E+00  0.5000000E-01  0.6000000E-02
   1       -1.6683
   2       -0.6212
   3        1.1240
   4        1.7510
   5        1.9879
   6        2.4628
   7       17.7666
   8       18.6731
   9       19.7077

 -0.1500000E+00 -0.2500000E+00  0.5000000E-01  0.1200000E-01
   1       -2.1149
   2       -0.2798
   3        0.8058
   4        1.3338
   5        1.7221
   6        2.4189
   7       17.5246
   8       19.4659
   9       21.7540

 -0.1500000E+00 -0.1500000E+00  0.5000000E-01  0.6000000E-02
   1       -2.9582
   2       -0.0619
   3        0.9988
   4        1.0457
   5        1.3730
   6        2.1175
   7       20.0528
   8       21.3957
   9       21.4788

  0.1500000E+00  0.1500000E+00  0.1500000E+00  0.2000000E-02
   1       -3.5667
   2        0.3283
   3        0.6883
   4        0.6883
   5        1.7962
   6        1.7962
   7       19.5151
   8       21.1368
   9       24.2158

  0.2500000E+00  0.1500000E+00  0.1500000E+00  0.6000000E-02
   1       -2.9796
   2        0.1490
   3        0.8062
   4        0.8719
   5        1.5278
   6        2.1390
   7       18.4171
   8       20.2330
   9       23.1336

  0.3500000E+00  0.1500000E+00  0.1500000E+00  0.6000000E-02
   1       -1.9925
   2        0.0184
   3        0.7200
   4        1.1223
   5        1.4543
   6        2.8095
   7       15.9565
   8       18.3808
   9       22.8291

  0.4500000E+00  0.1500000E+00  0.1500000E+00  0.6000000E-02
   1       -1.3797
   2        0.3495
   3        0.7398
   4        0.9433
   5        2.0474
   6        3.8078
   7       12.1987
   8       17.8040
   9       21.3600

 -0.4500000E+00  0.1500000E+00  0.1500000E+00  0.6000000E-02
   1       -1.3578
   2        0.2237
   3        0.8467
   4        1.4893
   5        2.6460
   6        5.4346
   7        8.7201
   8       17.8788
   9       20.6996

 -0.3500000E+00  0.1500000E+00  0.1500000E+00  0.6000000E-02
   1       -1.3930
   2        0.2023
   3        0.8898
   4        1.3260
   5        2.9474
   6        5.4297
   7        8.5703
   8       18.6777
   9       20.1850

 -0.2500000E+00  0.1500000E+00  0.1500000E+00  0.6000000E-02
   1       -1.4600
   2        0.3150
   3        0.5110
   4        1.0326
   5        2.8162
   6        3.3733
   7       12.0816
   8       19.9615
   9       20.0018

 -0.1500000E+00  0.1500000E+00  0.1500000E+00  0.6000000E-02
   1       -2.0161
   2       -0.1583
   3        0.7197
   4        1.1510
   5        2.0454
   6        2.4179
   7       16.0866
   8       20.5560
   9       21.1775

  0.2500000E+00  0.2500000E+00  0.1500000E+00  0.6000000E-02
   1       -2.6392
   2        0.0555
   3        0.8221
   4        0.9366
   5        1.7045
   6        2.1775
   7       17.2328
   8       21.2604
   9       21.9941

  0.3500000E+00  0.2500000E+00  0.1500000E+00  0.1200000E-01
   1       -1.8330
   2       -0.1697
   3        0.6332
   4        1.3071
   5        1.6926
   6        2.7900
   7       16.0832
   8       18.4117
   9       21.8402

  0.4500000E+00  0.2500000E+00  0.1500000E+00  0.1200000E-01
   1       -0.9813
   2       -0.1390
   3        0.2937
   4        1.5141
   5        1.9622
   6        3.8914
   7       13.7365
   8       16.2322
   9       20.3010

 -0.4500000E+00  0.2500000E+00  0.1500000E+00  0.1200000E-01
   1       -0.8788
   2        0.0091
   3        0.6071
   4        1.3409
   5        2.5637
   6        5.5319
   7       10.2812
   8       16.0213
   9       18.8827

 -0.3500000E+00  0.2500000E+00  0.1500000E+00  0.1200000E-01
   1       -0.9446
   2       -0.0681
   3        0.9035
   4        1.2778
   5        2.8144
   6        7.1890
   7        8.0294
   8       16.5899
   9       17.8908

 -0.2500000E+00  0.2500000E+00  0.1500000E+00  0.1200000E-01
   1       -0.9835
   2        0.0232
   3        0.3785
   4        1.4522
   5        2.6740
   6        4.8104
   7       11.2689
   8       16.8651
   9       18.4466

 -0.1500000E+00  0.2500000E+00  0.1500000E+00  0.1200000E-01
   1       -1.2683
   2       -0.3714
   3        0.4883
   4        1.6226
   5        2.0585
   6        3.2759
   7       14.9526
   8       17.3055
   9       20.0191

  0.3500000E+00  0.3500000E+00  0.1500000E+00  0.6000000E-02
   1       -1.4674
   2       -0.3783
   3        0.6695
   4        1.4203
   5        2.6533
   6        2.6634
   7       14.9211
   8       19.1652
   9       19.8907

  0.4500000E+00  0.3500000E+00  0.1500000E+00  0.1200000E-01
   1       -0.9877
   2       -0.5650
   3        0.6026
   4        1.9750
   5        2.4362
   6        3.9872
   7       13.8274
   8       16.1894
   9       18.0556

 -0.4500000E+00  0.3500000E+00  0.1500000E+00  0.1200000E-01
   1       -0.6785
   2       -0.4221
   3        0.4136
   4        2.0455
   5        2.6817
   6        5.7871
   7       11.9018
   8       14.2459
   9       16.5435

 -0.3500000E+00  0.3500000E+00  0.1500000E+00  0.1200000E-01
   1       -0.5341
   2       -0.2686
   3        0.4386
   4        1.7221
   5        2.8820
   6        7.9812
   7        9.2861
   8       13.8617
   9       15.9655

 -0.2500000E+00  0.3500000E+00  0.1500000E+00  0.1200000E-01
   1       -0.3272
   2       -0.2420
   3        0.1106
   4        1.7947
   5        2.6591
   6        6.5028
   7       11.2698
   8       13.3405
   9       16.9152

 -0.1500000E+00  0.3500000E+00  0.1500000E+00  0.1200000E-01
   1       -0.6793
   2       -0.2511
   3        0.1722
   4        1.8201
   5        2.3381
   6        4.7006
   7       12.7744
   8       15.2021
   9       18.3937

  0.4500000E+00  0.4500000E+00  0.1500000E+00  0.6000000E-02
   1       -1.2104
   2       -0.7995
   3        1.4158
   4        2.0455
   5        2.9946
   6        4.6534
   7       12.5528
   8       15.6832
   9       16.9230

 -0.4500000E+00  0.4500000E+00  0.1500000E+00  0.1200000E-01
   1       -1.1182
   2       -0.8753
   3        1.4263
   4        2.4175
   5        2.9913
   6        6.3333
   7       11.4009
   8       14.0423
   9       15.2526

 -0.3500000E+00  0.4500000E+00  0.1500000E+00  0.1200000E-01
   1       -0.8821
   2       -0.5990
   3        1.0174
   4        2.0583
   5        3.1511
   6        8.5904
   7        9.9884
   8       12.6299
   9       14.4731

 -0.2500000E+00  0.4500000E+00  0.1500000E+00  0.1200000E-01
   1       -0.5813
   2       -0.1804
   3        0.3971
   4        1.7774
   5        2.9628
   6        8.2918
   7       10.3023
   8       12.1634
   9       15.5557

 -0.1500000E+00  0.4500000E+00  0.1500000E+00  0.1200000E-01
   1       -0.6426
   2       -0.2019
   3        0.5108
   4        1.5702
   5        2.7546
   6        6.7552
   7        9.5743
   8       15.1553
   9       17.1122

 -0.4500000E+00 -0.4500000E+00  0.1500000E+00  0.6000000E-02
   1       -1.3548
   2       -1.0307
   3        2.1569
   4        2.5209
   5        3.0599
   6        7.3301
   7        9.9850
   8       13.2550
   9       15.8392

 -0.3500000E+00 -0.4500000E+00  0.1500000E+00  0.1200000E-01
   1       -1.1933
   2       -0.9432
   3        1.7310
   4        2.4049
   5        3.1523
   6        7.7215
   7       10.0202
   8       13.4144
   9       14.7824

 -0.2500000E+00 -0.4500000E+00  0.1500000E+00  0.1200000E-01
   1       -0.7959
   2       -0.5440
   3        0.7628
   4        2.1051
   5        2.9734
   6        7.1222
   7       11.0495
   8       13.3286
   9       15.1369

 -0.3500000E+00 -0.3500000E+00  0.1500000E+00  0.6000000E-02
   1       -1.2935
   2       -0.9521
   3        1.8833
   4        2.3320
   5        3.0582
   6        5.9954
   7       11.2842
   8       14.0884
   9       16.2100

 -0.2500000E+00 -0.3500000E+00  0.1500000E+00  0.1200000E-01
   1       -1.0101
   2       -0.7426
   3        0.9948
   4        2.2780
   5        2.7408
   6        5.0188
   7       12.6792
   8       15.0908
   9       16.3344

 -0.2500000E+00 -0.2500000E+00  0.1500000E+00  0.6000000E-02
   1       -1.2072
   2       -0.5961
   3        0.9231
   4        1.7277
   5        2.8544
   6        3.5300
   7       13.7425
   8       17.7299
   9       17.9288

  0.2500000E+00  0.2500000E+00  0.2500000E+00  0.2000000E-02
   1       -2.5741
   2        0.4116
   3        0.7476
   4        0.7476
   5        2.0017
   6        2.0017
   7       15.7253
   8       21.0485
   9       24.2531

  0.3500000E+00  0.2500000E+00  0.2500000E+00  0.6000000E-02
   1       -2.0123
   2        0.2998
   3        0.7241
   4        0.8730
   5        1.7990
   6        2.7304
   7       14.5590
   8       19.7334
   9       22.1760

  0.4500000E+00  0.2500000E+00  0.2500000E+00  0.6000000E-02
   1       -1.1026
   2        0.0445
   3        0.4961
   4        1.2167
   5        1.7148
   6        3.8651
   7       13.6793
   8       16.2070
   9       21.8250

 -0.4500000E+00  0.2500000E+00  0.2500000E+00  0.6000000E-02
   1       -0.6715
   2        0.1258
   3        0.4030
   4        1.3613
   5        2.1109
   6        5.2710
   7       11.9081
   8       14.1302
   9       21.4656

 -0.3500000E+00  0.2500000E+00  0.2500000E+00  0.6000000E-02
   1       -0.8886
   2       -0.0260
   3        0.8284
   4        1.4235
   5        2.6872
   6        7.2452
   7        8.7282
   8       14.6441
   9       19.3358

 -0.2500000E+00  0.2500000E+00  0.2500000E+00  0.6000000E-02
   1       -1.0729
   2       -0.2346
   3        0.8490
   4        1.5616
   5        2.9952
   6        5.8308
   7       10.1294
   8       15.9950
   9       18.1121

  0.3500000E+00  0.3500000E+00  0.2500000E+00  0.6000000E-02
   1       -1.8261
   2        0.4946
   3        0.5839
   4        0.8588
   5        2.5417
   6        2.5881
   7       13.2222
   8       20.5941
   9       21.2901

  0.4500000E+00  0.3500000E+00  0.2500000E+00  0.1200000E-01
   1       -1.2532
   2        0.3154
   3        0.3258
   4        1.1786
   5        2.3726
   6        3.8713
   7       12.2618
   8       17.8498
   9       20.2013

 -0.4500000E+00  0.3500000E+00  0.2500000E+00  0.1200000E-01
   1       -0.4879
   2       -0.0503
   3        0.1165
   4        1.6218
   5        2.3104
   6        5.4067
   7       11.9268
   8       14.1812
   9       18.8640

 -0.3500000E+00  0.3500000E+00  0.2500000E+00  0.1200000E-01
   1       -0.5712
   2       -0.1057
   3        0.4112
   4        1.7030
   5        2.6688
   6        7.1852
   7       10.6677
   8       12.6109
   9       17.3744

 -0.2500000E+00  0.3500000E+00  0.2500000E+00  0.1200000E-01
   1       -0.8633
   2       -0.3776
   3        0.7849
   4        1.9229
   5        2.9239
   6        7.4255
   7        9.8137
   8       13.8362
   9       16.2336

  0.4500000E+00  0.4500000E+00  0.2500000E+00  0.6000000E-02
   1       -1.1960
   2        0.0195
   3        0.6232
   4        1.2742
   5        2.9581
   6        4.4918
   7       11.0334
   8       18.1161
   9       18.9323

 -0.4500000E+00  0.4500000E+00  0.2500000E+00  0.1200000E-01
   1       -0.8621
   2       -0.2231
   3        0.5476
   4        1.7284
   5        2.8417
   6        6.0328
   7       10.4263
   8       15.5900
   9       16.9642

 -0.3500000E+00  0.4500000E+00  0.2500000E+00  0.1200000E-01
   1       -0.5152
   2       -0.1743
   3        0.2392
   4        1.8278
   5        2.9645
   6        7.7809
   7       10.7727
   8       12.5710
   9       15.2512

 -0.2500000E+00  0.4500000E+00  0.2500000E+00  0.1200000E-01
   1       -0.6249
   2       -0.1684
   3        0.3783
   4        1.7901
   5        3.1509
   6        8.9581
   7       10.4943
   8       11.7712
   9       14.2986

 -0.4500000E+00 -0.4500000E+00  0.2500000E+00  0.6000000E-02
   1       -1.0544
   2       -0.4071
   3        1.1088
   4        1.8566
   5        2.9330
   6        7.2926
   7        9.4663
   8       13.9489
   9       17.5601

 -0.3500000E+00 -0.4500000E+00  0.2500000E+00  0.1200000E-01
   1       -0.8976
   2       -0.4438
   3        0.9674
   4        1.9918
   5        2.9710
   6        8.5988
   7        9.6206
   8       12.2670
   9       15.9302

 -0.3500000E+00 -0.3500000E+00  0.2500000E+00  0.6000000E-02
   1       -1.0697
   2       -0.4893
   3        1.2817
   4        2.0805
   5        2.8302
   6        8.4486
   7        9.3042
   8       12.2882
   9       17.2836

  0.3500000E+00  0.3500000E+00  0.3500000E+00  0.2000000E-02
   1       -1.9599
   2        0.6067
   3        0.6067
   4        1.5413
   5        2.4817
   6        2.4817
   7       11.7783
   8       20.2190
   9       23.0761

  0.4500000E+00  0.3500000E+00  0.3500000E+00  0.6000000E-02
   1       -1.6438
   2        0.4498
   3        0.7065
   4        1.4294
   5        2.3896
   6        3.6886
   7       10.7155
   8       19.3285
   9       20.9505

 -0.4500000E+00  0.3500000E+00  0.3500000E+00  0.6000000E-02
   1       -1.0046
   2        0.1336
   3        0.9044
   4        1.1117
   5        2.3714
   6        5.3442
   7       10.2331
   8       15.9910
   9       21.1432

 -0.3500000E+00  0.3500000E+00  0.3500000E+00  0.6000000E-02
   1       -0.7728
   2        0.0071
   3        0.6443
   4        1.6605
   5        2.5012
   6        6.9584
   7       10.5845
   8       12.5909
   9       19.1840

  0.4500000E+00  0.4500000E+00  0.3500000E+00  0.6000000E-02
   1       -1.6431
   2        0.3729
   3        0.7080
   4        1.5869
   5        2.9066
   6        4.0624
   7        9.4993
   8       19.8033
   9       20.9337

 -0.4500000E+00  0.4500000E+00  0.3500000E+00  0.1200000E-01
   1       -1.2204
   2        0.1140
   3        0.9776
   4        1.2075
   5        2.7837
   6        5.7430
   7        8.7691
   8       17.9290
   9       18.9518

 -0.3500000E+00  0.4500000E+00  0.3500000E+00  0.1200000E-01
   1       -0.6888
   2       -0.1699
   3        0.6465
   4        1.5254
   5        2.7489
   6        7.4776
   7        8.8515
   8       14.6222
   9       17.5246

 -0.4500000E+00 -0.4500000E+00  0.3500000E+00  0.6000000E-02
   1       -1.1199
   2        0.0474
   3        1.0690
   4        1.1396
   5        2.8647
   6        6.9788
   7        7.8198
   8       16.7232
   9       19.6596

  0.4500000E+00  0.4500000E+00  0.4500000E+00  0.2000000E-02
   1       -1.8700
   2        0.4826
   3        0.4826
   4        2.8612
   5        2.8612
   6        3.6501
   7        8.3808
   8       19.6266
   9       22.0616

 -0.4500000E+00  0.4500000E+00  0.4500000E+00  0.6000000E-02
   1       -1.6353
   2        0.3348
   3        0.6386
   4        2.0679
   5        2.8426
   6        5.2887
   7        7.7421
   8       19.3420
   9       20.6188
