       N       E                     dE             d eps       ncg     rms          rms(c)
DAV:   1     0.426987155988E+02    0.42699E+02   -0.46531E+03  2388   0.811E+02

DAV:   2    -0.280620245556E+01   -0.45505E+02   -0.41295E+02  1996   0.204E+02

DAV:   3    -0.345584557708E+01   -0.64964E+00   -0.64928E+00  2370   0.294E+01

DAV:   4    -0.345759857684E+01   -0.17530E-02   -0.17530E-02  2283   0.143E+00

DAV:   5    -0.345761082497E+01   -0.12248E-04   -0.12249E-04  2242   0.113E-01    0.286E+00
RMM:   6    -0.322308997767E+01    0.23452E+00   -0.45361E-01  1994   0.918E+00    0.744E-01
RMM:   7    -0.320730261565E+01    0.15787E-01   -0.27668E-02  2075   0.182E+00    0.299E-01
RMM:   8    -0.320419259037E+01    0.31100E-02   -0.13389E-03  2106   0.669E-01    0.161E-02
RMM:   9    -0.320420556178E+01   -0.12971E-04   -0.24602E-05  1270   0.636E-02

   1 F= -.32042056E+01 E0= -.32036399E+01  d E =-.113138E-02

