 vasp.4.6.26 15Dec04 complex 
 executed on             LinuxPgi date 2009.11.30  11:19:28
 serial version


--------------------------------------------------------------------------------------------------------


 INCAR:
 POTCAR:   PAW_GGA Au 18Jul2000                   
 POTCAR:   PAW_GGA Au 18Jul2000                   
  local pseudopotential read in
  partial core-charges read in
  atomic valenz-charges read in
  non local Contribution for L=                        2  read in
    real space projection operators read in
  non local Contribution for L=                        2  read in
    real space projection operators read in
  non local Contribution for L=                        0  read in
    real space projection operators read in
  non local Contribution for L=                        0  read in
    real space projection operators read in
  non local Contribution for L=                        1  read in
    real space projection operators read in
  non local Contribution for L=                        1  read in
    real space projection operators read in
    PAW grid and wavefunctions read in

   number of l-projection  operators is LMAX  =                        6
   number of lm-projection operators is LMMAX =                       18

 PAW_GGA Au 18Jul2000                   :
 energy of atom  1       EATOM= -927.0928
 kinetic energy error for atom=    0.0152 (will be added to EATOM!!)

 EXHCAR: internal setup
 exchange correlation table for  LEXCH =        7
   RHO(1)=    0.500       N(1)  =     2000
   RHO(2)=  100.500       N(2)  =     4000

 POSCAR: Pure FCC metal                          
  positions in direct lattice
  No initial velocities read in



--------------------------------------------------------------------------------------------------------


 ion  position               nearest neighbor table
   1  0.000  0.000  0.000-

  LATTYP: Found a face centered cubic cell.
 ALAT       =     4.1760000000
  
  Lattice vectors:
  
 A1 = (   0.0000000000,   2.0880000000,   2.0880000000)
 A2 = (   2.0880000000,   0.0000000000,   2.0880000000)
 A3 = (   2.0880000000,   2.0880000000,   0.0000000000)
 Subroutine PRICEL returns:
 Original cell was already a primitive cell.
 

Analysis of symmetry for initial positions (statically):

 Routine SETGRP: Setting up the symmetry group for a 
 face centered cubic supercell.


 Subroutine GETGRP returns: Found 48 space group operations
 (whereof 48 operations were pure point group operations)
 out of a pool of 48 trial point group operations.


The static configuration has the point symmetry O_h .

Analysis of symmetry for dynamics (positions and initial velocities):

 Subroutine DYNSYM returns: Found 48 space group operations
 (whereof 48 operations were pure point group operations)
 out of a pool of 48 trial space group operations
 (whereof 48 operations were pure point group operations)
 and found also     1 'primitive' translations


The dynamic configuration has the point symmetry O_h .


 KPOINTS: 10x10x10 title card                     

Automatic generation of k-mesh.
 
 Subroutine IBZKPT returns following result:
 ===========================================
 
 Found    110 irreducible k-points:
 
 Following reciprocal coordinates:
            Coordinates               Weight
  0.050000  0.050000  0.050000     96.000000
  0.150000  0.050000  0.050000    288.000000
  0.250000  0.050000  0.050000    288.000000
  0.350000  0.050000  0.050000    288.000000
  0.450000  0.050000  0.050000    288.000000
 -0.450000  0.050000  0.050000    288.000000
 -0.350000  0.050000  0.050000    288.000000
 -0.250000  0.050000  0.050000    288.000000
 -0.150000  0.050000  0.050000    288.000000
 -0.050000  0.050000  0.050000    288.000000
  0.150000  0.150000  0.050000    288.000000
  0.250000  0.150000  0.050000    576.000000
  0.350000  0.150000  0.050000    576.000000
  0.450000  0.150000  0.050000    576.000000
 -0.450000  0.150000  0.050000    576.000000
 -0.350000  0.150000  0.050000    576.000000
 -0.250000  0.150000  0.050000    576.000000
 -0.150000  0.150000  0.050000    576.000000
 -0.050000  0.150000  0.050000    576.000000
  0.250000  0.250000  0.050000    288.000000
  0.350000  0.250000  0.050000    576.000000
  0.450000  0.250000  0.050000    576.000000
 -0.450000  0.250000  0.050000    576.000000
 -0.350000  0.250000  0.050000    576.000000
 -0.250000  0.250000  0.050000    576.000000
 -0.150000  0.250000  0.050000    576.000000
 -0.050000  0.250000  0.050000    576.000000
  0.350000  0.350000  0.050000    288.000000
  0.450000  0.350000  0.050000    576.000000
 -0.450000  0.350000  0.050000    576.000000
 -0.350000  0.350000  0.050000    576.000000
 -0.250000  0.350000  0.050000    576.000000
 -0.150000  0.350000  0.050000    576.000000
 -0.050000  0.350000  0.050000    576.000000
  0.450000  0.450000  0.050000    288.000000
 -0.450000  0.450000  0.050000    576.000000
 -0.350000  0.450000  0.050000    576.000000
 -0.250000  0.450000  0.050000    576.000000
 -0.150000  0.450000  0.050000    576.000000
 -0.050000  0.450000  0.050000    576.000000
 -0.450000 -0.450000  0.050000    288.000000
 -0.350000 -0.450000  0.050000    576.000000
 -0.250000 -0.450000  0.050000    576.000000
 -0.150000 -0.450000  0.050000    576.000000
 -0.350000 -0.350000  0.050000    288.000000
 -0.250000 -0.350000  0.050000    576.000000
 -0.150000 -0.350000  0.050000    576.000000
 -0.250000 -0.250000  0.050000    288.000000
 -0.150000 -0.250000  0.050000    576.000000
 -0.150000 -0.150000  0.050000    288.000000
  0.150000  0.150000  0.150000     96.000000
  0.250000  0.150000  0.150000    288.000000
  0.350000  0.150000  0.150000    288.000000
  0.450000  0.150000  0.150000    288.000000
 -0.450000  0.150000  0.150000    288.000000
 -0.350000  0.150000  0.150000    288.000000
 -0.250000  0.150000  0.150000    288.000000
 -0.150000  0.150000  0.150000    288.000000
  0.250000  0.250000  0.150000    288.000000
  0.350000  0.250000  0.150000    576.000000
  0.450000  0.250000  0.150000    576.000000
 -0.450000  0.250000  0.150000    576.000000
 -0.350000  0.250000  0.150000    576.000000
 -0.250000  0.250000  0.150000    576.000000
 -0.150000  0.250000  0.150000    576.000000
  0.350000  0.350000  0.150000    288.000000
  0.450000  0.350000  0.150000    576.000000
 -0.450000  0.350000  0.150000    576.000000
 -0.350000  0.350000  0.150000    576.000000
 -0.250000  0.350000  0.150000    576.000000
 -0.150000  0.350000  0.150000    576.000000
  0.450000  0.450000  0.150000    288.000000
 -0.450000  0.450000  0.150000    576.000000
 -0.350000  0.450000  0.150000    576.000000
 -0.250000  0.450000  0.150000    576.000000
 -0.150000  0.450000  0.150000    576.000000
 -0.450000 -0.450000  0.150000    288.000000
 -0.350000 -0.450000  0.150000    576.000000
 -0.250000 -0.450000  0.150000    576.000000
 -0.350000 -0.350000  0.150000    288.000000
 -0.250000 -0.350000  0.150000    576.000000
 -0.250000 -0.250000  0.150000    288.000000
  0.250000  0.250000  0.250000     96.000000
  0.350000  0.250000  0.250000    288.000000
  0.450000  0.250000  0.250000    288.000000
 -0.450000  0.250000  0.250000    288.000000
 -0.350000  0.250000  0.250000    288.000000
 -0.250000  0.250000  0.250000    288.000000
  0.350000  0.350000  0.250000    288.000000
  0.450000  0.350000  0.250000    576.000000
 -0.450000  0.350000  0.250000    576.000000
 -0.350000  0.350000  0.250000    576.000000
 -0.250000  0.350000  0.250000    576.000000
  0.450000  0.450000  0.250000    288.000000
 -0.450000  0.450000  0.250000    576.000000
 -0.350000  0.450000  0.250000    576.000000
 -0.250000  0.450000  0.250000    576.000000
 -0.450000 -0.450000  0.250000    288.000000
 -0.350000 -0.450000  0.250000    576.000000
 -0.350000 -0.350000  0.250000    288.000000
  0.350000  0.350000  0.350000     96.000000
  0.450000  0.350000  0.350000    288.000000
 -0.450000  0.350000  0.350000    288.000000
 -0.350000  0.350000  0.350000    288.000000
  0.450000  0.450000  0.350000    288.000000
 -0.450000  0.450000  0.350000    576.000000
 -0.350000  0.450000  0.350000    576.000000
 -0.450000 -0.450000  0.350000    288.000000
  0.450000  0.450000  0.450000     96.000000
 -0.450000  0.450000  0.450000    288.000000
 
 Following cartesian coordinates:
            Coordinates               Weight
  0.050000  0.050000  0.050000     96.000000
 -0.050000  0.150000  0.150000    288.000000
 -0.150000  0.250000  0.250000    288.000000
 -0.250000  0.350000  0.350000    288.000000
 -0.350000  0.450000  0.450000    288.000000
  0.550000 -0.450000 -0.450000    288.000000
  0.450000 -0.350000 -0.350000    288.000000
  0.350000 -0.250000 -0.250000    288.000000
  0.250000 -0.150000 -0.150000    288.000000
  0.150000 -0.050000 -0.050000    288.000000
  0.050000  0.050000  0.250000    288.000000
 -0.050000  0.150000  0.350000    576.000000
 -0.150000  0.250000  0.450000    576.000000
 -0.250000  0.350000  0.550000    576.000000
  0.650000 -0.550000 -0.350000    576.000000
  0.550000 -0.450000 -0.250000    576.000000
  0.450000 -0.350000 -0.150000    576.000000
  0.350000 -0.250000 -0.050000    576.000000
  0.250000 -0.150000  0.050000    576.000000
  0.050000  0.050000  0.450000    288.000000
 -0.050000  0.150000  0.550000    576.000000
 -0.150000  0.250000  0.650000    576.000000
  0.750000 -0.650000 -0.250000    576.000000
  0.650000 -0.550000 -0.150000    576.000000
  0.550000 -0.450000 -0.050000    576.000000
  0.450000 -0.350000  0.050000    576.000000
  0.350000 -0.250000  0.150000    576.000000
  0.050000  0.050000  0.650000    288.000000
 -0.050000  0.150000  0.750000    576.000000
  0.850000 -0.750000 -0.150000    576.000000
  0.750000 -0.650000 -0.050000    576.000000
  0.650000 -0.550000  0.050000    576.000000
  0.550000 -0.450000  0.150000    576.000000
  0.450000 -0.350000  0.250000    576.000000
  0.050000  0.050000  0.850000    288.000000
  0.950000 -0.850000 -0.050000    576.000000
  0.850000 -0.750000  0.050000    576.000000
  0.750000 -0.650000  0.150000    576.000000
  0.650000 -0.550000  0.250000    576.000000
  0.550000 -0.450000  0.350000    576.000000
  0.050000  0.050000 -0.950000    288.000000
 -0.050000  0.150000 -0.850000    576.000000
 -0.150000  0.250000 -0.750000    576.000000
 -0.250000  0.350000 -0.650000    576.000000
  0.050000  0.050000 -0.750000    288.000000
 -0.050000  0.150000 -0.650000    576.000000
 -0.150000  0.250000 -0.550000    576.000000
  0.050000  0.050000 -0.550000    288.000000
 -0.050000  0.150000 -0.450000    576.000000
  0.050000  0.050000 -0.350000    288.000000
  0.150000  0.150000  0.150000     96.000000
  0.050000  0.250000  0.250000    288.000000
 -0.050000  0.350000  0.350000    288.000000
 -0.150000  0.450000  0.450000    288.000000
  0.750000 -0.450000 -0.450000    288.000000
  0.650000 -0.350000 -0.350000    288.000000
  0.550000 -0.250000 -0.250000    288.000000
  0.450000 -0.150000 -0.150000    288.000000
  0.150000  0.150000  0.350000    288.000000
  0.050000  0.250000  0.450000    576.000000
 -0.050000  0.350000  0.550000    576.000000
  0.850000 -0.550000 -0.350000    576.000000
  0.750000 -0.450000 -0.250000    576.000000
  0.650000 -0.350000 -0.150000    576.000000
  0.550000 -0.250000 -0.050000    576.000000
  0.150000  0.150000  0.550000    288.000000
  0.050000  0.250000  0.650000    576.000000
  0.950000 -0.650000 -0.250000    576.000000
  0.850000 -0.550000 -0.150000    576.000000
  0.750000 -0.450000 -0.050000    576.000000
  0.650000 -0.350000  0.050000    576.000000
  0.150000  0.150000  0.750000    288.000000
  1.050000 -0.750000 -0.150000    576.000000
  0.950000 -0.650000 -0.050000    576.000000
  0.850000 -0.550000  0.050000    576.000000
  0.750000 -0.450000  0.150000    576.000000
  0.150000  0.150000 -1.050000    288.000000
  0.050000  0.250000 -0.950000    576.000000
 -0.050000  0.350000 -0.850000    576.000000
  0.150000  0.150000 -0.850000    288.000000
  0.050000  0.250000 -0.750000    576.000000
  0.150000  0.150000 -0.650000    288.000000
  0.250000  0.250000  0.250000     96.000000
  0.150000  0.350000  0.350000    288.000000
  0.050000  0.450000  0.450000    288.000000
  0.950000 -0.450000 -0.450000    288.000000
  0.850000 -0.350000 -0.350000    288.000000
  0.750000 -0.250000 -0.250000    288.000000
  0.250000  0.250000  0.450000    288.000000
  0.150000  0.350000  0.550000    576.000000
  1.050000 -0.550000 -0.350000    576.000000
  0.950000 -0.450000 -0.250000    576.000000
  0.850000 -0.350000 -0.150000    576.000000
  0.250000  0.250000  0.650000    288.000000
  1.150000 -0.650000 -0.250000    576.000000
  1.050000 -0.550000 -0.150000    576.000000
  0.950000 -0.450000 -0.050000    576.000000
  0.250000  0.250000 -1.150000    288.000000
  0.150000  0.350000 -1.050000    576.000000
  0.250000  0.250000 -0.950000    288.000000
  0.350000  0.350000  0.350000     96.000000
  0.250000  0.450000  0.450000    288.000000
  1.150000 -0.450000 -0.450000    288.000000
  1.050000 -0.350000 -0.350000    288.000000
  0.350000  0.350000  0.550000    288.000000
  1.250000 -0.550000 -0.350000    576.000000
  1.150000 -0.450000 -0.250000    576.000000
  0.350000  0.350000 -1.250000    288.000000
  0.450000  0.450000  0.450000     96.000000
  1.350000 -0.450000 -0.450000    288.000000
 


--------------------------------------------------------------------------------------------------------




 Dimension of arrays:
   k-Points           NKPTS =    110   number of bands    NBANDS=      9
   number of dos      NEDOS =    500   number of ions     NIONS =      1
   non local maximal  LDIM  =      6   non local SUM 2l+1 LMDIM =     18
   total plane-waves  NPLWV =   2744
   max r-space proj   IRMAX =      1   max aug-charges    IRDMAX=   9415
   dimension x,y,z NGX =    14 NGY =   14 NGZ =   14
   dimension x,y,z NGXF=    28 NGYF=   28 NGZF=   28
   support grid    NGXF=    28 NGYF=   28 NGZF=   28
   ions per type =               1
 NGX,Y,Z   is equivalent  to a cutoff of   7.88,  7.88,  7.88 a.u.
 NGXF,Y,Z  is equivalent  to a cutoff of  15.76, 15.76, 15.76 a.u.


 I would recommend the setting:
   dimension x,y,z NGX =    14 NGY =   14 NGZ =   14
 SYSTEM =  Au, FCC                                 
 POSCAR =  Pure FCC metal                          

 Startparameter for this run:
   NWRITE =      1    write-flag & timer
   PREC   = normal    medium, high low
   ISTART =      0    job   : 0-new  1-cont  2-samecut
   ICHARG =      2    charge: 1-file 2-atom 10-const
   ISPIN  =      1    spin polarized calculation?
   LNONCOLLINEAR =      F non collinear calculations
   LSORBIT =      F    spin-orbit coupling
   INIWAV =      1    electr: 0-lowe 1-rand  2-diag
   LASPH  =      F    aspherical Exc in radial PAW
   METAGGA=      F    non-selfconsistent MetaGGA calc.

 Electronic Relaxation 1
   ENCUT  =  350.0 eV  25.72 Ry    5.07 a.u.   4.50  4.50  4.50*2*pi/ulx,y,z
   ENINI  =  350.0     initial cutoff
   ENAUG  =  356.7 eV  augmentation charge cutoff
   NELM   =     60;   NELMIN=  2; NELMDL= -5     # of ELM steps 
   EDIFF  = 0.1E-03   stopping-criterion for ELM
   LREAL  =      F    real-space projection
   LCOMPAT=      F    compatible to vasp.4.4
   LREAL_COMPAT= F    compatible to vasp.4.5.1-3
   GGA_COMPAT  = T    GGA compatible to vasp.4.4-vasp.4.6
   LMAXPAW     = -100 max onsite density
   LMAXMIX     =    2 max onsite mixed and CHGCAR
   VOSKOWN=      0    Vosko Wilk Nusair interpolation
   ROPT   =    0.00000
 Ionic relaxation
   EDIFFG = 0.1E-02   stopping-criterion for IOM
   NSW    =      0    number of steps for IOM
   NBLOCK =      1;   KBLOCK =      1    inner block; outer block 
   IBRION =     -1    ionic relax: 0-MD 1-quasi-New 2-CG
   NFREE  =      0    steps in history (QN), initial steepest desc. (CG)
   ISIF   =      2    stress and relaxation
   IWAVPR =      0    prediction:  0-non 1-charg 2-wave 3-comb
   ISYM   =      2    0-nonsym 1-usesym 2-fastsym
   LCORR  =      T    Harris-Foulkes like correction to forces

   POTIM  =   0.50    time-step for ionic-motion
   TEIN   =    0.0    initial temperature
   TEBEG  =    0.0;   TEEND  =   0.0 temperature during run
   SMASS  =  -3.00    Nose mass-parameter (am)
   estimated Nose-frequenzy (Omega)   =  0.10E-29 period in steps =****** mass=  -0.199E-27a.u.
   NPACO  =    256;   APACO  = 16.0  distance and # of slots for P.C.
   PSTRESS=    0.0 pullay stress

  Mass of Ions in am
   POMASS = 196.97
  Ionic Valenz
   ZVAL   =  11.00
  Atomic Wigner-Seitz radii
   RWIGS  =  -1.00
   NELECT =      11.0000    total number of electrons
   NUPDOWN=      -1.0000    fix difference up-down

 DOS related values:
   EMIN   = -10.00;   EMAX   = 10.00  energy-range for DOS
   ISMEAR =     0;   SIGMA  =   0.10  broadening in eV -4-tet -1-fermi 0-gaus

 Electronic relaxation 2 (details)
   IALGO  =     68    algorithm
   LDIAG  =      T    sub-space diagonalisation
   IMIX   =      4    mixing-type and parameters
     AMIX     =   0.40;   BMIX     =  1.00
     AMIX_MAG =   1.60;   BMIX_MAG =  1.00
     AMIN     =   0.10
     WC   =   100.;   INIMIX=   1;  MIXPRE=   1

 Intra band minimization:
   WEIMIN = 0.0000     energy-eigenvalue tresh-hold
   EBREAK =  0.28E-05  absolut break condition
   DEPER  =   0.30     relativ break condition  

   TIME   =   0.10     timestep for ELM

  volume/ion in A,a.u.               =      18.21       122.86
  Fermi-wavevector in a.u.,eV,Ry     =   1.383987 26.060858  1.915419

 Second variation
   LSECVAR=     F    do a second variation

 Write flags
   LWAVE  =      F    write WAVECAR
   LCHARG =      T    write CHGCAR
   LVTOT  =      F    write LOCPOT, local potential
   LELF   =      F    write electronic localiz. function (ELF)
   LORBIT =     11    0 simple, 1 ext, 2 COOP (PROOUT)


 Dipole corrections
   IDIPOL =      0    1-x, 2-y, 3-z
   LDIPOL =      F    correct potential



--------------------------------------------------------------------------------------------------------


 Static calculation
 charge density will be updated during run
 non-spin polarized calculation
 RMM-DIIS sequential band-by-band and
  variant of blocked Davidson during initial phase
 performe sub-space diagonalisation
    before iterative eigenvector-optimisation
 modified Broyden-mixing scheme, WC =      100.0
 initial mixing is a Kerker type mixing with AMIX =  0.4000 and BMIX =      1.0000
 Hartree-type preconditioning will be used
 using additional bands                         3
 reciprocal scheme for non local part
 use partial core corrections
 calculate Harris-corrections to forces 
   (improved forces if not selfconsistent)
 use gradient corrections 
 use of overlap-Matrix (Vanderbilt PP)
 Gauss-broadening in eV      SIGMA  =   0.10


--------------------------------------------------------------------------------------------------------


  energy-cutoff  :      350.00
  volume of cell :       18.21
      direct lattice vectors                 reciprocal lattice vectors
     0.000000000  2.088000000  2.088000000    -0.239463602  0.239463602  0.239463602
     2.088000000  0.000000000  2.088000000     0.239463602 -0.239463602  0.239463602
     2.088000000  2.088000000  0.000000000     0.239463602  0.239463602 -0.239463602

  length of vectors
     2.952877918  2.952877918  2.952877918     0.414763124  0.414763124  0.414763124



 k-points in units of 2pi/SCALE and weight: 10x10x10 title card                     
   0.05000000  0.05000000  0.05000000       0.002
  -0.05000000  0.15000000  0.15000000       0.006
  -0.15000000  0.25000000  0.25000000       0.006
  -0.25000000  0.35000000  0.35000000       0.006
  -0.35000000  0.45000000  0.45000000       0.006
   0.55000000 -0.45000000 -0.45000000       0.006
   0.45000000 -0.35000000 -0.35000000       0.006
   0.35000000 -0.25000000 -0.25000000       0.006
   0.25000000 -0.15000000 -0.15000000       0.006
   0.15000000 -0.05000000 -0.05000000       0.006
   0.05000000  0.05000000  0.25000000       0.006
  -0.05000000  0.15000000  0.35000000       0.012
  -0.15000000  0.25000000  0.45000000       0.012
  -0.25000000  0.35000000  0.55000000       0.012
   0.65000000 -0.55000000 -0.35000000       0.012
   0.55000000 -0.45000000 -0.25000000       0.012
   0.45000000 -0.35000000 -0.15000000       0.012
   0.35000000 -0.25000000 -0.05000000       0.012
   0.25000000 -0.15000000  0.05000000       0.012
   0.05000000  0.05000000  0.45000000       0.006
  -0.05000000  0.15000000  0.55000000       0.012
  -0.15000000  0.25000000  0.65000000       0.012
   0.75000000 -0.65000000 -0.25000000       0.012
   0.65000000 -0.55000000 -0.15000000       0.012
   0.55000000 -0.45000000 -0.05000000       0.012
   0.45000000 -0.35000000  0.05000000       0.012
   0.35000000 -0.25000000  0.15000000       0.012
   0.05000000  0.05000000  0.65000000       0.006
  -0.05000000  0.15000000  0.75000000       0.012
   0.85000000 -0.75000000 -0.15000000       0.012
   0.75000000 -0.65000000 -0.05000000       0.012
   0.65000000 -0.55000000  0.05000000       0.012
   0.55000000 -0.45000000  0.15000000       0.012
   0.45000000 -0.35000000  0.25000000       0.012
   0.05000000  0.05000000  0.85000000       0.006
   0.95000000 -0.85000000 -0.05000000       0.012
   0.85000000 -0.75000000  0.05000000       0.012
   0.75000000 -0.65000000  0.15000000       0.012
   0.65000000 -0.55000000  0.25000000       0.012
   0.55000000 -0.45000000  0.35000000       0.012
   0.05000000  0.05000000 -0.95000000       0.006
  -0.05000000  0.15000000 -0.85000000       0.012
  -0.15000000  0.25000000 -0.75000000       0.012
  -0.25000000  0.35000000 -0.65000000       0.012
   0.05000000  0.05000000 -0.75000000       0.006
  -0.05000000  0.15000000 -0.65000000       0.012
  -0.15000000  0.25000000 -0.55000000       0.012
   0.05000000  0.05000000 -0.55000000       0.006
  -0.05000000  0.15000000 -0.45000000       0.012
   0.05000000  0.05000000 -0.35000000       0.006
   0.15000000  0.15000000  0.15000000       0.002
   0.05000000  0.25000000  0.25000000       0.006
  -0.05000000  0.35000000  0.35000000       0.006
  -0.15000000  0.45000000  0.45000000       0.006
   0.75000000 -0.45000000 -0.45000000       0.006
   0.65000000 -0.35000000 -0.35000000       0.006
   0.55000000 -0.25000000 -0.25000000       0.006
   0.45000000 -0.15000000 -0.15000000       0.006
   0.15000000  0.15000000  0.35000000       0.006
   0.05000000  0.25000000  0.45000000       0.012
  -0.05000000  0.35000000  0.55000000       0.012
   0.85000000 -0.55000000 -0.35000000       0.012
   0.75000000 -0.45000000 -0.25000000       0.012
   0.65000000 -0.35000000 -0.15000000       0.012
   0.55000000 -0.25000000 -0.05000000       0.012
   0.15000000  0.15000000  0.55000000       0.006
   0.05000000  0.25000000  0.65000000       0.012
   0.95000000 -0.65000000 -0.25000000       0.012
   0.85000000 -0.55000000 -0.15000000       0.012
   0.75000000 -0.45000000 -0.05000000       0.012
   0.65000000 -0.35000000  0.05000000       0.012
   0.15000000  0.15000000  0.75000000       0.006
   1.05000000 -0.75000000 -0.15000000       0.012
   0.95000000 -0.65000000 -0.05000000       0.012
   0.85000000 -0.55000000  0.05000000       0.012
   0.75000000 -0.45000000  0.15000000       0.012
   0.15000000  0.15000000 -1.05000000       0.006
   0.05000000  0.25000000 -0.95000000       0.012
  -0.05000000  0.35000000 -0.85000000       0.012
   0.15000000  0.15000000 -0.85000000       0.006
   0.05000000  0.25000000 -0.75000000       0.012
   0.15000000  0.15000000 -0.65000000       0.006
   0.25000000  0.25000000  0.25000000       0.002
   0.15000000  0.35000000  0.35000000       0.006
   0.05000000  0.45000000  0.45000000       0.006
   0.95000000 -0.45000000 -0.45000000       0.006
   0.85000000 -0.35000000 -0.35000000       0.006
   0.75000000 -0.25000000 -0.25000000       0.006
   0.25000000  0.25000000  0.45000000       0.006
   0.15000000  0.35000000  0.55000000       0.012
   1.05000000 -0.55000000 -0.35000000       0.012
   0.95000000 -0.45000000 -0.25000000       0.012
   0.85000000 -0.35000000 -0.15000000       0.012
   0.25000000  0.25000000  0.65000000       0.006
   1.15000000 -0.65000000 -0.25000000       0.012
   1.05000000 -0.55000000 -0.15000000       0.012
   0.95000000 -0.45000000 -0.05000000       0.012
   0.25000000  0.25000000 -1.15000000       0.006
   0.15000000  0.35000000 -1.05000000       0.012
   0.25000000  0.25000000 -0.95000000       0.006
   0.35000000  0.35000000  0.35000000       0.002
   0.25000000  0.45000000  0.45000000       0.006
   1.15000000 -0.45000000 -0.45000000       0.006
   1.05000000 -0.35000000 -0.35000000       0.006
   0.35000000  0.35000000  0.55000000       0.006
   1.25000000 -0.55000000 -0.35000000       0.012
   1.15000000 -0.45000000 -0.25000000       0.012
   0.35000000  0.35000000 -1.25000000       0.006
   0.45000000  0.45000000  0.45000000       0.002
   1.35000000 -0.45000000 -0.45000000       0.006

 k-points in reciprocal lattice and weights: 10x10x10 title card                     
   0.05000000  0.05000000  0.05000000       0.002
   0.15000000  0.05000000  0.05000000       0.006
   0.25000000  0.05000000  0.05000000       0.006
   0.35000000  0.05000000  0.05000000       0.006
   0.45000000  0.05000000  0.05000000       0.006
  -0.45000000  0.05000000  0.05000000       0.006
  -0.35000000  0.05000000  0.05000000       0.006
  -0.25000000  0.05000000  0.05000000       0.006
  -0.15000000  0.05000000  0.05000000       0.006
  -0.05000000  0.05000000  0.05000000       0.006
   0.15000000  0.15000000  0.05000000       0.006
   0.25000000  0.15000000  0.05000000       0.012
   0.35000000  0.15000000  0.05000000       0.012
   0.45000000  0.15000000  0.05000000       0.012
  -0.45000000  0.15000000  0.05000000       0.012
  -0.35000000  0.15000000  0.05000000       0.012
  -0.25000000  0.15000000  0.05000000       0.012
  -0.15000000  0.15000000  0.05000000       0.012
  -0.05000000  0.15000000  0.05000000       0.012
   0.25000000  0.25000000  0.05000000       0.006
   0.35000000  0.25000000  0.05000000       0.012
   0.45000000  0.25000000  0.05000000       0.012
  -0.45000000  0.25000000  0.05000000       0.012
  -0.35000000  0.25000000  0.05000000       0.012
  -0.25000000  0.25000000  0.05000000       0.012
  -0.15000000  0.25000000  0.05000000       0.012
  -0.05000000  0.25000000  0.05000000       0.012
   0.35000000  0.35000000  0.05000000       0.006
   0.45000000  0.35000000  0.05000000       0.012
  -0.45000000  0.35000000  0.05000000       0.012
  -0.35000000  0.35000000  0.05000000       0.012
  -0.25000000  0.35000000  0.05000000       0.012
  -0.15000000  0.35000000  0.05000000       0.012
  -0.05000000  0.35000000  0.05000000       0.012
   0.45000000  0.45000000  0.05000000       0.006
  -0.45000000  0.45000000  0.05000000       0.012
  -0.35000000  0.45000000  0.05000000       0.012
  -0.25000000  0.45000000  0.05000000       0.012
  -0.15000000  0.45000000  0.05000000       0.012
  -0.05000000  0.45000000  0.05000000       0.012
  -0.45000000 -0.45000000  0.05000000       0.006
  -0.35000000 -0.45000000  0.05000000       0.012
  -0.25000000 -0.45000000  0.05000000       0.012
  -0.15000000 -0.45000000  0.05000000       0.012
  -0.35000000 -0.35000000  0.05000000       0.006
  -0.25000000 -0.35000000  0.05000000       0.012
  -0.15000000 -0.35000000  0.05000000       0.012
  -0.25000000 -0.25000000  0.05000000       0.006
  -0.15000000 -0.25000000  0.05000000       0.012
  -0.15000000 -0.15000000  0.05000000       0.006
   0.15000000  0.15000000  0.15000000       0.002
   0.25000000  0.15000000  0.15000000       0.006
   0.35000000  0.15000000  0.15000000       0.006
   0.45000000  0.15000000  0.15000000       0.006
  -0.45000000  0.15000000  0.15000000       0.006
  -0.35000000  0.15000000  0.15000000       0.006
  -0.25000000  0.15000000  0.15000000       0.006
  -0.15000000  0.15000000  0.15000000       0.006
   0.25000000  0.25000000  0.15000000       0.006
   0.35000000  0.25000000  0.15000000       0.012
   0.45000000  0.25000000  0.15000000       0.012
  -0.45000000  0.25000000  0.15000000       0.012
  -0.35000000  0.25000000  0.15000000       0.012
  -0.25000000  0.25000000  0.15000000       0.012
  -0.15000000  0.25000000  0.15000000       0.012
   0.35000000  0.35000000  0.15000000       0.006
   0.45000000  0.35000000  0.15000000       0.012
  -0.45000000  0.35000000  0.15000000       0.012
  -0.35000000  0.35000000  0.15000000       0.012
  -0.25000000  0.35000000  0.15000000       0.012
  -0.15000000  0.35000000  0.15000000       0.012
   0.45000000  0.45000000  0.15000000       0.006
  -0.45000000  0.45000000  0.15000000       0.012
  -0.35000000  0.45000000  0.15000000       0.012
  -0.25000000  0.45000000  0.15000000       0.012
  -0.15000000  0.45000000  0.15000000       0.012
  -0.45000000 -0.45000000  0.15000000       0.006
  -0.35000000 -0.45000000  0.15000000       0.012
  -0.25000000 -0.45000000  0.15000000       0.012
  -0.35000000 -0.35000000  0.15000000       0.006
  -0.25000000 -0.35000000  0.15000000       0.012
  -0.25000000 -0.25000000  0.15000000       0.006
   0.25000000  0.25000000  0.25000000       0.002
   0.35000000  0.25000000  0.25000000       0.006
   0.45000000  0.25000000  0.25000000       0.006
  -0.45000000  0.25000000  0.25000000       0.006
  -0.35000000  0.25000000  0.25000000       0.006
  -0.25000000  0.25000000  0.25000000       0.006
   0.35000000  0.35000000  0.25000000       0.006
   0.45000000  0.35000000  0.25000000       0.012
  -0.45000000  0.35000000  0.25000000       0.012
  -0.35000000  0.35000000  0.25000000       0.012
  -0.25000000  0.35000000  0.25000000       0.012
   0.45000000  0.45000000  0.25000000       0.006
  -0.45000000  0.45000000  0.25000000       0.012
  -0.35000000  0.45000000  0.25000000       0.012
  -0.25000000  0.45000000  0.25000000       0.012
  -0.45000000 -0.45000000  0.25000000       0.006
  -0.35000000 -0.45000000  0.25000000       0.012
  -0.35000000 -0.35000000  0.25000000       0.006
   0.35000000  0.35000000  0.35000000       0.002
   0.45000000  0.35000000  0.35000000       0.006
  -0.45000000  0.35000000  0.35000000       0.006
  -0.35000000  0.35000000  0.35000000       0.006
   0.45000000  0.45000000  0.35000000       0.006
  -0.45000000  0.45000000  0.35000000       0.012
  -0.35000000  0.45000000  0.35000000       0.012
  -0.45000000 -0.45000000  0.35000000       0.006
   0.45000000  0.45000000  0.45000000       0.002
  -0.45000000  0.45000000  0.45000000       0.006

 position of ions in fractional coordinates (direct lattice) 
   0.00000000  0.00000000  0.00000000

 position of ions in cartesian coordinates  (Angst):
   0.00000000  0.00000000  0.00000000



--------------------------------------------------------------------------------------------------------


 k-point  1 :  0.05000.05000.0500  plane waves:    277
 k-point  2 :  0.15000.05000.0500  plane waves:    275
 k-point  3 :  0.25000.05000.0500  plane waves:    278
 k-point  4 :  0.35000.05000.0500  plane waves:    275
 k-point  5 :  0.45000.05000.0500  plane waves:    269
 k-point  6 :  -.45000.05000.0500  plane waves:    267
 k-point  7 :  -.35000.05000.0500  plane waves:    270
 k-point  8 :  -.25000.05000.0500  plane waves:    278
 k-point  9 :  -.15000.05000.0500  plane waves:    275
 k-point 10 :  -.05000.05000.0500  plane waves:    275
 k-point 11 :  0.15000.15000.0500  plane waves:    278
 k-point 12 :  0.25000.15000.0500  plane waves:    282
 k-point 13 :  0.35000.15000.0500  plane waves:    276
 k-point 14 :  0.45000.15000.0500  plane waves:    269
 k-point 15 :  -.45000.15000.0500  plane waves:    265
 k-point 16 :  -.35000.15000.0500  plane waves:    270
 k-point 17 :  -.25000.15000.0500  plane waves:    274
 k-point 18 :  -.15000.15000.0500  plane waves:    279
 k-point 19 :  -.05000.15000.0500  plane waves:    279
 k-point 20 :  0.25000.25000.0500  plane waves:    282
 k-point 21 :  0.35000.25000.0500  plane waves:    277
 k-point 22 :  0.45000.25000.0500  plane waves:    271
 k-point 23 :  -.45000.25000.0500  plane waves:    265
 k-point 24 :  -.35000.25000.0500  plane waves:    269
 k-point 25 :  -.25000.25000.0500  plane waves:    270
 k-point 26 :  -.15000.25000.0500  plane waves:    273
 k-point 27 :  -.05000.25000.0500  plane waves:    280
 k-point 28 :  0.35000.35000.0500  plane waves:    270
 k-point 29 :  0.45000.35000.0500  plane waves:    267
 k-point 30 :  -.45000.35000.0500  plane waves:    267
 k-point 31 :  -.35000.35000.0500  plane waves:    270
 k-point 32 :  -.25000.35000.0500  plane waves:    271
 k-point 33 :  -.15000.35000.0500  plane waves:    269
 k-point 34 :  -.05000.35000.0500  plane waves:    269
 k-point 35 :  0.45000.45000.0500  plane waves:    271
 k-point 36 :  -.45000.45000.0500  plane waves:    269
 k-point 37 :  -.35000.45000.0500  plane waves:    271
 k-point 38 :  -.25000.45000.0500  plane waves:    270
 k-point 39 :  -.15000.45000.0500  plane waves:    265
 k-point 40 :  -.05000.45000.0500  plane waves:    266
 k-point 41 :  -.4500-.45000.0500  plane waves:    264
 k-point 42 :  -.3500-.45000.0500  plane waves:    269
 k-point 43 :  -.2500-.45000.0500  plane waves:    267
 k-point 44 :  -.1500-.45000.0500  plane waves:    268
 k-point 45 :  -.3500-.35000.0500  plane waves:    268
 k-point 46 :  -.2500-.35000.0500  plane waves:    268
 k-point 47 :  -.1500-.35000.0500  plane waves:    273
 k-point 48 :  -.2500-.25000.0500  plane waves:    274
 k-point 49 :  -.1500-.25000.0500  plane waves:    281
 k-point 50 :  -.1500-.15000.0500  plane waves:    283
 k-point 51 :  0.15000.15000.1500  plane waves:    274
 k-point 52 :  0.25000.15000.1500  plane waves:    282
 k-point 53 :  0.35000.15000.1500  plane waves:    273
 k-point 54 :  0.45000.15000.1500  plane waves:    273
 k-point 55 :  -.45000.15000.1500  plane waves:    265
 k-point 56 :  -.35000.15000.1500  plane waves:    265
 k-point 57 :  -.25000.15000.1500  plane waves:    273
 k-point 58 :  -.15000.15000.1500  plane waves:    282
 k-point 59 :  0.25000.25000.1500  plane waves:    283
 k-point 60 :  0.35000.25000.1500  plane waves:    279
 k-point 61 :  0.45000.25000.1500  plane waves:    272
 k-point 62 :  -.45000.25000.1500  plane waves:    266
 k-point 63 :  -.35000.25000.1500  plane waves:    267
 k-point 64 :  -.25000.25000.1500  plane waves:    270
 k-point 65 :  -.15000.25000.1500  plane waves:    273
 k-point 66 :  0.35000.35000.1500  plane waves:    275
 k-point 67 :  0.45000.35000.1500  plane waves:    269
 k-point 68 :  -.45000.35000.1500  plane waves:    266
 k-point 69 :  -.35000.35000.1500  plane waves:    265
 k-point 70 :  -.25000.35000.1500  plane waves:    271
 k-point 71 :  -.15000.35000.1500  plane waves:    268
 k-point 72 :  0.45000.45000.1500  plane waves:    269
 k-point 73 :  -.45000.45000.1500  plane waves:    268
 k-point 74 :  -.35000.45000.1500  plane waves:    267
 k-point 75 :  -.25000.45000.1500  plane waves:    269
 k-point 76 :  -.15000.45000.1500  plane waves:    268
 k-point 77 :  -.4500-.45000.1500  plane waves:    270
 k-point 78 :  -.3500-.45000.1500  plane waves:    270
 k-point 79 :  -.2500-.45000.1500  plane waves:    267
 k-point 80 :  -.3500-.35000.1500  plane waves:    270
 k-point 81 :  -.2500-.35000.1500  plane waves:    266
 k-point 82 :  -.2500-.25000.1500  plane waves:    269
 k-point 83 :  0.25000.25000.2500  plane waves:    274
 k-point 84 :  0.35000.25000.2500  plane waves:    276
 k-point 85 :  0.45000.25000.2500  plane waves:    268
 k-point 86 :  -.45000.25000.2500  plane waves:    272
 k-point 87 :  -.35000.25000.2500  plane waves:    271
 k-point 88 :  -.25000.25000.2500  plane waves:    265
 k-point 89 :  0.35000.35000.2500  plane waves:    273
 k-point 90 :  0.45000.35000.2500  plane waves:    269
 k-point 91 :  -.45000.35000.2500  plane waves:    269
 k-point 92 :  -.35000.35000.2500  plane waves:    272
 k-point 93 :  -.25000.35000.2500  plane waves:    268
 k-point 94 :  0.45000.45000.2500  plane waves:    268
 k-point 95 :  -.45000.45000.2500  plane waves:    266
 k-point 96 :  -.35000.45000.2500  plane waves:    267
 k-point 97 :  -.25000.45000.2500  plane waves:    267
 k-point 98 :  -.4500-.45000.2500  plane waves:    269
 k-point 99 :  -.3500-.45000.2500  plane waves:    267
 k-point ** :  -.3500-.35000.2500  plane waves:    272
 k-point ** :  0.35000.35000.3500  plane waves:    281
 k-point ** :  0.45000.35000.3500  plane waves:    273
 k-point ** :  -.45000.35000.3500  plane waves:    267
 k-point ** :  -.35000.35000.3500  plane waves:    270
 k-point ** :  0.45000.45000.3500  plane waves:    268
 k-point ** :  -.45000.45000.3500  plane waves:    267
 k-point ** :  -.35000.45000.3500  plane waves:    268
 k-point ** :  -.4500-.45000.3500  plane waves:    267
 k-point ** :  0.45000.45000.4500  plane waves:    269
 k-point ** :  -.45000.45000.4500  plane waves:    269

 maximum number of plane-waves:    283
 maximal index in each direction: 
   IXMAX=  4   IYMAX=  4   IZMAX=  4
   IXMIN= -4   IYMIN= -4   IZMIN= -4

 WARNING: wrap around error must be expected set NGX to  18
 WARNING: wrap around error must be expected set NGY to  18
 WARNING: wrap around error must be expected set NGZ to  18
 For storing wavefunctions    4.29 MBYTES are necessary
 For predicting wavefunctions    0.29 MBYTES are necessary
Broyden mixing: mesh for mixing (old mesh)
   NGX =  9   NGY =  9   NGZ =  9
  (NGX  = 28   NGY  = 28   NGZ  = 28)
 gives a total of    729 points
 initial charge density was supplied:
 charge density of overlapping atoms calculated
 number of electron   11.0000000 magnetization 
 keeping initial charge density in first step


--------------------------------------------------------------------------------------------------------


 Maximum index for augmentation-charges                      8853 (set IRDMAX)


--------------------------------------------------------------------------------------------------------


 First call to EWALD:  gamma=   0.674
 Maximum number of real-space cells 3x 3x 3
 Maximum number of reciprocal cells 3x 3x 3



----------------------------------------- Iteration    1(   1)  ---------------------------------------


      LOOP:  VPU time    3.54: CPU time    3.21

 eigenvalue-minimisations  :  2388
 total energy-change (2. order) : 0.4269872E+02  (-0.4653107E+03)
 number of electron   11.0000000 magnetization 
 augmentation part    11.0000000 magnetization 

 Free energy of the ion-electron system (eV)
  ---------------------------------------------------
  alpha Z        PSCENC =       102.64998377
  Ewald energy   TEWEN  =      -956.48295063
  -1/2 Hartree   DENC   =      -132.38928038
  -V(xc)+E(xc)   XCENC  =        14.99247527
  PAW double counting   =       747.65313744     -724.56448596
  entropy T*S    EENTRO =        -0.00473626
  eigenvalues    EBANDS =        63.76695791
  atomic energy  EATOM  =       927.07761444
  ---------------------------------------------------
  free energy    TOTEN  =        42.69871560 eV

  energy without entropy =       42.70345186  energy(sigma->0) =       42.70108373


--------------------------------------------------------------------------------------------------------




----------------------------------------- Iteration    1(   2)  ---------------------------------------


      LOOP:  VPU time    2.92: CPU time    2.65

 eigenvalue-minimisations  :  1996
 total energy-change (2. order) :-0.4550492E+02  (-0.4129547E+02)
 number of electron   11.0000000 magnetization 
 augmentation part    11.0000000 magnetization 

 Free energy of the ion-electron system (eV)
  ---------------------------------------------------
  alpha Z        PSCENC =       102.64998377
  Ewald energy   TEWEN  =      -956.48295063
  -1/2 Hartree   DENC   =      -132.38928038
  -V(xc)+E(xc)   XCENC  =        14.99247527
  PAW double counting   =       747.65313744     -724.56448596
  entropy T*S    EENTRO =        -0.00125144
  eigenvalues    EBANDS =        18.25855504
  atomic energy  EATOM  =       927.07761444
  ---------------------------------------------------
  free energy    TOTEN  =        -2.80620246 eV

  energy without entropy =       -2.80495101  energy(sigma->0) =       -2.80557673


--------------------------------------------------------------------------------------------------------




----------------------------------------- Iteration    1(   3)  ---------------------------------------


      LOOP:  VPU time    3.39: CPU time    3.10

 eigenvalue-minimisations  :  2370
 total energy-change (2. order) :-0.6496431E+00  (-0.6492779E+00)
 number of electron   11.0000000 magnetization 
 augmentation part    11.0000000 magnetization 

 Free energy of the ion-electron system (eV)
  ---------------------------------------------------
  alpha Z        PSCENC =       102.64998377
  Ewald energy   TEWEN  =      -956.48295063
  -1/2 Hartree   DENC   =      -132.38928038
  -V(xc)+E(xc)   XCENC  =        14.99247527
  PAW double counting   =       747.65313744     -724.56448596
  entropy T*S    EENTRO =        -0.00120592
  eigenvalues    EBANDS =        17.60886640
  atomic energy  EATOM  =       927.07761444
  ---------------------------------------------------
  free energy    TOTEN  =        -3.45584558 eV

  energy without entropy =       -3.45463965  energy(sigma->0) =       -3.45524261


--------------------------------------------------------------------------------------------------------




----------------------------------------- Iteration    1(   4)  ---------------------------------------


      LOOP:  VPU time    3.27: CPU time    2.98

 eigenvalue-minimisations  :  2283
 total energy-change (2. order) :-0.1753000E-02  (-0.1752952E-02)
 number of electron   11.0000000 magnetization 
 augmentation part    11.0000000 magnetization 

 Free energy of the ion-electron system (eV)
  ---------------------------------------------------
  alpha Z        PSCENC =       102.64998377
  Ewald energy   TEWEN  =      -956.48295063
  -1/2 Hartree   DENC   =      -132.38928038
  -V(xc)+E(xc)   XCENC  =        14.99247527
  PAW double counting   =       747.65313744     -724.56448596
  entropy T*S    EENTRO =        -0.00120571
  eigenvalues    EBANDS =        17.60711319
  atomic energy  EATOM  =       927.07761444
  ---------------------------------------------------
  free energy    TOTEN  =        -3.45759858 eV

  energy without entropy =       -3.45639286  energy(sigma->0) =       -3.45699572


--------------------------------------------------------------------------------------------------------




----------------------------------------- Iteration    1(   5)  ---------------------------------------


      LOOP:  VPU time    3.34: CPU time    3.06

 eigenvalue-minimisations  :  2242
 total energy-change (2. order) :-0.1224813E-04  (-0.1224876E-04)
 number of electron   11.0000014 magnetization 
 augmentation part     3.8760073 magnetization 

 Broyden mixing:
  rms(total) = 0.28568E+00    rms(broyden)= 0.28566E+00
  rms(prec ) = 0.11824E+01
  weight for this iteration     100.00

 Free energy of the ion-electron system (eV)
  ---------------------------------------------------
  alpha Z        PSCENC =       102.64998377
  Ewald energy   TEWEN  =      -956.48295063
  -1/2 Hartree   DENC   =      -132.38928038
  -V(xc)+E(xc)   XCENC  =        14.99247527
  PAW double counting   =       747.65313744     -724.56448596
  entropy T*S    EENTRO =        -0.00120572
  eigenvalues    EBANDS =        17.60710095
  atomic energy  EATOM  =       927.07761444
  ---------------------------------------------------
  free energy    TOTEN  =        -3.45761082 eV

  energy without entropy =       -3.45640511  energy(sigma->0) =       -3.45700797


--------------------------------------------------------------------------------------------------------




----------------------------------------- Iteration    1(   6)  ---------------------------------------


      LOOP:  VPU time    2.95: CPU time    2.83

 eigenvalue-minimisations  :  1994
 total energy-change (2. order) : 0.2345208E+00  (-0.4536053E-01)
 number of electron   11.0000015 magnetization 
 augmentation part     4.0123210 magnetization 

 Broyden mixing:
  rms(total) = 0.74383E-01    rms(broyden)= 0.74369E-01
  rms(prec ) = 0.29016E+00
  weight for this iteration     100.00

 eigenvalues of (default mixing * dielectric matrix)
  average eigenvalue GAMMA=   1.2157
  1.2157

 Free energy of the ion-electron system (eV)
  ---------------------------------------------------
  alpha Z        PSCENC =       102.64998377
  Ewald energy   TEWEN  =      -956.48295063
  -1/2 Hartree   DENC   =      -124.73271215
  -V(xc)+E(xc)   XCENC  =        14.64187700
  PAW double counting   =       739.96991287     -718.00766916
  entropy T*S    EENTRO =        -0.00121012
  eigenvalues    EBANDS =        11.66206400
  atomic energy  EATOM  =       927.07761444
  ---------------------------------------------------
  free energy    TOTEN  =        -3.22308998 eV

  energy without entropy =       -3.22187986  energy(sigma->0) =       -3.22248492


--------------------------------------------------------------------------------------------------------




----------------------------------------- Iteration    1(   7)  ---------------------------------------


      LOOP:  VPU time    2.99: CPU time    2.90

 eigenvalue-minimisations  :  2075
 total energy-change (2. order) : 0.1578736E-01  (-0.2766807E-02)
 number of electron   11.0000015 magnetization 
 augmentation part     4.0423333 magnetization 

 Broyden mixing:
  rms(total) = 0.29898E-01    rms(broyden)= 0.29891E-01
  rms(prec ) = 0.68906E-01
  weight for this iteration     100.00

 eigenvalues of (default mixing * dielectric matrix)
  average eigenvalue GAMMA=   1.8122
  1.2011  2.4233

 Free energy of the ion-electron system (eV)
  ---------------------------------------------------
  alpha Z        PSCENC =       102.64998377
  Ewald energy   TEWEN  =      -956.48295063
  -1/2 Hartree   DENC   =      -122.43830970
  -V(xc)+E(xc)   XCENC  =        14.53291262
  PAW double counting   =       741.83874542     -720.57661417
  entropy T*S    EENTRO =        -0.00114082
  eigenvalues    EBANDS =        10.19245645
  atomic energy  EATOM  =       927.07761444
  ---------------------------------------------------
  free energy    TOTEN  =        -3.20730262 eV

  energy without entropy =       -3.20616180  energy(sigma->0) =       -3.20673221


--------------------------------------------------------------------------------------------------------




----------------------------------------- Iteration    1(   8)  ---------------------------------------


      LOOP:  VPU time    3.04: CPU time    2.93

 eigenvalue-minimisations  :  2106
 total energy-change (2. order) : 0.3110025E-02  (-0.1338907E-03)
 number of electron   11.0000015 magnetization 
 augmentation part     4.0409987 magnetization 

 Broyden mixing:
  rms(total) = 0.16125E-02    rms(broyden)= 0.16087E-02
  rms(prec ) = 0.39892E-02
  weight for this iteration     100.00

 eigenvalues of (default mixing * dielectric matrix)
  average eigenvalue GAMMA=   1.8435
  1.2110  2.6174  1.7020

 Free energy of the ion-electron system (eV)
  ---------------------------------------------------
  alpha Z        PSCENC =       102.64998377
  Ewald energy   TEWEN  =      -956.48295063
  -1/2 Hartree   DENC   =      -121.71553831
  -V(xc)+E(xc)   XCENC  =        14.49406481
  PAW double counting   =       747.21537609     -726.53485608
  entropy T*S    EENTRO =        -0.00113480
  eigenvalues    EBANDS =        10.09324811
  atomic energy  EATOM  =       927.07761444
  ---------------------------------------------------
  free energy    TOTEN  =        -3.20419259 eV

  energy without entropy =       -3.20305780  energy(sigma->0) =       -3.20362519


--------------------------------------------------------------------------------------------------------




----------------------------------------- Iteration    1(   9)  ---------------------------------------


      LOOP:  VPU time    2.15: CPU time    2.07

 eigenvalue-minimisations  :  1270
 total energy-change (2. order) :-0.1297141E-04  (-0.2460189E-05)
 number of electron   11.0000015 magnetization 
 augmentation part     4.0409987 magnetization 

 Free energy of the ion-electron system (eV)
  ---------------------------------------------------
  alpha Z        PSCENC =       102.64998377
  Ewald energy   TEWEN  =      -956.48295063
  -1/2 Hartree   DENC   =      -121.67514868
  -V(xc)+E(xc)   XCENC  =        14.49195113
  PAW double counting   =       747.61297959     -726.93550305
  entropy T*S    EENTRO =        -0.00113138
  eigenvalues    EBANDS =        10.05799925
  atomic energy  EATOM  =       927.07761444
  ---------------------------------------------------
  free energy    TOTEN  =        -3.20420556 eV

  energy without entropy =       -3.20307418  energy(sigma->0) =       -3.20363987


--------------------------------------------------------------------------------------------------------




 average (electrostatic) potential at core
  the test charge radii are     1.2098
  (the norm of the test charge is              1.0000)
       1 -46.1626



 E-fermi :   4.8342     XC(G=0): -12.3455     alpha+bet : -9.5478
   add alpha+bet to get absolut eigen values

 k-point   1 :       0.0500    0.0500    0.0500
  band No.  band energies     occupation 
      1      -4.1942      2.00000
      2       0.4682      2.00000
      3       0.5207      2.00000
      4       0.5207      2.00000
      5       1.8326      2.00000
      6       1.8326      2.00000
      7      20.3265      0.00000
      8      23.0257      0.00000
      9      23.7745      0.00000

 k-point   2 :       0.1500    0.0500    0.0500
  band No.  band energies     occupation 
      1      -3.7666      2.00000
      2       0.3379      2.00000
      3       0.6442      2.00000
      4       0.6736      2.00000
      5       1.7061      2.00000
      6       1.8790      2.00000
      7      20.4223      0.00000
      8      21.1610      0.00000
      9      23.3017      0.00000

 k-point   3 :       0.2500    0.0500    0.0500
  band No.  band energies     occupation 
      1      -2.8388      2.00000
      2       0.2511      2.00000
      3       0.7815      2.00000
      4       0.7985      2.00000
      5       1.7213      2.00000
      6       2.0753      2.00000
      7      17.0865      0.00000
      8      21.0297      0.00000
      9      23.3069      0.00000

 k-point   4 :       0.3500    0.0500    0.0500
  band No.  band energies     occupation 
      1      -2.0130      2.00000
      2       0.6268      2.00000
      3       0.6962      2.00000
      4       0.9102      2.00000
      5       2.1544      2.00000
      6       2.5898      2.00000
      7      13.1147      0.00000
      8      20.4275      0.00000
      9      22.3275      0.00000

 k-point   5 :       0.4500    0.0500    0.0500
  band No.  band energies     occupation 
      1      -1.8134      2.00000
      2       0.4876      2.00000
      3       0.5483      2.00000
      4       2.2862      2.00000
      5       2.6752      2.00000
      6       3.5198      2.00000
      7       9.4167      0.00000
      8      19.7679      0.00000
      9      21.4890      0.00000

 k-point   6 :      -0.4500    0.0500    0.0500
  band No.  band energies     occupation 
      1      -1.8095      2.00000
      2       0.4291      2.00000
      3       0.5136      2.00000
      4       2.5747      2.00000
      5       2.9200      2.00000
      6       4.5543      1.99992
      7       7.7200      0.00000
      8      19.5916      0.00000
      9      21.5626      0.00000

 k-point   7 :      -0.3500    0.0500    0.0500
  band No.  band energies     occupation 
      1      -1.8367      2.00000
      2       0.5144      2.00000
      3       0.6111      2.00000
      4       1.7886      2.00000
      5       2.7443      2.00000
      6       2.9536      2.00000
      7      10.5720      0.00000
      8      19.9996      0.00000
      9      21.9067      0.00000

 k-point   8 :      -0.2500    0.0500    0.0500
  band No.  band energies     occupation 
      1      -2.2197      2.00000
      2       0.5022      2.00000
      3       0.7188      2.00000
      4       0.7632      2.00000
      5       2.0843      2.00000
      6       2.3044      2.00000
      7      14.4360      0.00000
      8      20.8106      0.00000
      9      22.7369      0.00000

 k-point   9 :      -0.1500    0.0500    0.0500
  band No.  band energies     occupation 
      1      -3.1800      2.00000
      2       0.2330      2.00000
      3       0.7734      2.00000
      4       0.7835      2.00000
      5       1.6821      2.00000
      6       1.9614      2.00000
      7      18.3771      0.00000
      8      21.2050      0.00000
      9      23.3003      0.00000

 k-point  10 :      -0.0500    0.0500    0.0500
  band No.  band energies     occupation 
      1      -3.9768      2.00000
      2       0.3751      2.00000
      3       0.6059      2.00000
      4       0.6107      2.00000
      5       1.7260      2.00000
      6       1.8833      2.00000
      7      20.5040      0.00000
      8      22.1153      0.00000
      9      23.4430      0.00000

 k-point  11 :       0.1500    0.1500    0.0500
  band No.  band energies     occupation 
      1      -3.5541      2.00000
      2       0.1875      2.00000
      3       0.7847      2.00000
      4       0.7876      2.00000
      5       1.5401      2.00000
      6       1.9808      2.00000
      7      20.6928      0.00000
      8      21.3082      0.00000
      9      22.6593      0.00000

 k-point  12 :       0.2500    0.1500    0.0500
  band No.  band energies     occupation 
      1      -2.7832      2.00000
      2      -0.0256      2.00000
      3       0.8734      2.00000
      4       1.0344      2.00000
      5       1.5051      2.00000
      6       2.1799      2.00000
      7      18.6161      0.00000
      8      20.4186      0.00000
      9      22.4738      0.00000

 k-point  13 :       0.3500    0.1500    0.0500
  band No.  band energies     occupation 
      1      -1.8401      2.00000
      2       0.0731      2.00000
      3       0.6111      2.00000
      4       1.0424      2.00000
      5       2.0997      2.00000
      6       2.7128      2.00000
      7      14.6641      0.00000
      8      19.8471      0.00000
      9      21.4435      0.00000

 k-point  14 :       0.4500    0.1500    0.0500
  band No.  band energies     occupation 
      1      -1.4932      2.00000
      2       0.3473      2.00000
      3       0.8404      2.00000
      4       1.0040      2.00000
      5       2.7386      2.00000
      6       3.8772      2.00000
      7      10.7906      0.00000
      8      19.4858      0.00000
      9      20.1089      0.00000

 k-point  15 :      -0.4500    0.1500    0.0500
  band No.  band energies     occupation 
      1      -1.4764      2.00000
      2       0.2341      2.00000
      3       0.7794      2.00000
      4       1.6802      2.00000
      5       2.8805      2.00000
      6       5.8174      0.00000
      7       7.7418      0.00000
      8      19.0803      0.00000
      9      19.7003      0.00000

 k-point  16 :      -0.3500    0.1500    0.0500
  band No.  band energies     occupation 
      1      -1.4601      2.00000
      2       0.3038      2.00000
      3       0.8020      2.00000
      4       1.4032      2.00000
      5       2.6100      2.00000
      6       4.5591      1.99990
      7       9.6711      0.00000
      8      18.6307      0.00000
      9      20.3509      0.00000

 k-point  17 :      -0.2500    0.1500    0.0500
  band No.  band energies     occupation 
      1      -1.6193      2.00000
      2       0.3258      2.00000
      3       0.5868      2.00000
      4       0.9690      2.00000
      5       2.0102      2.00000
      6       3.2147      2.00000
      7      13.3633      0.00000
      8      18.8108      0.00000
      9      21.4664      0.00000

 k-point  18 :      -0.1500    0.1500    0.0500
  band No.  band energies     occupation 
      1      -2.4495      2.00000
      2       0.0173      2.00000
      3       0.7838      2.00000
      4       1.0538      2.00000
      5       1.4968      2.00000
      6       2.4206      2.00000
      7      17.2292      0.00000
      8      19.4163      0.00000
      9      23.0902      0.00000

 k-point  19 :      -0.0500    0.1500    0.0500
  band No.  band energies     occupation 
      1      -3.3583      2.00000
      2       0.1940      2.00000
      3       0.7878      2.00000
      4       0.7953      2.00000
      5       1.5756      2.00000
      6       1.9923      2.00000
      7      19.6547      0.00000
      8      20.8289      0.00000
      9      22.8758      0.00000

 k-point  20 :       0.2500    0.2500    0.0500
  band No.  band energies     occupation 
      1      -2.2678      2.00000
      2      -0.3414      2.00000
      3       1.0181      2.00000
      4       1.3733      2.00000
      5       1.5510      2.00000
      6       2.2824      2.00000
      7      19.0156      0.00000
      8      20.0875      0.00000
      9      21.4178      0.00000

 k-point  21 :       0.3500    0.2500    0.0500
  band No.  band energies     occupation 
      1      -1.5238      2.00000
      2      -0.5372      2.00000
      3       0.8033      2.00000
      4       1.6818      2.00000
      5       2.1423      2.00000
      6       2.7299      2.00000
      7      16.3459      0.00000
      8      18.2485      0.00000
      9      19.8537      0.00000

 k-point  22 :       0.4500    0.2500    0.0500
  band No.  band energies     occupation 
      1      -1.1123      2.00000
      2      -0.2876      2.00000
      3       0.5960      2.00000
      4       1.5643      2.00000
      5       2.8118      2.00000
      6       4.1261      2.00000
      7      12.4297      0.00000
      8      17.5573      0.00000
      9      18.1903      0.00000

 k-point  23 :      -0.4500    0.2500    0.0500
  band No.  band energies     occupation 
      1      -1.0138      2.00000
      2      -0.0560      2.00000
      3       0.7894      2.00000
      4       1.3896      2.00000
      5       2.9124      2.00000
      6       6.4737      0.00000
      7       8.9854      0.00000
      8      16.2838      0.00000
      9      18.2746      0.00000

 k-point  24 :      -0.3500    0.2500    0.0500
  band No.  band energies     occupation 
      1      -0.8595      2.00000
      2      -0.0032      2.00000
      3       0.8182      2.00000
      4       1.2960      2.00000
      5       2.5687      2.00000
      6       6.3258      0.00000
      7       9.4421      0.00000
      8      15.2531      0.00000
      9      19.4234      0.00000

 k-point  25 :      -0.2500    0.2500    0.0500
  band No.  band energies     occupation 
      1      -0.7721      2.00000
      2       0.0601      2.00000
      3       0.3066      2.00000
      4       1.3695      2.00000
      5       1.9710      2.00000
      6       4.5447      1.99996
      7      12.7270      0.00000
      8      15.1481      0.00000
      9      20.7633      0.00000

 k-point  26 :      -0.1500    0.2500    0.0500
  band No.  band energies     occupation 
      1      -1.4725      2.00000
      2      -0.0437      2.00000
      3       0.5531      2.00000
      4       1.2575      2.00000
      5       1.6232      2.00000
      6       3.2906      2.00000
      7      14.7960      0.00000
      8      17.3084      0.00000
      9      21.8849      0.00000

 k-point  27 :      -0.0500    0.2500    0.0500
  band No.  band energies     occupation 
      1      -2.3698      2.00000
      2       0.1895      2.00000
      3       0.7587      2.00000
      4       0.8838      2.00000
      5       1.7849      2.00000
      6       2.3548      2.00000
      7      15.8506      0.00000
      8      20.5933      0.00000
      9      22.4582      0.00000

 k-point  28 :       0.3500    0.3500    0.0500
  band No.  band energies     occupation 
      1      -1.3964      2.00000
      2      -0.8755      2.00000
      3       1.6434      2.00000
      4       2.1447      2.00000
      5       2.5853      2.00000
      6       2.6467      2.00000
      7      16.2500      0.00000
      8      17.3670      0.00000
      9      17.4543      0.00000

 k-point  29 :       0.4500    0.3500    0.0500
  band No.  band energies     occupation 
      1      -1.2676      2.00000
      2      -0.9702      2.00000
      3       1.6609      2.00000
      4       2.4098      2.00000
      5       2.8249      2.00000
      6       4.2245      2.00000
      7      13.5415      0.00000
      8      15.6647      0.00000
      9      16.3089      0.00000

 k-point  30 :      -0.4500    0.3500    0.0500
  band No.  band energies     occupation 
      1      -1.1251      2.00000
      2      -0.6794      2.00000
      3       1.3376      2.00000
      4       2.1400      2.00000
      5       2.9986      2.00000
      6       6.7052      0.00000
      7      10.5321      0.00000
      8      13.8770      0.00000
      9      16.4513      0.00000

 k-point  31 :      -0.3500    0.3500    0.0500
  band No.  band energies     occupation 
      1      -0.8681      2.00000
      2      -0.2134      2.00000
      3       0.8467      2.00000
      4       1.8500      2.00000
      5       2.7203      2.00000
      6       7.8751      0.00000
      7       9.9441      0.00000
      8      12.2622      0.00000
      9      17.6741      0.00000

 k-point  32 :      -0.2500    0.3500    0.0500
  band No.  band energies     occupation 
      1      -0.6141      2.00000
      2       0.0517      2.00000
      3       0.4092      2.00000
      4       1.5367      2.00000
      5       2.3618      2.00000
      6       6.1393      0.00000
      7      11.2342      0.00000
      8      13.2609      0.00000
      9      19.3824      0.00000

 k-point  33 :      -0.1500    0.3500    0.0500
  band No.  band energies     occupation 
      1      -1.1314      2.00000
      2       0.2191      2.00000
      3       0.7138      2.00000
      4       1.1038      2.00000
      5       2.2885      2.00000
      6       4.5510      1.99994
      7      11.1694      0.00000
      8      16.8696      0.00000
      9      20.5887      0.00000

 k-point  34 :      -0.0500    0.3500    0.0500
  band No.  band energies     occupation 
      1      -1.7648      2.00000
      2       0.5190      2.00000
      3       0.7372      2.00000
      4       1.0528      2.00000
      5       2.4110      2.00000
      6       3.0680      2.00000
      7      11.8993      0.00000
      8      20.0213      0.00000
      9      21.2852      0.00000

 k-point  35 :       0.4500    0.4500    0.0500
  band No.  band energies     occupation 
      1      -1.5050      2.00000
      2      -1.2306      2.00000
      3       2.7262      2.00000
      4       2.7767      2.00000
      5       3.0265      2.00000
      6       4.8421      0.91175
      7      12.0557      0.00000
      8      15.1134      0.00000
      9      15.4669      0.00000

 k-point  36 :      -0.4500    0.4500    0.0500
  band No.  band energies     occupation 
      1      -1.4395      2.00000
      2      -1.1843      2.00000
      3       2.4502      2.00000
      4       2.6897      2.00000
      5       3.1554      2.00000
      6       6.7785      0.00000
      7      10.2406      0.00000
      8      14.0827      0.00000
      9      15.0548      0.00000

 k-point  37 :      -0.3500    0.4500    0.0500
  band No.  band energies     occupation 
      1      -1.1733      2.00000
      2      -0.7620      2.00000
      3       1.5924      2.00000
      4       2.2840      2.00000
      5       2.9980      2.00000
      6       8.1349      0.00000
      7       9.6075      0.00000
      8      12.6534      0.00000
      9      16.1280      0.00000

 k-point  38 :      -0.2500    0.4500    0.0500
  band No.  band energies     occupation 
      1      -0.8979      2.00000
      2      -0.1737      2.00000
      3       0.8097      2.00000
      4       1.6563      2.00000
      5       2.8259      2.00000
      6       7.8549      0.00000
      7       8.6060      0.00000
      8      14.2000      0.00000
      9      17.8737      0.00000

 k-point  39 :      -0.1500    0.4500    0.0500
  band No.  band energies     occupation 
      1      -1.1854      2.00000
      2       0.0890      2.00000
      3       1.0150      2.00000
      4       1.2584      2.00000
      5       2.7728      2.00000
      6       6.5485      0.00000
      7       7.9375      0.00000
      8      17.2621      0.00000
      9      19.5142      0.00000

 k-point  40 :      -0.0500    0.4500    0.0500
  band No.  band energies     occupation 
      1      -1.6913      2.00000
      2       0.3791      2.00000
      3       0.6172      2.00000
      4       2.0633      2.00000
      5       2.8437      2.00000
      6       4.5613      1.99989
      7       8.4515      0.00000
      8      19.6247      0.00000
      9      20.6977      0.00000

 k-point  41 :      -0.4500   -0.4500    0.0500
  band No.  band energies     occupation 
      1      -1.5732      2.00000
      2      -1.3064      2.00000
      3       2.8240      2.00000
      4       3.0099      2.00000
      5       3.1663      2.00000
      6       6.0994      0.00000
      7      10.4053      0.00000
      8      14.6641      0.00000
      9      15.0407      0.00000

 k-point  42 :      -0.3500   -0.4500    0.0500
  band No.  band energies     occupation 
      1      -1.3688      2.00000
      2      -1.1113      2.00000
      3       2.1398      2.00000
      4       2.6412      2.00000
      5       3.0211      2.00000
      6       5.5049      0.00000
      7      11.7945      0.00000
      8      14.6062      0.00000
      9      15.4712      0.00000

 k-point  43 :      -0.2500   -0.4500    0.0500
  band No.  band energies     occupation 
      1      -1.0734      2.00000
      2      -0.5136      2.00000
      3       0.9522      2.00000
      4       1.8746      2.00000
      5       2.9545      2.00000
      6       5.3130      0.00000
      7      11.4309      0.00000
      8      15.7101      0.00000
      9      17.0945      0.00000

 k-point  44 :      -0.1500   -0.4500    0.0500
  band No.  band energies     occupation 
      1      -1.2274      2.00000
      2       0.1369      2.00000
      3       0.8227      2.00000
      4       1.1344      2.00000
      5       2.8985      2.00000
      6       5.0544      0.00185
      7       9.8034      0.00000
      8      18.3220      0.00000
      9      18.8689      0.00000

 k-point  45 :      -0.3500   -0.3500    0.0500
  band No.  band energies     occupation 
      1      -1.4085      2.00000
      2      -1.0836      2.00000
      3       2.3143      2.00000
      4       2.4960      2.00000
      5       2.8326      2.00000
      6       3.5209      2.00000
      7      14.1940      0.00000
      8      15.9928      0.00000
      9      16.2687      0.00000

 k-point  46 :      -0.2500   -0.3500    0.0500
  band No.  band energies     occupation 
      1      -1.2502      2.00000
      2      -0.7732      2.00000
      3       1.1260      2.00000
      4       2.0579      2.00000
      5       2.5559      2.00000
      6       3.2717      2.00000
      7      15.0497      0.00000
      8      16.9876      0.00000
      9      17.7938      0.00000

 k-point  47 :      -0.1500   -0.3500    0.0500
  band No.  band energies     occupation 
      1      -1.3703      2.00000
      2      -0.0747      2.00000
      3       0.4744      2.00000
      4       1.2746      2.00000
      5       2.5238      2.00000
      6       3.2459      2.00000
      7      13.5189      0.00000
      8      18.8041      0.00000
      9      19.9923      0.00000

 k-point  48 :      -0.2500   -0.2500    0.0500
  band No.  band energies     occupation 
      1      -1.6683      2.00000
      2      -0.6212      2.00000
      3       1.1240      2.00000
      4       1.7510      2.00000
      5       1.9879      2.00000
      6       2.4628      2.00000
      7      17.7666      0.00000
      8      18.6731      0.00000
      9      19.7077      0.00000

 k-point  49 :      -0.1500   -0.2500    0.0500
  band No.  band energies     occupation 
      1      -2.1149      2.00000
      2      -0.2798      2.00000
      3       0.8058      2.00000
      4       1.3338      2.00000
      5       1.7221      2.00000
      6       2.4189      2.00000
      7      17.5246      0.00000
      8      19.4659      0.00000
      9      21.7540      0.00000

 k-point  50 :      -0.1500   -0.1500    0.0500
  band No.  band energies     occupation 
      1      -2.9582      2.00000
      2      -0.0619      2.00000
      3       0.9988      2.00000
      4       1.0457      2.00000
      5       1.3730      2.00000
      6       2.1175      2.00000
      7      20.0528      0.00000
      8      21.3957      0.00000
      9      21.4788      0.00000

 k-point  51 :       0.1500    0.1500    0.1500
  band No.  band energies     occupation 
      1      -3.5667      2.00000
      2       0.3283      2.00000
      3       0.6883      2.00000
      4       0.6883      2.00000
      5       1.7962      2.00000
      6       1.7962      2.00000
      7      19.5151      0.00000
      8      21.1368      0.00000
      9      24.2158      0.00000

 k-point  52 :       0.2500    0.1500    0.1500
  band No.  band energies     occupation 
      1      -2.9796      2.00000
      2       0.1490      2.00000
      3       0.8062      2.00000
      4       0.8719      2.00000
      5       1.5278      2.00000
      6       2.1390      2.00000
      7      18.4171      0.00000
      8      20.2330      0.00000
      9      23.1336      0.00000

 k-point  53 :       0.3500    0.1500    0.1500
  band No.  band energies     occupation 
      1      -1.9925      2.00000
      2       0.0184      2.00000
      3       0.7200      2.00000
      4       1.1223      2.00000
      5       1.4543      2.00000
      6       2.8095      2.00000
      7      15.9565      0.00000
      8      18.3808      0.00000
      9      22.8291      0.00000

 k-point  54 :       0.4500    0.1500    0.1500
  band No.  band energies     occupation 
      1      -1.3797      2.00000
      2       0.3495      2.00000
      3       0.7398      2.00000
      4       0.9433      2.00000
      5       2.0474      2.00000
      6       3.8078      2.00000
      7      12.1987      0.00000
      8      17.8040      0.00000
      9      21.3600      0.00000

 k-point  55 :      -0.4500    0.1500    0.1500
  band No.  band energies     occupation 
      1      -1.3578      2.00000
      2       0.2237      2.00000
      3       0.8467      2.00000
      4       1.4893      2.00000
      5       2.6460      2.00000
      6       5.4346      0.00000
      7       8.7201      0.00000
      8      17.8788      0.00000
      9      20.6996      0.00000

 k-point  56 :      -0.3500    0.1500    0.1500
  band No.  band energies     occupation 
      1      -1.3930      2.00000
      2       0.2023      2.00000
      3       0.8898      2.00000
      4       1.3260      2.00000
      5       2.9474      2.00000
      6       5.4297      0.00000
      7       8.5703      0.00000
      8      18.6777      0.00000
      9      20.1850      0.00000

 k-point  57 :      -0.2500    0.1500    0.1500
  band No.  band energies     occupation 
      1      -1.4600      2.00000
      2       0.3150      2.00000
      3       0.5110      2.00000
      4       1.0326      2.00000
      5       2.8162      2.00000
      6       3.3733      2.00000
      7      12.0816      0.00000
      8      19.9615      0.00000
      9      20.0018      0.00000

 k-point  58 :      -0.1500    0.1500    0.1500
  band No.  band energies     occupation 
      1      -2.0161      2.00000
      2      -0.1583      2.00000
      3       0.7197      2.00000
      4       1.1510      2.00000
      5       2.0454      2.00000
      6       2.4179      2.00000
      7      16.0866      0.00000
      8      20.5560      0.00000
      9      21.1775      0.00000

 k-point  59 :       0.2500    0.2500    0.1500
  band No.  band energies     occupation 
      1      -2.6392      2.00000
      2       0.0555      2.00000
      3       0.8221      2.00000
      4       0.9366      2.00000
      5       1.7045      2.00000
      6       2.1775      2.00000
      7      17.2328      0.00000
      8      21.2604      0.00000
      9      21.9941      0.00000

 k-point  60 :       0.3500    0.2500    0.1500
  band No.  band energies     occupation 
      1      -1.8330      2.00000
      2      -0.1697      2.00000
      3       0.6332      2.00000
      4       1.3071      2.00000
      5       1.6926      2.00000
      6       2.7900      2.00000
      7      16.0832      0.00000
      8      18.4117      0.00000
      9      21.8402      0.00000

 k-point  61 :       0.4500    0.2500    0.1500
  band No.  band energies     occupation 
      1      -0.9813      2.00000
      2      -0.1390      2.00000
      3       0.2937      2.00000
      4       1.5141      2.00000
      5       1.9622      2.00000
      6       3.8914      2.00000
      7      13.7365      0.00000
      8      16.2322      0.00000
      9      20.3010      0.00000

 k-point  62 :      -0.4500    0.2500    0.1500
  band No.  band energies     occupation 
      1      -0.8788      2.00000
      2       0.0091      2.00000
      3       0.6071      2.00000
      4       1.3409      2.00000
      5       2.5637      2.00000
      6       5.5319      0.00000
      7      10.2812      0.00000
      8      16.0213      0.00000
      9      18.8827      0.00000

 k-point  63 :      -0.3500    0.2500    0.1500
  band No.  band energies     occupation 
      1      -0.9446      2.00000
      2      -0.0681      2.00000
      3       0.9035      2.00000
      4       1.2778      2.00000
      5       2.8144      2.00000
      6       7.1890      0.00000
      7       8.0294      0.00000
      8      16.5899      0.00000
      9      17.8908      0.00000

 k-point  64 :      -0.2500    0.2500    0.1500
  band No.  band energies     occupation 
      1      -0.9835      2.00000
      2       0.0232      2.00000
      3       0.3785      2.00000
      4       1.4522      2.00000
      5       2.6740      2.00000
      6       4.8104      1.26428
      7      11.2689      0.00000
      8      16.8651      0.00000
      9      18.4466      0.00000

 k-point  65 :      -0.1500    0.2500    0.1500
  band No.  band energies     occupation 
      1      -1.2683      2.00000
      2      -0.3714      2.00000
      3       0.4883      2.00000
      4       1.6226      2.00000
      5       2.0585      2.00000
      6       3.2759      2.00000
      7      14.9526      0.00000
      8      17.3055      0.00000
      9      20.0191      0.00000

 k-point  66 :       0.3500    0.3500    0.1500
  band No.  band energies     occupation 
      1      -1.4674      2.00000
      2      -0.3783      2.00000
      3       0.6695      2.00000
      4       1.4203      2.00000
      5       2.6533      2.00000
      6       2.6634      2.00000
      7      14.9211      0.00000
      8      19.1652      0.00000
      9      19.8907      0.00000

 k-point  67 :       0.4500    0.3500    0.1500
  band No.  band energies     occupation 
      1      -0.9877      2.00000
      2      -0.5650      2.00000
      3       0.6026      2.00000
      4       1.9750      2.00000
      5       2.4362      2.00000
      6       3.9872      2.00000
      7      13.8274      0.00000
      8      16.1894      0.00000
      9      18.0556      0.00000

 k-point  68 :      -0.4500    0.3500    0.1500
  band No.  band energies     occupation 
      1      -0.6785      2.00000
      2      -0.4221      2.00000
      3       0.4136      2.00000
      4       2.0455      2.00000
      5       2.6817      2.00000
      6       5.7871      0.00000
      7      11.9018      0.00000
      8      14.2459      0.00000
      9      16.5435      0.00000

 k-point  69 :      -0.3500    0.3500    0.1500
  band No.  band energies     occupation 
      1      -0.5341      2.00000
      2      -0.2686      2.00000
      3       0.4386      2.00000
      4       1.7221      2.00000
      5       2.8820      2.00000
      6       7.9812      0.00000
      7       9.2861      0.00000
      8      13.8617      0.00000
      9      15.9655      0.00000

 k-point  70 :      -0.2500    0.3500    0.1500
  band No.  band energies     occupation 
      1      -0.3272      2.00000
      2      -0.2420      2.00000
      3       0.1106      2.00000
      4       1.7947      2.00000
      5       2.6591      2.00000
      6       6.5028      0.00000
      7      11.2698      0.00000
      8      13.3405      0.00000
      9      16.9152      0.00000

 k-point  71 :      -0.1500    0.3500    0.1500
  band No.  band energies     occupation 
      1      -0.6793      2.00000
      2      -0.2511      2.00000
      3       0.1722      2.00000
      4       1.8201      2.00000
      5       2.3381      2.00000
      6       4.7006      1.94123
      7      12.7744      0.00000
      8      15.2021      0.00000
      9      18.3937      0.00000

 k-point  72 :       0.4500    0.4500    0.1500
  band No.  band energies     occupation 
      1      -1.2104      2.00000
      2      -0.7995      2.00000
      3       1.4158      2.00000
      4       2.0455      2.00000
      5       2.9946      2.00000
      6       4.6534      1.98947
      7      12.5528      0.00000
      8      15.6832      0.00000
      9      16.9230      0.00000

 k-point  73 :      -0.4500    0.4500    0.1500
  band No.  band energies     occupation 
      1      -1.1182      2.00000
      2      -0.8753      2.00000
      3       1.4263      2.00000
      4       2.4175      2.00000
      5       2.9913      2.00000
      6       6.3333      0.00000
      7      11.4009      0.00000
      8      14.0423      0.00000
      9      15.2526      0.00000

 k-point  74 :      -0.3500    0.4500    0.1500
  band No.  band energies     occupation 
      1      -0.8821      2.00000
      2      -0.5990      2.00000
      3       1.0174      2.00000
      4       2.0583      2.00000
      5       3.1511      2.00000
      6       8.5904      0.00000
      7       9.9884      0.00000
      8      12.6299      0.00000
      9      14.4731      0.00000

 k-point  75 :      -0.2500    0.4500    0.1500
  band No.  band energies     occupation 
      1      -0.5813      2.00000
      2      -0.1804      2.00000
      3       0.3971      2.00000
      4       1.7774      2.00000
      5       2.9628      2.00000
      6       8.2918      0.00000
      7      10.3023      0.00000
      8      12.1634      0.00000
      9      15.5557      0.00000

 k-point  76 :      -0.1500    0.4500    0.1500
  band No.  band energies     occupation 
      1      -0.6426      2.00000
      2      -0.2019      2.00000
      3       0.5108      2.00000
      4       1.5702      2.00000
      5       2.7546      2.00000
      6       6.7552      0.00000
      7       9.5743      0.00000
      8      15.1553      0.00000
      9      17.1122      0.00000

 k-point  77 :      -0.4500   -0.4500    0.1500
  band No.  band energies     occupation 
      1      -1.3548      2.00000
      2      -1.0307      2.00000
      3       2.1569      2.00000
      4       2.5209      2.00000
      5       3.0599      2.00000
      6       7.3301      0.00000
      7       9.9850      0.00000
      8      13.2550      0.00000
      9      15.8392      0.00000

 k-point  78 :      -0.3500   -0.4500    0.1500
[...]
      6       2.0017      2.00000
      7      15.7253      0.00000
      8      21.0485      0.00000
      9      24.2531      0.00000

 k-point  84 :       0.3500    0.2500    0.2500
  band No.  band energies     occupation 
      1      -2.0123      2.00000
      2       0.2998      2.00000
      3       0.7241      2.00000
      4       0.8730      2.00000
      5       1.7990      2.00000
      6       2.7304      2.00000
      7      14.5590      0.00000
      8      19.7334      0.00000
      9      22.1760      0.00000

 k-point  85 :       0.4500    0.2500    0.2500
  band No.  band energies     occupation 
      1      -1.1026      2.00000
      2       0.0445      2.00000
      3       0.4961      2.00000
      4       1.2167      2.00000
      5       1.7148      2.00000
      6       3.8651      2.00000
      7      13.6793      0.00000
      8      16.2070      0.00000
      9      21.8250      0.00000

 k-point  86 :      -0.4500    0.2500    0.2500
  band No.  band energies     occupation 
      1      -0.6715      2.00000
      2       0.1258      2.00000
      3       0.4030      2.00000
      4       1.3613      2.00000
      5       2.1109      2.00000
      6       5.2710      0.00000
      7      11.9081      0.00000
      8      14.1302      0.00000
      9      21.4656      0.00000

 k-point  87 :      -0.3500    0.2500    0.2500
  band No.  band energies     occupation 
      1      -0.8886      2.00000
      2      -0.0260      2.00000
      3       0.8284      2.00000
      4       1.4235      2.00000
      5       2.6872      2.00000
      6       7.2452      0.00000
      7       8.7282      0.00000
      8      14.6441      0.00000
      9      19.3358      0.00000

 k-point  88 :      -0.2500    0.2500    0.2500
  band No.  band energies     occupation 
      1      -1.0729      2.00000
      2      -0.2346      2.00000
      3       0.8490      2.00000
      4       1.5616      2.00000
      5       2.9952      2.00000
      6       5.8308      0.00000
      7      10.1294      0.00000
      8      15.9950      0.00000
      9      18.1121      0.00000

 k-point  89 :       0.3500    0.3500    0.2500
  band No.  band energies     occupation 
      1      -1.8261      2.00000
      2       0.4946      2.00000
      3       0.5839      2.00000
      4       0.8588      2.00000
      5       2.5417      2.00000
      6       2.5881      2.00000
      7      13.2222      0.00000
      8      20.5941      0.00000
      9      21.2901      0.00000

 k-point  90 :       0.4500    0.3500    0.2500
  band No.  band energies     occupation 
      1      -1.2532      2.00000
      2       0.3154      2.00000
      3       0.3258      2.00000
      4       1.1786      2.00000
      5       2.3726      2.00000
      6       3.8713      2.00000
      7      12.2618      0.00000
      8      17.8498      0.00000
      9      20.2013      0.00000

 k-point  91 :      -0.4500    0.3500    0.2500
  band No.  band energies     occupation 
      1      -0.4879      2.00000
      2      -0.0503      2.00000
      3       0.1165      2.00000
      4       1.6218      2.00000
      5       2.3104      2.00000
      6       5.4067      0.00000
      7      11.9268      0.00000
      8      14.1812      0.00000
      9      18.8640      0.00000

 k-point  92 :      -0.3500    0.3500    0.2500
  band No.  band energies     occupation 
      1      -0.5712      2.00000
      2      -0.1057      2.00000
      3       0.4112      2.00000
      4       1.7030      2.00000
      5       2.6688      2.00000
      6       7.1852      0.00000
      7      10.6677      0.00000
      8      12.6109      0.00000
      9      17.3744      0.00000

 k-point  93 :      -0.2500    0.3500    0.2500
  band No.  band energies     occupation 
      1      -0.8633      2.00000
      2      -0.3776      2.00000
      3       0.7849      2.00000
      4       1.9229      2.00000
      5       2.9239      2.00000
      6       7.4255      0.00000
      7       9.8137      0.00000
      8      13.8362      0.00000
      9      16.2336      0.00000

 k-point  94 :       0.4500    0.4500    0.2500
  band No.  band energies     occupation 
      1      -1.1960      2.00000
      2       0.0195      2.00000
      3       0.6232      2.00000
      4       1.2742      2.00000
      5       2.9581      2.00000
      6       4.4918      2.00000
      7      11.0334      0.00000
      8      18.1161      0.00000
      9      18.9323      0.00000

 k-point  95 :      -0.4500    0.4500    0.2500
  band No.  band energies     occupation 
      1      -0.8621      2.00000
      2      -0.2231      2.00000
      3       0.5476      2.00000
      4       1.7284      2.00000
      5       2.8417      2.00000
      6       6.0328      0.00000
      7      10.4263      0.00000
      8      15.5900      0.00000
      9      16.9642      0.00000

 k-point  96 :      -0.3500    0.4500    0.2500
  band No.  band energies     occupation 
      1      -0.5152      2.00000
      2      -0.1743      2.00000
      3       0.2392      2.00000
      4       1.8278      2.00000
      5       2.9645      2.00000
      6       7.7809      0.00000
      7      10.7727      0.00000
      8      12.5710      0.00000
      9      15.2512      0.00000

 k-point  97 :      -0.2500    0.4500    0.2500
  band No.  band energies     occupation 
      1      -0.6249      2.00000
      2      -0.1684      2.00000
      3       0.3783      2.00000
      4       1.7901      2.00000
      5       3.1509      2.00000
      6       8.9581      0.00000
      7      10.4943      0.00000
      8      11.7712      0.00000
      9      14.2986      0.00000

 k-point  98 :      -0.4500   -0.4500    0.2500
  band No.  band energies     occupation 
      1      -1.0544      2.00000
      2      -0.4071      2.00000
      3       1.1088      2.00000
      4       1.8566      2.00000
      5       2.9330      2.00000
      6       7.2926      0.00000
      7       9.4663      0.00000
      8      13.9489      0.00000
      9      17.5601      0.00000

 k-point  99 :      -0.3500   -0.4500    0.2500
  band No.  band energies     occupation 
      1      -0.8976      2.00000
      2      -0.4438      2.00000
      3       0.9674      2.00000
      4       1.9918      2.00000
      5       2.9710      2.00000
      6       8.5988      0.00000
      7       9.6206      0.00000
      8      12.2670      0.00000
      9      15.9302      0.00000

 k-point 100 :      -0.3500   -0.3500    0.2500
  band No.  band energies     occupation 
      1      -1.0697      2.00000
      2      -0.4893      2.00000
      3       1.2817      2.00000
      4       2.0805      2.00000
      5       2.8302      2.00000
      6       8.4486      0.00000
      7       9.3042      0.00000
      8      12.2882      0.00000
      9      17.2836      0.00000

 k-point 101 :       0.3500    0.3500    0.3500
  band No.  band energies     occupation 
      1      -1.9599      2.00000
      2       0.6067      2.00000
      3       0.6067      2.00000
      4       1.5413      2.00000
      5       2.4817      2.00000
      6       2.4817      2.00000
      7      11.7783      0.00000
      8      20.2190      0.00000
      9      23.0761      0.00000

 k-point 102 :       0.4500    0.3500    0.3500
  band No.  band energies     occupation 
      1      -1.6438      2.00000
      2       0.4498      2.00000
      3       0.7065      2.00000
      4       1.4294      2.00000
      5       2.3896      2.00000
      6       3.6886      2.00000
      7      10.7155      0.00000
      8      19.3285      0.00000
      9      20.9505      0.00000

 k-point 103 :      -0.4500    0.3500    0.3500
  band No.  band energies     occupation 
      1      -1.0046      2.00000
      2       0.1336      2.00000
      3       0.9044      2.00000
      4       1.1117      2.00000
      5       2.3714      2.00000
      6       5.3442      0.00000
      7      10.2331      0.00000
      8      15.9910      0.00000
      9      21.1432      0.00000

 k-point 104 :      -0.3500    0.3500    0.3500
  band No.  band energies     occupation 
      1      -0.7728      2.00000
      2       0.0071      2.00000
      3       0.6443      2.00000
      4       1.6605      2.00000
      5       2.5012      2.00000
      6       6.9584      0.00000
      7      10.5845      0.00000
      8      12.5909      0.00000
      9      19.1840      0.00000

 k-point 105 :       0.4500    0.4500    0.3500
  band No.  band energies     occupation 
      1      -1.6431      2.00000
      2       0.3729      2.00000
      3       0.7080      2.00000
      4       1.5869      2.00000
      5       2.9066      2.00000
      6       4.0624      2.00000
      7       9.4993      0.00000
      8      19.8033      0.00000
      9      20.9337      0.00000

 k-point 106 :      -0.4500    0.4500    0.3500
  band No.  band energies     occupation 
      1      -1.2204      2.00000
      2       0.1140      2.00000
      3       0.9776      2.00000
      4       1.2075      2.00000
      5       2.7837      2.00000
      6       5.7430      0.00000
      7       8.7691      0.00000
      8      17.9290      0.00000
      9      18.9518      0.00000

 k-point 107 :      -0.3500    0.4500    0.3500
  band No.  band energies     occupation 
      1      -0.6888      2.00000
      2      -0.1699      2.00000
      3       0.6465      2.00000
      4       1.5254      2.00000
      5       2.7489      2.00000
      6       7.4776      0.00000
      7       8.8515      0.00000
      8      14.6222      0.00000
      9      17.5246      0.00000

 k-point 108 :      -0.4500   -0.4500    0.3500
  band No.  band energies     occupation 
      1      -1.1199      2.00000
      2       0.0474      2.00000
      3       1.0690      2.00000
      4       1.1396      2.00000
      5       2.8647      2.00000
      6       6.9788      0.00000
      7       7.8198      0.00000
      8      16.7232      0.00000
      9      19.6596      0.00000

 k-point 109 :       0.4500    0.4500    0.4500
  band No.  band energies     occupation 
      1      -1.8700      2.00000
      2       0.4826      2.00000
      3       0.4826      2.00000
      4       2.8612      2.00000
      5       2.8612      2.00000
      6       3.6501      2.00000
      7       8.3808      0.00000
      8      19.6266      0.00000
      9      22.0616      0.00000

 k-point 110 :      -0.4500    0.4500    0.4500
  band No.  band energies     occupation 
      1      -1.6353      2.00000
      2       0.3348      2.00000
      3       0.6386      2.00000
      4       2.0679      2.00000
      5       2.8426      2.00000
      6       5.2887      0.00000
      7       7.7421      0.00000
      8      19.3420      0.00000
      9      20.6188      0.00000


--------------------------------------------------------------------------------------------------------


 soft charge-density along one line, spin component                        1
         0         1         2         3         4         5         6         7         8         9
x     6.9590    1.2280   -0.3537   -0.0140    0.0193    0.0008   -0.0001    0.0000
y     6.9590   -0.0001    0.0163    0.0028    0.0000    0.0000    0.0000    0.0217
z     6.9590    0.0000    0.0000    0.0099    0.0000    0.0000    0.0000   -0.0001
 total charge-density along one line
x    11.0000    3.9139    0.3071   -0.0193    0.0184    0.0008    0.0000    0.0000    0.0000    0.0000
x     0.0000    0.0000    0.0000    0.0000    0.0000
y    11.0000    3.9139    0.3071   -0.0193    0.0184    0.0008    0.0000    0.0000    0.0000    0.0000
y     0.0000    0.0000    0.0000    0.0000    0.0000
z    11.0000    3.9139    0.3071   -0.0193    0.0184    0.0008    0.0000    0.0000    0.0000    0.0000
z     0.0000    0.0000    0.0000    0.0000    0.0000

 pseudopotential strength for first ion, spin component: 
                        1
-10.064   0.000   0.000   0.000   0.000  -0.065   0.000   0.000
  0.000 -10.064   0.000   0.000   0.000   0.000  -0.065   0.000
  0.000   0.000 -10.050   0.000   0.000   0.000   0.000  -0.067
  0.000   0.000   0.000 -10.064   0.000   0.000   0.000   0.000
  0.000   0.000   0.000   0.000 -10.050   0.000   0.000   0.000
 -0.065   0.000   0.000   0.000   0.000   0.280   0.000   0.000
  0.000  -0.065   0.000   0.000   0.000   0.000   0.280   0.000
  0.000   0.000  -0.067   0.000   0.000   0.000   0.000   0.280
  0.000   0.000   0.000  -0.065   0.000   0.000   0.000   0.000
  0.000   0.000   0.000   0.000  -0.067   0.000   0.000   0.000
  0.000   0.000   0.000   0.000   0.000   0.000   0.000   0.000
  0.000   0.000   0.000   0.000   0.000   0.000   0.000   0.000
  0.000   0.000   0.000   0.000   0.000   0.000   0.000   0.000
  0.000   0.000   0.000   0.000   0.000   0.000   0.000   0.000
  0.000   0.000   0.000   0.000   0.000   0.000   0.000   0.000
  0.000   0.000   0.000   0.000   0.000   0.000   0.000   0.000
  0.000   0.000   0.000   0.000   0.000   0.000   0.000   0.000
  0.000   0.000   0.000   0.000   0.000   0.000   0.000   0.000
 total augmentation occupancy for first ion, spin component: 
                        1
  1.873   0.001  -0.005  -0.050   0.013   0.253  -0.001  -0.102   0.100  -0.005   0.090  -0.100   0.000   0.000   0.000   0.000
  0.001   1.854  -0.012   0.051   0.006  -0.001  -0.040  -0.047  -0.101   0.085  -0.098   0.097   0.000   0.000   0.000   0.000
 -0.005  -0.012   1.878  -0.006   0.052  -0.102  -0.047   0.121   0.004  -0.111  -0.132   0.088   0.000   0.000   0.000   0.000
 -0.050   0.051  -0.006   1.997   0.004   0.100  -0.101   0.004  -0.376  -0.001   0.000  -0.001   0.000   0.000   0.000   0.000
  0.013   0.006   0.052   0.004   2.030  -0.005   0.085  -0.111  -0.001  -0.310  -0.076   0.015   0.000   0.000   0.000   0.000
  0.253  -0.001  -0.102   0.100  -0.005   0.190   0.000   0.037  -0.001  -0.005   0.134  -0.018   0.000   0.000   0.000   0.000
 -0.001  -0.040  -0.047  -0.101   0.085   0.000   0.155   0.021   0.003  -0.023  -0.127   0.023   0.000   0.000   0.000   0.000
 -0.102  -0.047   0.121   0.004  -0.111   0.037   0.021   0.160   0.000  -0.015  -0.101   0.043   0.000   0.000   0.000   0.000
  0.100  -0.101   0.004  -0.376  -0.001  -0.001   0.003   0.000   0.195   0.000   0.001  -0.001   0.000   0.000   0.000   0.000
 -0.005   0.085  -0.111  -0.001  -0.310  -0.005  -0.023  -0.015   0.000   0.125  -0.004   0.011   0.000   0.000   0.000   0.000
  0.090  -0.098  -0.132   0.000  -0.076   0.134  -0.127  -0.101   0.001  -0.004   1.047  -0.349   0.000   0.000   0.000   0.000
 -0.100   0.097   0.088  -0.001   0.015  -0.018   0.023   0.043  -0.001   0.011  -0.349   0.217   0.000   0.000   0.000   0.000
  0.000   0.000   0.000   0.000   0.000   0.000   0.000   0.000   0.000   0.000   0.000   0.000   0.101   0.045  -0.047  -0.008
  0.000   0.000   0.000   0.000   0.000   0.000   0.000   0.000   0.000   0.000   0.000   0.000   0.045   0.198  -0.001  -0.003
  0.000   0.000   0.000   0.000   0.000   0.000   0.000   0.000   0.000   0.000   0.000   0.000  -0.047  -0.001   0.125   0.003
  0.000   0.000   0.000   0.000   0.000   0.000   0.000   0.000   0.000   0.000   0.000   0.000  -0.008  -0.003   0.003   0.001
  0.000   0.000   0.000   0.000   0.000   0.000   0.000   0.000   0.000   0.000   0.000   0.000  -0.003  -0.014   0.000   0.000
  0.000   0.000   0.000   0.000   0.000   0.000   0.000   0.000   0.000   0.000   0.000   0.000   0.003   0.000  -0.009   0.000


------------------------ aborting loop because EDIFF is reached ----------------------------------------





 total charge     

# of ion     s       p       d       tot
----------------------------------------
  1        0.522   0.315   8.745   9.582



--------------------------------------------------------------------------------------------------------




--------------------------------------------------------------------------------------------------------



  FREE ENERGIE OF THE ION-ELECTRON SYSTEM (eV)
  ---------------------------------------------------
  free  energy   TOTEN  =        -3.204206 eV

  energy  without entropy=       -3.203074  energy(sigma->0) =       -3.203640


  FORCE on cell =-STRESS in cart. coord.  units (eV/reduce length):
  Direction    X        Y        Z        XY       YZ       ZX
  --------------------------------------------------------------------------------------
  Alpha Z    102.65    102.65    102.65
  Ewald     -318.83   -318.83   -318.83      0.00      0.00      0.00
  Hartree     40.57     40.57     40.57      0.00      0.00      0.00
  E(xc)      -49.65    -49.65    -49.65      0.00      0.00      0.00
  Local       79.70     79.70     79.70      0.00      0.00      0.00
  n-local    -50.82    -48.28    -51.91      0.55     -0.69     -0.01
  augment     42.80     42.80     42.80      0.00      0.00      0.00
  Kinetic    153.04    151.92    153.93     -0.51      0.28      0.00
  -------------------------------------------------------------------------------------
  Total       -0.11     -0.11     -0.11      0.00      0.00      0.00
  in kB       -9.95     -9.95     -9.95      0.00      0.00      0.00
  external pressure =       -9.95 kB  Pullay stress =        0.00 kB


 VOLUME and BASIS-vectors are now :
 -----------------------------------------------------------------------------
  energy-cutoff  :      350.00
  volume of cell :       18.21
      direct lattice vectors                 reciprocal lattice vectors
     0.000000000  2.088000000  2.088000000    -0.239463602  0.239463602  0.239463602
     2.088000000  0.000000000  2.088000000     0.239463602 -0.239463602  0.239463602
     2.088000000  2.088000000  0.000000000     0.239463602  0.239463602 -0.239463602

  length of vectors
     2.952877918  2.952877918  2.952877918     0.414763124  0.414763124  0.414763124


 FORCES acting on ions
    electron-ion (+dipol)            ewald-force                    non-local-force                 convergence-correction
 -----------------------------------------------------------------------------------------------
   0.722E-14 -.556E-14 -.737E-14   0.412E-15 -.282E-15 0.181E-14   0.000E+00 0.000E+00 0.000E+00   -.179E-14 -.113E-13 0.275E-14
 -----------------------------------------------------------------------------------------------
   0.722E-14 -.556E-14 -.737E-14   0.412E-15 -.282E-15 0.181E-14   0.000E+00 0.000E+00 0.000E+00   -.179E-14 -.113E-13 0.275E-14


 POSITION                                       TOTAL-FORCE (eV/Angst)
 -----------------------------------------------------------------------------------
      0.00000      0.00000      0.00000         0.000000      0.000000      0.000000
 -----------------------------------------------------------------------------------
    total drift:                                0.000000      0.000000      0.000000


--------------------------------------------------------------------------------------------------------



 mean value of Nose-termostat <S>:     1.000 mean value of <T> :     0.000
 mean temperature <T/S>/<1/S>  :     0.000

     LOOP+:  VPU time   30.02: CPU time   28.07



 total charge     

# of ion     s       p       d       tot
----------------------------------------
  1        0.522   0.315   8.745   9.582

  
  
 General timing and accounting informations for this job:
 ========================================================
  
                  Total CPU time used (sec):       31.953
                            User time (sec):       25.644
                          System time (sec):        6.309
                         Elapsed time (sec):       30.101
  
                   Maximum memory used (kb):           0.
                   Average memory used (kb):           0.
  
                          Minor page faults:       256963
                          Major page faults:           55
                 Voluntary context switches:       880037
