PROCAR lm decomposed
# of k-points:  110         # of bands:   9         # of ions:   1

 k-point    1 :    0.05000000 0.05000000 0.05000000     weight = 0.00200000

band   1 # energy   -4.19421526 # occ.  2.00000000

ion      s     py     pz     px    dxy    dyz    dz2    dxz    dx2    tot
  1  0.575  0.001  0.001  0.001  0.000  0.000  0.000  0.000  0.000  0.578

band   2 # energy    0.46820640 # occ.  2.00000000

ion      s     py     pz     px    dxy    dyz    dz2    dxz    dx2    tot
  1  0.000  0.000  0.000  0.000  0.307  0.307  0.000  0.307  0.000  0.921

band   3 # energy    0.52067729 # occ.  2.00000000

ion      s     py     pz     px    dxy    dyz    dz2    dxz    dx2    tot
  1  0.000  0.000  0.000  0.000  0.455  0.000  0.000  0.467  0.000  0.923

band   4 # energy    0.52067755 # occ.  2.00000000

ion      s     py     pz     px    dxy    dyz    dz2    dxz    dx2    tot
  1  0.000  0.000  0.000  0.000  0.160  0.615  0.000  0.148  0.000  0.923

band   5 # energy    1.83262910 # occ.  2.00000000

ion      s     py     pz     px    dxy    dyz    dz2    dxz    dx2    tot
  1  0.000  0.000  0.000  0.000  0.000  0.000  0.217  0.000  0.741  0.958

band   6 # energy    1.83262926 # occ.  2.00000000

ion      s     py     pz     px    dxy    dyz    dz2    dxz    dx2    tot
  1  0.000  0.000  0.000  0.000  0.000  0.000  0.741  0.000  0.217  0.958

band   7 # energy   20.32646029 # occ.  0.00000000

ion      s     py     pz     px    dxy    dyz    dz2    dxz    dx2    tot
  1  0.000  0.000  0.000  0.000  0.004  0.004  0.000  0.004  0.000  0.014

band   8 # energy   23.02573168 # occ.  0.00000000

ion      s     py     pz     px    dxy    dyz    dz2    dxz    dx2    tot
  1  0.016  0.072  0.071  0.073  0.006  0.006  0.000  0.006  0.000  0.250

band   9 # energy   23.77445734 # occ.  0.00000000

ion      s     py     pz     px    dxy    dyz    dz2    dxz    dx2    tot
  1  0.000  0.128  0.029  0.076  0.001  0.002  0.001  0.004  0.003  0.243


 k-point    2 :    0.15000000 0.05000000 0.05000000     weight = 0.00600000

band   1 # energy   -3.76659260 # occ.  2.00000000

ion      s     py     pz     px    dxy    dyz    dz2    dxz    dx2    tot
  1  0.556  0.009  0.009  0.001  0.000  0.003  0.000  0.000  0.000  0.579

band   2 # energy    0.33789254 # occ.  2.00000000

ion      s     py     pz     px    dxy    dyz    dz2    dxz    dx2    tot
  1  0.000  0.000  0.000  0.003  0.438  0.029  0.000  0.438  0.000  0.910

band   3 # energy    0.64420857 # occ.  2.00000000

ion      s     py     pz     px    dxy    dyz    dz2    dxz    dx2    tot
  1  0.000  0.000  0.000  0.000  0.460  0.000  0.004  0.460  0.001  0.925

band   4 # energy    0.67355214 # occ.  2.00000000

ion      s     py     pz     px    dxy    dyz    dz2    dxz    dx2    tot
  1  0.001  0.001  0.001  0.000  0.015  0.862  0.007  0.015  0.021  0.923

band   5 # energy    1.70614616 # occ.  2.00000000

ion      s     py     pz     px    dxy    dyz    dz2    dxz    dx2    tot
  1  0.000  0.000  0.000  0.000  0.003  0.000  0.709  0.003  0.236  0.950

band   6 # energy    1.87895640 # occ.  2.00000000

ion      s     py     pz     px    dxy    dyz    dz2    dxz    dx2    tot
  1  0.000  0.000  0.000  0.000  0.001  0.027  0.232  0.001  0.696  0.956

band   7 # energy   20.42231696 # occ.  0.00000000

ion      s     py     pz     px    dxy    dyz    dz2    dxz    dx2    tot
  1  0.014  0.025  0.025  0.037  0.049  0.021  0.000  0.049  0.000  0.221

band   8 # energy   21.16096132 # occ.  0.00000000

ion      s     py     pz     px    dxy    dyz    dz2    dxz    dx2    tot
  1  0.041  0.070  0.070  0.005  0.001  0.024  0.001  0.001  0.003  0.217

band   9 # energy   23.30165735 # occ.  0.00000000

ion      s     py     pz     px    dxy    dyz    dz2    dxz    dx2    tot
  1  0.001  0.011  0.012  0.262  0.023  0.012  0.001  0.023  0.004  0.349


 k-point    3 :    0.25000000 0.05000000 0.05000000     weight = 0.00600000

band   1 # energy   -2.83877399 # occ.  2.00000000

ion      s     py     pz     px    dxy    dyz    dz2    dxz    dx2    tot
  1  0.493  0.020  0.020  0.006  0.014  0.027  0.000  0.014  0.001  0.596

band   2 # energy    0.25106533 # occ.  2.00000000

ion      s     py     pz     px    dxy    dyz    dz2    dxz    dx2    tot
  1  0.016  0.007  0.007  0.012  0.388  0.057  0.000  0.388  0.000  0.874

band   3 # energy    0.78148724 # occ.  2.00000000

ion      s     py     pz     px    dxy    dyz    dz2    dxz    dx2    tot
  1  0.002  0.003  0.003  0.000  0.029  0.631  0.056  0.029  0.167  0.919

band   4 # energy    0.79846964 # occ.  2.00000000

ion      s     py     pz     px    dxy    dyz    dz2    dxz    dx2    tot
  1  0.000  0.000  0.000  0.000  0.374  0.000  0.133  0.374  0.044  0.926

band   5 # energy    1.72128073 # occ.  2.00000000

ion      s     py     pz     px    dxy    dyz    dz2    dxz    dx2    tot
  1  0.000  0.000  0.000  0.000  0.091  0.000  0.572  0.091  0.191  0.945

band   6 # energy    2.07532058 # occ.  2.00000000

ion      s     py     pz     px    dxy    dyz    dz2    dxz    dx2    tot
  1  0.003  0.001  0.001  0.000  0.011  0.201  0.181  0.011  0.543  0.954

band   7 # energy   17.08645726 # occ.  0.00000000

ion      s     py     pz     px    dxy    dyz    dz2    dxz    dx2    tot
  1  0.107  0.092  0.092  0.089  0.052  0.059  0.001  0.052  0.002  0.544

band   8 # energy   21.02970597 # occ.  0.00000000

ion      s     py     pz     px    dxy    dyz    dz2    dxz    dx2    tot
  1  0.007  0.004  0.004  0.038  0.057  0.000  0.002  0.057  0.005  0.174

band   9 # energy   23.30692039 # occ.  0.00000000

ion      s     py     pz     px    dxy    dyz    dz2    dxz    dx2    tot
  1  0.003  0.060  0.060  0.234  0.015  0.079  0.002  0.015  0.007  0.476


 k-point    4 :    0.35000000 0.05000000 0.05000000     weight = 0.00600000

band   1 # energy   -2.01304066 # occ.  2.00000000

ion      s     py     pz     px    dxy    dyz    dz2    dxz    dx2    tot
  1  0.326  0.015  0.015  0.004  0.103  0.119  0.000  0.103  0.001  0.688

band   2 # energy    0.62684282 # occ.  2.00000000

ion      s     py     pz     px    dxy    dyz    dz2    dxz    dx2    tot
  1  0.007  0.001  0.001  0.006  0.146  0.264  0.085  0.146  0.256  0.910

band   3 # energy    0.69616666 # occ.  2.00000000

ion      s     py     pz     px    dxy    dyz    dz2    dxz    dx2    tot
  1  0.000  0.000  0.000  0.000  0.235  0.000  0.337  0.235  0.112  0.920

band   4 # energy    0.91023575 # occ.  2.00000000

ion      s     py     pz     px    dxy    dyz    dz2    dxz    dx2    tot
  1  0.094  0.038  0.038  0.034  0.157  0.126  0.031  0.157  0.092  0.766

band   5 # energy    2.15441158 # occ.  2.00000000

ion      s     py     pz     px    dxy    dyz    dz2    dxz    dx2    tot
  1  0.000  0.001  0.001  0.000  0.234  0.000  0.363  0.234  0.121  0.953

band   6 # energy    2.58980602 # occ.  2.00000000

ion      s     py     pz     px    dxy    dyz    dz2    dxz    dx2    tot
  1  0.017  0.006  0.006  0.001  0.020  0.402  0.119  0.020  0.357  0.948

band   7 # energy   13.11472349 # occ.  0.00000000

ion      s     py     pz     px    dxy    dyz    dz2    dxz    dx2    tot
  1  0.193  0.086  0.086  0.094  0.065  0.061  0.001  0.065  0.002  0.652

band   8 # energy   20.42745675 # occ.  0.00000000

ion      s     py     pz     px    dxy    dyz    dz2    dxz    dx2    tot
  1  0.002  0.000  0.000  0.046  0.036  0.000  0.003  0.036  0.008  0.129

band   9 # energy   22.32745155 # occ.  0.00000000

ion      s     py     pz     px    dxy    dyz    dz2    dxz    dx2    tot
  1  0.010  0.093  0.093  0.243  0.025  0.043  0.001  0.025  0.002  0.535


 k-point    5 :    0.45000000 0.05000000 0.05000000     weight = 0.00600000

band   1 # energy   -1.81339715 # occ.  2.00000000

ion      s     py     pz     px    dxy    dyz    dz2    dxz    dx2    tot
  1  0.195  0.004  0.004  0.000  0.186  0.192  0.000  0.186  0.000  0.767

band   2 # energy    0.48762892 # occ.  2.00000000

ion      s     py     pz     px    dxy    dyz    dz2    dxz    dx2    tot
  1  0.000  0.000  0.000  0.000  0.063  0.269  0.129  0.063  0.387  0.912

band   3 # energy    0.54834932 # occ.  2.00000000

ion      s     py     pz     px    dxy    dyz    dz2    dxz    dx2    tot
  1  0.000  0.000  0.000  0.000  0.190  0.000  0.401  0.190  0.134  0.915

band   4 # energy    2.28621172 # occ.  2.00000000

ion      s     py     pz     px    dxy    dyz    dz2    dxz    dx2    tot
  1  0.046  0.042  0.042  0.046  0.148  0.098  0.057  0.148  0.171  0.797

band   5 # energy    2.67517156 # occ.  2.00000000

ion      s     py     pz     px    dxy    dyz    dz2    dxz    dx2    tot
  1  0.000  0.000  0.000  0.000  0.285  0.000  0.297  0.285  0.099  0.968

band   6 # energy    3.51980486 # occ.  2.00000000

ion      s     py     pz     px    dxy    dyz    dz2    dxz    dx2    tot
  1  0.087  0.058  0.058  0.044  0.000  0.338  0.048  0.000  0.143  0.776

band   7 # energy    9.41667594 # occ.  0.00000000

ion      s     py     pz     px    dxy    dyz    dz2    dxz    dx2    tot
  1  0.317  0.051  0.051  0.064  0.092  0.072  0.001  0.092  0.002  0.742

band   8 # energy   19.76786923 # occ.  0.00000000

ion      s     py     pz     px    dxy    dyz    dz2    dxz    dx2    tot
  1  0.000  0.001  0.001  0.027  0.011  0.001  0.003  0.011  0.008  0.064

band   9 # energy   21.48895766 # occ.  0.00000000

ion      s     py     pz     px    dxy    dyz    dz2    dxz    dx2    tot
  1  0.011  0.086  0.089  0.283  0.019  0.005  0.001  0.018  0.004  0.514


 k-point    6 :   -0.45000000 0.05000000 0.05000000     weight = 0.00600000

band   1 # energy   -1.80951381 # occ.  2.00000000

ion      s     py     pz     px    dxy    dyz    dz2    dxz    dx2    tot
  1  0.171  0.000  0.000  0.002  0.198  0.211  0.000  0.198  0.000  0.781

band   2 # energy    0.42914227 # occ.  2.00000000

ion      s     py     pz     px    dxy    dyz    dz2    dxz    dx2    tot
  1  0.000  0.000  0.000  0.000  0.065  0.232  0.137  0.065  0.410  0.910

band   3 # energy    0.51364250 # occ.  2.00000000

ion      s     py     pz     px    dxy    dyz    dz2    dxz    dx2    tot
  1  0.000  0.000  0.000  0.000  0.186  0.000  0.405  0.186  0.135  0.914

band   4 # energy    2.57466411 # occ.  2.00000000

ion      s     py     pz     px    dxy    dyz    dz2    dxz    dx2    tot
  1  0.001  0.022  0.022  0.020  0.075  0.366  0.079  0.075  0.236  0.895

band   5 # energy    2.91995654 # occ.  2.00000000

ion      s     py     pz     px    dxy    dyz    dz2    dxz    dx2    tot
  1  0.000  0.000  0.000  0.000  0.291  0.000  0.296  0.291  0.099  0.977

band   6 # energy    4.55432166 # occ.  1.99992455

ion      s     py     pz     px    dxy    dyz    dz2    dxz    dx2    tot
  1  0.014  0.126  0.126  0.136  0.034  0.025  0.018  0.034  0.053  0.564

band   7 # energy    7.72001897 # occ.  0.00000000

ion      s     py     pz     px    dxy    dyz    dz2    dxz    dx2    tot
  1  0.462  0.008  0.008  0.003  0.118  0.131  0.000  0.118  0.000  0.846

band   8 # energy   19.59159277 # occ.  0.00000000

ion      s     py     pz     px    dxy    dyz    dz2    dxz    dx2    tot
  1  0.000  0.004  0.004  0.014  0.001  0.006  0.003  0.001  0.008  0.040

band   9 # energy   21.56263610 # occ.  0.00000000

ion      s     py     pz     px    dxy    dyz    dz2    dxz    dx2    tot
  1  0.011  0.036  0.139  0.291  0.005  0.006  0.001  0.008  0.011  0.508


 k-point    7 :   -0.35000000 0.05000000 0.05000000     weight = 0.00600000

band   1 # energy   -1.83668176 # occ.  2.00000000

ion      s     py     pz     px    dxy    dyz    dz2    dxz    dx2    tot
  1  0.224  0.002  0.002  0.010  0.166  0.179  0.000  0.166  0.001  0.750

band   2 # energy    0.51436246 # occ.  2.00000000

ion      s     py     pz     px    dxy    dyz    dz2    dxz    dx2    tot
  1  0.000  0.000  0.000  0.000  0.077  0.237  0.130  0.077  0.391  0.913

band   3 # energy    0.61108655 # occ.  2.00000000

ion      s     py     pz     px    dxy    dyz    dz2    dxz    dx2    tot
  1  0.000  0.001  0.001  0.000  0.212  0.000  0.368  0.212  0.123  0.917

band   4 # energy    1.78859657 # occ.  2.00000000

ion      s     py     pz     px    dxy    dyz    dz2    dxz    dx2    tot
  1  0.083  0.049  0.049  0.044  0.001  0.385  0.037  0.001  0.111  0.758

band   5 # energy    2.74429616 # occ.  2.00000000

ion      s     py     pz     px    dxy    dyz    dz2    dxz    dx2    tot
  1  0.000  0.000  0.000  0.000  0.261  0.000  0.336  0.261  0.112  0.971

band   6 # energy    2.95356763 # occ.  2.00000000

ion      s     py     pz     px    dxy    dyz    dz2    dxz    dx2    tot
  1  0.069  0.024  0.024  0.042  0.180  0.073  0.065  0.180  0.195  0.850

band   7 # energy   10.57199511 # occ.  0.00000000

ion      s     py     pz     px    dxy    dyz    dz2    dxz    dx2    tot
  1  0.268  0.075  0.075  0.064  0.070  0.085  0.000  0.070  0.001  0.708

band   8 # energy   19.99964052 # occ.  0.00000000

ion      s     py     pz     px    dxy    dyz    dz2    dxz    dx2    tot
  1  0.000  0.007  0.007  0.007  0.001  0.020  0.003  0.001  0.008  0.053

band   9 # energy   21.90667526 # occ.  0.00000000

ion      s     py     pz     px    dxy    dyz    dz2    dxz    dx2    tot
  1  0.000  0.240  0.236  0.000  0.031  0.000  0.007  0.030  0.002  0.547


 k-point    8 :   -0.25000000 0.05000000 0.05000000     weight = 0.00600000

band   1 # energy   -2.21970121 # occ.  2.00000000

ion      s     py     pz     px    dxy    dyz    dz2    dxz    dx2    tot
  1  0.392  0.009  0.009  0.026  0.072  0.065  0.001  0.072  0.002  0.649

band   2 # energy    0.50222469 # occ.  2.00000000

ion      s     py     pz     px    dxy    dyz    dz2    dxz    dx2    tot
  1  0.059  0.022  0.022  0.019  0.042  0.611  0.002  0.042  0.006  0.824

band   3 # energy    0.71878766 # occ.  2.00000000

ion      s     py     pz     px    dxy    dyz    dz2    dxz    dx2    tot
  1  0.008  0.004  0.004  0.005  0.188  0.074  0.107  0.188  0.322  0.901

band   4 # energy    0.76322722 # occ.  2.00000000

ion      s     py     pz     px    dxy    dyz    dz2    dxz    dx2    tot
  1  0.000  0.001  0.001  0.000  0.285  0.000  0.262  0.285  0.087  0.922

band   5 # energy    2.08428299 # occ.  2.00000000

ion      s     py     pz     px    dxy    dyz    dz2    dxz    dx2    tot
  1  0.012  0.001  0.001  0.008  0.140  0.144  0.123  0.140  0.370  0.939

band   6 # energy    2.30439231 # occ.  2.00000000

ion      s     py     pz     px    dxy    dyz    dz2    dxz    dx2    tot
  1  0.000  0.001  0.001  0.000  0.181  0.000  0.447  0.181  0.149  0.960

band   7 # energy   14.43602634 # occ.  0.00000000

ion      s     py     pz     px    dxy    dyz    dz2    dxz    dx2    tot
  1  0.161  0.096  0.096  0.086  0.060  0.062  0.000  0.060  0.001  0.623

band   8 # energy   20.81056175 # occ.  0.00000000

ion      s     py     pz     px    dxy    dyz    dz2    dxz    dx2    tot
  1  0.001  0.008  0.008  0.001  0.010  0.052  0.002  0.010  0.006  0.097

band   9 # energy   22.73689148 # occ.  0.00000000

ion      s     py     pz     px    dxy    dyz    dz2    dxz    dx2    tot
  1  0.000  0.224  0.225  0.000  0.070  0.000  0.010  0.070  0.003  0.603


 k-point    9 :   -0.15000000 0.05000000 0.05000000     weight = 0.00600000

band   1 # energy   -3.18002015 # occ.  2.00000000

ion      s     py     pz     px    dxy    dyz    dz2    dxz    dx2    tot
  1  0.522  0.008  0.008  0.024  0.009  0.005  0.000  0.009  0.001  0.586

band   2 # energy    0.23297158 # occ.  2.00000000

ion      s     py     pz     px    dxy    dyz    dz2    dxz    dx2    tot
  1  0.006  0.005  0.005  0.003  0.124  0.623  0.000  0.124  0.000  0.891

band   3 # energy    0.77335877 # occ.  2.00000000

ion      s     py     pz     px    dxy    dyz    dz2    dxz    dx2    tot
  1  0.001  0.001  0.001  0.002  0.279  0.242  0.030  0.279  0.089  0.923

band   4 # energy    0.78348881 # occ.  2.00000000

ion      s     py     pz     px    dxy    dyz    dz2    dxz    dx2    tot
  1  0.000  0.001  0.001  0.000  0.409  0.000  0.079  0.409  0.026  0.925

band   5 # energy    1.68209526 # occ.  2.00000000

ion      s     py     pz     px    dxy    dyz    dz2    dxz    dx2    tot
  1  0.002  0.000  0.000  0.001  0.041  0.038  0.205  0.041  0.616  0.944

band   6 # energy    1.96143583 # occ.  2.00000000

ion      s     py     pz     px    dxy    dyz    dz2    dxz    dx2    tot
  1  0.000  0.000  0.000  0.000  0.053  0.000  0.636  0.053  0.212  0.956

band   7 # energy   18.37708573 # occ.  0.00000000

ion      s     py     pz     px    dxy    dyz    dz2    dxz    dx2    tot
  1  0.081  0.087  0.087  0.081  0.053  0.049  0.001  0.053  0.002  0.493

band   8 # energy   21.20500083 # occ.  0.00000000

ion      s     py     pz     px    dxy    dyz    dz2    dxz    dx2    tot
  1  0.008  0.000  0.000  0.006  0.008  0.060  0.001  0.008  0.003  0.095

band   9 # energy   23.30025298 # occ.  0.00000000

ion      s     py     pz     px    dxy    dyz    dz2    dxz    dx2    tot
  1  0.000  0.179  0.182  0.000  0.066  0.000  0.012  0.066  0.004  0.510


 k-point   10 :   -0.05000000 0.05000000 0.05000000     weight = 0.00600000

band   1 # energy   -3.97684830 # occ.  2.00000000

ion      s     py     pz     px    dxy    dyz    dz2    dxz    dx2    tot
  1  0.566  0.001  0.001  0.010  0.000  0.000  0.000  0.000  0.000  0.578

band   2 # energy    0.37506273 # occ.  2.00000000

ion      s     py     pz     px    dxy    dyz    dz2    dxz    dx2    tot
  1  0.000  0.001  0.001  0.000  0.049  0.816  0.000  0.049  0.000  0.915

band   3 # energy    0.60586991 # occ.  2.00000000

ion      s     py     pz     px    dxy    dyz    dz2    dxz    dx2    tot
  1  0.000  0.001  0.001  0.000  0.410  0.101  0.001  0.410  0.002  0.924

band   4 # energy    0.61065141 # occ.  2.00000000

ion      s     py     pz     px    dxy    dyz    dz2    dxz    dx2    tot
  1  0.000  0.001  0.001  0.000  0.459  0.000  0.003  0.459  0.001  0.924

band   5 # energy    1.72604434 # occ.  2.00000000

ion      s     py     pz     px    dxy    dyz    dz2    dxz    dx2    tot
  1  0.000  0.000  0.000  0.000  0.001  0.000  0.237  0.001  0.712  0.952

band   6 # energy    1.88334244 # occ.  2.00000000

ion      s     py     pz     px    dxy    dyz    dz2    dxz    dx2    tot
  1  0.000  0.000  0.000  0.000  0.002  0.000  0.716  0.002  0.239  0.959

band   7 # energy   20.50399379 # occ.  0.00000000

ion      s     py     pz     px    dxy    dyz    dz2    dxz    dx2    tot
  1  0.000  0.003  0.003  0.001  0.006  0.040  0.000  0.006  0.000  0.059

band   8 # energy   22.11526710 # occ.  0.00000000

ion      s     py     pz     px    dxy    dyz    dz2    dxz    dx2    tot
  1  0.036  0.051  0.052  0.096  0.015  0.001  0.002  0.015  0.005  0.272

band   9 # energy   23.44301844 # occ.  0.00000000

ion      s     py     pz     px    dxy    dyz    dz2    dxz    dx2    tot
  1  0.000  0.163  0.110  0.001  0.030  0.000  0.002  0.023  0.002  0.332


 k-point   11 :    0.15000000 0.15000000 0.05000000     weight = 0.00600000

band   1 # energy   -3.55413246 # occ.  2.00000000

ion      s     py     pz     px    dxy    dyz    dz2    dxz    dx2    tot
  1  0.546  0.001  0.026  0.001  0.000  0.001  0.004  0.001  0.000  0.579

band   2 # energy    0.18747134 # occ.  2.00000000

ion      s     py     pz     px    dxy    dyz    dz2    dxz    dx2    tot
  1  0.000  0.001  0.000  0.001  0.873  0.016  0.000  0.016  0.000  0.906

band   3 # energy    0.78474938 # occ.  2.00000000

ion      s     py     pz     px    dxy    dyz    dz2    dxz    dx2    tot
  1  0.000  0.002  0.000  0.002  0.034  0.436  0.015  0.436  0.000  0.924

band   4 # energy    0.78757094 # occ.  2.00000000

ion      s     py     pz     px    dxy    dyz    dz2    dxz    dx2    tot
  1  0.000  0.002  0.000  0.002  0.000  0.455  0.000  0.455  0.011  0.925

band   5 # energy    1.54013709 # occ.  2.00000000

ion      s     py     pz     px    dxy    dyz    dz2    dxz    dx2    tot
  1  0.003  0.000  0.001  0.000  0.001  0.007  0.923  0.007  0.000  0.941

band   6 # energy    1.98083144 # occ.  2.00000000

ion      s     py     pz     px    dxy    dyz    dz2    dxz    dx2    tot
  1  0.000  0.000  0.000  0.000  0.000  0.006  0.000  0.006  0.949  0.960

band   7 # energy   20.69279620 # occ.  0.00000000

ion      s     py     pz     px    dxy    dyz    dz2    dxz    dx2    tot
  1  0.013  0.034  0.019  0.034  0.087  0.022  0.003  0.022  0.000  0.235

band   8 # energy   21.30818546 # occ.  0.00000000

ion      s     py     pz     px    dxy    dyz    dz2    dxz    dx2    tot
  1  0.043  0.031  0.065  0.031  0.018  0.009  0.018  0.009  0.000  0.224

band   9 # energy   22.65931175 # occ.  0.00000000

ion      s     py     pz     px    dxy    dyz    dz2    dxz    dx2    tot
  1  0.000  0.170  0.000  0.167  0.000  0.060  0.000  0.059  0.002  0.459


 k-point   12 :    0.25000000 0.15000000 0.05000000     weight = 0.01200000

band   1 # energy   -2.78324126 # occ.  2.00000000

ion      s     py     pz     px    dxy    dyz    dz2    dxz    dx2    tot
  1  0.499  0.008  0.046  0.001  0.001  0.015  0.015  0.002  0.000  0.587

band   2 # energy   -0.02556228 # occ.  2.00000000

ion      s     py     pz     px    dxy    dyz    dz2    dxz    dx2    tot
  1  0.001  0.001  0.000  0.005  0.810  0.005  0.000  0.070  0.000  0.891

band   3 # energy    0.87342542 # occ.  2.00000000

ion      s     py     pz     px    dxy    dyz    dz2    dxz    dx2    tot
  1  0.000  0.005  0.000  0.000  0.013  0.560  0.277  0.020  0.044  0.919

band   4 # energy    1.03435692 # occ.  2.00000000

ion      s     py     pz     px    dxy    dyz    dz2    dxz    dx2    tot
  1  0.000  0.000  0.000  0.004  0.061  0.055  0.015  0.755  0.038  0.928

band   5 # energy    1.50510627 # occ.  2.00000000

ion      s     py     pz     px    dxy    dyz    dz2    dxz    dx2    tot
  1  0.013  0.001  0.005  0.000  0.011  0.152  0.596  0.063  0.085  0.928

band   6 # energy    2.17994621 # occ.  2.00000000

ion      s     py     pz     px    dxy    dyz    dz2    dxz    dx2    tot
  1  0.003  0.001  0.001  0.000  0.000  0.133  0.025  0.006  0.791  0.959

band   7 # energy   18.61606602 # occ.  0.00000000

ion      s     py     pz     px    dxy    dyz    dz2    dxz    dx2    tot
  1  0.090  0.133  0.078  0.058  0.027  0.067  0.012  0.029  0.002  0.497

band   8 # energy   20.41862662 # occ.  0.00000000

ion      s     py     pz     px    dxy    dyz    dz2    dxz    dx2    tot
  1  0.011  0.032  0.010  0.183  0.106  0.013  0.006  0.091  0.002  0.454

band   9 # energy   22.47382895 # occ.  0.00000000

ion      s     py     pz     px    dxy    dyz    dz2    dxz    dx2    tot
  1  0.000  0.062  0.001  0.118  0.042  0.027  0.014  0.024  0.001  0.288


 k-point   13 :    0.35000000 0.15000000 0.05000000     weight = 0.01200000

band   1 # energy   -1.84013890 # occ.  2.00000000

ion      s     py     pz     px    dxy    dyz    dz2    dxz    dx2    tot
  1  0.367  0.010  0.049  0.002  0.062  0.084  0.030  0.046  0.000  0.650

band   2 # energy    0.07314085 # occ.  2.00000000

ion      s     py     pz     px    dxy    dyz    dz2    dxz    dx2    tot
  1  0.037  0.011  0.013  0.018  0.681  0.001  0.016  0.063  0.000  0.840

band   3 # energy    0.61109431 # occ.  2.00000000

ion      s     py     pz     px    dxy    dyz    dz2    dxz    dx2    tot
  1  0.000  0.004  0.000  0.000  0.045  0.254  0.528  0.038  0.034  0.905

band   4 # energy    1.04235247 # occ.  2.00000000

ion      s     py     pz     px    dxy    dyz    dz2    dxz    dx2    tot
  1  0.002  0.002  0.001  0.002  0.036  0.149  0.037  0.382  0.315  0.925

band   5 # energy    2.09968496 # occ.  2.00000000

ion      s     py     pz     px    dxy    dyz    dz2    dxz    dx2    tot
  1  0.023  0.002  0.013  0.004  0.054  0.024  0.216  0.377  0.213  0.926

band   6 # energy    2.71277336 # occ.  2.00000000

ion      s     py     pz     px    dxy    dyz    dz2    dxz    dx2    tot
  1  0.029  0.006  0.010  0.001  0.005  0.409  0.089  0.004  0.390  0.944

band   7 # energy   14.66410460 # occ.  0.00000000

ion      s     py     pz     px    dxy    dyz    dz2    dxz    dx2    tot
  1  0.162  0.111  0.082  0.100  0.054  0.053  0.006  0.050  0.002  0.621

band   8 # energy   19.84714541 # occ.  0.00000000

ion      s     py     pz     px    dxy    dyz    dz2    dxz    dx2    tot
  1  0.013  0.065  0.009  0.224  0.075  0.021  0.011  0.076  0.013  0.507

band   9 # energy   21.44351444 # occ.  0.00000000

ion      s     py     pz     px    dxy    dyz    dz2    dxz    dx2    tot
  1  0.010  0.046  0.073  0.046  0.009  0.008  0.081  0.009  0.001  0.283


 k-point   14 :    0.45000000 0.15000000 0.05000000     weight = 0.01200000

band   1 # energy   -1.49319762 # occ.  2.00000000

ion      s     py     pz     px    dxy    dyz    dz2    dxz    dx2    tot
  1  0.193  0.002  0.022  0.000  0.229  0.166  0.016  0.130  0.000  0.759

band   2 # energy    0.34725216 # occ.  2.00000000

ion      s     py     pz     px    dxy    dyz    dz2    dxz    dx2    tot
  1  0.000  0.004  0.000  0.001  0.089  0.178  0.554  0.027  0.042  0.894

band   3 # energy    0.84041453 # occ.  2.00000000

ion      s     py     pz     px    dxy    dyz    dz2    dxz    dx2    tot
  1  0.013  0.004  0.005  0.017  0.071  0.144  0.121  0.214  0.297  0.887

band   4 # energy    1.00404540 # occ.  2.00000000

ion      s     py     pz     px    dxy    dyz    dz2    dxz    dx2    tot
  1  0.047  0.028  0.031  0.016  0.430  0.000  0.028  0.075  0.171  0.826

band   5 # energy    2.73864461 # occ.  2.00000000

ion      s     py     pz     px    dxy    dyz    dz2    dxz    dx2    tot
  1  0.003  0.001  0.005  0.003  0.026  0.094  0.043  0.413  0.374  0.962

band   6 # energy    3.87723288 # occ.  2.00000000

ion      s     py     pz     px    dxy    dyz    dz2    dxz    dx2    tot
  1  0.119  0.029  0.059  0.020  0.013  0.341  0.149  0.046  0.056  0.832

band   7 # energy   10.79064537 # occ.  0.00000000

ion      s     py     pz     px    dxy    dyz    dz2    dxz    dx2    tot
  1  0.255  0.082  0.061  0.093  0.086  0.045  0.007  0.058  0.003  0.689

band   8 # energy   19.48583642 # occ.  0.00000000

ion      s     py     pz     px    dxy    dyz    dz2    dxz    dx2    tot
  1  0.011  0.068  0.004  0.218  0.054  0.013  0.019  0.037  0.028  0.454

band   9 # energy   20.10886034 # occ.  0.00000000

ion      s     py     pz     px    dxy    dyz    dz2    dxz    dx2    tot
  1  0.027  0.005  0.165  0.071  0.000  0.003  0.088  0.017  0.002  0.378


 k-point   15 :   -0.45000000 0.15000000 0.05000000     weight = 0.01200000

band   1 # energy   -1.47635944 # occ.  2.00000000

ion      s     py     pz     px    dxy    dyz    dz2    dxz    dx2    tot
  1  0.146  0.000  0.009  0.004  0.259  0.206  0.003  0.161  0.000  0.789

band   2 # energy    0.23413839 # occ.  2.00000000

ion      s     py     pz     px    dxy    dyz    dz2    dxz    dx2    tot
  1  0.000  0.004  0.000  0.001  0.142  0.140  0.528  0.013  0.062  0.890

band   3 # energy    0.77941562 # occ.  2.00000000

ion      s     py     pz     px    dxy    dyz    dz2    dxz    dx2    tot
  1  0.000  0.000  0.001  0.002  0.011  0.082  0.064  0.252  0.503  0.916

band   4 # energy    1.68023544 # occ.  2.00000000

ion      s     py     pz     px    dxy    dyz    dz2    dxz    dx2    tot
  1  0.003  0.034  0.034  0.033  0.337  0.173  0.181  0.015  0.022  0.832

band   5 # energy    2.88053600 # occ.  2.00000000

ion      s     py     pz     px    dxy    dyz    dz2    dxz    dx2    tot
  1  0.000  0.000  0.000  0.000  0.036  0.173  0.033  0.402  0.330  0.974

band   6 # energy    5.81736838 # occ.  0.00000000

ion      s     py     pz     px    dxy    dyz    dz2    dxz    dx2    tot
  1  0.028  0.100  0.132  0.102  0.034  0.101  0.112  0.020  0.013  0.643

band   7 # energy    7.74180960 # occ.  0.00000000

ion      s     py     pz     px    dxy    dyz    dz2    dxz    dx2    tot
  1  0.457  0.012  0.002  0.023  0.137  0.086  0.001  0.101  0.002  0.822

band   8 # energy   19.08032837 # occ.  0.00000000

ion      s     py     pz     px    dxy    dyz    dz2    dxz    dx2    tot
  1  0.023  0.024  0.204  0.017  0.001  0.033  0.089  0.017  0.000  0.407

band   9 # energy   19.70028675 # occ.  0.00000000

ion      s     py     pz     px    dxy    dyz    dz2    dxz    dx2    tot
  1  0.026  0.023  0.049  0.252  0.041  0.000  0.005  0.021  0.046  0.463


 k-point   16 :   -0.35000000 0.15000000 0.05000000     weight = 0.01200000

band   1 # energy   -1.46013688 # occ.  2.00000000

ion      s     py     pz     px    dxy    dyz    dz2    dxz    dx2    tot
  1  0.169  0.004  0.003  0.013  0.225  0.207  0.000  0.151  0.002  0.775

band   2 # energy    0.30377238 # occ.  2.00000000

ion      s     py     pz     px    dxy    dyz    dz2    dxz    dx2    tot
  1  0.000  0.003  0.000  0.000  0.214  0.124  0.465  0.005  0.083  0.895

band   3 # energy    0.80197593 # occ.  2.00000000

ion      s     py     pz     px    dxy    dyz    dz2    dxz    dx2    tot
  1  0.000  0.000  0.002  0.000  0.031  0.040  0.054  0.273  0.515  0.916

band   4 # energy    1.40320332 # occ.  2.00000000

ion      s     py     pz     px    dxy    dyz    dz2    dxz    dx2    tot
  1  0.034  0.038  0.036  0.039  0.091  0.353  0.182  0.011  0.015  0.799

band   5 # energy    2.60999889 # occ.  2.00000000

ion      s     py     pz     px    dxy    dyz    dz2    dxz    dx2    tot
  1  0.001  0.000  0.001  0.004  0.037  0.129  0.058  0.433  0.298  0.961

band   6 # energy    4.55908719 # occ.  1.99990018

ion      s     py     pz     px    dxy    dyz    dz2    dxz    dx2    tot
  1  0.138  0.047  0.031  0.066  0.329  0.002  0.159  0.010  0.011  0.794

band   7 # energy    9.67110382 # occ.  0.00000000

ion      s     py     pz     px    dxy    dyz    dz2    dxz    dx2    tot
  1  0.291  0.060  0.088  0.050  0.039  0.097  0.018  0.076  0.000  0.719

band   8 # energy   18.63068085 # occ.  0.00000000
