<?xml version="1.0" encoding="ISO-8859-1"?>
<modeling>
 <generator>
  <i name="program"" type=""stringvasp</i>
  <i name="version"" type=""string4.6.26 </i>
  <i name="subversion"" type=""string15Dec04 complex  serial</i>
  <i name="platform"" type=""stringLinuxPgi</i>
  <i name="date"" type=""string2009 11 30</i>
  <i name="time"" type=""string11:19:28</i>
 </generator>
 <incar>
  <i type=""string"" nameSYSTEM"" Au, FCC</i>
  <i type=""int"" nameISTART""     0</i>
  <i type=""string"" namePREC""normal ! set fft mesh, cutoffs</i>
  <i type=""string"" nameALGO"" Fast   ! use fast algorithm for electro</i>
  <i type=""int"" nameISPIN""     1</i>
  <i name="EDIFF""      0.00010000</i>
  <i name="ENCUT""    350.00000000</i>
  <i type=""int"" nameNEDOS""   500</i>
  <i name="EMIN""    -10.00000000</i>
  <i name="EMAX""     10.00000000</i>
  <i type=""int"" nameISMEAR""     0</i>
  <i name="SIGMA""      0.10000000</i>
  <i type=""int"" nameNWRITE""     1</i>
  <i type=""logical"" nameLWAVE"" F  </i>
  <i type=""logical"" nameLCHARG"" T  </i>
  <i type=""logical"" nameLVTOT"" F  </i>
  <i type=""logical"" nameLORBIT"" F  </i>
 </incar>
 <kpoints>
  <generation param="Monkhorst-Pack">
   <v type=""int"" namedivisions""      10      10      10</v>
   <v name="usershift""      0.00000000      0.00000000      0.00000000</v>
   <v name="genvec1""      0.10000000      0.00000000      0.00000000</v>
   <v name="genvec2""      0.00000000      0.10000000      0.00000000</v>
   <v name="genvec3""      0.00000000      0.00000000      0.10000000</v>
   <v name="shift""      0.50000000      0.50000000      0.50000000</v>
  </generation>
  <varray name="kpointlist"">
   <v>       0.05000000      0.05000000      0.05000000</v>
   <v>       0.15000000      0.05000000      0.05000000</v>
   <v>       0.25000000      0.05000000      0.05000000</v>
   <v>       0.35000000      0.05000000      0.05000000</v>
   <v>       0.45000000      0.05000000      0.05000000</v>
   <v>      -0.45000000      0.05000000      0.05000000</v>
   <v>      -0.35000000      0.05000000      0.05000000</v>
   <v>      -0.25000000      0.05000000      0.05000000</v>
   <v>      -0.15000000      0.05000000      0.05000000</v>
   <v>      -0.05000000      0.05000000      0.05000000</v>
   <v>       0.15000000      0.15000000      0.05000000</v>
   <v>       0.25000000      0.15000000      0.05000000</v>
   <v>       0.35000000      0.15000000      0.05000000</v>
   <v>       0.45000000      0.15000000      0.05000000</v>
   <v>      -0.45000000      0.15000000      0.05000000</v>
   <v>      -0.35000000      0.15000000      0.05000000</v>
   <v>      -0.25000000      0.15000000      0.05000000</v>
   <v>      -0.15000000      0.15000000      0.05000000</v>
   <v>      -0.05000000      0.15000000      0.05000000</v>
   <v>       0.25000000      0.25000000      0.05000000</v>
   <v>       0.35000000      0.25000000      0.05000000</v>
   <v>       0.45000000      0.25000000      0.05000000</v>
   <v>      -0.45000000      0.25000000      0.05000000</v>
   <v>      -0.35000000      0.25000000      0.05000000</v>
   <v>      -0.25000000      0.25000000      0.05000000</v>
   <v>      -0.15000000      0.25000000      0.05000000</v>
   <v>      -0.05000000      0.25000000      0.05000000</v>
   <v>       0.35000000      0.35000000      0.05000000</v>
   <v>       0.45000000      0.35000000      0.05000000</v>
   <v>      -0.45000000      0.35000000      0.05000000</v>
   <v>      -0.35000000      0.35000000      0.05000000</v>
   <v>      -0.25000000      0.35000000      0.05000000</v>
   <v>      -0.15000000      0.35000000      0.05000000</v>
   <v>      -0.05000000      0.35000000      0.05000000</v>
   <v>       0.45000000      0.45000000      0.05000000</v>
   <v>      -0.45000000      0.45000000      0.05000000</v>
   <v>      -0.35000000      0.45000000      0.05000000</v>
   <v>      -0.25000000      0.45000000      0.05000000</v>
   <v>      -0.15000000      0.45000000      0.05000000</v>
   <v>      -0.05000000      0.45000000      0.05000000</v>
   <v>      -0.45000000     -0.45000000      0.05000000</v>
   <v>      -0.35000000     -0.45000000      0.05000000</v>
   <v>      -0.25000000     -0.45000000      0.05000000</v>
   <v>      -0.15000000     -0.45000000      0.05000000</v>
   <v>      -0.35000000     -0.35000000      0.05000000</v>
   <v>      -0.25000000     -0.35000000      0.05000000</v>
   <v>      -0.15000000     -0.35000000      0.05000000</v>
   <v>      -0.25000000     -0.25000000      0.05000000</v>
   <v>      -0.15000000     -0.25000000      0.05000000</v>
   <v>      -0.15000000     -0.15000000      0.05000000</v>
   <v>       0.15000000      0.15000000      0.15000000</v>
   <v>       0.25000000      0.15000000      0.15000000</v>
   <v>       0.35000000      0.15000000      0.15000000</v>
   <v>       0.45000000      0.15000000      0.15000000</v>
   <v>      -0.45000000      0.15000000      0.15000000</v>
   <v>      -0.35000000      0.15000000      0.15000000</v>
   <v>      -0.25000000      0.15000000      0.15000000</v>
   <v>      -0.15000000      0.15000000      0.15000000</v>
   <v>       0.25000000      0.25000000      0.15000000</v>
   <v>       0.35000000      0.25000000      0.15000000</v>
   <v>       0.45000000      0.25000000      0.15000000</v>
   <v>      -0.45000000      0.25000000      0.15000000</v>
   <v>      -0.35000000      0.25000000      0.15000000</v>
   <v>      -0.25000000      0.25000000      0.15000000</v>
   <v>      -0.15000000      0.25000000      0.15000000</v>
   <v>       0.35000000      0.35000000      0.15000000</v>
   <v>       0.45000000      0.35000000      0.15000000</v>
   <v>      -0.45000000      0.35000000      0.15000000</v>
   <v>      -0.35000000      0.35000000      0.15000000</v>
   <v>      -0.25000000      0.35000000      0.15000000</v>
   <v>      -0.15000000      0.35000000      0.15000000</v>
   <v>       0.45000000      0.45000000      0.15000000</v>
   <v>      -0.45000000      0.45000000      0.15000000</v>
   <v>      -0.35000000      0.45000000      0.15000000</v>
   <v>      -0.25000000      0.45000000      0.15000000</v>
   <v>      -0.15000000      0.45000000      0.15000000</v>
   <v>      -0.45000000     -0.45000000      0.15000000</v>
   <v>      -0.35000000     -0.45000000      0.15000000</v>
   <v>      -0.25000000     -0.45000000      0.15000000</v>
   <v>      -0.35000000     -0.35000000      0.15000000</v>
   <v>      -0.25000000     -0.35000000      0.15000000</v>
   <v>      -0.25000000     -0.25000000      0.15000000</v>
   <v>       0.25000000      0.25000000      0.25000000</v>
   <v>       0.35000000      0.25000000      0.25000000</v>
   <v>       0.45000000      0.25000000      0.25000000</v>
   <v>      -0.45000000      0.25000000      0.25000000</v>
   <v>      -0.35000000      0.25000000      0.25000000</v>
   <v>      -0.25000000      0.25000000      0.25000000</v>
   <v>       0.35000000      0.35000000      0.25000000</v>
   <v>       0.45000000      0.35000000      0.25000000</v>
   <v>      -0.45000000      0.35000000      0.25000000</v>
   <v>      -0.35000000      0.35000000      0.25000000</v>
   <v>      -0.25000000      0.35000000      0.25000000</v>
   <v>       0.45000000      0.45000000      0.25000000</v>
   <v>      -0.45000000      0.45000000      0.25000000</v>
   <v>      -0.35000000      0.45000000      0.25000000</v>
   <v>      -0.25000000      0.45000000      0.25000000</v>
   <v>      -0.45000000     -0.45000000      0.25000000</v>
   <v>      -0.35000000     -0.45000000      0.25000000</v>
   <v>      -0.35000000     -0.35000000      0.25000000</v>
   <v>       0.35000000      0.35000000      0.35000000</v>
   <v>       0.45000000      0.35000000      0.35000000</v>
   <v>      -0.45000000      0.35000000      0.35000000</v>
   <v>      -0.35000000      0.35000000      0.35000000</v>
   <v>       0.45000000      0.45000000      0.35000000</v>
   <v>      -0.45000000      0.45000000      0.35000000</v>
   <v>      -0.35000000      0.45000000      0.35000000</v>
   <v>      -0.45000000     -0.45000000      0.35000000</v>
   <v>       0.45000000      0.45000000      0.45000000</v>
   <v>      -0.45000000      0.45000000      0.45000000</v>
  </varray>
  <varray name="weights"">
   <v>       0.00200000</v>
   <v>       0.00600000</v>
   <v>       0.00600000</v>
   <v>       0.00600000</v>
   <v>       0.00600000</v>
   <v>       0.00600000</v>
   <v>       0.00600000</v>
   <v>       0.00600000</v>
   <v>       0.00600000</v>
   <v>       0.00600000</v>
   <v>       0.00600000</v>
   <v>       0.01200000</v>
   <v>       0.01200000</v>
   <v>       0.01200000</v>
   <v>       0.01200000</v>
   <v>       0.01200000</v>
   <v>       0.01200000</v>
   <v>       0.01200000</v>
   <v>       0.01200000</v>
   <v>       0.00600000</v>
   <v>       0.01200000</v>
   <v>       0.01200000</v>
   <v>       0.01200000</v>
   <v>       0.01200000</v>
   <v>       0.01200000</v>
   <v>       0.01200000</v>
   <v>       0.01200000</v>
   <v>       0.00600000</v>
   <v>       0.01200000</v>
   <v>       0.01200000</v>
   <v>       0.01200000</v>
   <v>       0.01200000</v>
   <v>       0.01200000</v>
   <v>       0.01200000</v>
   <v>       0.00600000</v>
   <v>       0.01200000</v>
   <v>       0.01200000</v>
   <v>       0.01200000</v>
   <v>       0.01200000</v>
   <v>       0.01200000</v>
   <v>       0.00600000</v>
   <v>       0.01200000</v>
   <v>       0.01200000</v>
   <v>       0.01200000</v>
   <v>       0.00600000</v>
   <v>       0.01200000</v>
   <v>       0.01200000</v>
   <v>       0.00600000</v>
   <v>       0.01200000</v>
   <v>       0.00600000</v>
   <v>       0.00200000</v>
   <v>       0.00600000</v>
   <v>       0.00600000</v>
   <v>       0.00600000</v>
   <v>       0.00600000</v>
   <v>       0.00600000</v>
   <v>       0.00600000</v>
   <v>       0.00600000</v>
   <v>       0.00600000</v>
   <v>       0.01200000</v>
   <v>       0.01200000</v>
   <v>       0.01200000</v>
   <v>       0.01200000</v>
   <v>       0.01200000</v>
   <v>       0.01200000</v>
   <v>       0.00600000</v>
   <v>       0.01200000</v>
   <v>       0.01200000</v>
   <v>       0.01200000</v>
   <v>       0.01200000</v>
   <v>       0.01200000</v>
   <v>       0.00600000</v>
   <v>       0.01200000</v>
   <v>       0.01200000</v>
   <v>       0.01200000</v>
   <v>       0.01200000</v>
   <v>       0.00600000</v>
   <v>       0.01200000</v>
   <v>       0.01200000</v>
   <v>       0.00600000</v>
   <v>       0.01200000</v>
   <v>       0.00600000</v>
   <v>       0.00200000</v>
   <v>       0.00600000</v>
   <v>       0.00600000</v>
   <v>       0.00600000</v>
   <v>       0.00600000</v>
   <v>       0.00600000</v>
   <v>       0.00600000</v>
   <v>       0.01200000</v>
   <v>       0.01200000</v>
   <v>       0.01200000</v>
   <v>       0.01200000</v>
   <v>       0.00600000</v>
   <v>       0.01200000</v>
   <v>       0.01200000</v>
   <v>       0.01200000</v>
   <v>       0.00600000</v>
   <v>       0.01200000</v>
   <v>       0.00600000</v>
   <v>       0.00200000</v>
   <v>       0.00600000</v>
   <v>       0.00600000</v>
   <v>       0.00600000</v>
   <v>       0.00600000</v>
   <v>       0.01200000</v>
   <v>       0.01200000</v>
   <v>       0.00600000</v>
   <v>       0.00200000</v>
   <v>       0.00600000</v>
  </varray>
 </kpoints>
 <parameters>
  <separator name="general"">
   <i type=""string"" nameSYSTEM""Au, FCC</i>
   <i type=""logical"" nameLCOMPAT"" F  </i>
  </separator>
  <separator name="electronic"">
   <i type=""string"" namePREC""normal</i>
   <i name="ENMAX""    350.00000000</i>
   <i name="ENAUG""    356.67000000</i>
   <i name="EDIFF""      0.00010000</i>
   <i type=""int"" nameIALGO""    68</i>
   <i type=""int"" nameIWAVPR""     0</i>
   <i type=""int"" nameNBANDS""     9</i>
   <i name="NELECT""     11.00000000</i>
   <separator name="electronic smearing"">
    <i type=""int"" nameISMEAR""     0</i>
    <i name="SIGMA""      0.10000000</i>
   </separator>
   <separator name="electronic projectors"">
    <i type=""logical"" nameLREAL"" F  </i>
    <v name="ROPT""      0.00000000</v>
    <i type=""int"" nameLMAXPAW""  -100</i>
    <i type=""int"" nameLMAXMIX""     2</i>
   </separator>
   <separator name="electronic startup"">
    <i type=""int"" nameISTART""     0</i>
    <i type=""int"" nameICHARG""     2</i>
    <i type=""int"" nameINIWAV""     1</i>
   </separator>
   <separator name="electronic spin"">
    <i type=""int"" nameISPIN""     1</i>
    <i type=""logical"" nameLNONCOLLINEAR"" F  </i>
    <v name="MAGMOM""      1.00000000</v>
    <i name="NUPDOWN""     -1.00000000</i>
    <i type=""logical"" nameLSORBIT"" F  </i>
    <v name="SAXIS""      0.00000000      0.00000000      1.00000000</v>
    <i type=""logical"" nameLSPIRAL"" F  </i>
    <v name="QSPIRAL""      0.00000000      0.00000000      0.00000000</v>
    <i type=""logical"" nameLZEROZ"" F  </i>
   </separator>
   <separator name="electronic exchange-correlation"">
    <i type=""string"" nameGGA""--</i>
    <i type=""int"" nameVOSKOWN""     0</i>
    <i type=""logical"" nameLASPH"" F  </i>
    <i type=""logical"" nameLMETAGGA"" F  </i>
    <i type=""string"" nameGGA2""--</i>
   </separator>
   <separator name="electronic convergence"">
    <i type=""int"" nameNELM""    60</i>
    <i type=""int"" nameNELMDL""    -5</i>
    <i type=""int"" nameNELMIN""     2</i>
    <i name="ENINI""    350.00000000</i>
    <separator name="electronic convergence detail"">
     <i type=""logical"" nameLDIAG"" T  </i>
     <i name="WEIMIN""      0.00000000</i>
     <i name="EBREAK""      0.00000278</i>
     <i name="DEPER""      0.30000000</i>
     <i type=""int"" nameNRMM""     4</i>
     <i name="TIME""      0.10000000</i>
    </separator>
   </separator>
   <separator name="electronic mixer"">
    <i name="AMIX""      0.40000000</i>
    <i name="BMIX""      1.00000000</i>
    <i name="AMIN""      0.10000000</i>
    <i name="AMIX_MAG""      1.60000000</i>
    <i name="BMIX_MAG""      1.00000000</i>
    <separator name="electronic mixer details"">
     <i type=""int"" nameIMIX""     4</i>
     <i type=""int"" nameMAXMIX""   -45</i>
     <i name="WC""    100.00000000</i>
     <i type=""int"" nameINIMIX""     1</i>
     <i type=""int"" nameMIXPRE""     1</i>
     <i type=""int"" nameMREMOVE""     5</i>
    </separator>
   </separator>
   <separator name="electronic dipolcorrection"">
    <i type=""int"" nameIDIPOL""     0</i>
    <i type=""logical"" nameLDIPOL"" F  </i>
    <v name="DIPOL""   -100.00000000</v>
    <i name="EFIELD""      0.00000000</i>
   </separator>
  </separator>
  <separator name="grids"">
   <i type=""int"" nameNGX""    14</i>
   <i type=""int"" nameNGY""    14</i>
   <i type=""int"" nameNGZ""    14</i>
   <i type=""int"" nameNGXF""    28</i>
   <i type=""int"" nameNGYF""    28</i>
   <i type=""int"" nameNGZF""    28</i>
   <i type=""logical"" nameADDGRID"" F  </i>
  </separator>
  <separator name="ionic"">
   <i type=""int"" nameNSW""     0</i>
   <i type=""int"" nameIBRION""    -1</i>
   <i type=""int"" nameISIF""     2</i>
   <i name="PSTRESS""      0.00000000</i>
   <i name="EDIFFG""      0.00100000</i>
   <i type=""int"" nameNFREE""     0</i>
   <i name="POTIM""      0.50000000</i>
   <i name="SMASS""     -3.00000000</i>
  </separator>
  <separator name="ionic md"">
   <i name="TEBEG""      0.00010000</i>
   <i name="TEEND""      0.00010000</i>
   <i type=""int"" nameNBLOCK""     1</i>
   <i type=""int"" nameKBLOCK""     1</i>
   <i type=""int"" nameNPACO""   256</i>
   <i name="APACO""     16.00000000</i>
  </separator>
  <separator name="symmetry"">
   <i type=""int"" nameISYM""     2</i>
   <i name="SYMPREC""      0.00001000</i>
  </separator>
  <separator name="dos"">
   <i type=""logical"" nameLORBIT"" F  </i>
   <v name="RWIGS""     -1.00000000</v>
   <i type=""int"" nameNEDOS""   500</i>
   <i name="EMIN""    -10.00000000</i>
   <i name="EMAX""     10.00000000</i>
  </separator>
  <separator name="writing"">
   <i type=""int"" nameNWRITE""     1</i>
   <i type=""logical"" nameLWAVE"" F  </i>
   <i type=""logical"" nameLCHARG"" T  </i>
   <i type=""logical"" nameLPARD"" F  </i>
   <i type=""logical"" nameLVTOT"" F  </i>
   <i type=""logical"" nameLELF"" F  </i>
   <i type=""logical"" nameLOPTICS"" F  </i>
   <i name="STM""      0.00000000</i>
  </separator>
  <separator name="performance"">
   <i type=""int"" nameNPAR""     1</i>
   <i type=""int"" nameNSIM""     4</i>
   <i type=""int"" nameNBLK""    32</i>
   <i type=""logical"" nameLPLANE"" T  </i>
   <i type=""logical"" nameLCRITICAL_MEM"" F  </i>
   <i type=""logical"" nameLSCALAPACK"" F  </i>
   <i type=""logical"" nameLSCALU"" F  </i>
   <i type=""logical"" nameLASYNC"" F  </i>
  </separator>
  <separator name="miscellaneous"">
   <i type=""int"" nameIDIOT""     3</i>
   <i type=""logical"" nameLMUSIC"" F  </i>
   <v name="POMASS""    196.96600000</v>
   <i type=""logical"" nameLCORR"" T  </i>
  </separator>
  <i type=""logical"" nameLREAL_COMPAT"" F  </i>
  <i type=""logical"" nameGGA_COMPAT"" T  </i>
  <i type=""logical"" nameLBERRY"" F  </i>
  <i type=""int"" nameICORELEVEL""     0</i>
  <i type=""logical"" nameLDAU"" F  </i>
  <i type=""int"" nameI_CONSTRAINED_M""     0</i>
 </parameters>
 <atominfo>
  <atoms>       1</atoms>
  <types>       1</types>
  <array name="atoms"">
   <dimension dim="1">ion</dimension>
   <field type="string">element</field>
   <field type="int">atomtype</field>
   <set>
    <rc><c>Au</c><c>   1</c></rc>
   </set>
  </array>
  <array name="atomtypes"">
   <dimension dim="1">type</dimension>
   <field type="int">atomspertype</field>
   <field type="string">element</field>
   <field>mass</field>
   <field>valence</field>
   <field type="string">pseudopotential</field>
   <set>
    <rc><c>   1</c><c>Au</c><c>    196.96600000</c><c>     11.00000000</c><c> PAW_GGA Au 18Jul2000                   </c></rc>
   </set>
  </array>
 </atominfo>
 <structure name="initialpos"">
  <crystal>
   <varray name="basis"">
    <v>       0.00000000      2.08800000      2.08800000</v>
    <v>       2.08800000      0.00000000      2.08800000</v>
    <v>       2.08800000      2.08800000      0.00000000</v>
   </varray>
   <i name="volume""     18.20629094</i>
   <varray name="rec_basis"">
    <v>      -0.23946360      0.23946360      0.23946360</v>
    <v>       0.23946360     -0.23946360      0.23946360</v>
    <v>       0.23946360      0.23946360     -0.23946360</v>
   </varray>
  </crystal>
  <varray name="positions"">
   <v>       0.00000000      0.00000000      0.00000000</v>
  </varray>
 </structure>
 <calculation>
  <scstep>
   <time name="dav""    3.45    3.12</time>
   <time name="total""    3.54    3.21</time>
   <energy>
    <i name="alphaZ""    102.64998377</i>
    <i name="ewald""   -956.48295063</i>
    <i name="hartreedc""   -132.38928038</i>
    <i name="XCdc""     14.99247527</i>
    <i name="pawpsdc""    747.65313744</i>
    <i name="pawaedc""   -724.56448596</i>
    <i name="eentropy""     -0.00473626</i>
    <i name="bandstr""     63.76695791</i>
    <i name="atom""    927.07761444</i>
    <i name="e_fr_energy""     42.69871560</i>
    <i name="e_wo_entrp""     42.70345186</i>
    <i name="e_0_energy""     42.70108373</i>
   </energy>
  </scstep>
  <scstep>
   <time name="dav""    2.91    2.63</time>
   <time name="total""    2.92    2.65</time>
   <energy>
    <i name="e_fr_energy""     -2.80620246</i>
    <i name="e_wo_entrp""     -2.80495101</i>
    <i name="e_0_energy""     -2.80557673</i>
   </energy>
  </scstep>
  <scstep>
   <time name="dav""    3.38    3.09</time>
   <time name="total""    3.39    3.10</time>
   <energy>
    <i name="e_fr_energy""     -3.45584558</i>
    <i name="e_wo_entrp""     -3.45463965</i>
    <i name="e_0_energy""     -3.45524261</i>
   </energy>
  </scstep>
  <scstep>
   <time name="dav""    3.26    2.96</time>
   <time name="total""    3.27    2.98</time>
   <energy>
    <i name="e_fr_energy""     -3.45759858</i>
    <i name="e_wo_entrp""     -3.45639286</i>
    <i name="e_0_energy""     -3.45699572</i>
   </energy>
  </scstep>
  <scstep>
   <time name="dav""    3.21    2.93</time>
   <time name="total""    3.34    3.06</time>
   <energy>
    <i name="e_fr_energy""     -3.45761082</i>
    <i name="e_wo_entrp""     -3.45640511</i>
    <i name="e_0_energy""     -3.45700797</i>
   </energy>
  </scstep>
  <scstep>
   <time name="diag""    0.51    0.48</time>
   <time name="diis""    2.16    2.09</time>
   <time name="orth""    0.07    0.05</time>
   <time name="total""    2.95    2.83</time>
   <energy>
    <i name="e_fr_energy""     -3.22308998</i>
    <i name="e_wo_entrp""     -3.22187986</i>
    <i name="e_0_energy""     -3.22248492</i>
   </energy>
  </scstep>
  <scstep>
   <time name="diag""    0.50    0.48</time>
   <time name="diis""    2.22    2.16</time>
   <time name="orth""    0.07    0.05</time>
   <time name="total""    2.99    2.90</time>
   <energy>
    <i name="e_fr_energy""     -3.20730262</i>
    <i name="e_wo_entrp""     -3.20616180</i>
    <i name="e_0_energy""     -3.20673221</i>
   </energy>
  </scstep>
  <scstep>
   <time name="diag""    0.51    0.48</time>
   <time name="diis""    2.26    2.19</time>
   <time name="orth""    0.07    0.05</time>
   <time name="total""    3.04    2.93</time>
   <energy>
    <i name="e_fr_energy""     -3.20419259</i>
    <i name="e_wo_entrp""     -3.20305780</i>
    <i name="e_0_energy""     -3.20362519</i>
   </energy>
  </scstep>
  <scstep>
   <time name="diag""    0.50    0.48</time>
   <time name="diis""    1.49    1.45</time>
   <time name="orth""    0.07    0.05</time>
   <time name="total""    2.15    2.07</time>
   <energy>
    <i name="alphaZ""    102.64998377</i>
    <i name="ewald""   -956.48295063</i>
    <i name="hartreedc""   -121.67514868</i>
    <i name="XCdc""     14.49195113</i>
    <i name="pawpsdc""    747.61297959</i>
    <i name="pawaedc""   -726.93550305</i>
    <i name="eentropy""     -0.00113138</i>
    <i name="bandstr""     10.05799925</i>
    <i name="atom""    927.07761444</i>
    <i name="e_fr_energy""     -3.20420556</i>
    <i name="e_wo_entrp""     -3.20307418</i>
    <i name="e_0_energy""     -3.20363987</i>
   </energy>
  </scstep>
  <structure>
   <crystal>
    <varray name="basis"">
     <v>       0.00000000      2.08800000      2.08800000</v>
     <v>       2.08800000      0.00000000      2.08800000</v>
     <v>       2.08800000      2.08800000      0.00000000</v>
    </varray>
    <i name="volume""     18.20629094</i>
    <varray name="rec_basis"">
     <v>      -0.23946360      0.23946360      0.23946360</v>
     <v>       0.23946360     -0.23946360      0.23946360</v>
     <v>       0.23946360      0.23946360     -0.23946360</v>
    </varray>
   </crystal>
   <varray name="positions"">
    <v>       0.00000000      0.00000000      0.00000000</v>
   </varray>
  </structure>
  <varray name="forces"">
   <v>       0.00000000      0.00000000      0.00000000</v>
  </varray>
  <varray name="stress"">
   <v>      -9.95084535      0.00000000      0.00000000</v>
   <v>       0.00000000     -9.95084535      0.00000000</v>
   <v>       0.00000000      0.00000000     -9.95084535</v>
  </varray>
  <energy>
   <i name="e_fr_energy""     -3.20420556</i>
   <i name="e_wo_entrp""     -3.20363987</i>
   <i name="e_0_energy""     -0.00113138</i>
  </energy>
  <eigenvalues>
   <array>
    <dimension dim="1">band</dimension>
    <dimension dim="2">kpoint</dimension>
    <dimension dim="3">spin</dimension>
    <field>eigene</field>
    <field>occ</field>
    <set>
     <set comment="spin 1">
      <set comment="kpoint 1">
       <r>  -4.1942  1.0000</r>
       <r>   0.4682  1.0000</r>
       <r>   0.5207  1.0000</r>
       <r>   0.5207  1.0000</r>
       <r>   1.8326  1.0000</r>
       <r>   1.8326  1.0000</r>
       <r>  20.3265  0.0000</r>
       <r>  23.0257  0.0000</r>
       <r>  23.7745  0.0000</r>
      </set>
      <set comment="kpoint 2">
       <r>  -3.7666  1.0000</r>
       <r>   0.3379  1.0000</r>
       <r>   0.6442  1.0000</r>
       <r>   0.6736  1.0000</r>
       <r>   1.7061  1.0000</r>
       <r>   1.8790  1.0000</r>
       <r>  20.4223  0.0000</r>
       <r>  21.1610  0.0000</r>
       <r>  23.3017  0.0000</r>
      </set>
      <set comment="kpoint 3">
       <r>  -2.8388  1.0000</r>
       <r>   0.2511  1.0000</r>
       <r>   0.7815  1.0000</r>
       <r>   0.7985  1.0000</r>
       <r>   1.7213  1.0000</r>
       <r>   2.0753  1.0000</r>
       <r>  17.0865  0.0000</r>
       <r>  21.0297  0.0000</r>
       <r>  23.3069  0.0000</r>
      </set>
      <set comment="kpoint 4">
       <r>  -2.0130  1.0000</r>
       <r>   0.6268  1.0000</r>
       <r>   0.6962  1.0000</r>
       <r>   0.9102  1.0000</r>
       <r>   2.1544  1.0000</r>
       <r>   2.5898  1.0000</r>
       <r>  13.1147  0.0000</r>
       <r>  20.4275  0.0000</r>
       <r>  22.3275  0.0000</r>
      </set>
      <set comment="kpoint 5">
       <r>  -1.8134  1.0000</r>
       <r>   0.4876  1.0000</r>
       <r>   0.5483  1.0000</r>
       <r>   2.2862  1.0000</r>
       <r>   2.6752  1.0000</r>
       <r>   3.5198  1.0000</r>
       <r>   9.4167  0.0000</r>
       <r>  19.7679  0.0000</r>
       <r>  21.4890  0.0000</r>
      </set>
      <set comment="kpoint 6">
       <r>  -1.8095  1.0000</r>
       <r>   0.4291  1.0000</r>
       <r>   0.5136  1.0000</r>
       <r>   2.5747  1.0000</r>
       <r>   2.9200  1.0000</r>
       <r>   4.5543  1.0000</r>
       <r>   7.7200  0.0000</r>
       <r>  19.5916  0.0000</r>
       <r>  21.5626  0.0000</r>
      </set>
      <set comment="kpoint 7">
       <r>  -1.8367  1.0000</r>
       <r>   0.5144  1.0000</r>
       <r>   0.6111  1.0000</r>
       <r>   1.7886  1.0000</r>
       <r>   2.7443  1.0000</r>
       <r>   2.9536  1.0000</r>
       <r>  10.5720  0.0000</r>
       <r>  19.9996  0.0000</r>
       <r>  21.9067  0.0000</r>
      </set>
      <set comment="kpoint 8">
       <r>  -2.2197  1.0000</r>
       <r>   0.5022  1.0000</r>
       <r>   0.7188  1.0000</r>
       <r>   0.7632  1.0000</r>
       <r>   2.0843  1.0000</r>
       <r>   2.3044  1.0000</r>
       <r>  14.4360  0.0000</r>
       <r>  20.8106  0.0000</r>
       <r>  22.7369  0.0000</r>
      </set>
      <set comment="kpoint 9">
       <r>  -3.1800  1.0000</r>
       <r>   0.2330  1.0000</r>
       <r>   0.7734  1.0000</r>
       <r>   0.7835  1.0000</r>
       <r>   1.6821  1.0000</r>
       <r>   1.9614  1.0000</r>
       <r>  18.3771  0.0000</r>
       <r>  21.2050  0.0000</r>
       <r>  23.3003  0.0000</r>
      </set>
      <set comment="kpoint 10">
       <r>  -3.9768  1.0000</r>
       <r>   0.3751  1.0000</r>
       <r>   0.6059  1.0000</r>
       <r>   0.6107  1.0000</r>
       <r>   1.7260  1.0000</r>
       <r>   1.8833  1.0000</r>
       <r>  20.5040  0.0000</r>
       <r>  22.1153  0.0000</r>
       <r>  23.4430  0.0000</r>
      </set>
      <set comment="kpoint 11">
       <r>  -3.5541  1.0000</r>
       <r>   0.1875  1.0000</r>
       <r>   0.7847  1.0000</r>
       <r>   0.7876  1.0000</r>
       <r>   1.5401  1.0000</r>
       <r>   1.9808  1.0000</r>
       <r>  20.6928  0.0000</r>
       <r>  21.3082  0.0000</r>
       <r>  22.6593  0.0000</r>
      </set>
      <set comment="kpoint 12">
       <r>  -2.7832  1.0000</r>
       <r>  -0.0256  1.0000</r>
       <r>   0.8734  1.0000</r>
       <r>   1.0344  1.0000</r>
       <r>   1.5051  1.0000</r>
       <r>   2.1799  1.0000</r>
       <r>  18.6161  0.0000</r>
       <r>  20.4186  0.0000</r>
       <r>  22.4738  0.0000</r>
      </set>
      <set comment="kpoint 13">
       <r>  -1.8401  1.0000</r>
       <r>   0.0731  1.0000</r>
       <r>   0.6111  1.0000</r>
       <r>   1.0424  1.0000</r>
       <r>   2.0997  1.0000</r>
       <r>   2.7128  1.0000</r>
       <r>  14.6641  0.0000</r>
       <r>  19.8471  0.0000</r>
       <r>  21.4435  0.0000</r>
      </set>
      <set comment="kpoint 14">
       <r>  -1.4932  1.0000</r>
       <r>   0.3473  1.0000</r>
       <r>   0.8404  1.0000</r>
       <r>   1.0040  1.0000</r>
       <r>   2.7386  1.0000</r>
       <r>   3.8772  1.0000</r>
       <r>  10.7906  0.0000</r>
       <r>  19.4858  0.0000</r>
       <r>  20.1089  0.0000</r>
      </set>
      <set comment="kpoint 15">
       <r>  -1.4764  1.0000</r>
       <r>   0.2341  1.0000</r>
       <r>   0.7794  1.0000</r>
       <r>   1.6802  1.0000</r>
       <r>   2.8805  1.0000</r>
       <r>   5.8174  0.0000</r>
       <r>   7.7418  0.0000</r>
       <r>  19.0803  0.0000</r>
       <r>  19.7003  0.0000</r>
      </set>
      <set comment="kpoint 16">
       <r>  -1.4601  1.0000</r>
       <r>   0.3038  1.0000</r>
       <r>   0.8020  1.0000</r>
       <r>   1.4032  1.0000</r>
       <r>   2.6100  1.0000</r>
       <r>   4.5591  1.0000</r>
       <r>   9.6711  0.0000</r>
       <r>  18.6307  0.0000</r>
       <r>  20.3509  0.0000</r>
      </set>
      <set comment="kpoint 17">
       <r>  -1.6193  1.0000</r>
       <r>   0.3258  1.0000</r>
       <r>   0.5868  1.0000</r>
       <r>   0.9690  1.0000</r>
       <r>   2.0102  1.0000</r>
       <r>   3.2147  1.0000</r>
       <r>  13.3633  0.0000</r>
       <r>  18.8108  0.0000</r>
       <r>  21.4664  0.0000</r>
      </set>
      <set comment="kpoint 18">
       <r>  -2.4495  1.0000</r>
       <r>   0.0173  1.0000</r>
       <r>   0.7838  1.0000</r>
       <r>   1.0538  1.0000</r>
       <r>   1.4968  1.0000</r>
       <r>   2.4206  1.0000</r>
       <r>  17.2292  0.0000</r>
       <r>  19.4163  0.0000</r>
       <r>  23.0902  0.0000</r>
      </set>
      <set comment="kpoint 19">
       <r>  -3.3583  1.0000</r>
       <r>   0.1940  1.0000</r>
       <r>   0.7878  1.0000</r>
       <r>   0.7953  1.0000</r>
       <r>   1.5756  1.0000</r>
       <r>   1.9923  1.0000</r>
       <r>  19.6547  0.0000</r>
       <r>  20.8289  0.0000</r>
       <r>  22.8758  0.0000</r>
      </set>
      <set comment="kpoint 20">
       <r>  -2.2678  1.0000</r>
       <r>  -0.3414  1.0000</r>
       <r>   1.0181  1.0000</r>
       <r>   1.3733  1.0000</r>
       <r>   1.5510  1.0000</r>
       <r>   2.2824  1.0000</r>
       <r>  19.0156  0.0000</r>
       <r>  20.0875  0.0000</r>
       <r>  21.4178  0.0000</r>
      </set>
      <set comment="kpoint 21">
       <r>  -1.5238  1.0000</r>
       <r>  -0.5372  1.0000</r>
       <r>   0.8033  1.0000</r>
       <r>   1.6818  1.0000</r>
       <r>   2.1423  1.0000</r>
       <r>   2.7299  1.0000</r>
       <r>  16.3459  0.0000</r>
       <r>  18.2485  0.0000</r>
       <r>  19.8537  0.0000</r>
      </set>
      <set comment="kpoint 22">
       <r>  -1.1123  1.0000</r>
       <r>  -0.2876  1.0000</r>
       <r>   0.5960  1.0000</r>
       <r>   1.5643  1.0000</r>
       <r>   2.8118  1.0000</r>
       <r>   4.1261  1.0000</r>
       <r>  12.4297  0.0000</r>
       <r>  17.5573  0.0000</r>
       <r>  18.1903  0.0000</r>
      </set>
      <set comment="kpoint 23">
       <r>  -1.0138  1.0000</r>
       <r>  -0.0560  1.0000</r>
       <r>   0.7894  1.0000</r>
       <r>   1.3896  1.0000</r>
       <r>   2.9124  1.0000</r>
       <r>   6.4737  0.0000</r>
       <r>   8.9854  0.0000</r>
       <r>  16.2838  0.0000</r>
       <r>  18.2746  0.0000</r>
      </set>
      <set comment="kpoint 24">
       <r>  -0.8595  1.0000</r>
       <r>  -0.0032  1.0000</r>
       <r>   0.8182  1.0000</r>
       <r>   1.2960  1.0000</r>
       <r>   2.5687  1.0000</r>
       <r>   6.3258  0.0000</r>
       <r>   9.4421  0.0000</r>
       <r>  15.2531  0.0000</r>
       <r>  19.4234  0.0000</r>
      </set>
      <set comment="kpoint 25">
       <r>  -0.7721  1.0000</r>
       <r>   0.0601  1.0000</r>
       <r>   0.3066  1.0000</r>
       <r>   1.3695  1.0000</r>
       <r>   1.9710  1.0000</r>
       <r>   4.5447  1.0000</r>
       <r>  12.7270  0.0000</r>
       <r>  15.1481  0.0000</r>
       <r>  20.7633  0.0000</r>
      </set>
      <set comment="kpoint 26">
       <r>  -1.4725  1.0000</r>
       <r>  -0.0437  1.0000</r>
       <r>   0.5531  1.0000</r>
       <r>   1.2575  1.0000</r>
       <r>   1.6232  1.0000</r>
       <r>   3.2906  1.0000</r>
       <r>  14.7960  0.0000</r>
       <r>  17.3084  0.0000</r>
       <r>  21.8849  0.0000</r>
      </set>
      <set comment="kpoint 27">
       <r>  -2.3698  1.0000</r>
       <r>   0.1895  1.0000</r>
       <r>   0.7587  1.0000</r>
       <r>   0.8838  1.0000</r>
       <r>   1.7849  1.0000</r>
       <r>   2.3548  1.0000</r>
       <r>  15.8506  0.0000</r>
       <r>  20.5933  0.0000</r>
       <r>  22.4582  0.0000</r>
      </set>
      <set comment="kpoint 28">
       <r>  -1.3964  1.0000</r>
       <r>  -0.8755  1.0000</r>
       <r>   1.6434  1.0000</r>
       <r>   2.1447  1.0000</r>
       <r>   2.5853  1.0000</r>
       <r>   2.6467  1.0000</r>
       <r>  16.2500  0.0000</r>
       <r>  17.3670  0.0000</r>
       <r>  17.4543  0.0000</r>
      </set>
      <set comment="kpoint 29">
       <r>  -1.2676  1.0000</r>
       <r>  -0.9702  1.0000</r>
       <r>   1.6609  1.0000</r>
       <r>   2.4098  1.0000</r>
       <r>   2.8249  1.0000</r>
       <r>   4.2245  1.0000</r>
       <r>  13.5415  0.0000</r>
       <r>  15.6647  0.0000</r>
       <r>  16.3089  0.0000</r>
      </set>
      <set comment="kpoint 30">
       <r>  -1.1251  1.0000</r>
       <r>  -0.6794  1.0000</r>
       <r>   1.3376  1.0000</r>
       <r>   2.1400  1.0000</r>
       <r>   2.9986  1.0000</r>
       <r>   6.7052  0.0000</r>
       <r>  10.5321  0.0000</r>
       <r>  13.8770  0.0000</r>
       <r>  16.4513  0.0000</r>
      </set>
      <set comment="kpoint 31">
       <r>  -0.8681  1.0000</r>
       <r>  -0.2134  1.0000</r>
       <r>   0.8467  1.0000</r>
       <r>   1.8500  1.0000</r>
       <r>   2.7203  1.0000</r>
       <r>   7.8751  0.0000</r>
       <r>   9.9441  0.0000</r>
       <r>  12.2622  0.0000</r>
       <r>  17.6741  0.0000</r>
      </set>
      <set comment="kpoint 32">
       <r>  -0.6141  1.0000</r>
       <r>   0.0517  1.0000</r>
       <r>   0.4092  1.0000</r>
       <r>   1.5367  1.0000</r>
       <r>   2.3618  1.0000</r>
       <r>   6.1393  0.0000</r>
       <r>  11.2342  0.0000</r>
       <r>  13.2609  0.0000</r>
       <r>  19.3824  0.0000</r>
      </set>
      <set comment="kpoint 33">
       <r>  -1.1314  1.0000</r>
       <r>   0.2191  1.0000</r>
       <r>   0.7138  1.0000</r>
       <r>   1.1038  1.0000</r>
       <r>   2.2885  1.0000</r>
       <r>   4.5510  1.0000</r>
       <r>  11.1694  0.0000</r>
       <r>  16.8696  0.0000</r>
       <r>  20.5887  0.0000</r>
      </set>
      <set comment="kpoint 34">
       <r>  -1.7648  1.0000</r>
       <r>   0.5190  1.0000</r>
       <r>   0.7372  1.0000</r>
       <r>   1.0528  1.0000</r>
       <r>   2.4110  1.0000</r>
       <r>   3.0680  1.0000</r>
       <r>  11.8993  0.0000</r>
       <r>  20.0213  0.0000</r>
       <r>  21.2852  0.0000</r>
      </set>
      <set comment="kpoint 35">
       <r>  -1.5050  1.0000</r>
       <r>  -1.2306  1.0000</r>
       <r>   2.7262  1.0000</r>
       <r>   2.7767  1.0000</r>
       <r>   3.0265  1.0000</r>
       <r>   4.8421  0.4559</r>
       <r>  12.0557  0.0000</r>
       <r>  15.1134  0.0000</r>
       <r>  15.4669  0.0000</r>
      </set>
      <set comment="kpoint 36">
       <r>  -1.4395  1.0000</r>
       <r>  -1.1843  1.0000</r>
       <r>   2.4502  1.0000</r>
       <r>   2.6897  1.0000</r>
       <r>   3.1554  1.0000</r>
       <r>   6.7785  0.0000</r>
       <r>  10.2406  0.0000</r>
       <r>  14.0827  0.0000</r>
       <r>  15.0548  0.0000</r>
      </set>
      <set comment="kpoint 37">
       <r>  -1.1733  1.0000</r>
       <r>  -0.7620  1.0000</r>
       <r>   1.5924  1.0000</r>
       <r>   2.2840  1.0000</r>
       <r>   2.9980  1.0000</r>
       <r>   8.1349  0.0000</r>
       <r>   9.6075  0.0000</r>
       <r>  12.6534  0.0000</r>
       <r>  16.1280  0.0000</r>
      </set>
      <set comment="kpoint 38">
       <r>  -0.8979  1.0000</r>
       <r>  -0.1737  1.0000</r>
       <r>   0.8097  1.0000</r>
       <r>   1.6563  1.0000</r>
       <r>   2.8259  1.0000</r>
       <r>   7.8549  0.0000</r>
       <r>   8.6060  0.0000</r>
       <r>  14.2000  0.0000</r>
       <r>  17.8737  0.0000</r>
      </set>
      <set comment="kpoint 39">
       <r>  -1.1854  1.0000</r>
       <r>   0.0890  1.0000</r>
       <r>   1.0150  1.0000</r>
       <r>   1.2584  1.0000</r>
       <r>   2.7728  1.0000</r>
       <r>   6.5485  0.0000</r>
       <r>   7.9375  0.0000</r>
       <r>  17.2621  0.0000</r>
       <r>  19.5142  0.0000</r>
      </set>
      <set comment="kpoint 40">
       <r>  -1.6913  1.0000</r>
       <r>   0.3791  1.0000</r>
       <r>   0.6172  1.0000</r>
       <r>   2.0633  1.0000</r>
       <r>   2.8437  1.0000</r>
       <r>   4.5613  0.9999</r>
       <r>   8.4515  0.0000</r>
       <r>  19.6247  0.0000</r>
       <r>  20.6977  0.0000</r>
      </set>
      <set comment="kpoint 41">
       <r>  -1.5732  1.0000</r>
       <r>  -1.3064  1.0000</r>
       <r>   2.8240  1.0000</r>
       <r>   3.0099  1.0000</r>
       <r>   3.1663  1.0000</r>
       <r>   6.0994  0.0000</r>
       <r>  10.4053  0.0000</r>
       <r>  14.6641  0.0000</r>
       <r>  15.0407  0.0000</r>
      </set>
      <set comment="kpoint 42">
       <r>  -1.3688  1.0000</r>
       <r>  -1.1113  1.0000</r>
       <r>   2.1398  1.0000</r>
       <r>   2.6412  1.0000</r>
       <r>   3.0211  1.0000</r>
       <r>   5.5049  0.0000</r>
       <r>  11.7945  0.0000</r>
       <r>  14.6062  0.0000</r>
       <r>  15.4712  0.0000</r>
      </set>
      <set comment="kpoint 43">
       <r>  -1.0734  1.0000</r>
       <r>  -0.5136  1.0000</r>
       <r>   0.9522  1.0000</r>
       <r>   1.8746  1.0000</r>
       <r>   2.9545  1.0000</r>
       <r>   5.3130  0.0000</r>
       <r>  11.4309  0.0000</r>
       <r>  15.7101  0.0000</r>
       <r>  17.0945  0.0000</r>
      </set>
      <set comment="kpoint 44">
       <r>  -1.2274  1.0000</r>
       <r>   0.1369  1.0000</r>
       <r>   0.8227  1.0000</r>
       <r>   1.1344  1.0000</r>
       <r>   2.8985  1.0000</r>
       <r>   5.0544  0.0009</r>
       <r>   9.8034  0.0000</r>
       <r>  18.3220  0.0000</r>
       <r>  18.8689  0.0000</r>
      </set>
      <set comment="kpoint 45">
       <r>  -1.4085  1.0000</r>
       <r>  -1.0836  1.0000</r>
       <r>   2.3143  1.0000</r>
       <r>   2.4960  1.0000</r>
       <r>   2.8326  1.0000</r>
       <r>   3.5209  1.0000</r>
       <r>  14.1940  0.0000</r>
       <r>  15.9928  0.0000</r>
       <r>  16.2687  0.0000</r>
      </set>
      <set comment="kpoint 46">
       <r>  -1.2502  1.0000</r>
       <r>  -0.7732  1.0000</r>
       <r>   1.1260  1.0000</r>
       <r>   2.0579  1.0000</r>
       <r>   2.5559  1.0000</r>
       <r>   3.2717  1.0000</r>
       <r>  15.0497  0.0000</r>
       <r>  16.9876  0.0000</r>
       <r>  17.7938  0.0000</r>
      </set>
      <set comment="kpoint 47">
       <r>  -1.3703  1.0000</r>
       <r>  -0.0747  1.0000</r>
       <r>   0.4744  1.0000</r>
       <r>   1.2746  1.0000</r>
       <r>   2.5238  1.0000</r>
       <r>   3.2459  1.0000</r>
       <r>  13.5189  0.0000</r>
       <r>  18.8041  0.0000</r>
       <r>  19.9923  0.0000</r>
      </set>
      <set comment="kpoint 48">
       <r>  -1.6683  1.0000</r>
       <r>  -0.6212  1.0000</r>
       <r>   1.1240  1.0000</r>
       <r>   1.7510  1.0000</r>
       <r>   1.9879  1.0000</r>
       <r>   2.4628  1.0000</r>
       <r>  17.7666  0.0000</r>
       <r>  18.6731  0.0000</r>
       <r>  19.7077  0.0000</r>
      </set>
      <set comment="kpoint 49">
       <r>  -2.1149  1.0000</r>
       <r>  -0.2798  1.0000</r>
       <r>   0.8058  1.0000</r>
       <r>   1.3338  1.0000</r>
       <r>   1.7221  1.0000</r>
       <r>   2.4189  1.0000</r>
       <r>  17.5246  0.0000</r>
       <r>  19.4659  0.0000</r>
       <r>  21.7540  0.0000</r>
      </set>
      <set comment="kpoint 50">
       <r>  -2.9582  1.0000</r>
       <r>  -0.0619  1.0000</r>
       <r>   0.9988  1.0000</r>
       <r>   1.0457  1.0000</r>
       <r>   1.3730  1.0000</r>
       <r>   2.1175  1.0000</r>
       <r>  20.0528  0.0000</r>
       <r>  21.3957  0.0000</r>
       <r>  21.4788  0.0000</r>
      </set>
      <set comment="kpoint 51">
       <r>  -3.5667  1.0000</r>
       <r>   0.3283  1.0000</r>
       <r>   0.6883  1.0000</r>
       <r>   0.6883  1.0000</r>
       <r>   1.7962  1.0000</r>
       <r>   1.7962  1.0000</r>
       <r>  19.5151  0.0000</r>
       <r>  21.1368  0.0000</r>
       <r>  24.2158  0.0000</r>
      </set>
      <set comment="kpoint 52">
       <r>  -2.9796  1.0000</r>
       <r>   0.1490  1.0000</r>
       <r>   0.8062  1.0000</r>
       <r>   0.8719  1.0000</r>
       <r>   1.5278  1.0000</r>
       <r>   2.1390  1.0000</r>
       <r>  18.4171  0.0000</r>
       <r>  20.2330  0.0000</r>
       <r>  23.1336  0.0000</r>
      </set>
      <set comment="kpoint 53">
       <r>  -1.9925  1.0000</r>
       <r>   0.0184  1.0000</r>
       <r>   0.7200  1.0000</r>
       <r>   1.1223  1.0000</r>
       <r>   1.4543  1.0000</r>
       <r>   2.8095  1.0000</r>
       <r>  15.9565  0.0000</r>
       <r>  18.3808  0.0000</r>
       <r>  22.8291  0.0000</r>
      </set>
      <set comment="kpoint 54">
       <r>  -1.3797  1.0000</r>
       <r>   0.3495  1.0000</r>
       <r>   0.7398  1.0000</r>
       <r>   0.9433  1.0000</r>
       <r>   2.0474  1.0000</r>
       <r>   3.8078  1.0000</r>
       <r>  12.1987  0.0000</r>
       <r>  17.8040  0.0000</r>
       <r>  21.3600  0.0000</r>
      </set>
      <set comment="kpoint 55">
       <r>  -1.3578  1.0000</r>
       <r>   0.2237  1.0000</r>
       <r>   0.8467  1.0000</r>
       <r>   1.4893  1.0000</r>
       <r>   2.6460  1.0000</r>
       <r>   5.4346  0.0000</r>
       <r>   8.7201  0.0000</r>
       <r>  17.8788  0.0000</r>
       <r>  20.6996  0.0000</r>
      </set>
      <set comment="kpoint 56">
       <r>  -1.3930  1.0000</r>
       <r>   0.2023  1.0000</r>
       <r>   0.8898  1.0000</r>
       <r>   1.3260  1.0000</r>
       <r>   2.9474  1.0000</r>
       <r>   5.4297  0.0000</r>
       <r>   8.5703  0.0000</r>
       <r>  18.6777  0.0000</r>
       <r>  20.1850  0.0000</r>
      </set>
      <set comment="kpoint 57">
       <r>  -1.4600  1.0000</r>
       <r>   0.3150  1.0000</r>
       <r>   0.5110  1.0000</r>
       <r>   1.0326  1.0000</r>
       <r>   2.8162  1.0000</r>
       <r>   3.3733  1.0000</r>
       <r>  12.0816  0.0000</r>
       <r>  19.9615  0.0000</r>
       <r>  20.0018  0.0000</r>
      </set>
      <set comment="kpoint 58">
       <r>  -2.0161  1.0000</r>
       <r>  -0.1583  1.0000</r>
       <r>   0.7197  1.0000</r>
       <r>   1.1510  1.0000</r>
       <r>   2.0454  1.0000</r>
       <r>   2.4179  1.0000</r>
       <r>  16.0866  0.0000</r>
       <r>  20.5560  0.0000</r>
       <r>  21.1775  0.0000</r>
      </set>
      <set comment="kpoint 59">
       <r>  -2.6392  1.0000</r>
       <r>   0.0555  1.0000</r>
       <r>   0.8221  1.0000</r>
       <r>   0.9366  1.0000</r>
       <r>   1.7045  1.0000</r>
       <r>   2.1775  1.0000</r>
       <r>  17.2328  0.0000</r>
       <r>  21.2604  0.0000</r>
       <r>  21.9941  0.0000</r>
      </set>
      <set comment="kpoint 60">
       <r>  -1.8330  1.0000</r>
       <r>  -0.1697  1.0000</r>
       <r>   0.6332  1.0000</r>
       <r>   1.3071  1.0000</r>
       <r>   1.6926  1.0000</r>
       <r>   2.7900  1.0000</r>
       <r>  16.0832  0.0000</r>
       <r>  18.4117  0.0000</r>
       <r>  21.8402  0.0000</r>
      </set>
      <set comment="kpoint 61">
       <r>  -0.9813  1.0000</r>
       <r>  -0.1390  1.0000</r>
       <r>   0.2937  1.0000</r>
       <r>   1.5141  1.0000</r>
       <r>   1.9622  1.0000</r>
       <r>   3.8914  1.0000</r>
       <r>  13.7365  0.0000</r>
       <r>  16.2322  0.0000</r>
       <r>  20.3010  0.0000</r>
      </set>
      <set comment="kpoint 62">
       <r>  -0.8788  1.0000</r>
       <r>   0.0091  1.0000</r>
       <r>   0.6071  1.0000</r>
       <r>   1.3409  1.0000</r>
       <r>   2.5637  1.0000</r>
       <r>   5.5319  0.0000</r>
       <r>  10.2812  0.0000</r>
       <r>  16.0213  0.0000</r>
       <r>  18.8827  0.0000</r>
      </set>
      <set comment="kpoint 63">
       <r>  -0.9446  1.0000</r>
       <r>  -0.0681  1.0000</r>
       <r>   0.9035  1.0000</r>
       <r>   1.2778  1.0000</r>
       <r>   2.8144  1.0000</r>
       <r>   7.1890  0.0000</r>
       <r>   8.0294  0.0000</r>
       <r>  16.5899  0.0000</r>
       <r>  17.8908  0.0000</r>
      </set>
      <set comment="kpoint 64">
       <r>  -0.9835  1.0000</r>
       <r>   0.0232  1.0000</r>
       <r>   0.3785  1.0000</r>
       <r>   1.4522  1.0000</r>
       <r>   2.6740  1.0000</r>
       <r>   4.8104  0.6321</r>
       <r>  11.2689  0.0000</r>
       <r>  16.8651  0.0000</r>
       <r>  18.4466  0.0000</r>
      </set>
      <set comment="kpoint 65">
       <r>  -1.2683  1.0000</r>
       <r>  -0.3714  1.0000</r>
       <r>   0.4883  1.0000</r>
       <r>   1.6226  1.0000</r>
       <r>   2.0585  1.0000</r>
       <r>   3.2759  1.0000</r>
       <r>  14.9526  0.0000</r>
       <r>  17.3055  0.0000</r>
       <r>  20.0191  0.0000</r>
      </set>
      <set comment="kpoint 66">
       <r>  -1.4674  1.0000</r>
       <r>  -0.3783  1.0000</r>
       <r>   0.6695  1.0000</r>
       <r>   1.4203  1.0000</r>
       <r>   2.6533  1.0000</r>
       <r>   2.6634  1.0000</r>
       <r>  14.9211  0.0000</r>
       <r>  19.1652  0.0000</r>
       <r>  19.8907  0.0000</r>
      </set>
      <set comment="kpoint 67">
       <r>  -0.9877  1.0000</r>
       <r>  -0.5650  1.0000</r>
       <r>   0.6026  1.0000</r>
       <r>   1.9750  1.0000</r>
       <r>   2.4362  1.0000</r>
       <r>   3.9872  1.0000</r>
       <r>  13.8274  0.0000</r>
       <r>  16.1894  0.0000</r>
       <r>  18.0556  0.0000</r>
      </set>
      <set comment="kpoint 68">
       <r>  -0.6785  1.0000</r>
       <r>  -0.4221  1.0000</r>
       <r>   0.4136  1.0000</r>
       <r>   2.0455  1.0000</r>
       <r>   2.6817  1.0000</r>
       <r>   5.7871  0.0000</r>
       <r>  11.9018  0.0000</r>
       <r>  14.2459  0.0000</r>
       <r>  16.5435  0.0000</r>
      </set>
      <set comment="kpoint 69">
       <r>  -0.5341  1.0000</r>
       <r>  -0.2686  1.0000</r>
       <r>   0.4386  1.0000</r>
       <r>   1.7221  1.0000</r>
       <r>   2.8820  1.0000</r>
       <r>   7.9812  0.0000</r>
       <r>   9.2861  0.0000</r>
       <r>  13.8617  0.0000</r>
       <r>  15.9655  0.0000</r>
      </set>
      <set comment="kpoint 70">
       <r>  -0.3272  1.0000</r>
       <r>  -0.2420  1.0000</r>
       <r>   0.1106  1.0000</r>
       <r>   1.7947  1.0000</r>
       <r>   2.6591  1.0000</r>
       <r>   6.5028  0.0000</r>
       <r>  11.2698  0.0000</r>
       <r>  13.3405  0.0000</r>
       <r>  16.9152  0.0000</r>
      </set>
      <set comment="kpoint 71">
       <r>  -0.6793  1.0000</r>
       <r>  -0.2511  1.0000</r>
       <r>   0.1722  1.0000</r>
       <r>   1.8201  1.0000</r>
       <r>   2.3381  1.0000</r>
       <r>   4.7006  0.9706</r>
       <r>  12.7744  0.0000</r>
       <r>  15.2021  0.0000</r>
       <r>  18.3937  0.0000</r>
      </set>
      <set comment="kpoint 72">
       <r>  -1.2104  1.0000</r>
       <r>  -0.7995  1.0000</r>
       <r>   1.4158  1.0000</r>
       <r>   2.0455  1.0000</r>
       <r>   2.9946  1.0000</r>
       <r>   4.6534  0.9947</r>
       <r>  12.5528  0.0000</r>
       <r>  15.6832  0.0000</r>
       <r>  16.9230  0.0000</r>
      </set>
      <set comment="kpoint 73">
       <r>  -1.1182  1.0000</r>
       <r>  -0.8753  1.0000</r>
       <r>   1.4263  1.0000</r>
       <r>   2.4175  1.0000</r>
       <r>   2.9913  1.0000</r>
       <r>   6.3333  0.0000</r>
       <r>  11.4009  0.0000</r>
       <r>  14.0423  0.0000</r>
       <r>  15.2526  0.0000</r>
      </set>
      <set comment="kpoint 74">
       <r>  -0.8821  1.0000</r>
       <r>  -0.5990  1.0000</r>
       <r>   1.0174  1.0000</r>
       <r>   2.0583  1.0000</r>
       <r>   3.1511  1.0000</r>
       <r>   8.5904  0.0000</r>
       <r>   9.9884  0.0000</r>
       <r>  12.6299  0.0000</r>
       <r>  14.4731  0.0000</r>
      </set>
      <set comment="kpoint 75">
       <r>  -0.5813  1.0000</r>
       <r>  -0.1804  1.0000</r>
       <r>   0.3971  1.0000</r>
       <r>   1.7774  1.0000</r>
       <r>   2.9628  1.0000</r>
       <r>   8.2918  0.0000</r>
       <r>  10.3023  0.0000</r>
       <r>  12.1634  0.0000</r>
       <r>  15.5557  0.0000</r>
      </set>
      <set comment="kpoint 76">
       <r>  -0.6426  1.0000</r>
       <r>  -0.2019  1.0000</r>
       <r>   0.5108  1.0000</r>
       <r>   1.5702  1.0000</r>
       <r>   2.7546  1.0000</r>
       <r>   6.7552  0.0000</r>
       <r>   9.5743  0.0000</r>
       <r>  15.1553  0.0000</r>
       <r>  17.1122  0.0000</r>
      </set>
      <set comment="kpoint 77">
       <r>  -1.3548  1.0000</r>
       <r>  -1.0307  1.0000</r>
       <r>   2.1569  1.0000</r>
       <r>   2.5209  1.0000</r>
       <r>   3.0599  1.0000</r>
       <r>   7.3301  0.0000</r>
       <r>   9.9850  0.0000</r>
       <r>  13.2550  0.0000</r>
       <r>  15.8392  0.0000</r>
      </set>
      <set comment="kpoint 78">
       <r>  -1.1933  1.0000</r>
       <r>  -0.9432  1.0000</r>
       <r>   1.7310  1.0000</r>
       <r>   2.4049  1.0000</r>
       <r>   3.1523  1.0000</r>
       <r>   7.7215  0.0000</r>
       <r>  10.0202  0.0000</r>
       <r>  13.4144  0.0000</r>
       <r>  14.7824  0.0000</r>
      </set>
      <set comment="kpoint 79">
       <r>  -0.7959  1.0000</r>
       <r>  -0.5440  1.0000</r>
       <r>   0.7628  1.0000</r>
       <r>   2.1051  1.0000</r>
       <r>   2.9734  1.0000</r>
       <r>   7.1222  0.0000</r>
       <r>  11.0495  0.0000</r>
       <r>  13.3286  0.0000</r>
       <r>  15.1369  0.0000</r>
      </set>
      <set comment="kpoint 80">
       <r>  -1.2935  1.0000</r>
       <r>  -0.9521  1.0000</r>
       <r>   1.8833  1.0000</r>
       <r>   2.3320  1.0000</r>
       <r>   3.0582  1.0000</r>
       <r>   5.9954  0.0000</r>
       <r>  11.2842  0.0000</r>
       <r>  14.0884  0.0000</r>
       <r>  16.2100  0.0000</r>
      </set>
      <set comment="kpoint 81">
       <r>  -1.0101  1.0000</r>
       <r>  -0.7426  1.0000</r>
       <r>   0.9948  1.0000</r>
       <r>   2.2780  1.0000</r>
       <r>   2.7408  1.0000</r>
       <r>   5.0188  0.0045</r>
       <r>  12.6792  0.0000</r>
       <r>  15.0908  0.0000</r>
       <r>  16.3344  0.0000</r>
      </set>
      <set comment="kpoint 82">
       <r>  -1.2072  1.0000</r>
       <r>  -0.5961  1.0000</r>
       <r>   0.9231  1.0000</r>
       <r>   1.7277  1.0000</r>
       <r>   2.8544  1.0000</r>
       <r>   3.5300  1.0000</r>
       <r>  13.7425  0.0000</r>
       <r>  17.7299  0.0000</r>
       <r>  17.9288  0.0000</r>
      </set>
      <set comment="kpoint 83">
       <r>  -2.5741  1.0000</r>
       <r>   0.4116  1.0000</r>
       <r>   0.7476  1.0000</r>
       <r>   0.7476  1.0000</r>
       <r>   2.0017  1.0000</r>
       <r>   2.0017  1.0000</r>
       <r>  15.7253  0.0000</r>
       <r>  21.0485  0.0000</r>
       <r>  24.2531  0.0000</r>
      </set>
      <set comment="kpoint 84">
       <r>  -2.0123  1.0000</r>
       <r>   0.2998  1.0000</r>
       <r>   0.7241  1.0000</r>
       <r>   0.8730  1.0000</r>
       <r>   1.7990  1.0000</r>
       <r>   2.7304  1.0000</r>
       <r>  14.5590  0.0000</r>
       <r>  19.7334  0.0000</r>
       <r>  22.1760  0.0000</r>
      </set>
      <set comment="kpoint 85">
       <r>  -1.1026  1.0000</r>
       <r>   0.0445  1.0000</r>
       <r>   0.4961  1.0000</r>
       <r>   1.2167  1.0000</r>
       <r>   1.7148  1.0000</r>
       <r>   3.8651  1.0000</r>
       <r>  13.6793  0.0000</r>
       <r>  16.2070  0.0000</r>
       <r>  21.8250  0.0000</r>
      </set>
      <set comment="kpoint 86">
       <r>  -0.6715  1.0000</r>
       <r>   0.1258  1.0000</r>
       <r>   0.4030  1.0000</r>
       <r>   1.3613  1.0000</r>
       <r>   2.1109  1.0000</r>
       <r>   5.2710  0.0000</r>
       <r>  11.9081  0.0000</r>
       <r>  14.1302  0.0000</r>
       <r>  21.4656  0.0000</r>
      </set>
      <set comment="kpoint 87">
       <r>  -0.8886  1.0000</r>
       <r>  -0.0260  1.0000</r>
       <r>   0.8284  1.0000</r>
       <r>   1.4235  1.0000</r>
       <r>   2.6872  1.0000</r>
       <r>   7.2452  0.0000</r>
       <r>   8.7282  0.0000</r>
       <r>  14.6441  0.0000</r>
       <r>  19.3358  0.0000</r>
      </set>
      <set comment="kpoint 88">
       <r>  -1.0729  1.0000</r>
       <r>  -0.2346  1.0000</r>
       <r>   0.8490  1.0000</r>
       <r>   1.5616  1.0000</r>
       <r>   2.9952  1.0000</r>
       <r>   5.8308  0.0000</r>
       <r>  10.1294  0.0000</r>
       <r>  15.9950  0.0000</r>
       <r>  18.1121  0.0000</r>
      </set>
      <set comment="kpoint 89">
       <r>  -1.8261  1.0000</r>
       <r>   0.4946  1.0000</r>
       <r>   0.5839  1.0000</r>
       <r>   0.8588  1.0000</r>
       <r>   2.5417  1.0000</r>
       <r>   2.5881  1.0000</r>
       <r>  13.2222  0.0000</r>
       <r>  20.5941  0.0000</r>
       <r>  21.2901  0.0000</r>
      </set>
      <set comment="kpoint 90">
       <r>  -1.2532  1.0000</r>
       <r>   0.3154  1.0000</r>
       <r>   0.3258  1.0000</r>
       <r>   1.1786  1.0000</r>
       <r>   2.3726  1.0000</r>
       <r>   3.8713  1.0000</r>
       <r>  12.2618  0.0000</r>
       <r>  17.8498  0.0000</r>
       <r>  20.2013  0.0000</r>
      </set>
      <set comment="kpoint 91">
       <r>  -0.4879  1.0000</r>
       <r>  -0.0503  1.0000</r>
       <r>   0.1165  1.0000</r>
       <r>   1.6218  1.0000</r>
       <r>   2.3104  1.0000</r>
       <r>   5.4067  0.0000</r>
       <r>  11.9268  0.0000</r>
       <r>  14.1812  0.0000</r>
       <r>  18.8640  0.0000</r>
      </set>
      <set comment="kpoint 92">
       <r>  -0.5712  1.0000</r>
       <r>  -0.1057  1.0000</r>
       <r>   0.4112  1.0000</r>
       <r>   1.7030  1.0000</r>
       <r>   2.6688  1.0000</r>
       <r>   7.1852  0.0000</r>
       <r>  10.6677  0.0000</r>
       <r>  12.6109  0.0000</r>
       <r>  17.3744  0.0000</r>
      </set>
      <set comment="kpoint 93">
       <r>  -0.8633  1.0000</r>
       <r>  -0.3776  1.0000</r>
       <r>   0.7849  1.0000</r>
       <r>   1.9229  1.0000</r>
       <r>   2.9239  1.0000</r>
       <r>   7.4255  0.0000</r>
       <r>   9.8137  0.0000</r>
       <r>  13.8362  0.0000</r>
       <r>  16.2336  0.0000</r>
      </set>
      <set comment="kpoint 94">
       <r>  -1.1960  1.0000</r>
       <r>   0.0195  1.0000</r>
       <r>   0.6232  1.0000</r>
       <r>   1.2742  1.0000</r>
       <r>   2.9581  1.0000</r>
       <r>   4.4918  1.0000</r>
       <r>  11.0334  0.0000</r>
       <r>  18.1161  0.0000</r>
       <r>  18.9323  0.0000</r>
      </set>
      <set comment="kpoint 95">
       <r>  -0.8621  1.0000</r>
       <r>  -0.2231  1.0000</r>
       <r>   0.5476  1.0000</r>
       <r>   1.7284  1.0000</r>
       <r>   2.8417  1.0000</r>
       <r>   6.0328  0.0000</r>
       <r>  10.4263  0.0000</r>
       <r>  15.5900  0.0000</r>
       <r>  16.9642  0.0000</r>
      </set>
      <set comment="kpoint 96">
       <r>  -0.5152  1.0000</r>
       <r>  -0.1743  1.0000</r>
       <r>   0.2392  1.0000</r>
       <r>   1.8278  1.0000</r>
       <r>   2.9645  1.0000</r>
       <r>   7.7809  0.0000</r>
       <r>  10.7727  0.0000</r>
       <r>  12.5710  0.0000</r>
       <r>  15.2512  0.0000</r>
      </set>
      <set comment="kpoint 97">
       <r>  -0.6249  1.0000</r>
       <r>  -0.1684  1.0000</r>
       <r>   0.3783  1.0000</r>
       <r>   1.7901  1.0000</r>
       <r>   3.1509  1.0000</r>
       <r>   8.9581  0.0000</r>
       <r>  10.4943  0.0000</r>
       <r>  11.7712  0.0000</r>
       <r>  14.2986  0.0000</r>
      </set>
      <set comment="kpoint 98">
       <r>  -1.0544  1.0000</r>
       <r>  -0.4071  1.0000</r>
       <r>   1.1088  1.0000</r>
       <r>   1.8566  1.0000</r>
       <r>   2.9330  1.0000</r>
       <r>   7.2926  0.0000</r>
       <r>   9.4663  0.0000</r>
       <r>  13.9489  0.0000</r>
       <r>  17.5601  0.0000</r>
      </set>
      <set comment="kpoint 99">
       <r>  -0.8976  1.0000</r>
       <r>  -0.4438  1.0000</r>
       <r>   0.9674  1.0000</r>
       <r>   1.9918  1.0000</r>
       <r>   2.9710  1.0000</r>
       <r>   8.5988  0.0000</r>
       <r>   9.6206  0.0000</r>
       <r>  12.2670  0.0000</r>
       <r>  15.9302  0.0000</r>
      </set>
      <set comment="kpoint 100">
       <r>  -1.0697  1.0000</r>
       <r>  -0.4893  1.0000</r>
       <r>   1.2817  1.0000</r>
       <r>   2.0805  1.0000</r>
       <r>   2.8302  1.0000</r>
       <r>   8.4486  0.0000</r>
       <r>   9.3042  0.0000</r>
       <r>  12.2882  0.0000</r>
       <r>  17.2836  0.0000</r>
      </set>
      <set comment="kpoint 101">
       <r>  -1.9599  1.0000</r>
       <r>   0.6067  1.0000</r>
       <r>   0.6067  1.0000</r>
       <r>   1.5413  1.0000</r>
       <r>   2.4817  1.0000</r>
       <r>   2.4817  1.0000</r>
       <r>  11.7783  0.0000</r>
       <r>  20.2190  0.0000</r>
       <r>  23.0761  0.0000</r>
      </set>
      <set comment="kpoint 102">
       <r>  -1.6438  1.0000</r>
       <r>   0.4498  1.0000</r>
       <r>   0.7065  1.0000</r>
       <r>   1.4294  1.0000</r>
       <r>   2.3896  1.0000</r>
       <r>   3.6886  1.0000</r>
       <r>  10.7155  0.0000</r>
       <r>  19.3285  0.0000</r>
       <r>  20.9505  0.0000</r>
      </set>
      <set comment="kpoint 103">
       <r>  -1.0046  1.0000</r>
       <r>   0.1336  1.0000</r>
       <r>   0.9044  1.0000</r>
       <r>   1.1117  1.0000</r>
       <r>   2.3714  1.0000</r>
       <r>   5.3442  0.0000</r>
       <r>  10.2331  0.0000</r>
       <r>  15.9910  0.0000</r>
       <r>  21.1432  0.0000</r>
      </set>
      <set comment="kpoint 104">
       <r>  -0.7728  1.0000</r>
       <r>   0.0071  1.0000</r>
       <r>   0.6443  1.0000</r>
       <r>   1.6605  1.0000</r>
       <r>   2.5012  1.0000</r>
       <r>   6.9584  0.0000</r>
       <r>  10.5845  0.0000</r>
       <r>  12.5909  0.0000</r>
       <r>  19.1840  0.0000</r>
      </set>
      <set comment="kpoint 105">
       <r>  -1.6431  1.0000</r>
       <r>   0.3729  1.0000</r>
       <r>   0.7080  1.0000</r>
       <r>   1.5869  1.0000</r>
       <r>   2.9066  1.0000</r>
       <r>   4.0624  1.0000</r>
       <r>   9.4993  0.0000</r>
       <r>  19.8033  0.0000</r>
       <r>  20.9337  0.0000</r>
      </set>
      <set comment="kpoint 106">
       <r>  -1.2204  1.0000</r>
       <r>   0.1140  1.0000</r>
       <r>   0.9776  1.0000</r>
       <r>   1.2075  1.0000</r>
       <r>   2.7837  1.0000</r>
       <r>   5.7430  0.0000</r>
       <r>   8.7691  0.0000</r>
       <r>  17.9290  0.0000</r>
       <r>  18.9518  0.0000</r>
      </set>
      <set comment="kpoint 107">
       <r>  -0.6888  1.0000</r>
       <r>  -0.1699  1.0000</r>
       <r>   0.6465  1.0000</r>
       <r>   1.5254  1.0000</r>
       <r>   2.7489  1.0000</r>
       <r>   7.4776  0.0000</r>
       <r>   8.8515  0.0000</r>
       <r>  14.6222  0.0000</r>
       <r>  17.5246  0.0000</r>
      </set>
      <set comment="kpoint 108">
       <r>  -1.1199  1.0000</r>
       <r>   0.0474  1.0000</r>
       <r>   1.0690  1.0000</r>
       <r>   1.1396  1.0000</r>
       <r>   2.8647  1.0000</r>
       <r>   6.9788  0.0000</r>
       <r>   7.8198  0.0000</r>
       <r>  16.7232  0.0000</r>
       <r>  19.6596  0.0000</r>
      </set>
      <set comment="kpoint 109">
       <r>  -1.8700  1.0000</r>
       <r>   0.4826  1.0000</r>
       <r>   0.4826  1.0000</r>
       <r>   2.8612  1.0000</r>
       <r>   2.8612  1.0000</r>
       <r>   3.6501  1.0000</r>
       <r>   8.3808  0.0000</r>
       <r>  19.6266  0.0000</r>
       <r>  22.0616  0.0000</r>
      </set>
      <set comment="kpoint 110">
       <r>  -1.6353  1.0000</r>
       <r>   0.3348  1.0000</r>
       <r>   0.6386  1.0000</r>
       <r>   2.0679  1.0000</r>
       <r>   2.8426  1.0000</r>
       <r>   5.2887  0.0000</r>
       <r>   7.7421  0.0000</r>
       <r>  19.3420  0.0000</r>
       <r>  20.6188  0.0000</r>
      </set>
     </set>
    </set>
   </array>
  </eigenvalues>
  <dos>
   <i name="efermi""      4.83422392</i>
   <total>
    <array>
     <dimension dim="1">gridpoints</dimension>
     <dimension dim="2">spin</dimension>
     <field>energy</field>
     <field>total</field>
     <field>integrated</field>
     <set>
      <set comment="spin 1">
       <r> -10.0000   0.0000   0.0000 </r>
       <r>  -9.9599   0.0000   0.0000 </r>
       <r>  -9.9198   0.0000   0.0000 </r>
       <r>  -9.8798   0.0000   0.0000 </r>
       <r>  -9.8397   0.0000   0.0000 </r>
       <r>  -9.7996   0.0000   0.0000 </r>
       <r>  -9.7595   0.0000   0.0000 </r>
       <r>  -9.7194   0.0000   0.0000 </r>
       <r>  -9.6794   0.0000   0.0000 </r>
       <r>  -9.6393   0.0000   0.0000 </r>
       <r>  -9.5992   0.0000   0.0000 </r>
       <r>  -9.5591   0.0000   0.0000 </r>
       <r>  -9.5190   0.0000   0.0000 </r>
       <r>  -9.4790   0.0000   0.0000 </r>
       <r>  -9.4389   0.0000   0.0000 </r>
       <r>  -9.3988   0.0000   0.0000 </r>
       <r>  -9.3587   0.0000   0.0000 </r>
       <r>  -9.3186   0.0000   0.0000 </r>
       <r>  -9.2786   0.0000   0.0000 </r>
       <r>  -9.2385   0.0000   0.0000 </r>
       <r>  -9.1984   0.0000   0.0000 </r>
       <r>  -9.1583   0.0000   0.0000 </r>
       <r>  -9.1182   0.0000   0.0000 </r>
       <r>  -9.0782   0.0000   0.0000 </r>
       <r>  -9.0381   0.0000   0.0000 </r>
       <r>  -8.9980   0.0000   0.0000 </r>
       <r>  -8.9579   0.0000   0.0000 </r>
       <r>  -8.9178   0.0000   0.0000 </r>
       <r>  -8.8778   0.0000   0.0000 </r>
       <r>  -8.8377   0.0000   0.0000 </r>
       <r>  -8.7976   0.0000   0.0000 </r>
       <r>  -8.7575   0.0000   0.0000 </r>
       <r>  -8.7174   0.0000   0.0000 </r>
       <r>  -8.6774   0.0000   0.0000 </r>
       <r>  -8.6373   0.0000   0.0000 </r>
       <r>  -8.5972   0.0000   0.0000 </r>
       <r>  -8.5571   0.0000   0.0000 </r>
       <r>  -8.5170   0.0000   0.0000 </r>
       <r>  -8.4770   0.0000   0.0000 </r>
       <r>  -8.4369   0.0000   0.0000 </r>
       <r>  -8.3968   0.0000   0.0000 </r>
       <r>  -8.3567   0.0000   0.0000 </r>
       <r>  -8.3166   0.0000   0.0000 </r>
       <r>  -8.2766   0.0000   0.0000 </r>
       <r>  -8.2365   0.0000   0.0000 </r>
       <r>  -8.1964   0.0000   0.0000 </r>
       <r>  -8.1563   0.0000   0.0000 </r>
       <r>  -8.1162   0.0000   0.0000 </r>
       <r>  -8.0762   0.0000   0.0000 </r>
       <r>  -8.0361   0.0000   0.0000 </r>
       <r>  -7.9960   0.0000   0.0000 </r>
       <r>  -7.9559   0.0000   0.0000 </r>
       <r>  -7.9158   0.0000   0.0000 </r>
       <r>  -7.8758   0.0000   0.0000 </r>
       <r>  -7.8357   0.0000   0.0000 </r>
       <r>  -7.7956   0.0000   0.0000 </r>
       <r>  -7.7555   0.0000   0.0000 </r>
       <r>  -7.7154   0.0000   0.0000 </r>
       <r>  -7.6754   0.0000   0.0000 </r>
       <r>  -7.6353   0.0000   0.0000 </r>
       <r>  -7.5952   0.0000   0.0000 </r>
       <r>  -7.5551   0.0000   0.0000 </r>
       <r>  -7.5150   0.0000   0.0000 </r>
       <r>  -7.4749   0.0000   0.0000 </r>
       <r>  -7.4349   0.0000   0.0000 </r>
       <r>  -7.3948   0.0000   0.0000 </r>
       <r>  -7.3547   0.0000   0.0000 </r>
       <r>  -7.3146   0.0000   0.0000 </r>
       <r>  -7.2745   0.0000   0.0000 </r>
       <r>  -7.2345   0.0000   0.0000 </r>
       <r>  -7.1944   0.0000   0.0000 </r>
       <r>  -7.1543   0.0000   0.0000 </r>
       <r>  -7.1142   0.0000   0.0000 </r>
       <r>  -7.0741   0.0000   0.0000 </r>
       <r>  -7.0341   0.0000   0.0000 </r>
       <r>  -6.9940   0.0000   0.0000 </r>
       <r>  -6.9539   0.0000   0.0000 </r>
       <r>  -6.9138   0.0000   0.0000 </r>
       <r>  -6.8737   0.0000   0.0000 </r>
       <r>  -6.8337   0.0000   0.0000 </r>
       <r>  -6.7936   0.0000   0.0000 </r>
       <r>  -6.7535   0.0000   0.0000 </r>
       <r>  -6.7134   0.0000   0.0000 </r>
       <r>  -6.6733   0.0000   0.0000 </r>
       <r>  -6.6333   0.0000   0.0000 </r>
       <r>  -6.5932   0.0000   0.0000 </r>
       <r>  -6.5531   0.0000   0.0000 </r>
       <r>  -6.5130   0.0000   0.0000 </r>
       <r>  -6.4729   0.0000   0.0000 </r>
       <r>  -6.4329   0.0000   0.0000 </r>
       <r>  -6.3928   0.0000   0.0000 </r>
       <r>  -6.3527   0.0000   0.0000 </r>
       <r>  -6.3126   0.0000   0.0000 </r>
       <r>  -6.2725   0.0000   0.0000 </r>
       <r>  -6.2325   0.0000   0.0000 </r>
       <r>  -6.1924   0.0000   0.0000 </r>
       <r>  -6.1523   0.0000   0.0000 </r>
       <r>  -6.1122   0.0000   0.0000 </r>
       <r>  -6.0721   0.0000   0.0000 </r>
       <r>  -6.0321   0.0000   0.0000 </r>
       <r>  -5.9920   0.0000   0.0000 </r>
       <r>  -5.9519   0.0000   0.0000 </r>
       <r>  -5.9118   0.0000   0.0000 </r>
       <r>  -5.8717   0.0000   0.0000 </r>
       <r>  -5.8317   0.0000   0.0000 </r>
       <r>  -5.7916   0.0000   0.0000 </r>
       <r>  -5.7515   0.0000   0.0000 </r>
       <r>  -5.7114   0.0000   0.0000 </r>
       <r>  -5.6713   0.0000   0.0000 </r>
       <r>  -5.6313   0.0000   0.0000 </r>
       <r>  -5.5912   0.0000   0.0000 </r>
       <r>  -5.5511   0.0000   0.0000 </r>
       <r>  -5.5110   0.0000   0.0000 </r>
       <r>  -5.4709   0.0000   0.0000 </r>
       <r>  -5.4309   0.0000   0.0000 </r>
       <r>  -5.3908   0.0000   0.0000 </r>
       <r>  -5.3507   0.0000   0.0000 </r>
       <r>  -5.3106   0.0000   0.0000 </r>
       <r>  -5.2705   0.0000   0.0000 </r>
       <r>  -5.2305   0.0000   0.0000 </r>
       <r>  -5.1904   0.0000   0.0000 </r>
       <r>  -5.1503   0.0000   0.0000 </r>
       <r>  -5.1102   0.0000   0.0000 </r>
       <r>  -5.0701   0.0000   0.0000 </r>
       <r>  -5.0301   0.0000   0.0000 </r>
       <r>  -4.9900   0.0000   0.0000 </r>
       <r>  -4.9499   0.0000   0.0000 </r>
       <r>  -4.9098   0.0000   0.0000 </r>
       <r>  -4.8697   0.0000   0.0000 </r>
       <r>  -4.8297   0.0000   0.0000 </r>
       <r>  -4.7896   0.0000   0.0000 </r>
       <r>  -4.7495   0.0000   0.0000 </r>
       <r>  -4.7094   0.0000   0.0000 </r>
       <r>  -4.6693   0.0000   0.0000 </r>
       <r>  -4.6293   0.0000   0.0000 </r>
       <r>  -4.5892   0.0000   0.0000 </r>
       <r>  -4.5491   0.0000   0.0000 </r>
       <r>  -4.5090   0.0000   0.0000 </r>
       <r>  -4.4689   0.0000   0.0000 </r>
       <r>  -4.4289   0.0000   0.0000 </r>
       <r>  -4.3888   0.0003   0.0000 </r>
       <r>  -4.3487   0.0011   0.0001 </r>
       <r>  -4.3086   0.0038   0.0002 </r>
       <r>  -4.2685   0.0094   0.0006 </r>
       <r>  -4.2285   0.0168   0.0013 </r>
       <r>  -4.1884   0.0222   0.0021 </r>
       <r>  -4.1483   0.0227   0.0031 </r>
       <r>  -4.1082   0.0217   0.0039 </r>
       <r>  -4.0681   0.0274   0.0050 </r>
       <r>  -4.0281   0.0436   0.0068 </r>
       <r>  -3.9880   0.0618   0.0093 </r>
       <r>  -3.9479   0.0677   0.0120 </r>
       <r>  -3.9078   0.0582   0.0143 </r>
       <r>  -3.8677   0.0468   0.0162 </r>
       <r>  -3.8277   0.0484   0.0181 </r>
       <r>  -3.7876   0.0610   0.0206 </r>
       <r>  -3.7475   0.0690   0.0233 </r>
       <r>  -3.7074   0.0631   0.0259 </r>
       <r>  -3.6673   0.0535   0.0280 </r>
       <r>  -3.6273   0.0573   0.0303 </r>
       <r>  -3.5872   0.0757   0.0333 </r>
       <r>  -3.5471   0.0913   0.0370 </r>
       <r>  -3.5070   0.0899   0.0406 </r>
       <r>  -3.4669   0.0817   0.0439 </r>
       <r>  -3.4269   0.0896   0.0475 </r>
       <r>  -3.3868   0.1166   0.0521 </r>
       <r>  -3.3467   0.1376   0.0576 </r>
       <r>  -3.3066   0.1300   0.0629 </r>
       <r>  -3.2665   0.1032   0.0670 </r>
       <r>  -3.2265   0.0831   0.0703 </r>
       <r>  -3.1864   0.0772   0.0734 </r>
       <r>  -3.1463   0.0725   0.0763 </r>
       <r>  -3.1062   0.0636   0.0789 </r>
       <r>  -3.0661   0.0643   0.0815 </r>
       <r>  -3.0261   0.0878   0.0850 </r>
       <r>  -2.9860   0.1248   0.0900 </r>
       <r>  -2.9459   0.1518   0.0961 </r>
       <r>  -2.9058   0.1613   0.1025 </r>
       <r>  -2.8657   0.1705   0.1094 </r>
       <r>  -2.8257   0.1901   0.1170 </r>
       <r>  -2.7856   0.2023   0.1251 </r>
       <r>  -2.7455   0.1865   0.1326 </r>
       <r>  -2.7054   0.1510   0.1386 </r>
       <r>  -2.6653   0.1209   0.1435 </r>
       <r>  -2.6253   0.1061   0.1477 </r>
       <r>  -2.5852   0.0996   0.1517 </r>
       <r>  -2.5451   0.1022   0.1558 </r>
       <r>  -2.5050   0.1262   0.1609 </r>
       <r>  -2.4649   0.1726   0.1678 </r>
       <r>  -2.4248   0.2202   0.1766 </r>
       <r>  -2.3848   0.2434   0.1864 </r>
       <r>  -2.3447   0.2357   0.1958 </r>
       <r>  -2.3046   0.2124   0.2043 </r>
       <r>  -2.2645   0.1929   0.2121 </r>
       <r>  -2.2244   0.1848   0.2195 </r>
       <r>  -2.1844   0.1881   0.2270 </r>
       <r>  -2.1443   0.2069   0.2353 </r>
       <r>  -2.1042   0.2446   0.2451 </r>
       <r>  -2.0641   0.2951   0.2569 </r>
       <r>  -2.0240   0.3395   0.2705 </r>
       <r>  -1.9840   0.3570   0.2848 </r>
       <r>  -1.9439   0.3616   0.2993 </r>
       <r>  -1.9038   0.4105   0.3158 </r>
       <r>  -1.8637   0.5312   0.3371 </r>
       <r>  -1.8236   0.6591   0.3635 </r>
       <r>  -1.7836   0.7043   0.3917 </r>
       <r>  -1.7435   0.6682   0.4185 </r>
       <r>  -1.7034   0.6317   0.4438 </r>
       <r>  -1.6633   0.6419   0.4696 </r>
       <r>  -1.6232   0.6787   0.4968 </r>
       <r>  -1.5832   0.7346   0.5262 </r>
       <r>  -1.5431   0.8548   0.5605 </r>
       <r>  -1.5030   1.0551   0.6027 </r>
       <r>  -1.4629   1.2560   0.6531 </r>
       <r>  -1.4228   1.3580   0.7075 </r>
       <r>  -1.3828   1.3512   0.7617 </r>
       <r>  -1.3427   1.3244   0.8148 </r>
       <r>  -1.3026   1.3883   0.8704 </r>
       <r>  -1.2625   1.5831   0.9339 </r>
       <r>  -1.2224   1.8313   1.0073 </r>
       <r>  -1.1824   2.0094   1.0878 </r>
       <r>  -1.1423   2.0610   1.1704 </r>
       <r>  -1.1022   2.0157   1.2512 </r>
       <r>  -1.0621   1.9413   1.3290 </r>
       <r>  -1.0220   1.9075   1.4054 </r>
       <r>  -0.9820   1.9503   1.4836 </r>
       <r>  -0.9419   2.0464   1.5656 </r>
       <r>  -0.9018   2.1258   1.6508 </r>
       <r>  -0.8617   2.1038   1.7352 </r>
       <r>  -0.8216   1.9504   1.8133 </r>
       <r>  -0.7816   1.7417   1.8831 </r>
       <r>  -0.7415   1.5953   1.9471 </r>
       <r>  -0.7014   1.5723   2.0101 </r>
       <r>  -0.6613   1.6569   2.0765 </r>
       <r>  -0.6212   1.7835   2.1480 </r>
       <r>  -0.5812   1.8669   2.2228 </r>
       <r>  -0.5411   1.8342   2.2963 </r>
       <r>  -0.5010   1.6671   2.3631 </r>
       <r>  -0.4609   1.4322   2.4206 </r>
       <r>  -0.4208   1.2392   2.4702 </r>
       <r>  -0.3808   1.1567   2.5166 </r>
       <r>  -0.3407   1.1947   2.5645 </r>
       <r>  -0.3006   1.3483   2.6185 </r>
       <r>  -0.2605   1.5973   2.6825 </r>
       <r>  -0.2204   1.8620   2.7572 </r>
       <r>  -0.1804   2.0234   2.8383 </r>
       <r>  -0.1403   2.0324   2.9197 </r>
       <r>  -0.1002   1.9796   2.9991 </r>
       <r>  -0.0601   2.0000   3.0792 </r>
       <r>  -0.0200   2.1173   3.1641 </r>
       <r>   0.0200   2.2380   3.2538 </r>
       <r>   0.0601   2.2723   3.3448 </r>
       <r>   0.1002   2.2115   3.4335 </r>
       <r>   0.1403   2.1081   3.5180 </r>
       <r>   0.1804   2.0240   3.5991 </r>
       <r>   0.2204   2.0045   3.6794 </r>
       <r>   0.2605   2.0833   3.7629 </r>
       <r>   0.3006   2.2632   3.8536 </r>
       <r>   0.3407   2.4735   3.9528 </r>
       <r>   0.3808   2.5987   4.0569 </r>
       <r>   0.4208   2.5905   4.1608 </r>
       <r>   0.4609   2.5183   4.2617 </r>
       <r>   0.5010   2.4891   4.3615 </r>
       <r>   0.5411   2.5497   4.4637 </r>
       <r>   0.5812   2.6638   4.5704 </r>
       <r>   0.6212   2.7552   4.6809 </r>
       <r>   0.6613   2.8114   4.7935 </r>
       <r>   0.7014   2.9558   4.9120 </r>
       <r>   0.7415   3.2988   5.0442 </r>
       <r>   0.7816   3.6991   5.1925 </r>
       <r>   0.8216   3.8306   5.3460 </r>
       <r>   0.8617   3.5416   5.4880 </r>
       <r>   0.9018   3.0319   5.6095 </r>
       <r>   0.9419   2.6219   5.7146 </r>
       <r>   0.9820   2.4399   5.8124 </r>
       <r>   1.0220   2.3721   5.9074 </r>
       <r>   1.0621   2.2501   5.9976 </r>
       <r>   1.1022   2.0223   6.0787 </r>
       <r>   1.1423   1.7554   6.1490 </r>
       <r>   1.1824   1.5553   6.2114 </r>
       <r>   1.2224   1.5098   6.2719 </r>
       <r>   1.2625   1.6300   6.3372 </r>
       <r>   1.3026   1.8213   6.4102 </r>
       <r>   1.3427   1.9580   6.4887 </r>
       <r>   1.3828   1.9857   6.5683 </r>
       <r>   1.4228   1.9440   6.6462 </r>
       <r>   1.4629   1.9203   6.7231 </r>
       <r>   1.5030   1.9804   6.8025 </r>
       <r>   1.5431   2.1126   6.8872 </r>
       <r>   1.5832   2.2613   6.9778 </r>
       <r>   1.6232   2.4111   7.0745 </r>
       <r>   1.6633   2.5747   7.1777 </r>
       <r>   1.7034   2.7025   7.2860 </r>
       <r>   1.7435   2.6934   7.3939 </r>
       <r>   1.7836   2.5080   7.4944 </r>
       <r>   1.8236   2.2092   7.5830 </r>
       <r>   1.8637   1.9089   7.6595 </r>
       <r>   1.9038   1.7273   7.7287 </r>
       <r>   1.9439   1.7532   7.7990 </r>
       <r>   1.9840   1.9742   7.8781 </r>
       <r>   2.0240   2.2618   7.9688 </r>
       <r>   2.0641   2.4501   8.0670 </r>
       <r>   2.1042   2.4214   8.1640 </r>
       <r>   2.1443   2.1554   8.2504 </r>
       <r>   2.1844   1.7610   8.3210 </r>
       <r>   2.2244   1.4509   8.3791 </r>
       <r>   2.2645   1.4020   8.4353 </r>
       <r>   2.3046   1.6095   8.4999 </r>
       <r>   2.3447   1.9124   8.5765 </r>
       <r>   2.3848   2.1331   8.6620 </r>
       <r>   2.4248   2.1645   8.7488 </r>
       <r>   2.4649   2.0151   8.8295 </r>
       <r>   2.5050   1.8207   8.9025 </r>
       <r>   2.5451   1.7411   8.9723 </r>
       <r>   2.5852   1.8365   9.0459 </r>
       <r>   2.6253   2.0765   9.1291 </r>
       <r>   2.6653   2.3975   9.2252 </r>
       <r>   2.7054   2.7149   9.3340 </r>
       <r>   2.7455   2.9481   9.4522 </r>
       <r>   2.7856   3.0613   9.5749 </r>
       <r>   2.8257   3.0585   9.6975 </r>
       <r>   2.8657   2.9710   9.8165 </r>
       <r>   2.9058   2.8576   9.9311 </r>
       <r>   2.9459   2.7420  10.0410 </r>
       <r>   2.9860   2.5469  10.1431 </r>
       <r>   3.0261   2.1865  10.2307 </r>
       <r>   3.0661   1.7250  10.2998 </r>
       <r>   3.1062   1.3431  10.3537 </r>
       <r>   3.1463   1.1419  10.3994 </r>
       <r>   3.1864   1.0651  10.4421 </r>
       <r>   3.2265   1.0064  10.4824 </r>
       <r>   3.2665   0.9033  10.5186 </r>
       <r>   3.3066   0.7355  10.5481 </r>
       <r>   3.3467   0.5238  10.5691 </r>
       <r>   3.3868   0.3299  10.5823 </r>
       <r>   3.4269   0.2125  10.5909 </r>
       <r>   3.4669   0.1834  10.5982 </r>
       <r>   3.5070   0.2045  10.6064 </r>
       <r>   3.5471   0.2180  10.6152 </r>
       <r>   3.5872   0.1958  10.6230 </r>
       <r>   3.6273   0.1573  10.6293 </r>
       <r>   3.6673   0.1325  10.6346 </r>
       <r>   3.7074   0.1317  10.6399 </r>
       <r>   3.7475   0.1627  10.6464 </r>
       <r>   3.7876   0.2458  10.6563 </r>
       <r>   3.8277   0.3809  10.6715 </r>
       <r>   3.8677   0.5094  10.6919 </r>
       <r>   3.9078   0.5516  10.7141 </r>
       <r>   3.9479   0.4908  10.7337 </r>
       <r>   3.9880   0.3875  10.7493 </r>
       <r>   4.0281   0.3068  10.7616 </r>
       <r>   4.0681   0.2681  10.7723 </r>
       <r>   4.1082   0.2569  10.7826 </r>
       <r>   4.1483   0.2520  10.7927 </r>
       <r>   4.1884   0.2387  10.8023 </r>
       <r>   4.2285   0.2090  10.8106 </r>
       <r>   4.2685   0.1602  10.8171 </r>
       <r>   4.3086   0.1022  10.8212 </r>
       <r>   4.3487   0.0584  10.8235 </r>
       <r>   4.3888   0.0551  10.8257 </r>
       <r>   4.4289   0.1174  10.8304 </r>
       <r>   4.4689   0.2641  10.8410 </r>
       <r>   4.5090   0.4713  10.8599 </r>
       <r>   4.5491   0.6448  10.8857 </r>
       <r>   4.5892   0.6821  10.9131 </r>
       <r>   4.6293   0.5813  10.9364 </r>
       <r>   4.6693   0.4378  10.9539 </r>
       <r>   4.7094   0.3334  10.9673 </r>
       <r>   4.7495   0.2822  10.9786 </r>
       <r>   4.7896   0.2628  10.9891 </r>
       <r>   4.8297   0.2455  10.9990 </r>
       <r>   4.8697   0.2089  11.0073 </r>
       <r>   4.9098   0.1662  11.0140 </r>
       <r>   4.9499   0.1571  11.0203 </r>
       <r>   4.9900   0.1976  11.0282 </r>
       <r>   5.0301   0.2501  11.0382 </r>
       <r>   5.0701   0.2573  11.0485 </r>
       <r>   5.1102   0.2049  11.0568 </r>
       <r>   5.1503   0.1377  11.0623 </r>
       <r>   5.1904   0.1150  11.0669 </r>
       <r>   5.2305   0.1637  11.0734 </r>
       <r>   5.2705   0.2638  11.0840 </r>
       <r>   5.3106   0.3665  11.0987 </r>
       <r>   5.3507   0.4335  11.1161 </r>
       <r>   5.3908   0.4632  11.1346 </r>
       <r>   5.4309   0.4712  11.1535 </r>
       <r>   5.4709   0.4617  11.1720 </r>
       <r>   5.5110   0.4234  11.1890 </r>
       <r>   5.5511   0.3456  11.2029 </r>
       <r>   5.5912   0.2423  11.2126 </r>
       <r>   5.6313   0.1591  11.2189 </r>
       <r>   5.6713   0.1448  11.2247 </r>
       <r>   5.7114   0.2125  11.2333 </r>
       <r>   5.7515   0.3253  11.2463 </r>
       <r>   5.7916   0.4116  11.2628 </r>
       <r>   5.8317   0.4118  11.2793 </r>
       <r>   5.8717   0.3290  11.2925 </r>
       <r>   5.9118   0.2299  11.3017 </r>
       <r>   5.9519   0.1844  11.3091 </r>
       <r>   5.9920   0.2071  11.3174 </r>
       <r>   6.0321   0.2596  11.3278 </r>
       <r>   6.0721   0.2967  11.3397 </r>
       <r>   6.1122   0.2971  11.3516 </r>
       <r>   6.1523   0.2610  11.3621 </r>
       <r>   6.1924   0.2074  11.3704 </r>
       <r>   6.2325   0.1758  11.3774 </r>
       <r>   6.2725   0.1979  11.3854 </r>
       <r>   6.3126   0.2567  11.3956 </r>
       <r>   6.3527   0.2991  11.4076 </r>
       <r>   6.3928   0.3051  11.4199 </r>
       <r>   6.4329   0.3123  11.4324 </r>
       <r>   6.4729   0.3490  11.4464 </r>
       <r>   6.5130   0.3820  11.4617 </r>
       <r>   6.5531   0.3614  11.4762 </r>
       <r>   6.5932   0.2923  11.4879 </r>
       <r>   6.6333   0.2366  11.4974 </r>
       <r>   6.6733   0.2468  11.5073 </r>
       <r>   6.7134   0.3124  11.5198 </r>
       <r>   6.7535   0.3673  11.5345 </r>
       <r>   6.7936   0.3520  11.5486 </r>
       <r>   6.8337   0.2704  11.5594 </r>
       <r>   6.8737   0.1823  11.5668 </r>
       <r>   6.9138   0.1399  11.5724 </r>
       <r>   6.9539   0.1422  11.5781 </r>
       <r>   6.9940   0.1555  11.5843 </r>
       <r>   7.0341   0.1671  11.5910 </r>
       <r>   7.0741   0.2010  11.5990 </r>
       <r>   7.1142   0.2775  11.6102 </r>
       <r>   7.1543   0.3726  11.6251 </r>
       <r>   7.1944   0.4325  11.6424 </r>
       <r>   7.2345   0.4251  11.6595 </r>
       <r>   7.2745   0.3674  11.6742 </r>
       <r>   7.3146   0.3031  11.6863 </r>
       <r>   7.3547   0.2654  11.6970 </r>
       <r>   7.3948   0.2633  11.7075 </r>
       <r>   7.4349   0.2778  11.7187 </r>
       <r>   7.4749   0.2711  11.7295 </r>
       <r>   7.5150   0.2213  11.7384 </r>
       <r>   7.5551   0.1501  11.7444 </r>
       <r>   7.5952   0.1093  11.7488 </r>
       <r>   7.6353   0.1457  11.7546 </r>
       <r>   7.6754   0.2728  11.7656 </r>
       <r>   7.7154   0.4497  11.7836 </r>
       <r>   7.7555   0.5952  11.8075 </r>
       <r>   7.7956   0.6542  11.8337 </r>
       <r>   7.8357   0.6394  11.8593 </r>
       <r>   7.8758   0.5955  11.8832 </r>
       <r>   7.9158   0.5493  11.9052 </r>
       <r>   7.9559   0.5047  11.9254 </r>
[...]
       </set>
       <set comment="band 6">
        <r>  0.2334  0.0190  0.1217  0.0086  0.0001  0.2458  0.1004  0.0445  0.0074 </r>
       </set>
       <set comment="band 7">
        <r>  0.2499  0.0852  0.0733  0.1137  0.0815  0.0024  0.0106  0.0189  0.0194 </r>
       </set>
       <set comment="band 8">
        <r>  0.0984  0.0003  0.1582  0.2287  0.0480  0.0123  0.0513  0.0388  0.0156 </r>
       </set>
       <set comment="band 9">
        <r>  0.0016  0.1697  0.0547  0.0825  0.0180  0.0320  0.1504  0.0023  0.0347 </r>
       </set>
      </set>
      <set comment="kpoint 96">
       <set comment="band 1">
        <r>  0.0049  0.0286  0.0018  0.0003  0.0263  0.0029  0.6343  0.0004  0.1148 </r>
       </set>
       <set comment="band 2">
        <r>  0.0081  0.0012  0.0036  0.0369  0.6827  0.0696  0.0107  0.0197  0.0159 </r>
       </set>
       <set comment="band 3">
        <r>  0.0273  0.0022  0.0467  0.0047  0.0819  0.6508  0.0110  0.0001  0.0177 </r>
       </set>
       <set comment="band 4">
        <r>  0.0117  0.0011  0.0082  0.0004  0.0001  0.0317  0.1349  0.0108  0.7259 </r>
       </set>
       <set comment="band 5">
        <r>  0.0008  0.0000  0.0001  0.0026  0.0290  0.0085  0.0011  0.9249  0.0064 </r>
       </set>
       <set comment="band 6">
        <r>  0.3921  0.0097  0.1190  0.0000  0.0013  0.1639  0.0564  0.0048  0.0016 </r>
       </set>
       <set comment="band 7">
        <r>  0.1754  0.0576  0.1358  0.1246  0.0634  0.0221  0.0132  0.0059  0.0592 </r>
       </set>
       <set comment="band 8">
        <r>  0.0889  0.0067  0.0817  0.3061  0.1052  0.0138  0.0010  0.0227  0.0258 </r>
       </set>
       <set comment="band 9">
        <r>  0.0070  0.1904  0.0936  0.0081  0.0033  0.0353  0.2223  0.0000  0.0347 </r>
       </set>
      </set>
      <set comment="kpoint 97">
       <set comment="band 1">
        <r>  0.0035  0.0295  0.0001  0.0002  0.0004  0.0162  0.4774  0.0000  0.2832 </r>
       </set>
       <set comment="band 2">
        <r>  0.0023  0.0017  0.0414  0.0002  0.0048  0.7820  0.0137  0.0022  0.0013 </r>
       </set>
       <set comment="band 3">
        <r>  0.0040  0.0002  0.0003  0.0556  0.7790  0.0059  0.0012  0.0031  0.0040 </r>
       </set>
       <set comment="band 4">
        <r>  0.0275  0.0008  0.0005  0.0012  0.0061  0.0018  0.3274  0.0011  0.5555 </r>
       </set>
       <set comment="band 5">
        <r>  0.0001  0.0000  0.0004  0.0004  0.0062  0.0033  0.0002  0.9696  0.0004 </r>
       </set>
       <set comment="band 6">
        <r>  0.5659  0.0000  0.0088  0.0537  0.0480  0.0124  0.0047  0.0022  0.0610 </r>
       </set>
       <set comment="band 7">
        <r>  0.0617  0.0188  0.0533  0.3252  0.1308  0.0274  0.0260  0.0010  0.0003 </r>
       </set>
       <set comment="band 8">
        <r>  0.0530  0.0084  0.3535  0.0469  0.0156  0.1300  0.0022  0.0048  0.0286 </r>
       </set>
       <set comment="band 9">
        <r>  0.0001  0.2435  0.0304  0.0122  0.0057  0.0105  0.2225  0.0000  0.0762 </r>
       </set>
      </set>
      <set comment="kpoint 98">
       <set comment="band 1">
        <r>  0.0476  0.0001  0.0047  0.0001  0.4388  0.0097  0.3166  0.0097  0.0000 </r>
       </set>
       <set comment="band 2">
        <r>  0.0006  0.0231  0.0001  0.0231  0.3193  0.0089  0.4354  0.0089  0.0000 </r>
       </set>
       <set comment="band 3">
        <r>  0.0262  0.0003  0.0719  0.0003  0.0574  0.3439  0.0054  0.3439  0.0000 </r>
       </set>
       <set comment="band 4">
        <r>  0.0000  0.0036  0.0000  0.0036  0.0000  0.1069  0.0000  0.1069  0.7168 </r>
       </set>
       <set comment="band 5">
        <r>  0.0000  0.0000  0.0000  0.0000  0.0000  0.3765  0.0000  0.3765  0.2227 </r>
       </set>
       <set comment="band 6">
        <r>  0.2648  0.0056  0.1669  0.0056  0.0017  0.1183  0.0793  0.1183  0.0000 </r>
       </set>
       <set comment="band 7">
        <r>  0.2552  0.0928  0.0935  0.0928  0.0923  0.0001  0.0101  0.0001  0.0000 </r>
       </set>
       <set comment="band 8">
        <r>  0.0973  0.0764  0.1579  0.0764  0.0167  0.0271  0.1835  0.0271  0.0000 </r>
       </set>
       <set comment="band 9">
        <r>  0.0000  0.2362  0.0000  0.2362  0.0000  0.0054  0.0000  0.0054  0.0727 </r>
       </set>
      </set>
      <set comment="kpoint 99">
       <set comment="band 1">
        <r>  0.0272  0.0059  0.0005  0.0024  0.3113  0.0007  0.4690  0.0006  0.0097 </r>
       </set>
       <set comment="band 2">
        <r>  0.0001  0.0200  0.0000  0.0269  0.4876  0.0019  0.2718  0.0013  0.0155 </r>
       </set>
       <set comment="band 3">
        <r>  0.0039  0.0000  0.0686  0.0002  0.0059  0.7062  0.0000  0.0661  0.0071 </r>
       </set>
       <set comment="band 4">
        <r>  0.0085  0.0035  0.0015  0.0022  0.0016  0.0021  0.0269  0.0172  0.8713 </r>
       </set>
       <set comment="band 5">
        <r>  0.0006  0.0000  0.0015  0.0001  0.0017  0.1039  0.0003  0.8545  0.0119 </r>
       </set>
       <set comment="band 6">
        <r>  0.5099  0.0054  0.0641  0.0195  0.0413  0.0527  0.0258  0.0179  0.0114 </r>
       </set>
       <set comment="band 7">
        <r>  0.0602  0.0306  0.3136  0.0485  0.0333  0.1142  0.0087  0.0230  0.0079 </r>
       </set>
       <set comment="band 8">
        <r>  0.0909  0.0834  0.0490  0.1871  0.0485  0.0142  0.1837  0.0070  0.0001 </r>
       </set>
       <set comment="band 9">
        <r>  0.0077  0.1861  0.0005  0.1954  0.0349  0.0010  0.0748  0.0005  0.0726 </r>
       </set>
      </set>
      <set comment="kpoint 100">
       <set comment="band 1">
        <r>  0.0366  0.0000  0.0005  0.0000  0.4014  0.0008  0.3908  0.0008  0.0000 </r>
       </set>
       <set comment="band 2">
        <r>  0.0002  0.0241  0.0000  0.0241  0.3985  0.0011  0.3692  0.0011  0.0000 </r>
       </set>
       <set comment="band 3">
        <r>  0.0034  0.0000  0.0782  0.0000  0.0061  0.3851  0.0005  0.3851  0.0000 </r>
       </set>
       <set comment="band 4">
        <r>  0.0000  0.0037  0.0000  0.0037  0.0000  0.0219  0.0000  0.0219  0.8917 </r>
       </set>
       <set comment="band 5">
        <r>  0.0000  0.0000  0.0000  0.0000  0.0000  0.4635  0.0000  0.4635  0.0450 </r>
       </set>
       <set comment="band 6">
        <r>  0.4999  0.0163  0.0610  0.0163  0.0529  0.0377  0.0210  0.0377  0.0000 </r>
       </set>
       <set comment="band 7">
        <r>  0.0539  0.0399  0.3140  0.0399  0.0340  0.0721  0.0114  0.0721  0.0000 </r>
       </set>
       <set comment="band 8">
        <r>  0.1000  0.1224  0.0468  0.1224  0.0309  0.0102  0.2295  0.0102  0.0000 </r>
       </set>
       <set comment="band 9">
        <r>  0.0000  0.2370  0.0000  0.2370  0.0000  0.0006  0.0000  0.0006  0.0810 </r>
       </set>
      </set>
      <set comment="kpoint 101">
       <set comment="band 1">
        <r>  0.2717  0.0068  0.0068  0.0068  0.1436  0.1436  0.0000  0.1436  0.0000 </r>
       </set>
       <set comment="band 2">
        <r>  0.0000  0.0001  0.0001  0.0003  0.0775  0.2982  0.1221  0.0717  0.3479 </r>
       </set>
       <set comment="band 3">
        <r>  0.0000  0.0002  0.0002  0.0000  0.2208  0.0001  0.3479  0.2266  0.1221 </r>
       </set>
       <set comment="band 4">
        <r>  0.1419  0.0592  0.0592  0.0592  0.1238  0.1238  0.0000  0.1238  0.0000 </r>
       </set>
       <set comment="band 5">
        <r>  0.0000  0.0006  0.0008  0.0000  0.2722  0.0059  0.3851  0.2168  0.0817 </r>
       </set>
       <set comment="band 6">
        <r>  0.0000  0.0003  0.0002  0.0009  0.0578  0.3240  0.0817  0.1131  0.3851 </r>
       </set>
       <set comment="band 7">
        <r>  0.2291  0.0807  0.0807  0.0807  0.0701  0.0701  0.0000  0.0701  0.0000 </r>
       </set>
       <set comment="band 8">
        <r>  0.0002  0.0063  0.0064  0.0064  0.0091  0.0091  0.0000  0.0091  0.0000 </r>
       </set>
       <set comment="band 9">
        <r>  0.0000  0.0502  0.1219  0.3138  0.0194  0.0499  0.0000  0.0080  0.0000 </r>
       </set>
      </set>
      <set comment="kpoint 102">
       <set comment="band 1">
        <r>  0.2109  0.0100  0.0100  0.0003  0.1619  0.1977  0.0002  0.1619  0.0005 </r>
       </set>
       <set comment="band 2">
        <r>  0.0004  0.0005  0.0005  0.0018  0.0730  0.2783  0.1197  0.0730  0.3591 </r>
       </set>
       <set comment="band 3">
        <r>  0.0000  0.0003  0.0003  0.0000  0.1822  0.0000  0.4143  0.1822  0.1381 </r>
       </set>
       <set comment="band 4">
        <r>  0.0700  0.0452  0.0452  0.0436  0.1705  0.0253  0.0479  0.1705  0.1437 </r>
       </set>
       <set comment="band 5">
        <r>  0.0000  0.0007  0.0007  0.0000  0.2913  0.0000  0.2813  0.2913  0.0938 </r>
       </set>
       <set comment="band 6">
        <r>  0.0973  0.0346  0.0346  0.0162  0.0004  0.4187  0.0646  0.0004  0.1939 </r>
       </set>
       <set comment="band 7">
        <r>  0.2592  0.0674  0.0674  0.0896  0.0778  0.0497  0.0027  0.0778  0.0080 </r>
       </set>
       <set comment="band 8">
        <r>  0.0150  0.0195  0.0195  0.1926  0.0537  0.0084  0.0097  0.0537  0.0293 </r>
       </set>
       <set comment="band 9">
        <r>  0.0166  0.0686  0.0694  0.0978  0.0046  0.0001  0.0005  0.0046  0.0016 </r>
       </set>
      </set>
      <set comment="kpoint 103">
       <set comment="band 1">
        <r>  0.1354  0.0114  0.0114  0.0077  0.1266  0.3641  0.0018  0.1266  0.0055 </r>
       </set>
       <set comment="band 2">
        <r>  0.0006  0.0049  0.0049  0.0056  0.0984  0.1272  0.1329  0.0984  0.3988 </r>
       </set>
       <set comment="band 3">
        <r>  0.0223  0.0344  0.0344  0.0355  0.1684  0.1220  0.0538  0.1684  0.1614 </r>
       </set>
       <set comment="band 4">
        <r>  0.0000  0.0019  0.0019  0.0000  0.1179  0.0000  0.5112  0.1179  0.1704 </r>
       </set>
       <set comment="band 5">
        <r>  0.0000  0.0005  0.0005  0.0000  0.3587  0.0000  0.1801  0.3587  0.0600 </r>
       </set>
       <set comment="band 6">
        <r>  0.2193  0.0514  0.0514  0.0138  0.0013  0.3342  0.0316  0.0013  0.0949 </r>
       </set>
       <set comment="band 7">
        <r>  0.2410  0.0612  0.0612  0.1171  0.0744  0.0117  0.0137  0.0744  0.0412 </r>
       </set>
       <set comment="band 8">
        <r>  0.0606  0.0450  0.0451  0.2699  0.0674  0.0008  0.0153  0.0674  0.0460 </r>
       </set>
       <set comment="band 9">
        <r>  0.0192  0.0232  0.0483  0.0090  0.0000  0.0650  0.0191  0.0000  0.0344 </r>
       </set>
      </set>
      <set comment="kpoint 104">
       <set comment="band 1">
        <r>  0.0536  0.0023  0.0023  0.0010  0.0056  0.5433  0.0568  0.0056  0.1704 </r>
       </set>
       <set comment="band 2">
        <r>  0.0097  0.0352  0.0352  0.0016  0.0204  0.1399  0.1344  0.0204  0.4033 </r>
       </set>
       <set comment="band 3">
        <r>  0.0001  0.0028  0.0028  0.0636  0.3648  0.0412  0.0025  0.3648  0.0076 </r>
       </set>
       <set comment="band 4">
        <r>  0.0000  0.0037  0.0037  0.0000  0.0233  0.0000  0.6569  0.0233  0.2190 </r>
       </set>
       <set comment="band 5">
        <r>  0.0000  0.0001  0.0001  0.0000  0.4577  0.0000  0.0355  0.4577  0.0118 </r>
       </set>
       <set comment="band 6">
        <r>  0.3948  0.0527  0.0527  0.0011  0.0014  0.2130  0.0061  0.0014  0.0182 </r>
       </set>
       <set comment="band 7">
        <r>  0.1089  0.0491  0.0491  0.2260  0.0797  0.0017  0.0222  0.0797  0.0666 </r>
       </set>
       <set comment="band 8">
        <r>  0.1236  0.0652  0.0652  0.1886  0.0493  0.0027  0.0307  0.0493  0.0921 </r>
       </set>
       <set comment="band 9">
        <r>  0.0000  0.2327  0.2327  0.0000  0.0002  0.0000  0.0970  0.0002  0.0323 </r>
       </set>
      </set>
      <set comment="kpoint 105">
       <set comment="band 1">
        <r>  0.1809  0.0000  0.0131  0.0000  0.2310  0.1704  0.0055  0.1704  0.0000 </r>
       </set>
       <set comment="band 2">
        <r>  0.0003  0.0012  0.0001  0.0012  0.1563  0.0826  0.5764  0.0826  0.0000 </r>
       </set>
       <set comment="band 3">
        <r>  0.0000  0.0011  0.0000  0.0011  0.0000  0.1987  0.0000  0.1987  0.5172 </r>
       </set>
       <set comment="band 4">
        <r>  0.0383  0.0355  0.0345  0.0355  0.4426  0.0225  0.1780  0.0225  0.0000 </r>
       </set>
       <set comment="band 5">
        <r>  0.0000  0.0001  0.0000  0.0001  0.0000  0.2771  0.0000  0.2771  0.4220 </r>
       </set>
       <set comment="band 6">
        <r>  0.1110  0.0460  0.0812  0.0460  0.0197  0.1506  0.1587  0.1506  0.0000 </r>
       </set>
       <set comment="band 7">
        <r>  0.3084  0.0679  0.0453  0.0679  0.1043  0.0648  0.0051  0.0648  0.0000 </r>
       </set>
       <set comment="band 8">
        <r>  0.0017  0.0001  0.0503  0.0001  0.0170  0.0019  0.0580  0.0019  0.0000 </r>
       </set>
       <set comment="band 9">
        <r>  0.0000  0.2301  0.0002  0.2418  0.0000  0.0204  0.0000  0.0218  0.0300 </r>
       </set>
      </set>
      <set comment="kpoint 106">
       <set comment="band 1">
        <r>  0.1325  0.0007  0.0151  0.0069  0.2700  0.2300  0.0076  0.1277  0.0015 </r>
       </set>
       <set comment="band 2">
        <r>  0.0001  0.0082  0.0000  0.0001  0.0902  0.1608  0.4836  0.0010  0.1333 </r>
       </set>
       <set comment="band 3">
        <r>  0.0012  0.0033  0.0004  0.0134  0.0089  0.0987  0.2232  0.2360  0.3198 </r>
       </set>
       <set comment="band 4">
        <r>  0.0127  0.0278  0.0372  0.0212  0.3814  0.1141  0.0365  0.0364  0.1660 </r>
       </set>
       <set comment="band 5">
        <r>  0.0005  0.0002  0.0015  0.0007  0.0728  0.0993  0.0603  0.4637  0.2698 </r>
       </set>
       <set comment="band 6">
        <r>  0.1605  0.0546  0.1009  0.0422  0.0023  0.2311  0.0924  0.0307  0.0286 </r>
       </set>
       <set comment="band 7">
        <r>  0.3162  0.0515  0.0344  0.0879  0.1212  0.0259  0.0124  0.0663  0.0152 </r>
       </set>
       <set comment="band 8">
        <r>  0.0542  0.0333  0.0791  0.2791  0.0542  0.0002  0.0009  0.0433  0.0520 </r>
       </set>
       <set comment="band 9">
        <r>  0.0158  0.0585  0.1725  0.0000  0.0037  0.0400  0.1342  0.0032  0.0048 </r>
       </set>
      </set>
      <set comment="kpoint 107">
       <set comment="band 1">
        <r>  0.0668  0.0000  0.0135  0.0104  0.1040  0.4826  0.0276  0.0451  0.0765 </r>
       </set>
       <set comment="band 2">
        <r>  0.0061  0.0225  0.0094  0.0031  0.1423  0.0020  0.4031  0.0224  0.2194 </r>
       </set>
       <set comment="band 3">
        <r>  0.0001  0.0153  0.0197  0.0407  0.4207  0.2449  0.0341  0.0336  0.0303 </r>
       </set>
       <set comment="band 4">
        <r>  0.0012  0.0003  0.0061  0.0032  0.0061  0.0007  0.3094  0.1558  0.4417 </r>
       </set>
       <set comment="band 5">
        <r>  0.0036  0.0000  0.0000  0.0006  0.1432  0.0278  0.0632  0.6406  0.0884 </r>
       </set>
       <set comment="band 6">
        <r>  0.3931  0.0303  0.0778  0.0046  0.0085  0.1770  0.0317  0.0258  0.0013 </r>
       </set>
       <set comment="band 7">
        <r>  0.1234  0.0620  0.0649  0.1740  0.1180  0.0054  0.0386  0.0379  0.0592 </r>
       </set>
       <set comment="band 8">
        <r>  0.1000  0.0325  0.0884  0.2398  0.0569  0.0070  0.0090  0.0356  0.0798 </r>
       </set>
       <set comment="band 9">
        <r>  0.0127  0.1335  0.1943  0.0014  0.0039  0.0456  0.1578  0.0022  0.0069 </r>
       </set>
      </set>
      <set comment="kpoint 108">
       <set comment="band 1">
        <r>  0.1068  0.0028  0.0136  0.0028  0.4081  0.1140  0.0438  0.1140  0.0000 </r>
       </set>
       <set comment="band 2">
        <r>  0.0019  0.0104  0.0017  0.0104  0.0134  0.0865  0.6447  0.0865  0.0000 </r>
       </set>
       <set comment="band 3">
        <r>  0.0079  0.0230  0.0417  0.0230  0.3551  0.1462  0.0902  0.1462  0.0000 </r>
       </set>
       <set comment="band 4">
        <r>  0.0000  0.0025  0.0000  0.0025  0.0000  0.1529  0.0000  0.1529  0.6114 </r>
       </set>
       <set comment="band 5">
        <r>  0.0000  0.0001  0.0000  0.0001  0.0000  0.3267  0.0000  0.3267  0.3203 </r>
       </set>
       <set comment="band 6">
        <r>  0.0754  0.0733  0.1539  0.0733  0.0162  0.0847  0.1231  0.0847  0.0000 </r>
       </set>
       <set comment="band 7">
        <r>  0.4231  0.0417  0.0061  0.0417  0.1514  0.0486  0.0061  0.0486  0.0000 </r>
       </set>
       <set comment="band 8">
        <r>  0.0660  0.0444  0.2454  0.0444  0.0020  0.0382  0.1180  0.0382  0.0000 </r>
       </set>
       <set comment="band 9">
        <r>  0.0000  0.2338  0.0000  0.2339  0.0000  0.0064  0.0000  0.0064  0.0882 </r>
       </set>
      </set>
      <set comment="kpoint 109">
       <set comment="band 1">
        <r>  0.1827  0.0006  0.0006  0.0006  0.1970  0.1970  0.0000  0.1970  0.0000 </r>
       </set>
       <set comment="band 2">
        <r>  0.0000  0.0000  0.0000  0.0000  0.0621  0.2539  0.1303  0.0648  0.4023 </r>
       </set>
       <set comment="band 3">
        <r>  0.0000  0.0000  0.0000  0.0000  0.1918  0.0000  0.4023  0.1891  0.1303 </r>
       </set>
       <set comment="band 4">
        <r>  0.0000  0.0001  0.0001  0.0000  0.2526  0.0036  0.2661  0.3162  0.1359 </r>
       </set>
       <set comment="band 5">
        <r>  0.0000  0.0000  0.0001  0.0002  0.1290  0.3780  0.1359  0.0654  0.2661 </r>
       </set>
       <set comment="band 6">
        <r>  0.0783  0.1240  0.1240  0.1240  0.0301  0.0301  0.0000  0.0301  0.0000 </r>
       </set>
       <set comment="band 7">
        <r>  0.3884  0.0311  0.0311  0.0311  0.1044  0.1044  0.0000  0.1044  0.0000 </r>
       </set>
       <set comment="band 8">
        <r>  0.0000  0.0065  0.0064  0.0066  0.0009  0.0009  0.0000  0.0009  0.0000 </r>
       </set>
       <set comment="band 9">
        <r>  0.0000  0.3071  0.0298  0.1469  0.0005  0.0027  0.0000  0.0056  0.0001 </r>
       </set>
      </set>
      <set comment="kpoint 110">
       <set comment="band 1">
        <r>  0.1586  0.0020  0.0020  0.0043  0.1905  0.2362  0.0001  0.1905  0.0004 </r>
       </set>
       <set comment="band 2">
        <r>  0.0000  0.0013  0.0013  0.0004  0.0661  0.2045  0.1400  0.0661  0.4200 </r>
       </set>
       <set comment="band 3">
        <r>  0.0000  0.0006  0.0006  0.0000  0.1766  0.0000  0.4203  0.1766  0.1401 </r>
       </set>
       <set comment="band 4">
        <r>  0.0008  0.0341  0.0341  0.0332  0.0996  0.2905  0.0626  0.0996  0.1877 </r>
       </set>
       <set comment="band 5">
        <r>  0.0000  0.0001  0.0001  0.0000  0.3012  0.0000  0.2783  0.3012  0.0928 </r>
       </set>
       <set comment="band 6">
        <r>  0.0253  0.1151  0.1151  0.1100  0.0041  0.1377  0.0289  0.0041  0.0867 </r>
       </set>
       <set comment="band 7">
        <r>  0.4562  0.0045  0.0045  0.0201  0.1254  0.0941  0.0010  0.1254  0.0030 </r>
       </set>
       <set comment="band 8">
        <r>  0.0094  0.0074  0.0075  0.1383  0.0208  0.0052  0.0145  0.0208  0.0435 </r>
       </set>
       <set comment="band 9">
        <r>  0.0247  0.0730  0.0760  0.1623  0.0092  0.0182  0.0003  0.0093  0.0009 </r>
       </set>
      </set>
     </set>
    </set>
   </array>
  </projected>
 </calculation>
 <structure name="finalpos"">
  <crystal>
   <varray name="basis"">
    <v>       0.00000000      2.08800000      2.08800000</v>
    <v>       2.08800000      0.00000000      2.08800000</v>
    <v>       2.08800000      2.08800000      0.00000000</v>
   </varray>
   <i name="volume""     18.20629094</i>
   <varray name="rec_basis"">
    <v>      -0.23946360      0.23946360      0.23946360</v>
    <v>       0.23946360     -0.23946360      0.23946360</v>
    <v>       0.23946360      0.23946360     -0.23946360</v>
   </varray>
  </crystal>
  <varray name="positions"">
   <v>       0.00000000      0.00000000      0.00000000</v>
  </varray>
 </structure>
</modeling>
