----- GAMESS execution script 'rungms' -----
This job is running on host dftfe.crc.nd.edu
under operating system Linux at Thu Feb 26 00:13:49 EST 2015
Available scratch disk space (Kbyte units) at beginning of the job is
Filesystem     1K-blocks     Used Available Use% Mounted on
/dev/sda2      147771864 22811052 117454380  17% /
GAMESS temporary binary files will be written to /tmp
GAMESS supplementary output files will be written to /tmp
Copying input file gamess.inp to your run's scratch directory...

 Distributed Data Interface kickoff program.
 Initiating 1 compute processes on 1 nodes to run the following command:
 /opt/crc/gamess/2012R1/gamess/gamess.00.x gamess 

          ******************************************************
          *         GAMESS VERSION =  1 MAY 2012 (R1)          *
          *             FROM IOWA STATE UNIVERSITY             *
          * M.W.SCHMIDT, K.K.BALDRIDGE, J.A.BOATZ, S.T.ELBERT, *
          *   M.S.GORDON, J.H.JENSEN, S.KOSEKI, N.MATSUNAGA,   *
          *          K.A.NGUYEN, S.J.SU, T.L.WINDUS,           *
          *       TOGETHER WITH M.DUPUIS, J.A.MONTGOMERY       *
          *         J.COMPUT.CHEM.  14, 1347-1363(1993)        *
          **************** 64 BIT LINUX VERSION ****************

  SINCE 1993, STUDENTS AND POSTDOCS WORKING AT IOWA STATE UNIVERSITY
  AND ALSO IN THEIR VARIOUS JOBS AFTER LEAVING ISU HAVE MADE IMPORTANT
  CONTRIBUTIONS TO THE CODE:
     IVANA ADAMOVIC, CHRISTINE AIKENS, YURI ALEXEEV, POOJA ARORA,
     ANDREY ASADCHEV, ROB BELL, PRADIPTA BANDYOPADHYAY, JONATHAN BENTZ,
     BRETT BODE, GALINA CHABAN, WEI CHEN, CHEOL HO CHOI, PAUL DAY,
     ALBERT DEFUSCO, TIM DUDLEY, DMITRI FEDOROV, GRAHAM FLETCHER,
     MARK FREITAG, KURT GLAESEMANN, DAN KEMP, GRANT MERRILL,
     NORIYUKI MINEZAWA, JONATHAN MULLIN, TAKESHI NAGATA,
     SEAN NEDD, HEATHER NETZLOFF, BOSILJKA NJEGIC, RYAN OLSON, MIKE PAK,
     JIM SHOEMAKER, LYUDMILA SLIPCHENKO, SAROM SOK, JIE SONG,
     TETSUYA TAKETSUGU, SIMON WEBB, SOOHAENG YOO, FEDERICO ZAHARIEV

  ADDITIONAL CODE HAS BEEN PROVIDED BY COLLABORATORS IN OTHER GROUPS:
     IOWA STATE UNIVERSITY:
          JOE IVANIC, LAIMUTIS BYTAUTAS, KLAUS RUEDENBERG
     UNIVERSITY OF TOKYO: KIMIHIKO HIRAO, TAKAHITO NAKAJIMA,
          TAKAO TSUNEDA, MUNEAKI KAMIYA, SUSUMU YANAGISAWA,
          KIYOSHI YAGI, MAHITO CHIBA, SEIKEN TOKURA, NAOAKI KAWAKAMI
     UNIVERSITY OF AARHUS: FRANK JENSEN
     UNIVERSITY OF IOWA: VISVALDAS KAIRYS, HUI LI
     NATIONAL INST. OF STANDARDS AND TECHNOLOGY: WALT STEVENS, DAVID GARMER
     UNIVERSITY OF PISA: BENEDETTA MENNUCCI, JACOPO TOMASI
     UNIVERSITY OF MEMPHIS: HENRY KURTZ, PRAKASHAN KORAMBATH
     UNIVERSITY OF ALBERTA: TOBY ZENG, MARIUSZ KLOBUKOWSKI
     UNIVERSITY OF NEW ENGLAND: MARK SPACKMAN
     MIE UNIVERSITY: HIROAKI UMEDA
     MICHIGAN STATE UNIVERSITY:
          KAROL KOWALSKI, MARTA WLOCH, JEFFREY GOUR, JESSE LUTZ, PIOTR PIECUCH
     UNIVERSITY OF SILESIA: MONIKA MUSIAL, STANISLAW KUCHARSKI
     FACULTES UNIVERSITAIRES NOTRE-DAME DE LA PAIX:
          OLIVIER QUINET, BENOIT CHAMPAGNE
     UNIVERSITY OF CALIFORNIA - SANTA BARBARA: BERNARD KIRTMAN
     INSTITUTE FOR MOLECULAR SCIENCE:
          KAZUYA ISHIMURA, MICHIO KATOUDA, AND SHIGERU NAGASE
     UNIVERSITY OF NOTRE DAME: DAN CHIPMAN
     KYUSHU UNIVERSITY:
          HARUYUKI NAKANO,
          FENG LONG GU, JACEK KORCHOWIEC, MARCIN MAKOWSKI, AND YURIKO AOKI,
          HIROTOSHI MORI AND EISAKU MIYOSHI
     PENNSYLVANIA STATE UNIVERSITY:
          TZVETELIN IORDANOV, CHET SWALINA, JONATHAN SKONE,
          SHARON HAMMES-SCHIFFER
     WASEDA UNIVERSITY:
          MASATO KOBAYASHI, TOMOKO AKAMA, TSUGUKI TOUMA,
          TAKESHI YOSHIKAWA, YASUHIRO IKABATA, HIROMI NAKAI
     UNIVERSITY OF NEBRASKA:
          PEIFENG SU, DEJUN SI, NANDUN THELLAMUREGE, YALI WANG, HUI LI
     UNIVERSITY OF ZURICH:
          ROBERTO PEVERATI, KIM BALDRIDGE
     N. COPERNICUS UNIVERSITY AND JACKSON STATE UNIVERSITY:
          MARIA BARYSZ

 EXECUTION OF GAMESS BEGUN Thu Feb 26 00:13:49 2015

            ECHO OF THE FIRST FEW INPUT CARDS -
 INPUT CARD> $BASIS GBASIS=PC1 $END                                                         
 INPUT CARD> $CONTRL COORD=ZMT ISPHER=1 RUNTYP=ENERGY DFTTYP=PBE $END                       
 INPUT CARD>                                                                                
 INPUT CARD> $DATA                                                                          
 INPUT CARD>Title                                                                           
 INPUT CARD>Cnv 2                                                                           
 INPUT CARD>                                                                                
 INPUT CARD>S                                                                               
 INPUT CARD>O 1 1.30                                                                        
 INPUT CARD>O 1 1.30 2 90.0                                                                 
 INPUT CARD> $END                                                                           
    1000000 WORDS OF MEMORY AVAILABLE

     BASIS OPTIONS
     -------------
     GBASIS=PC1          IGAUSS=       0      POLAR=NONE    
     NDFUNC=       0     NFFUNC=       0     DIFFSP=       F
     NPFUNC=       0      DIFFS=       F     BASNAM=        


     RUN TITLE
     ---------
 Title                                                                           

 THE POINT GROUP OF THE MOLECULE IS CNV     
 THE ORDER OF THE PRINCIPAL AXIS IS     2

 YOUR FULLY SUBSTITUTED Z-MATRIX IS
 S   
 O      1   1.3000000
 O      1   1.3000000  2   90.0000

 THE MOMENTS OF INERTIA ARE (AMU-ANGSTROM**2)
 IXX=    13.512   IYY=    27.031   IZZ=    40.543

 ATOM      ATOMIC                      COORDINATES (BOHR)
           CHARGE         X                   Y                   Z
 S          16.0     0.0000000000        0.0000000000       -0.8687957711
 O           8.0    -1.7371094787        0.0000000000        0.8683137076
 O           8.0     1.7371094787        0.0000000000        0.8683137076

          INTERNUCLEAR DISTANCES (ANGS.)
          ------------------------------

                1 S          2 O          3 O     

   1 S       0.0000000    1.3000000 *  1.3000000 *
   2 O       1.3000000 *  0.0000000    1.8384776 *
   3 O       1.3000000 *  1.8384776 *  0.0000000  

  * ... LESS THAN  3.000


     ATOMIC BASIS SET
     ----------------
 THE CONTRACTED PRIMITIVE FUNCTIONS HAVE BEEN UNNORMALIZED
 THE CONTRACTED BASIS FUNCTIONS ARE NOW NORMALIZED TO UNITY

  SHELL TYPE  PRIMITIVE        EXPONENT          CONTRACTION COEFFICIENT(S)

 S         

      1   S       1         55510.0000000    0.000587229760
      1   S       2          8326.7000000    0.004532413947
      1   S       3          1895.6000000    0.023265261648
      1   S       4           536.7700000    0.089696133027
      1   S       5           174.6700000    0.254098332277
      1   S       6            62.5780000    0.438665087637
      1   S       7            23.5730000    0.314547135094
      1   S       8             5.8908000    0.032727897102

      2   S       9          8326.7000000   -0.000019755715
      2   S      10          1895.6000000   -0.000043822381
      2   S      11           536.7700000   -0.001730264906
      2   S      12           174.6700000   -0.009381263460
      2   S      13            62.5780000   -0.064050766303
      2   S      14            23.5730000   -0.082478179196
      2   S      15             5.8908000    0.478342956889
      2   S      16             2.1852000    0.626896670208

      3   S      17          1895.6000000    0.000016227260
      3   S      18           536.7700000    0.000191135619
      3   S      19           174.6700000    0.001952069674
      3   S      20            62.5780000    0.010578701087
      3   S      21            23.5730000    0.022164934551
      3   S      22             5.8908000   -0.184968323118
      3   S      23             2.1852000   -0.480920750976
      3   S      24             0.4528200    1.243822243872

      4   S      25             0.1620200    1.000000000000

      5   P      26           395.4500000    0.004642761329
      5   P      27            92.8340000    0.036023396489
      5   P      28            29.2660000    0.149058869978
      5   P      29            10.5950000    0.360033266263
      5   P      30             4.0272000    0.455756476221
      5   P      31             1.5484000    0.206167664178

      6   P      32            92.8340000    0.000169901442
      6   P      33            29.2660000   -0.002541839934
      6   P      34            10.5950000   -0.007867614595
      6   P      35             4.0272000   -0.037231009184
      6   P      36             1.5484000    0.161417246830
      6   P      37             0.4613400    0.902230419976

      7   P      38             0.1313100    1.000000000000

      8   D      39             0.5500000    1.000000000000

 O         

     15   S      40          2306.7000000    0.005424388755
     15   S      41           347.1500000    0.040474749465
     15   S      42            78.8900000    0.180219634554
     15   S      43            21.8760000    0.462370311787
     15   S      44             6.6646000    0.454888396263

     16   S      45           347.1500000   -0.000655003786
     16   S      46            78.8900000   -0.005362052952
     16   S      47            21.8760000   -0.074902158894
     16   S      48             6.6646000   -0.181442579655
     16   S      49             1.0669000    1.102006874042

     17   S      50             0.3070000    1.000000000000

     18   P      51            17.0220000    0.068979967443
     18   P      52             3.6838000    0.351985516325
     18   P      53             0.9923400    0.724036547822

     19   P      54             0.2448700    1.000000000000

     20   D      55             1.0000000    1.000000000000

 TOTAL NUMBER OF BASIS SET SHELLS             =   20
 NUMBER OF CARTESIAN GAUSSIAN BASIS FUNCTIONS =   49
 NOTE: THIS RUN WILL RESTRICT THE MO VARIATION SPACE TO SPHERICAL HARMONICS.
 THE NUMBER OF ORBITALS KEPT IN THE VARIATIONAL SPACE WILL BE PRINTED LATER.
 NUMBER OF ELECTRONS                          =   32
 CHARGE OF MOLECULE                           =    0
 SPIN MULTIPLICITY                            =    1
 NUMBER OF OCCUPIED ORBITALS (ALPHA)          =   16
 NUMBER OF OCCUPIED ORBITALS (BETA )          =   16
 TOTAL NUMBER OF ATOMS                        =    3
 THE NUCLEAR REPULSION ENERGY IS      122.6286187494

     LEBEDEV GRID-BASED DFT OPTIONS
     ------------------------------
     DFTTYP=PBE     
     NRAD  =      96     NLEB  =     302
     NRAD0 =      24     NLEB0 =     110
     SWOFF =    5.00E-03 (PURE SCF -> DFT)
     SWITCH=    3.00E-04 (COARSE -> TIGHT GRID)
     THRESH=    0.00E+00 GTHRE=    1.00E+00

 GRIMME'S EMPIRICAL DISPERSION CORRECTION= F

     $CONTRL OPTIONS
     ---------------
 SCFTYP=RHF          RUNTYP=ENERGY       EXETYP=RUN     
 MPLEVL=       0     CITYP =NONE         CCTYP =NONE         VBTYP =NONE    
 DFTTYP=PBE          TDDFT =NONE    
 MULT  =       1     ICHARG=       0     NZVAR =       0     COORD =ZMT     
 PP    =NONE         RELWFN=NONE         LOCAL =NONE         NUMGRD=       F
 ISPHER=       1     NOSYM =       0     MAXIT =      30     UNITS =ANGS    
 PLTORB=       F     MOLPLT=       F     AIMPAC=       F     FRIEND=        
 NPRINT=       7     IREST =       0     GEOM  =INPUT   
 NORMF =       0     NORMP =       0     ITOL  =      20     ICUT  =       9
 INTTYP=BEST         GRDTYP=BEST         QMTTOL= 1.0E-06

     $SYSTEM OPTIONS
     ---------------
  REPLICATED MEMORY=     1000000 WORDS (ON EVERY NODE).
 DISTRIBUTED MEMDDI=           0 MILLION WORDS IN AGGREGATE,
 MEMDDI DISTRIBUTED OVER   1 PROCESSORS IS           0 WORDS/PROCESSOR.
 TOTAL MEMORY REQUESTED ON EACH PROCESSOR=     1000000 WORDS.
 TIMLIM=      525600.00 MINUTES, OR     365.0 DAYS.
 PARALL= F  BALTYP=  DLB     KDIAG=    0  COREFL= F
 MXSEQ2=     300 MXSEQ3=     150

          ----------------
          PROPERTIES INPUT
          ----------------

     MOMENTS            FIELD           POTENTIAL          DENSITY
 IEMOM =       1   IEFLD =       0   IEPOT =       0   IEDEN =       0
 WHERE =COMASS     WHERE =NUCLEI     WHERE =NUCLEI     WHERE =NUCLEI  
 OUTPUT=BOTH       OUTPUT=BOTH       OUTPUT=BOTH       OUTPUT=BOTH    
 IEMINT=       0   IEFINT=       0                     IEDINT=       0
                                                       MORB  =       0
          EXTRAPOLATION IN EFFECT
          DIIS IN EFFECT
 ORBITAL PRINTING OPTION: NPREO=     1    49     2     1

     -------------------------------
     INTEGRAL TRANSFORMATION OPTIONS
     -------------------------------
     NWORD  =            0
     CUTOFF = 1.0E-09     MPTRAN =       0
     DIRTRF =       F     AOINTS =DUP     

          ----------------------
          INTEGRAL INPUT OPTIONS
          ----------------------
 NOPK  =       1 NORDER=       0 SCHWRZ=       F

   --- ENCODED Z MATRIX ---
 COORD  TYPE   I   J   K   L   M   N
    1      1    3   1
    2      1    2   1
    3      2    2   1   3

 THE DETERMINANT OF THE G MATRIX IS 10**(    -4)

 THE DETERMINANT OF THE G MATRIX IS 10**(    -4)
 * * * WARNING * * *
 YOUR B MATRIX HAS A SMALL DETERMINANT.
 THIS SUGGESTS YOU MAY HAVE BADLY CHOSEN COORDINATES.

     ------------------------------------------
     THE POINT GROUP IS CNV, NAXIS= 2, ORDER= 4
     ------------------------------------------

 -- VARIATIONAL SPACE WILL BE RESTRICTED TO PURE SPHERICAL HARMONICS ONLY --
 AFTER EXCLUDING CONTAMINANT COMBINATIONS FROM THE CARTESIAN GAUSSIAN BASIS
 SET, THE NUMBER OF SPHERICAL HARMONICS KEPT IN THE VARIATION SPACE IS   46

     DIMENSIONS OF THE SYMMETRY SUBSPACES ARE
 A1  =   19     A2  =    5     B1  =   14     B2  =    8

 ..... DONE SETTING UP THE RUN .....
 STEP CPU TIME =     0.01 TOTAL CPU TIME =        0.0 (    0.0 MIN)
 TOTAL WALL CLOCK TIME=        0.0 SECONDS, CPU UTILIZATION IS  50.00%

          ********************
          1 ELECTRON INTEGRALS
          ********************
 ...... END OF ONE-ELECTRON INTEGRALS ......
 STEP CPU TIME =     0.00 TOTAL CPU TIME =        0.0 (    0.0 MIN)
 TOTAL WALL CLOCK TIME=        0.0 SECONDS, CPU UTILIZATION IS  50.00%

          -------------
          GUESS OPTIONS
          -------------
          GUESS =HUCKEL            NORB  =       0          NORDER=       0
          MIX   =       F          PRTMO =       F          PUNMO =       F
          TOLZ  = 1.0E-08          TOLE  = 1.0E-05
          SYMDEN=       F          PURIFY=       F

 INITIAL GUESS ORBITALS GENERATED BY HUCKEL   ROUTINE.
 HUCKEL GUESS REQUIRES     21583 WORDS.

 STATISTICS FOR GENERATION OF SYMMETRY ORBITAL -Q- MATRIX
 NUMBER OF CARTESIAN ATOMIC ORBITALS=         49
 NUMBER OF SPHERICAL CONTAMINANTS DROPPED=     3
 NUMBER OF LINEARLY DEPENDENT MOS DROPPED=     0
 TOTAL NUMBER OF MOS IN VARIATION SPACE=      46

 SYMMETRIES FOR INITIAL GUESS ORBITALS FOLLOW.   BOTH SET(S).
    16 ORBITALS ARE OCCUPIED (    7 CORE ORBITALS).
     8=?A1      9=?B1     10=?A1     11=B2      12=A1      13=B1      14=A2  
    15=B1      16=A1      17=B2      18=B1      19=A1      20=A1      21=A1  
    22=A1      23=A1      24=A1      25=A1      26=A1  
 ...... END OF INITIAL ORBITAL SELECTION ......
 STEP CPU TIME =     0.01 TOTAL CPU TIME =        0.0 (    0.0 MIN)
 TOTAL WALL CLOCK TIME=        0.0 SECONDS, CPU UTILIZATION IS  66.67%

                    ----------------------
                    AO INTEGRAL TECHNOLOGY
                    ----------------------
     S,P,L SHELL ROTATED AXIS INTEGRALS, REPROGRAMMED BY
        KAZUYA ISHIMURA (IMS) AND JOSE SIERRA (SYNSTAR).
     S,P,D,L SHELL ROTATED AXIS INTEGRALS PROGRAMMED BY
        KAZUYA ISHIMURA (INSTITUTE FOR MOLECULAR SCIENCE).
     S,P,D,F,G SHELL TO TOTAL QUARTET ANGULAR MOMENTUM SUM 5,
        ERIC PROGRAM BY GRAHAM FLETCHER (ELORET AND NASA ADVANCED
        SUPERCOMPUTING DIVISION, AMES RESEARCH CENTER).
     S,P,D,F,G,L SHELL GENERAL RYS QUADRATURE PROGRAMMED BY
        MICHEL DUPUIS (PACIFIC NORTHWEST NATIONAL LABORATORY).

          --------------------
          2 ELECTRON INTEGRALS
          --------------------

 THE -PK- OPTION IS OFF, THE INTEGRALS ARE NOT IN SUPERMATRIX FORM.
 STORING   15000 INTEGRALS/RECORD ON DISK, USING 12 BYTES/INTEGRAL.
 TWO ELECTRON INTEGRAL EVALUATION REQUIRES   90606 WORDS OF MEMORY.
 II,JST,KST,LST =  1  1  1  1 NREC =         1 INTLOC =    1
 II,JST,KST,LST =  2  1  1  1 NREC =         1 INTLOC =    2
 II,JST,KST,LST =  3  1  1  1 NREC =         1 INTLOC =    7
 II,JST,KST,LST =  4  1  1  1 NREC =         1 INTLOC =   22
 II,JST,KST,LST =  5  1  1  1 NREC =         1 INTLOC =   56
 II,JST,KST,LST =  6  1  1  1 NREC =         1 INTLOC =  125
 II,JST,KST,LST =  7  1  1  1 NREC =         1 INTLOC =  329
 II,JST,KST,LST =  8  1  1  1 NREC =         1 INTLOC =  776
 II,JST,KST,LST =  9  1  1  1 NREC =         1 INTLOC = 2864
 II,JST,KST,LST = 10  1  1  1 NREC =         1 INTLOC = 2864
 II,JST,KST,LST = 11  1  1  1 NREC =         1 INTLOC = 2864
 II,JST,KST,LST = 12  1  1  1 NREC =         1 INTLOC = 2864
 II,JST,KST,LST = 13  1  1  1 NREC =         1 INTLOC = 2864
 II,JST,KST,LST = 14  1  1  1 NREC =         1 INTLOC = 2864
 II,JST,KST,LST = 15  1  1  1 NREC =         1 INTLOC = 2864
 II,JST,KST,LST = 16  1  1  1 NREC =         1 INTLOC = 5133
 II,JST,KST,LST = 17  1  1  1 NREC =         1 INTLOC = 8495
 II,JST,KST,LST = 18  1  1  1 NREC =         1 INTLOC =12970
 II,JST,KST,LST = 19  1  1  1 NREC =         3 INTLOC = 1627
 II,JST,KST,LST = 20  1  1  1 NREC =         5 INTLOC = 3178
 TOTAL NUMBER OF NONZERO TWO-ELECTRON INTEGRALS =              183761
         13 INTEGRAL RECORDS WERE STORED ON DISK FILE  8.
  ...... END OF TWO-ELECTRON INTEGRALS .....
 STEP CPU TIME =     0.17 TOTAL CPU TIME =        0.2 (    0.0 MIN)
 TOTAL WALL CLOCK TIME=        0.2 SECONDS, CPU UTILIZATION IS 100.00%

          --------------------------
               R-PBE SCF CALCULATION
          --------------------------

     NUCLEAR ENERGY =       122.6286187494
     MAXIT =   30     NPUNCH=    2
     EXTRAP=T  DAMP=F  SHIFT=F  RSTRCT=F  DIIS=T  DEM=F  SOSCF=F
         DENSITY MATRIX CONVERGENCE THRESHOLD=  1.00E-05
     COARSE -> FINE DFT GRID SWITCH THRESHOLD=  3.00E-04 (SWITCH IN $DFT)
                   HF -> DFT SWITCH THRESHOLD=  5.00E-03 (SWOFF IN $DFT)
     MEMORY REQUIRED FOR RHF ITERS=    183108 WORDS.

 DFT CODE IS SWITCHING FROM THE FINE GRID NRAD= 96,  NLEB=  302
                      TO THE COARSE GRID NRAD0= 24, NLEB0=  110

     EXCHANGE FUNCTIONAL   =PBE       
     CORRELATION FUNCTIONAL=PBE       
     DFT THRESHOLD         =.460E-07
     GRID CHANGE THRESHOLD =.300E-03
 FOR AN EULER-MACLAURIN QUADRATURE USING  96 RADIAL POINTS:
 SMALLEST GAUSSIAN PRIMITIVE EXPONENT=        0.1313100000 OF TYPE -P-
 ON ATOM NUMBER   1 HAS RADIAL NORMALIZATION=  1.000000
  LARGEST GAUSSIAN PRIMITIVE EXPONENT=    55510.0000000000 OF TYPE -S-
 ON ATOM NUMBER   1 HAS RADIAL NORMALIZATION=  0.999999
 DFT IS SWITCHED OFF, PERFORMING PURE SCF UNTIL SWOFF THRESHOLD IS REACHED.

 ITER EX DEM     TOTAL ENERGY        E CHANGE  DENSITY CHANGE    DIIS ERROR
   1  0  0     -545.8194843897  -545.8194843897   0.318933944   1.219766412
          * * *   INITIATING DIIS PROCEDURE   * * *
   2  1  0     -546.8342875535    -1.0148031638   0.342161321   0.194503563
   3  2  0     -546.9133695058    -0.0790819523   0.075318123   0.140091702
   4  3  0     -546.9530615116    -0.0396920057   0.012305731   0.016294654
   5  4  0     -546.9541656325    -0.0011041210   0.009445401   0.008875019
   6  5  0     -546.9543631915    -0.0001975589   0.004362455   0.002801418
 CONVERGED TO SWOFF, SO DFT CALCULATION IS NOW SWITCHED ON.
          * * *   INITIATING DIIS PROCEDURE   * * *
   7  6  0     -548.0136652125    -1.0593020211   0.177562084   0.091877299
   8  7  0     -548.0211445271    -0.0074793146   0.138422329   0.086722113
   9  8  0     -548.0216572328    -0.0005127057   0.048922558   0.094122568
  10  9  0     -548.0405738834    -0.0189166506   0.016181801   0.007675366
  11 10  0     -548.0408031280    -0.0002292446   0.000618305   0.000927396
  12 11  0     -548.0408049609    -0.0000018328   0.000374837   0.000212280
  13 12  0     -548.0408050893    -0.0000001285   0.000024498   0.000028086
 DFT CODE IS SWITCHING BACK TO THE FINE GRID
          * * *   INITIATING DIIS PROCEDURE   * * *
  14 13  0     -548.0554759247    -0.0146708353   0.011399246   0.010506172
  15 14  0     -548.0557644806    -0.0002885560   0.005722255   0.003409084
  16 15  0     -548.0557308959     0.0000335847   0.003245022   0.005425560
  17 16  0     -548.0557874977    -0.0000566018   0.000355294   0.000582033
  18 17  0     -548.0557883277    -0.0000008300   0.000093173   0.000053290
  19 18  0     -548.0557883397    -0.0000000120   0.000023449   0.000008691
  20 19  0     -548.0557883399    -0.0000000002   0.000002906   0.000001508
  21 20  0     -548.0557883399     0.0000000000   0.000000083   0.000000081

          -----------------
          DENSITY CONVERGED
          -----------------
     TIME TO FORM FOCK OPERATORS=       4.6 SECONDS (       0.2 SEC/ITER)
     TIME TO SOLVE SCF EQUATIONS=       0.0 SECONDS (       0.0 SEC/ITER)

 FINAL R-PBE ENERGY IS     -548.0557883399 AFTER  21 ITERATIONS
 DFT EXCHANGE + CORRELATION ENERGY =       -42.8628429775
 TOTAL ELECTRON NUMBER             =        31.9999896916

          ------------
          EIGENVECTORS
          ------------

                      1          2          3          4          5
                  -88.1848   -18.7411   -18.7411    -7.8273    -5.8460
                     A1         A1         B1         A1         B2  
    1  S  1  S    1.002984  -0.000092   0.000000  -0.273904   0.000000
    2  S  1  S   -0.010199   0.000103   0.000000   1.039575   0.000000
    3  S  1  S    0.002006  -0.000996   0.000000   0.042897   0.000000
    4  S  1  S   -0.000624   0.011286   0.000000  -0.010817   0.000000
    5  S  1  X    0.000000   0.000000  -0.000214   0.000000   0.000000
    6  S  1  Y    0.000000   0.000000   0.000000   0.000000   0.996457
    7  S  1  Z    0.000024   0.000160   0.000000   0.010355   0.000000
    8  S  1  X    0.000000   0.000000  -0.000604   0.000000   0.000000
    9  S  1  Y    0.000000   0.000000   0.000000   0.000000   0.010228
   10  S  1  Z    0.000311   0.000717   0.000000   0.002938   0.000000
   11  S  1  X    0.000000   0.000000  -0.003086   0.000000   0.000000
   12  S  1  Y    0.000000   0.000000   0.000000   0.000000  -0.000511
   13  S  1  Z   -0.000005   0.005003   0.000000  -0.000482   0.000000
   14  S  1 XX    0.000063   0.000322   0.000000   0.000529   0.000000
   15  S  1 YY   -0.000116   0.000075   0.000000  -0.000882   0.000000
   16  S  1 ZZ    0.000053  -0.000397   0.000000   0.000353   0.000000
   17  S  1 XY    0.000000   0.000000   0.000000   0.000000   0.000000
   18  S  1 XZ    0.000000   0.000000   0.001070   0.000000   0.000000
   19  S  1 YZ    0.000000   0.000000   0.000000   0.000000   0.000817
   20  O  2  S    0.000013   0.703195   0.703236  -0.000521   0.000000
   21  O  2  S   -0.000012   0.026391   0.026700  -0.000191   0.000000
   22  O  2  S   -0.000200  -0.014236  -0.012777  -0.000514   0.000000
   23  O  2  X   -0.000087   0.000999   0.001033  -0.000051   0.000000
   24  O  2  Y    0.000000   0.000000   0.000000   0.000000   0.000272
   25  O  2  Z    0.000083  -0.000947  -0.001199  -0.000014   0.000000
   26  O  2  X   -0.000167  -0.002138  -0.003018  -0.001268   0.000000
   27  O  2  Y    0.000000   0.000000   0.000000   0.000000  -0.000150
   28  O  2  Z    0.000187   0.002395   0.001863   0.001460   0.000000
   29  O  2 XX   -0.000040   0.000440  -0.000606   0.000007   0.000000
   30  O  2 YY    0.000072  -0.000168   0.000378  -0.000161   0.000000
   31  O  2 ZZ   -0.000032  -0.000272   0.000229   0.000155   0.000000
   32  O  2 XY    0.000000   0.000000   0.000000   0.000000   0.000167
   33  O  2 XZ    0.000122   0.000216  -0.000090  -0.000336   0.000000
   34  O  2 YZ    0.000000   0.000000   0.000000   0.000000  -0.000212
   35  O  3  S    0.000013   0.703195  -0.703236  -0.000521   0.000000
   36  O  3  S   -0.000012   0.026391  -0.026700  -0.000191   0.000000
   37  O  3  S   -0.000200  -0.014236   0.012777  -0.000514   0.000000
   38  O  3  X    0.000087  -0.000999   0.001033   0.000051   0.000000
   39  O  3  Y    0.000000   0.000000   0.000000   0.000000   0.000272
   40  O  3  Z    0.000083  -0.000947   0.001199  -0.000014   0.000000
   41  O  3  X    0.000167   0.002138  -0.003018   0.001268   0.000000
   42  O  3  Y    0.000000   0.000000   0.000000   0.000000  -0.000150
   43  O  3  Z    0.000187   0.002395  -0.001863   0.001460   0.000000
   44  O  3 XX   -0.000040   0.000440   0.000606   0.000007   0.000000
   45  O  3 YY    0.000072  -0.000168  -0.000378  -0.000161   0.000000
   46  O  3 ZZ   -0.000032  -0.000272  -0.000229   0.000155   0.000000
   47  O  3 XY    0.000000   0.000000   0.000000   0.000000  -0.000167
   48  O  3 XZ   -0.000122  -0.000216  -0.000090   0.000336   0.000000
   49  O  3 YZ    0.000000   0.000000   0.000000   0.000000  -0.000212

                      6          7          8          9         10
                   -5.8458    -5.8407    -1.1638    -0.9616    -0.5720
                     B1         A1         A1         B1         A1  
    1  S  1  S    0.000000   0.003173   0.054351   0.000000   0.062468
    2  S  1  S    0.000000  -0.012014  -0.159089   0.000000  -0.176442
    3  S  1  S    0.000000   0.000582   0.305389   0.000000   0.394344
    4  S  1  S    0.000000   0.000537   0.097092   0.000000   0.410246
    5  S  1  X    0.995895   0.000000   0.000000   0.158673   0.000000
    6  S  1  Y    0.000000   0.000000   0.000000   0.000000   0.000000
    7  S  1  Z    0.000000   0.995927  -0.108916   0.000000   0.119985
    8  S  1  X    0.011247   0.000000   0.000000  -0.297776   0.000000
    9  S  1  Y    0.000000   0.000000   0.000000   0.000000   0.000000
   10  S  1  Z    0.000000   0.010890   0.186878   0.000000  -0.258202
   11  S  1  X   -0.000232   0.000000   0.000000  -0.030757   0.000000
   12  S  1  Y    0.000000   0.000000   0.000000   0.000000   0.000000
   13  S  1  Z    0.000000  -0.000194  -0.004340   0.000000  -0.123495
   14  S  1 XX    0.000000  -0.000469   0.013067   0.000000   0.027998
   15  S  1 YY    0.000000  -0.000900  -0.042346   0.000000   0.027571
   16  S  1 ZZ    0.000000   0.001369   0.029279   0.000000  -0.055568
   17  S  1 XY    0.000000   0.000000   0.000000   0.000000   0.000000
   18  S  1 XZ    0.001801   0.000000   0.000000  -0.113530   0.000000
   19  S  1 YZ    0.000000   0.000000   0.000000   0.000000   0.000000
   20  O  2  S    0.000937  -0.000918  -0.120544  -0.147584   0.074310
   21  O  2  S   -0.000993   0.001123   0.230655   0.286181  -0.146534
   22  O  2  S    0.000517  -0.000305   0.218210   0.306716  -0.249470
   23  O  2  X   -0.001006   0.001329   0.113848   0.063726  -0.012095
   24  O  2  Y    0.000000   0.000000   0.000000   0.000000   0.000000
   25  O  2  Z    0.001286  -0.001164  -0.091756  -0.116497  -0.172966
   26  O  2  X    0.000226  -0.000326   0.026261   0.016166  -0.011118
   27  O  2  Y    0.000000   0.000000   0.000000   0.000000   0.000000
   28  O  2  Z   -0.000324   0.000012  -0.023172  -0.026213  -0.078463
   29  O  2 XX   -0.000075   0.000243   0.003529  -0.000177  -0.007585
   30  O  2 YY    0.000512  -0.000452  -0.007676  -0.005395  -0.003456
   31  O  2 ZZ   -0.000437   0.000209   0.004147   0.005572   0.011041
   32  O  2 XY    0.000000   0.000000   0.000000   0.000000   0.000000
   33  O  2 XZ    0.000800  -0.000844  -0.015016  -0.012390  -0.008296
   34  O  2 YZ    0.000000   0.000000   0.000000   0.000000   0.000000
   35  O  3  S   -0.000937  -0.000918  -0.120544   0.147584   0.074310
   36  O  3  S    0.000993   0.001123   0.230655  -0.286181  -0.146534
   37  O  3  S   -0.000517  -0.000305   0.218210  -0.306716  -0.249470
   38  O  3  X   -0.001006  -0.001329  -0.113848   0.063726   0.012095
   39  O  3  Y    0.000000   0.000000   0.000000   0.000000   0.000000
   40  O  3  Z   -0.001286  -0.001164  -0.091756   0.116497  -0.172966
   41  O  3  X    0.000226   0.000326  -0.026261   0.016166   0.011118
   42  O  3  Y    0.000000   0.000000   0.000000   0.000000   0.000000
   43  O  3  Z    0.000324   0.000012  -0.023172   0.026213  -0.078463
   44  O  3 XX    0.000075   0.000243   0.003529   0.000177  -0.007585
   45  O  3 YY   -0.000512  -0.000452  -0.007676   0.005395  -0.003456
   46  O  3 ZZ    0.000437   0.000209   0.004147  -0.005572   0.011041
   47  O  3 XY    0.000000   0.000000   0.000000   0.000000   0.000000
   48  O  3 XZ    0.000800   0.000844   0.015016  -0.012390   0.008296
   49  O  3 YZ    0.000000   0.000000   0.000000   0.000000   0.000000

                     11         12         13         14         15
                   -0.4988    -0.4524    -0.4140    -0.3184    -0.3116
                     B2         A1         B1         A1         A2  
    1  S  1  S    0.000000   0.011601   0.000000   0.016455   0.000000
    2  S  1  S    0.000000  -0.001058   0.000000  -0.084430   0.000000
    3  S  1  S    0.000000   0.114274   0.000000   0.061671   0.000000
    4  S  1  S    0.000000  -0.178144   0.000000   0.513389   0.000000
    5  S  1  X    0.000000   0.000000  -0.165662   0.000000   0.000000
    6  S  1  Y   -0.205680   0.000000   0.000000   0.000000   0.000000
    7  S  1  Z    0.000000  -0.138094   0.000000   0.141260   0.000000
    8  S  1  X    0.000000   0.000000   0.385184   0.000000   0.000000
    9  S  1  Y    0.471000   0.000000   0.000000   0.000000   0.000000
   10  S  1  Z    0.000000   0.315259   0.000000  -0.321103   0.000000
   11  S  1  X    0.000000   0.000000   0.074038   0.000000   0.000000
   12  S  1  Y    0.191068   0.000000   0.000000   0.000000   0.000000
   13  S  1  Z    0.000000   0.033859   0.000000  -0.141523   0.000000
   14  S  1 XX    0.000000  -0.080898   0.000000  -0.140541   0.000000
   15  S  1 YY    0.000000  -0.006584   0.000000   0.049605   0.000000
   16  S  1 ZZ    0.000000   0.087482   0.000000   0.090936   0.000000
   17  S  1 XY    0.000000   0.000000   0.000000   0.000000  -0.150205
   18  S  1 XZ    0.000000   0.000000   0.040926   0.000000   0.000000
   19  S  1 YZ    0.085200   0.000000   0.000000   0.000000   0.000000
   20  O  2  S    0.000000   0.069069  -0.072787   0.001783   0.000000
   21  O  2  S    0.000000  -0.143572   0.147939  -0.009800   0.000000
   22  O  2  S    0.000000  -0.250555   0.302138  -0.022460   0.000000
   23  O  2  X    0.000000   0.365729  -0.161834   0.079976   0.000000
   24  O  2  Y    0.312232   0.000000   0.000000   0.000000   0.470374
   25  O  2  Z    0.000000  -0.015188   0.337048   0.387032   0.000000
   26  O  2  X    0.000000   0.204906  -0.092625   0.065797   0.000000
   27  O  2  Y    0.165716   0.000000   0.000000   0.000000   0.335651
   28  O  2  Z    0.000000  -0.010240   0.180093   0.278017   0.000000
   29  O  2 XX    0.000000   0.020590   0.003528   0.011354   0.000000
   30  O  2 YY    0.000000  -0.008962   0.011133   0.005310   0.000000
   31  O  2 ZZ    0.000000  -0.011628  -0.014660  -0.016664   0.000000
   32  O  2 XY    0.019544   0.000000   0.000000   0.000000   0.015910
   33  O  2 XZ    0.000000  -0.011502   0.012667   0.013861   0.000000
   34  O  2 YZ   -0.017648   0.000000   0.000000   0.000000  -0.022140
   35  O  3  S    0.000000   0.069069   0.072787   0.001783   0.000000
   36  O  3  S    0.000000  -0.143572  -0.147939  -0.009800   0.000000
   37  O  3  S    0.000000  -0.250555  -0.302138  -0.022460   0.000000
   38  O  3  X    0.000000  -0.365729  -0.161834  -0.079976   0.000000
   39  O  3  Y    0.312232   0.000000   0.000000   0.000000  -0.470374
   40  O  3  Z    0.000000  -0.015188  -0.337048   0.387032   0.000000
   41  O  3  X    0.000000  -0.204906  -0.092625  -0.065797   0.000000
   42  O  3  Y    0.165716   0.000000   0.000000   0.000000  -0.335651
   43  O  3  Z    0.000000  -0.010240  -0.180093   0.278017   0.000000
   44  O  3 XX    0.000000   0.020590  -0.003528   0.011354   0.000000
   45  O  3 YY    0.000000  -0.008962  -0.011133   0.005310   0.000000
   46  O  3 ZZ    0.000000  -0.011628   0.014660  -0.016664   0.000000
   47  O  3 XY   -0.019544   0.000000   0.000000   0.000000   0.015910
   48  O  3 XZ    0.000000   0.011502   0.012667  -0.013861   0.000000
   49  O  3 YZ   -0.017648   0.000000   0.000000   0.000000   0.022140

                     16         17         18         19         20
                   -0.2275    -0.1355     0.0134     0.1001     0.3289
                     B1         B2         B1         A1         B2  
    1  S  1  S    0.000000   0.000000   0.000000   0.013311   0.000000
    2  S  1  S    0.000000   0.000000   0.000000  -0.158479   0.000000
    3  S  1  S    0.000000   0.000000   0.000000  -0.053308   0.000000
    4  S  1  S    0.000000   0.000000   0.000000   1.524111   0.000000
    5  S  1  X   -0.011282   0.000000  -0.138814   0.000000   0.000000
    6  S  1  Y    0.000000  -0.203727   0.000000   0.000000   0.291905
    7  S  1  Z    0.000000   0.000000   0.000000  -0.051060   0.000000
    8  S  1  X    0.026807   0.000000   0.352876   0.000000   0.000000
    9  S  1  Y    0.000000   0.522946   0.000000   0.000000  -1.111087
   10  S  1  Z    0.000000   0.000000   0.000000   0.147378   0.000000
   11  S  1  X    0.217280   0.000000   1.053498   0.000000   0.000000
   12  S  1  Y    0.000000   0.617899   0.000000   0.000000   1.206332
   13  S  1  Z    0.000000   0.000000   0.000000   1.440948   0.000000
   14  S  1 XX    0.000000   0.000000   0.000000  -0.090072   0.000000
   15  S  1 YY    0.000000   0.000000   0.000000   0.285340   0.000000
   16  S  1 ZZ    0.000000   0.000000   0.000000  -0.195268   0.000000
   17  S  1 XY    0.000000   0.000000   0.000000   0.000000   0.000000
   18  S  1 XZ   -0.137704   0.000000  -0.250942   0.000000   0.000000
   19  S  1 YZ    0.000000  -0.146360   0.000000   0.000000  -0.152468
   20  O  2  S   -0.021605   0.000000  -0.037622   0.064687   0.000000
   21  O  2  S    0.046925   0.000000   0.047864  -0.063029   0.000000
   22  O  2  S    0.129161   0.000000   0.419789  -0.958221   0.000000
   23  O  2  X    0.469030   0.000000  -0.101969  -0.108899   0.000000
   24  O  2  Y    0.000000  -0.335333   0.000000   0.000000   0.029637
   25  O  2  Z    0.151741   0.000000  -0.292354   0.077308   0.000000
   26  O  2  X    0.323358   0.000000  -0.154782  -0.303329   0.000000
   27  O  2  Y    0.000000  -0.354034   0.000000   0.000000  -0.060704
   28  O  2  Z    0.126452   0.000000  -0.315244   0.111406   0.000000
   29  O  2 XX    0.019340   0.000000  -0.003052  -0.012682   0.000000
   30  O  2 YY   -0.000396   0.000000   0.001375   0.018841   0.000000
   31  O  2 ZZ   -0.018944   0.000000   0.001677  -0.006159   0.000000
   32  O  2 XY    0.000000  -0.007356   0.000000   0.000000  -0.030966
   33  O  2 XZ   -0.016325   0.000000  -0.000335  -0.001210   0.000000
   34  O  2 YZ    0.000000  -0.000732   0.000000   0.000000   0.022640
   35  O  3  S    0.021605   0.000000   0.037622   0.064687   0.000000
   36  O  3  S   -0.046925   0.000000  -0.047864  -0.063029   0.000000
   37  O  3  S   -0.129161   0.000000  -0.419789  -0.958221   0.000000
   38  O  3  X    0.469030   0.000000  -0.101969   0.108899   0.000000
   39  O  3  Y    0.000000  -0.335333   0.000000   0.000000   0.029637
   40  O  3  Z   -0.151741   0.000000   0.292354   0.077308   0.000000
   41  O  3  X    0.323358   0.000000  -0.154782   0.303329   0.000000
   42  O  3  Y    0.000000  -0.354034   0.000000   0.000000  -0.060704
   43  O  3  Z   -0.126452   0.000000   0.315244   0.111406   0.000000
   44  O  3 XX   -0.019340   0.000000   0.003052  -0.012682   0.000000
   45  O  3 YY    0.000396   0.000000  -0.001375   0.018841   0.000000
   46  O  3 ZZ    0.018944   0.000000  -0.001677  -0.006159   0.000000
   47  O  3 XY    0.000000   0.007356   0.000000   0.000000   0.030966
   48  O  3 XZ   -0.016325   0.000000  -0.000335   0.001210   0.000000
   49  O  3 YZ    0.000000  -0.000732   0.000000   0.000000   0.022640

                     21         22         23         24         25
                    0.3844     0.4227     0.4952     0.5909     0.6200
                     A1         B1         A1         A2         B2  
    1  S  1  S   -0.076594   0.000000  -0.074127   0.000000   0.000000
    2  S  1  S   -0.253974   0.000000  -0.242522   0.000000   0.000000
    3  S  1  S   -1.151609   0.000000  -1.102390   0.000000   0.000000
    4  S  1  S    1.511324   0.000000   2.230212   0.000000   0.000000
    5  S  1  X    0.000000   0.248907   0.000000   0.000000   0.000000
    6  S  1  Y    0.000000   0.000000   0.000000   0.000000   0.032223
    7  S  1  Z   -0.226738   0.000000   0.100674   0.000000   0.000000
    8  S  1  X    0.000000  -0.839220   0.000000   0.000000   0.000000
    9  S  1  Y    0.000000   0.000000   0.000000   0.000000  -0.163954
   10  S  1  Z    0.880629   0.000000  -0.248740   0.000000   0.000000
   11  S  1  X    0.000000   1.377236   0.000000   0.000000   0.000000
   12  S  1  Y    0.000000   0.000000   0.000000   0.000000   0.356765
   13  S  1  Z   -0.637705   0.000000   0.940398   0.000000   0.000000
   14  S  1 XX   -0.201656   0.000000   0.451018   0.000000   0.000000
   15  S  1 YY    0.271599   0.000000  -0.597690   0.000000   0.000000
   16  S  1 ZZ   -0.069943   0.000000   0.146672   0.000000   0.000000
   17  S  1 XY    0.000000   0.000000   0.000000   0.982629   0.000000
   18  S  1 XZ    0.000000   0.513654   0.000000   0.000000   0.000000
   19  S  1 YZ    0.000000   0.000000   0.000000   0.000000   0.937941
   20  O  2  S    0.013049  -0.016533   0.025645   0.000000   0.000000
   21  O  2  S   -0.060502  -0.055061  -0.013559   0.000000   0.000000
   22  O  2  S   -0.112903   0.665290  -0.842992   0.000000   0.000000
   23  O  2  X   -0.019267  -0.207384   0.230241   0.000000   0.000000
   24  O  2  Y    0.000000   0.000000   0.000000   0.299123  -0.362073
   25  O  2  Z   -0.006160   0.140477  -0.235519   0.000000   0.000000
   26  O  2  X   -0.099927   0.172544  -0.233602   0.000000   0.000000
   27  O  2  Y    0.000000   0.000000   0.000000   0.074653  -0.045928
   28  O  2  Z    0.086506  -0.204000   0.322226   0.000000   0.000000
   29  O  2 XX    0.011974  -0.008117  -0.030355   0.000000   0.000000
   30  O  2 YY    0.015449  -0.032345   0.019100   0.000000   0.000000
   31  O  2 ZZ   -0.027423   0.040462   0.011255   0.000000   0.000000
   32  O  2 XY    0.000000   0.000000   0.000000  -0.001026   0.049528
   33  O  2 XZ    0.003590  -0.041068   0.065617   0.000000   0.000000
   34  O  2 YZ    0.000000   0.000000   0.000000   0.049271   0.003112
   35  O  3  S    0.013049   0.016533   0.025645   0.000000   0.000000
   36  O  3  S   -0.060502   0.055061  -0.013559   0.000000   0.000000
   37  O  3  S   -0.112903  -0.665290  -0.842992   0.000000   0.000000
   38  O  3  X    0.019267  -0.207384  -0.230241   0.000000   0.000000
   39  O  3  Y    0.000000   0.000000   0.000000  -0.299123  -0.362073
   40  O  3  Z   -0.006160  -0.140477  -0.235519   0.000000   0.000000
   41  O  3  X    0.099927   0.172544   0.233602   0.000000   0.000000
   42  O  3  Y    0.000000   0.000000   0.000000  -0.074653  -0.045928
   43  O  3  Z    0.086506   0.204000   0.322226   0.000000   0.000000
   44  O  3 XX    0.011974   0.008117  -0.030355   0.000000   0.000000
   45  O  3 YY    0.015449   0.032345   0.019100   0.000000   0.000000
   46  O  3 ZZ   -0.027423  -0.040462   0.011255   0.000000   0.000000
   47  O  3 XY    0.000000   0.000000   0.000000  -0.001026  -0.049528
   48  O  3 XZ   -0.003590  -0.041068  -0.065617   0.000000   0.000000
   49  O  3 YZ    0.000000   0.000000   0.000000  -0.049271   0.003112

                     26         27         28         29         30
                    0.6309     0.6541     0.6948     0.7827     0.8020
                     A1         B1         A1         A1         B2  
    1  S  1  S    0.054074   0.000000   0.038689   0.006976   0.000000
    2  S  1  S    0.229394   0.000000   0.167143  -0.013376   0.000000
    3  S  1  S    0.891008   0.000000   0.635991   0.060777   0.000000
    4  S  1  S    0.744687   0.000000  -0.123971   0.213091   0.000000
    5  S  1  X    0.000000  -0.191281   0.000000   0.000000   0.000000
    6  S  1  Y    0.000000   0.000000   0.000000   0.000000  -0.029788
    7  S  1  Z   -0.143507   0.000000  -0.129026  -0.039999   0.000000
    8  S  1  X    0.000000   1.059914   0.000000   0.000000   0.000000
    9  S  1  Y    0.000000   0.000000   0.000000   0.000000   0.069320
   10  S  1  Z    0.779613   0.000000   0.585925   0.202392   0.000000
   11  S  1  X    0.000000  -0.073742   0.000000   0.000000   0.000000
   12  S  1  Y    0.000000   0.000000   0.000000   0.000000  -0.818413
   13  S  1  Z    0.189495   0.000000  -0.690587   0.291301   0.000000
   14  S  1 XX   -0.256262   0.000000   0.799222   0.239218   0.000000
   15  S  1 YY   -0.298173   0.000000  -0.019920  -0.230563   0.000000
   16  S  1 ZZ    0.554435   0.000000  -0.779302  -0.008655   0.000000
   17  S  1 XY    0.000000   0.000000   0.000000   0.000000   0.000000
   18  S  1 XZ    0.000000   0.369748   0.000000   0.000000   0.000000
   19  S  1 YZ    0.000000   0.000000   0.000000   0.000000  -0.427741
   20  O  2  S    0.050471  -0.064086   0.022498   0.008090   0.000000
   21  O  2  S   -0.073853   0.105799  -0.068848  -0.064972   0.000000
   22  O  2  S   -0.596681   0.709540   0.013193  -0.118392   0.000000
   23  O  2  X    0.048128  -0.172352  -0.002422   0.413655   0.000000
   24  O  2  Y    0.000000   0.000000   0.000000   0.000000  -0.561362
   25  O  2  Z   -0.193483   0.180549   0.012642   0.526589   0.000000
   26  O  2  X   -0.771293   0.995294   0.020610  -0.499386   0.000000
   27  O  2  Y    0.000000   0.000000   0.000000   0.000000   0.956765
   28  O  2  Z    0.638461  -0.832380   0.640063  -0.390624   0.000000
   29  O  2 XX    0.041023   0.011317  -0.026415   0.015757   0.000000
   30  O  2 YY   -0.016150  -0.001961  -0.029990  -0.012989   0.000000
   31  O  2 ZZ   -0.024873  -0.009356   0.056405  -0.002768   0.000000
   32  O  2 XY    0.000000   0.000000   0.000000   0.000000  -0.014862
   33  O  2 XZ   -0.016480  -0.006385  -0.018985  -0.005515   0.000000
   34  O  2 YZ    0.000000   0.000000   0.000000   0.000000   0.035173
   35  O  3  S    0.050471   0.064086   0.022498   0.008090   0.000000
   36  O  3  S   -0.073853  -0.105799  -0.068848  -0.064972   0.000000
   37  O  3  S   -0.596681  -0.709540   0.013193  -0.118392   0.000000
   38  O  3  X   -0.048128  -0.172352   0.002422  -0.413655   0.000000
   39  O  3  Y    0.000000   0.000000   0.000000   0.000000  -0.561362
   40  O  3  Z   -0.193483  -0.180549   0.012642   0.526589   0.000000
   41  O  3  X    0.771293   0.995294  -0.020610   0.499386   0.000000
   42  O  3  Y    0.000000   0.000000   0.000000   0.000000   0.956765
   43  O  3  Z    0.638461   0.832380   0.640063  -0.390624   0.000000
   44  O  3 XX    0.041023  -0.011317  -0.026415   0.015757   0.000000
   45  O  3 YY   -0.016150   0.001961  -0.029990  -0.012989   0.000000
   46  O  3 ZZ   -0.024873   0.009356   0.056405  -0.002768   0.000000
   47  O  3 XY    0.000000   0.000000   0.000000   0.000000   0.014862
   48  O  3 XZ    0.016480  -0.006385   0.018985   0.005515   0.000000
   49  O  3 YZ    0.000000   0.000000   0.000000   0.000000   0.035173

                     31         32         33         34         35
                    0.8025     0.9320     1.1430     1.3953     1.5931
                     A2         B1         A1         B1         A1  
    1  S  1  S    0.000000   0.000000  -0.010261   0.000000  -0.014439
    2  S  1  S    0.000000   0.000000   0.224722   0.000000  -0.147706
    3  S  1  S    0.000000   0.000000   0.162134   0.000000  -0.327609
    4  S  1  S    0.000000   0.000000  -0.713604   0.000000   2.552528
    5  S  1  X    0.000000   0.022180   0.000000  -0.169168   0.000000
    6  S  1  Y    0.000000   0.000000   0.000000   0.000000   0.000000
    7  S  1  Z    0.000000   0.000000   0.163481   0.000000  -0.067724
    8  S  1  X    0.000000  -0.059892   0.000000   0.656147   0.000000
    9  S  1  Y    0.000000   0.000000   0.000000   0.000000   0.000000
   10  S  1  Z    0.000000   0.000000  -0.514794   0.000000   0.501767
   11  S  1  X    0.000000   0.943042   0.000000   0.475948   0.000000
   12  S  1  Y    0.000000   0.000000   0.000000   0.000000   0.000000
   13  S  1  Z    0.000000   0.000000  -0.286256   0.000000   1.112984
   14  S  1 XX    0.000000   0.000000  -0.380628   0.000000   0.100946
   15  S  1 YY    0.000000   0.000000   0.808674   0.000000  -0.387520
   16  S  1 ZZ    0.000000   0.000000  -0.428046   0.000000   0.286574
   17  S  1 XY    0.312426   0.000000   0.000000   0.000000   0.000000
   18  S  1 XZ    0.000000   0.120268   0.000000   1.214957   0.000000
   19  S  1 YZ    0.000000   0.000000   0.000000   0.000000   0.000000
   20  O  2  S    0.000000   0.004404  -0.040664  -0.032241   0.003093
   21  O  2  S    0.000000  -0.041539   0.325359   0.068557   1.123696
   22  O  2  S    0.000000   0.218008   0.362130   0.857223  -2.364715
   23  O  2  X    0.000000   0.433205   0.573669   0.418904  -0.123813
   24  O  2  Y   -0.584129   0.000000   0.000000   0.000000   0.000000
   25  O  2  Z    0.000000   0.428411  -0.333240  -0.527202   0.099854
   26  O  2  X    0.000000  -0.887930  -0.219634   0.046024  -0.350814
   27  O  2  Y    0.897859   0.000000   0.000000   0.000000   0.000000
   28  O  2  Z    0.000000  -0.849793   0.140248  -0.026243   0.338791
   29  O  2 XX    0.000000   0.050828  -0.091099   0.038927  -0.146731
   30  O  2 YY    0.000000  -0.024159   0.053959   0.010707   0.089734
   31  O  2 ZZ    0.000000  -0.026670   0.037140  -0.049634   0.056997
   32  O  2 XY   -0.046949   0.000000   0.000000   0.000000   0.000000
   33  O  2 XZ    0.000000   0.022211  -0.024160   0.075446  -0.220813
   34  O  2 YZ    0.024968   0.000000   0.000000   0.000000   0.000000
   35  O  3  S    0.000000  -0.004404  -0.040664   0.032241   0.003093
   36  O  3  S    0.000000   0.041539   0.325359  -0.068557   1.123696
   37  O  3  S    0.000000  -0.218008   0.362130  -0.857223  -2.364715
   38  O  3  X    0.000000   0.433205  -0.573669   0.418904   0.123813
   39  O  3  Y    0.584129   0.000000   0.000000   0.000000   0.000000
   40  O  3  Z    0.000000  -0.428411  -0.333240   0.527202   0.099854
   41  O  3  X    0.000000  -0.887930   0.219634   0.046024   0.350814
   42  O  3  Y   -0.897859   0.000000   0.000000   0.000000   0.000000
   43  O  3  Z    0.000000   0.849793   0.140248   0.026243   0.338791
   44  O  3 XX    0.000000  -0.050828  -0.091099  -0.038927  -0.146731
   45  O  3 YY    0.000000   0.024159   0.053959  -0.010707   0.089734
   46  O  3 ZZ    0.000000   0.026670   0.037140   0.049634   0.056997
   47  O  3 XY   -0.046949   0.000000   0.000000   0.000000   0.000000
   48  O  3 XZ    0.000000   0.022211   0.024160   0.075446   0.220813
   49  O  3 YZ   -0.024968   0.000000   0.000000   0.000000   0.000000

                     36         37         38         39         40
                    1.6284     2.0250     2.0673     2.0978     2.1564
                     B1         B2         A1         B1         A2  
    1  S  1  S    0.000000   0.000000  -0.009013   0.000000   0.000000
    2  S  1  S    0.000000   0.000000  -0.041196   0.000000   0.000000
    3  S  1  S    0.000000   0.000000  -0.149300   0.000000   0.000000
    4  S  1  S    0.000000   0.000000   0.967794   0.000000   0.000000
    5  S  1  X   -0.013499   0.000000   0.000000  -0.032938   0.000000
    6  S  1  Y    0.000000  -0.005226   0.000000   0.000000   0.000000
    7  S  1  Z    0.000000   0.000000   0.012980   0.000000   0.000000
    8  S  1  X    0.300345   0.000000   0.000000   0.122036   0.000000
    9  S  1  Y    0.000000   0.024817   0.000000   0.000000   0.000000
   10  S  1  Z    0.000000   0.000000   0.036740   0.000000   0.000000
   11  S  1  X    0.628615   0.000000   0.000000   0.045568   0.000000
   12  S  1  Y    0.000000   0.053545   0.000000   0.000000   0.000000
   13  S  1  Z    0.000000   0.000000   0.461423   0.000000   0.000000
   14  S  1 XX    0.000000   0.000000   0.028888   0.000000   0.000000
   15  S  1 YY    0.000000   0.000000   0.118993   0.000000   0.000000
   16  S  1 ZZ    0.000000   0.000000  -0.147881   0.000000   0.000000
   17  S  1 XY    0.000000   0.000000   0.000000   0.000000  -0.069707
   18  S  1 XZ   -0.016493   0.000000   0.000000  -0.107140   0.000000
   19  S  1 YZ    0.000000  -0.102153   0.000000   0.000000   0.000000
   20  O  2  S    0.004924   0.000000   0.001458  -0.000982   0.000000
   21  O  2  S   -1.201085   0.000000   0.502079  -0.091059   0.000000
   22  O  2  S    1.795086   0.000000  -0.903221   0.114093   0.000000
   23  O  2  X   -0.019714   0.000000   0.049261   0.010129   0.000000
   24  O  2  Y    0.000000   0.052337   0.000000   0.000000  -0.055342
   25  O  2  Z    0.044637   0.000000  -0.017494   0.015241   0.000000
   26  O  2  X    0.420480   0.000000  -0.178766  -0.003456   0.000000
   27  O  2  Y    0.000000  -0.070772   0.000000   0.000000   0.080253
   28  O  2  Z   -0.360642   0.000000   0.146128  -0.027976   0.000000
   29  O  2 XX   -0.208746   0.000000   0.433575  -0.132172   0.000000
   30  O  2 YY    0.219459   0.000000  -0.603548  -0.456029   0.000000
   31  O  2 ZZ   -0.010712   0.000000   0.169973   0.588201   0.000000
   32  O  2 XY    0.000000   0.464642   0.000000   0.000000   0.567305
   33  O  2 XZ    0.067182   0.000000   0.260185   0.359872   0.000000
   34  O  2 YZ    0.000000   0.529631   0.000000   0.000000   0.434853
   35  O  3  S   -0.004924   0.000000   0.001458   0.000982   0.000000
   36  O  3  S    1.201085   0.000000   0.502079   0.091059   0.000000
   37  O  3  S   -1.795086   0.000000  -0.903221  -0.114093   0.000000
   38  O  3  X   -0.019714   0.000000  -0.049261   0.010129   0.000000
   39  O  3  Y    0.000000   0.052337   0.000000   0.000000   0.055342
   40  O  3  Z   -0.044637   0.000000  -0.017494  -0.015241   0.000000
   41  O  3  X    0.420480   0.000000   0.178766  -0.003456   0.000000
   42  O  3  Y    0.000000  -0.070772   0.000000   0.000000  -0.080253
   43  O  3  Z    0.360642   0.000000   0.146128   0.027976   0.000000
   44  O  3 XX    0.208746   0.000000   0.433575   0.132172   0.000000
   45  O  3 YY   -0.219459   0.000000  -0.603548   0.456029   0.000000
   46  O  3 ZZ    0.010712   0.000000   0.169973  -0.588201   0.000000
   47  O  3 XY    0.000000  -0.464642   0.000000   0.000000   0.567305
   48  O  3 XZ    0.067182   0.000000  -0.260185   0.359872   0.000000
   49  O  3 YZ    0.000000   0.529631   0.000000   0.000000  -0.434853

                     41         42         43         44         45
                    2.3318     2.4470     2.5288     2.6357     2.8886
                     A2         B2         A1         B1         B1  
    1  S  1  S    0.000000   0.000000  -0.006306   0.000000   0.000000
    2  S  1  S    0.000000   0.000000  -0.065312   0.000000   0.000000
    3  S  1  S    0.000000   0.000000  -0.166413   0.000000   0.000000
    4  S  1  S    0.000000   0.000000  -0.270143   0.000000   0.000000
    5  S  1  X    0.000000   0.000000   0.000000   0.063308  -0.194968
    6  S  1  Y    0.000000   0.097382   0.000000   0.000000   0.000000
    7  S  1  Z    0.000000   0.000000  -0.063012   0.000000   0.000000
    8  S  1  X    0.000000   0.000000   0.000000  -0.151741   1.546977
    9  S  1  Y    0.000000  -0.415429   0.000000   0.000000   0.000000
   10  S  1  Z    0.000000   0.000000   0.146949   0.000000   0.000000
   11  S  1  X    0.000000   0.000000   0.000000  -0.102148   0.404991
   12  S  1  Y    0.000000  -0.171509   0.000000   0.000000   0.000000
   13  S  1  Z    0.000000   0.000000   0.038293   0.000000   0.000000
   14  S  1 XX    0.000000   0.000000  -0.675721   0.000000   0.000000
   15  S  1 YY    0.000000   0.000000   0.028030   0.000000   0.000000
   16  S  1 ZZ    0.000000   0.000000   0.647691   0.000000   0.000000
   17  S  1 XY   -0.535391   0.000000   0.000000   0.000000   0.000000
   18  S  1 XZ    0.000000   0.000000   0.000000  -0.185685   0.939031
   19  S  1 YZ    0.000000  -0.558205   0.000000   0.000000   0.000000
   20  O  2  S    0.000000   0.000000  -0.001262  -0.004743  -0.047208
   21  O  2  S    0.000000   0.000000  -0.260630  -0.488912  -0.586348
   22  O  2  S    0.000000   0.000000   0.366736   0.588845   1.918582
   23  O  2  X    0.000000   0.000000  -0.080060  -0.181025   0.184455
   24  O  2  Y    0.049859  -0.009019   0.000000   0.000000   0.000000
   25  O  2  Z    0.000000   0.000000   0.021609   0.012939  -0.199496
   26  O  2  X    0.000000   0.000000  -0.011923   0.540170   0.764688
   27  O  2  Y   -0.238317   0.252794   0.000000   0.000000   0.000000
   28  O  2  Z    0.000000   0.000000  -0.307844   0.118072  -0.708742
   29  O  2 XX    0.000000   0.000000  -0.577740   0.714541   0.209166
   30  O  2 YY    0.000000   0.000000  -0.201874  -0.335271  -0.502212
   31  O  2 ZZ    0.000000   0.000000   0.779614  -0.379270   0.293046
   32  O  2 XY   -0.470093   0.598131   0.000000   0.000000   0.000000
   33  O  2 XZ    0.000000   0.000000   0.022460   0.239382  -0.763120
   34  O  2 YZ    0.610671  -0.523583   0.000000   0.000000   0.000000
   35  O  3  S    0.000000   0.000000  -0.001262   0.004743   0.047208
   36  O  3  S    0.000000   0.000000  -0.260630   0.488912   0.586348
   37  O  3  S    0.000000   0.000000   0.366736  -0.588845  -1.918582
   38  O  3  X    0.000000   0.000000   0.080060  -0.181025   0.184455
   39  O  3  Y   -0.049859  -0.009019   0.000000   0.000000   0.000000
   40  O  3  Z    0.000000   0.000000   0.021609  -0.012939   0.199496
   41  O  3  X    0.000000   0.000000   0.011923   0.540170   0.764688
   42  O  3  Y    0.238317   0.252794   0.000000   0.000000   0.000000
   43  O  3  Z    0.000000   0.000000  -0.307844  -0.118072   0.708742
   44  O  3 XX    0.000000   0.000000  -0.577740  -0.714541  -0.209166
   45  O  3 YY    0.000000   0.000000  -0.201874   0.335271   0.502212
   46  O  3 ZZ    0.000000   0.000000   0.779614   0.379270  -0.293046
   47  O  3 XY   -0.470093  -0.598131   0.000000   0.000000   0.000000
   48  O  3 XZ    0.000000   0.000000  -0.022460   0.239382  -0.763120
   49  O  3 YZ   -0.610671  -0.523583   0.000000   0.000000   0.000000

                     46
                    3.0076
                     A1  
    1  S  1  S   -0.065963
    2  S  1  S   -0.305910
    3  S  1  S   -1.251642
    4  S  1  S   -1.255455
    5  S  1  X    0.000000
    6  S  1  Y    0.000000
    7  S  1  Z    0.165476
    8  S  1  X    0.000000
    9  S  1  Y    0.000000
   10  S  1  Z   -1.365567
   11  S  1  X    0.000000
   12  S  1  Y    0.000000
   13  S  1  Z   -0.322669
   14  S  1 XX   -0.155191
   15  S  1 YY    0.449428
   16  S  1 ZZ   -0.294237
   17  S  1 XY    0.000000
   18  S  1 XZ    0.000000
   19  S  1 YZ    0.000000
   20  O  2  S   -0.041626
   21  O  2  S   -0.503935
   22  O  2  S    1.601652
   23  O  2  X    0.144209
   24  O  2  Y    0.000000
   25  O  2  Z   -0.139241
   26  O  2  X    0.623429
   27  O  2  Y    0.000000
   28  O  2  Z   -0.601282
   29  O  2 XX    0.293298
   30  O  2 YY   -0.412291
   31  O  2 ZZ    0.118993
   32  O  2 XY    0.000000
   33  O  2 XZ   -0.809310
   34  O  2 YZ    0.000000
   35  O  3  S   -0.041626
   36  O  3  S   -0.503935
   37  O  3  S    1.601652
   38  O  3  X   -0.144209
   39  O  3  Y    0.000000
   40  O  3  Z   -0.139241
   41  O  3  X   -0.623429
   42  O  3  Y    0.000000
   43  O  3  Z   -0.601282
   44  O  3 XX    0.293298
   45  O  3 YY   -0.412291
   46  O  3 ZZ    0.118993
   47  O  3 XY    0.000000
   48  O  3 XZ    0.809310
   49  O  3 YZ    0.000000
 ...... END OF RHF CALCULATION ......
 STEP CPU TIME =     4.61 TOTAL CPU TIME =        4.8 (    0.1 MIN)
 TOTAL WALL CLOCK TIME=        4.8 SECONDS, CPU UTILIZATION IS 100.00%

     ---------------------------------------------------------------------
     PROPERTIES FOR THE PBE      DFT FUNCTIONAL (RHF  TYPE) DENSITY MATRIX
     ---------------------------------------------------------------------

          -----------------
          ENERGY COMPONENTS
          -----------------

         WAVEFUNCTION NORMALIZATION =       1.0000000000

                ONE ELECTRON ENERGY =    -999.0543289148
                TWO ELECTRON ENERGY =     328.3699218254
           NUCLEAR REPULSION ENERGY =     122.6286187494
                                      ------------------
                       TOTAL ENERGY =    -548.0557883399

 ELECTRON-ELECTRON POTENTIAL ENERGY =     328.3699218254
  NUCLEUS-ELECTRON POTENTIAL ENERGY =   -1548.5805666537
   NUCLEUS-NUCLEUS POTENTIAL ENERGY =     122.6286187494
                                      ------------------
             TOTAL POTENTIAL ENERGY =   -1097.5820260789
               TOTAL KINETIC ENERGY =     549.5262377389
                 VIRIAL RATIO (V/T) =       1.9973241507

          ---------------------------------------
          MULLIKEN AND LOWDIN POPULATION ANALYSES
          ---------------------------------------

     ATOMIC MULLIKEN POPULATION IN EACH MOLECULAR ORBITAL

                      1          2          3          4          5

                  2.000000   2.000000   2.000000   2.000000   2.000000

    1             2.000046   0.002405   0.000369   2.001986   1.999992
    2            -0.000023   0.998797   0.999815  -0.000993   0.000004
    3            -0.000023   0.998797   0.999815  -0.000993   0.000004

                      6          7          8          9         10

                  2.000000   2.000000   2.000000   2.000000   2.000000

    1             1.999637   1.999580   0.741346   0.520699   1.268205
    2             0.000181   0.000210   0.629327   0.739650   0.365898
    3             0.000181   0.000210   0.629327   0.739650   0.365898

                     11         12         13         14         15

                  2.000000   2.000000   2.000000   2.000000   2.000000

    1             0.970802   0.360825   0.332864   0.731923   0.137011
    2             0.514599   0.819588   0.833568   0.634038   0.931494
    3             0.514599   0.819588   0.833568   0.634038   0.931494

                     16

                  2.000000

    1             0.273635
    2             0.863183
    3             0.863183

               ----- POPULATIONS IN EACH AO -----
                             MULLIKEN      LOWDIN
              1  S  1  S      2.00025     1.99579
              2  S  1  S      2.01060     1.94217
              3  S  1  S      0.93206     0.54998
              4  S  1  S      0.86237     0.54826
              5  S  1  X      1.99652     1.95700
              6  S  1  Y      1.99573     1.95422
              7  S  1  Z      1.99720     1.96441
              8  S  1  X      0.70671     0.62528
              9  S  1  Y      0.65536     0.59301
             10  S  1  Z      0.88362     0.82911
             11  S  1  X      0.21929     0.31088
             12  S  1  Y      0.27450     0.33436
             13  S  1  Z      0.19244     0.36098
             14  S  1 XX      0.12907     0.29679
             15  S  1 YY      0.09871     0.22132
             16  S  1 ZZ      0.13701     0.30628
             17  S  1 XY      0.20469     0.17103
             18  S  1 XZ      0.04520     0.24862
             19  S  1 YZ      0.00000     0.04362
             20  O  2  S      1.99795     1.98002
             21  O  2  S      0.81462     0.62712
             22  O  2  S      0.95833     0.51750
             23  O  2  X      1.11862     1.08460
             24  O  2  Y      0.89557     0.85617
             25  O  2  Z      0.97869     0.95072
             26  O  2  X      0.50697     0.56497
             27  O  2  Y      0.53967     0.57984
             28  O  2  Z      0.48807     0.58923
             29  O  2 XX      0.00680     0.19471
             30  O  2 YY      0.00342     0.19487
             31  O  2 ZZ      0.00498     0.19878
             32  O  2 XY      0.00976     0.00810
             33  O  2 XZ      0.00587     0.01906
             34  O  2 YZ      0.00000     0.00776
             35  O  3  S      1.99795     1.98002
             36  O  3  S      0.81462     0.62712
             37  O  3  S      0.95833     0.51750
             38  O  3  X      1.11862     1.08460
             39  O  3  Y      0.89557     0.85617
             40  O  3  Z      0.97869     0.95072
             41  O  3  X      0.50697     0.56497
             42  O  3  Y      0.53967     0.57984
             43  O  3  Z      0.48807     0.58923
             44  O  3 XX      0.00680     0.19471
             45  O  3 YY      0.00342     0.19487
             46  O  3 ZZ      0.00498     0.19878
             47  O  3 XY      0.00976     0.00810
             48  O  3 XZ      0.00587     0.01906
             49  O  3 YZ      0.00000     0.00776

          ----- MULLIKEN ATOMIC OVERLAP POPULATIONS -----
          (OFF-DIAGONAL ELEMENTS NEED TO BE MULTIPLIED BY 2)

             1           2           3

    1   14.3676393
    2    0.4868434   8.1414126
    3    0.4868434  -0.2989190   8.1414126

          TOTAL MULLIKEN AND LOWDIN ATOMIC POPULATIONS
       ATOM         MULL.POP.    CHARGE          LOW.POP.     CHARGE
    1 S            15.341326    0.658674        15.253116    0.746884
    2 O             8.329337   -0.329337         8.373442   -0.373442
    3 O             8.329337   -0.329337         8.373442   -0.373442

          MULLIKEN SPHERICAL HARMONIC POPULATIONS
       ATOM           S       P       D      F      G      H      I    TOTAL
    1 S             5.81    8.92    0.61   0.00   0.00   0.00   0.00   15.34
    2 O             3.77    4.53    0.03   0.00   0.00   0.00   0.00    8.33
    3 O             3.77    4.53    0.03   0.00   0.00   0.00   0.00    8.33

          -------------------------------
          BOND ORDER AND VALENCE ANALYSIS     BOND ORDER THRESHOLD=0.050
          -------------------------------

                   BOND                       BOND                       BOND
  ATOM PAIR DIST  ORDER      ATOM PAIR DIST  ORDER      ATOM PAIR DIST  ORDER
    1   2  1.300  1.993        1   3  1.300  1.993        2   3  1.838  0.110

                       TOTAL       BONDED        FREE
      ATOM            VALENCE     VALENCE     VALENCE
    1 S                 3.986       3.986       0.000
    2 O                 2.103       2.103       0.000
    3 O                 2.103       2.103       0.000

          ---------------------
          ELECTROSTATIC MOMENTS
          ---------------------

 POINT   1           X           Y           Z (BOHR)    CHARGE
                 0.000000    0.000000    0.000000        0.00 (A.U.)
         DX          DY          DZ         /D/  (DEBYE)
     0.000000    0.000000   -2.573113    2.573113
 ...... END OF PROPERTY EVALUATION ......
 STEP CPU TIME =     0.01 TOTAL CPU TIME =        4.8 (    0.1 MIN)
 TOTAL WALL CLOCK TIME=        4.8 SECONDS, CPU UTILIZATION IS 100.00%
               580000  WORDS OF DYNAMIC MEMORY USED
 EXECUTION OF GAMESS TERMINATED NORMALLY Thu Feb 26 00:13:54 2015
 DDI: 263624 bytes (0.3 MB / 0 MWords) used by master data server.

 ----------------------------------------
 CPU timing information for all processes
 ========================================
 0: 4.780 + 0.34 = 4.815
 ----------------------------------------
 ddikick.x: exited gracefully.
----- accounting info -----
Files used on the master node dftfe.crc.nd.edu were:
-rw-r--r-- 1 pmehta1 campus   37475 Feb 26 00:13 /tmp/gamess.dat
-rw-r--r-- 1 pmehta1 campus     141 Feb 26 00:13 /tmp/gamess.F05
-rw-r--r-- 1 pmehta1 campus 2340312 Feb 26 00:13 /tmp/gamess.F08
-rw-r--r-- 1 pmehta1 campus 1220440 Feb 26 00:13 /tmp/gamess.F10
Thu Feb 26 00:13:57 EST 2015
0.241u 0.175s 0:08.22 4.9%	0+0k 0+112io 0pf+0w
