   4   4   1   0
  0.1820629E+02  0.4176000E-09  0.4176000E-09  0.4176000E-09  0.3500000E-15
   1.0000000000000000E-004
  CAR 
 Au, FCC                                 
     13.30973641     -5.04819473  301      4.79858106      1.00000000
     -5.048  0.0000E+00  0.0000E+00  0.0000E+00  0.0000E+00  0.0000E+00  0.0000E+00  0.0000E+00  0.0000E+00  0.0000E+00
     -4.987  0.0000E+00  0.0000E+00  0.0000E+00  0.0000E+00  0.0000E+00  0.0000E+00  0.0000E+00  0.0000E+00  0.0000E+00
     -4.926  0.0000E+00  0.0000E+00  0.0000E+00  0.0000E+00  0.0000E+00  0.0000E+00  0.0000E+00  0.0000E+00  0.0000E+00
     -4.865  0.0000E+00  0.0000E+00  0.0000E+00  0.0000E+00  0.0000E+00  0.0000E+00  0.0000E+00  0.0000E+00  0.0000E+00
     -4.803  0.0000E+00  0.0000E+00  0.0000E+00  0.0000E+00  0.0000E+00  0.0000E+00  0.0000E+00  0.0000E+00  0.0000E+00
     -4.742  0.0000E+00  0.0000E+00  0.0000E+00  0.0000E+00  0.0000E+00  0.0000E+00  0.0000E+00  0.0000E+00  0.0000E+00
     -4.681  0.0000E+00  0.0000E+00  0.0000E+00  0.0000E+00  0.0000E+00  0.0000E+00  0.0000E+00  0.0000E+00  0.0000E+00
     -4.620  0.5734E-16  0.2991E-18  0.2991E-18  0.2991E-18  0.2490E-19  0.2490E-19  0.5715E-30  0.2490E-19  0.9627E-30
     -4.559  0.4505E-13  0.2350E-15  0.2350E-15  0.2350E-15  0.1956E-16  0.1956E-16  0.4490E-27  0.1956E-16  0.7563E-27
     -4.497  0.1807E-10  0.9424E-13  0.9424E-13  0.9424E-13  0.7846E-14  0.7846E-14  0.1801E-24  0.7846E-14  0.3034E-24
     -4.436  0.3478E-08  0.1814E-10  0.1814E-10  0.1814E-10  0.1511E-11  0.1511E-11  0.3467E-22  0.1511E-11  0.5840E-22
     -4.375  0.3225E-06  0.1682E-08  0.1682E-08  0.1682E-08  0.1400E-09  0.1400E-09  0.3215E-20  0.1400E-09  0.5415E-20
     -4.314  0.1446E-04  0.7541E-07  0.7541E-07  0.7541E-07  0.6278E-08  0.6278E-08  0.1441E-18  0.6278E-08  0.2427E-18
     -4.253  0.3148E-03  0.1642E-05  0.1642E-05  0.1642E-05  0.1367E-06  0.1367E-06  0.3138E-17  0.1367E-06  0.5285E-17
     -4.191  0.3347E-02  0.1746E-04  0.1746E-04  0.1746E-04  0.1453E-05  0.1453E-05  0.3336E-16  0.1453E-05  0.5619E-16
     -4.130  0.1746E-01  0.9109E-04  0.9109E-04  0.9109E-04  0.7583E-05  0.7583E-05  0.1741E-15  0.7583E-05  0.2932E-15
     -4.069  0.4492E-01  0.2343E-03  0.2343E-03  0.2343E-03  0.1951E-04  0.1951E-04  0.4478E-15  0.1951E-04  0.7542E-15
     -4.008  0.5712E-01  0.2980E-03  0.2980E-03  0.2980E-03  0.2481E-04  0.2481E-04  0.5755E-15  0.2481E-04  0.9773E-15
     -3.947  0.3595E-01  0.1875E-03  0.1875E-03  0.1875E-03  0.1561E-04  0.1561E-04  0.3910E-14  0.1561E-04  0.1126E-13
     -3.886  0.1118E-01  0.5829E-04  0.5829E-04  0.5829E-04  0.4853E-05  0.4853E-05  0.9982E-12  0.4853E-05  0.2994E-11
     -3.824  0.1711E-02  0.8923E-05  0.8923E-05  0.8928E-05  0.7433E-06  0.7430E-06  0.1348E-09  0.7433E-06  0.4045E-09
     -3.763  0.1347E-03  0.7001E-06  0.7001E-06  0.9708E-06  0.8357E-07  0.6100E-07  0.8787E-08  0.8357E-07  0.2636E-07
     -3.702  0.2053E-03  0.9992E-06  0.9992E-06  0.9550E-05  0.8818E-06  0.1688E-06  0.2775E-06  0.8818E-06  0.8326E-06
     -3.641  0.3085E-02  0.1499E-04  0.1499E-04  0.1465E-03  0.1353E-04  0.2565E-05  0.4268E-05  0.1353E-04  0.1280E-04
     -3.580  0.2322E-01  0.1128E-03  0.1128E-03  0.1103E-02  0.1018E-03  0.1931E-04  0.3213E-04  0.1018E-03  0.9638E-04
     -3.518  0.8600E-01  0.4178E-03  0.4178E-03  0.4083E-02  0.3771E-03  0.7150E-04  0.1190E-03  0.3771E-03  0.3569E-03
     -3.457  0.1572E+00  0.7639E-03  0.7639E-03  0.7466E-02  0.6895E-03  0.1307E-03  0.2175E-03  0.6895E-03  0.6525E-03
     -3.396  0.1422E+00  0.6911E-03  0.6911E-03  0.6754E-02  0.6238E-03  0.1183E-03  0.1968E-03  0.6238E-03  0.5903E-03
     -3.335  0.6364E-01  0.3092E-03  0.3092E-03  0.3022E-02  0.2791E-03  0.5292E-04  0.8804E-04  0.2791E-03  0.2641E-03
     -3.274  0.1405E-01  0.6828E-04  0.6825E-04  0.6670E-03  0.6164E-04  0.1169E-04  0.1944E-04  0.6161E-04  0.5830E-04
     -3.212  0.1561E-02  0.9070E-05  0.7546E-05  0.7399E-04  0.8391E-05  0.1594E-05  0.2259E-05  0.7007E-05  0.6321E-05
     -3.151  0.9091E-03  0.3693E-04  0.3592E-05  0.4037E-04  0.3781E-04  0.7238E-05  0.3447E-05  0.7525E-05  0.3350E-06
     -3.090  0.8851E-02  0.3903E-03  0.3419E-04  0.3904E-03  0.4001E-03  0.7660E-04  0.3563E-04  0.7661E-04  0.8632E-08
     -3.029  0.4639E-01  0.2046E-02  0.1792E-03  0.2046E-02  0.2097E-02  0.4016E-03  0.1868E-03  0.4016E-03  0.1077E-09
     -2.968  0.1199E+00  0.5288E-02  0.4631E-03  0.5288E-02  0.5420E-02  0.1038E-02  0.4827E-03  0.1038E-02  0.6502E-12
     -2.906  0.1532E+00  0.6756E-02  0.5917E-03  0.6756E-02  0.6924E-02  0.1326E-02  0.6167E-03  0.1326E-02  0.2110E-12
     -2.845  0.9683E-01  0.4271E-02  0.3743E-03  0.4271E-02  0.4378E-02  0.8389E-03  0.3899E-03  0.8389E-03  0.5590E-10
     -2.784  0.3042E-01  0.1340E-02  0.1229E-03  0.1340E-02  0.1383E-02  0.2771E-03  0.1218E-03  0.2771E-03  0.7310E-08
     -2.723  0.6724E-02  0.2762E-03  0.8900E-04  0.2770E-03  0.3876E-03  0.2175E-03  0.1888E-04  0.2176E-03  0.4614E-06
     -2.662  0.1233E-01  0.4210E-03  0.4069E-03  0.4464E-03  0.1029E-02  0.1014E-02  0.6115E-05  0.1016E-02  0.1411E-04
     -2.600  0.3604E-01  0.1150E-02  0.1149E-02  0.1529E-02  0.2881E-02  0.2848E-02  0.7012E-04  0.2880E-02  0.2102E-03
     -2.539  0.6750E-01  0.1670E-02  0.1670E-02  0.4434E-02  0.4252E-02  0.4015E-02  0.5111E-03  0.4252E-02  0.1533E-02
     -2.478  0.1090E+00  0.1416E-02  0.1416E-02  0.1133E-01  0.3832E-02  0.2980E-02  0.1834E-02  0.3832E-02  0.5502E-02
     -2.417  0.1480E+00  0.9578E-03  0.9578E-03  0.1853E-01  0.2915E-02  0.1406E-02  0.3250E-02  0.2915E-02  0.9751E-02
     -2.356  0.1222E+00  0.5789E-03  0.5789E-03  0.1599E-01  0.1905E-02  0.5817E-03  0.2850E-02  0.1905E-02  0.8550E-02
     -2.295  0.5246E-01  0.2328E-03  0.2295E-03  0.6923E-02  0.7861E-03  0.2016E-03  0.1238E-02  0.7749E-03  0.3711E-02
     -2.233  0.1300E-01  0.1171E-03  0.5159E-04  0.1702E-02  0.4525E-03  0.1118E-03  0.3034E-03  0.2241E-03  0.8589E-03
     -2.172  0.1948E-01  0.6939E-03  0.4200E-04  0.2410E-02  0.2951E-02  0.7708E-03  0.4177E-03  0.6776E-03  0.7419E-03
     -2.111  0.9183E-01  0.3405E-02  0.2192E-03  0.1124E-01  0.1499E-01  0.4420E-02  0.1923E-02  0.3877E-02  0.3270E-02
     -2.050  0.2355E+00  0.8440E-02  0.7623E-03  0.2838E-01  0.4020E-01  0.1490E-01  0.4724E-02  0.1343E-01  0.8153E-02
     -1.989  0.3248E+00  0.1078E-01  0.1622E-02  0.3774E-01  0.6145E-01  0.3174E-01  0.5913E-02  0.2954E-01  0.1056E-01
     -1.927  0.2632E+00  0.7509E-02  0.2062E-02  0.2817E-01  0.6191E-01  0.4496E-01  0.3911E-02  0.4298E-01  0.7487E-02
     -1.866  0.1481E+00  0.3508E-02  0.1520E-02  0.1302E-01  0.5307E-01  0.4773E-01  0.1487E-02  0.4665E-01  0.3108E-02
     -1.805  0.9536E-01  0.2649E-02  0.7501E-03  0.5284E-02  0.6099E-01  0.5676E-01  0.5000E-03  0.5642E-01  0.8103E-03
     -1.744  0.1124E+00  0.3887E-02  0.5554E-03  0.4303E-02  0.9492E-01  0.8742E-01  0.4983E-03  0.8736E-01  0.2779E-03
     -1.683  0.1196E+00  0.3926E-02  0.6728E-03  0.4030E-02  0.1105E+00  0.1032E+00  0.1638E-02  0.1032E+00  0.1528E-02
     -1.621  0.7910E-01  0.2206E-02  0.5743E-03  0.3026E-02  0.7377E-01  0.7003E-01  0.1118E-01  0.6995E-01  0.1312E-01
     -1.560  0.6028E-01  0.1508E-02  0.4970E-03  0.6240E-02  0.3344E-01  0.3042E-01  0.4969E-01  0.2979E-01  0.6189E-01
     -1.499  0.1282E+00  0.4535E-02  0.9498E-03  0.1840E-01  0.4836E-01  0.3675E-01  0.1136E+00  0.3287E-01  0.1514E+00
     -1.438  0.2554E+00  0.1170E-01  0.1868E-02  0.3394E-01  0.1338E+00  0.1081E+00  0.1381E+00  0.9104E-01  0.2101E+00
     -1.377  0.3300E+00  0.1633E-01  0.2781E-02  0.3986E-01  0.2260E+00  0.2058E+00  0.1089E+00  0.1624E+00  0.2138E+00
     -1.315  0.2820E+00  0.1262E-01  0.3507E-02  0.3315E-01  0.2492E+00  0.2418E+00  0.8899E-01  0.1842E+00  0.2004E+00
     -1.254  0.2005E+00  0.7545E-02  0.4100E-02  0.2651E-01  0.2545E+00  0.2252E+00  0.1247E+00  0.1865E+00  0.1801E+00
     -1.193  0.1935E+00  0.7229E-02  0.3814E-02  0.3323E-01  0.2681E+00  0.2138E+00  0.2408E+00  0.1937E+00  0.2127E+00
     -1.132  0.2117E+00  0.8912E-02  0.3142E-02  0.4006E-01  0.2592E+00  0.2216E+00  0.3476E+00  0.1772E+00  0.2728E+00
     -1.071  0.1832E+00  0.1075E-01  0.4179E-02  0.3026E-01  0.2685E+00  0.3059E+00  0.3555E+00  0.1799E+00  0.2919E+00
     -1.009  0.1470E+00  0.1386E-01  0.7444E-02  0.1635E-01  0.3066E+00  0.4109E+00  0.2944E+00  0.2425E+00  0.2784E+00
     -0.948  0.1268E+00  0.1671E-01  0.1110E-01  0.1004E-01  0.3578E+00  0.3536E+00  0.1920E+00  0.3276E+00  0.2015E+00
     -0.887  0.1194E+00  0.1938E-01  0.1239E-01  0.1229E-01  0.4304E+00  0.1963E+00  0.1132E+00  0.3788E+00  0.1069E+00
     -0.826  0.1322E+00  0.2222E-01  0.1090E-01  0.1874E-01  0.4762E+00  0.1218E+00  0.9294E-01  0.3433E+00  0.6392E-01
     -0.765  0.1339E+00  0.2099E-01  0.9588E-02  0.2085E-01  0.4870E+00  0.1644E+00  0.1611E+00  0.2520E+00  0.7238E-01
     -0.703  0.1102E+00  0.1717E-01  0.1175E-01  0.2095E-01  0.5302E+00  0.3228E+00  0.3663E+00  0.2327E+00  0.1416E+00
     -0.642  0.7920E-01  0.1411E-01  0.1385E-01  0.2173E-01  0.4836E+00  0.4583E+00  0.5214E+00  0.2648E+00  0.2121E+00
     -0.581  0.5026E-01  0.1221E-01  0.1166E-01  0.1800E-01  0.2899E+00  0.3578E+00  0.4176E+00  0.2560E+00  0.1932E+00
     -0.520  0.3838E-01  0.1477E-01  0.9486E-02  0.1453E-01  0.1676E+00  0.1620E+00  0.2573E+00  0.2556E+00  0.1415E+00
     -0.459  0.3334E-01  0.1770E-01  0.9121E-02  0.1458E-01  0.1646E+00  0.1138E+00  0.2047E+00  0.2316E+00  0.1049E+00
     -0.398  0.2412E-01  0.1618E-01  0.1133E-01  0.1358E-01  0.1676E+00  0.2544E+00  0.1627E+00  0.1693E+00  0.7364E-01
     -0.336  0.1898E-01  0.1605E-01  0.1850E-01  0.1352E-01  0.2005E+00  0.4384E+00  0.1383E+00  0.1994E+00  0.7969E-01
     -0.275  0.1475E-01  0.1831E-01  0.2483E-01  0.1755E-01  0.2744E+00  0.4721E+00  0.2234E+00  0.2948E+00  0.1360E+00
     -0.214  0.9522E-02  0.1833E-01  0.2400E-01  0.2398E-01  0.2787E+00  0.4244E+00  0.3830E+00  0.3025E+00  0.2004E+00
     -0.153  0.8852E-02  0.1921E-01  0.1782E-01  0.2992E-01  0.2199E+00  0.3869E+00  0.5038E+00  0.2254E+00  0.2021E+00
     -0.092  0.1200E-01  0.2087E-01  0.1360E-01  0.3270E-01  0.1726E+00  0.4121E+00  0.5648E+00  0.1761E+00  0.1689E+00
     -0.030  0.1351E-01  0.1669E-01  0.1386E-01  0.2796E-01  0.1320E+00  0.4943E+00  0.5398E+00  0.1750E+00  0.1485E+00
      0.031  0.1343E-01  0.1059E-01  0.1554E-01  0.1808E-01  0.1129E+00  0.4605E+00  0.4414E+00  0.1946E+00  0.1057E+00
      0.092  0.1898E-01  0.1101E-01  0.2179E-01  0.1264E-01  0.1735E+00  0.4340E+00  0.4395E+00  0.2969E+00  0.6851E-01
      0.153  0.3230E-01  0.2052E-01  0.3117E-01  0.1433E-01  0.3006E+00  0.5723E+00  0.5514E+00  0.4592E+00  0.1217E+00
      0.214  0.4865E-01  0.3741E-01  0.3548E-01  0.1958E-01  0.4372E+00  0.6627E+00  0.6497E+00  0.5301E+00  0.2741E+00
      0.276  0.5282E-01  0.4460E-01  0.3036E-01  0.2103E-01  0.4840E+00  0.5117E+00  0.6410E+00  0.4420E+00  0.3716E+00
      0.337  0.3541E-01  0.2956E-01  0.1739E-01  0.1428E-01  0.3605E+00  0.2696E+00  0.4651E+00  0.2674E+00  0.3014E+00
      0.398  0.2320E-01  0.1334E-01  0.8918E-02  0.9527E-02  0.2597E+00  0.1848E+00  0.2881E+00  0.1679E+00  0.2036E+00
      0.459  0.3891E-01  0.1438E-01  0.1544E-01  0.1607E-01  0.3875E+00  0.3079E+00  0.3002E+00  0.2353E+00  0.1931E+00
      0.520  0.6545E-01  0.2937E-01  0.3991E-01  0.2915E-01  0.6659E+00  0.5299E+00  0.4663E+00  0.4979E+00  0.2388E+00
      0.582  0.6664E-01  0.4130E-01  0.6634E-01  0.3499E-01  0.8099E+00  0.6154E+00  0.6035E+00  0.7953E+00  0.2960E+00
      0.643  0.4068E-01  0.3542E-01  0.6250E-01  0.2683E-01  0.7094E+00  0.4645E+00  0.5971E+00  0.7823E+00  0.3942E+00
      0.704  0.1697E-01  0.2087E-01  0.3342E-01  0.1375E-01  0.6116E+00  0.2783E+00  0.4932E+00  0.5533E+00  0.4805E+00
      0.765  0.1037E-01  0.1477E-01  0.1598E-01  0.8632E-02  0.7134E+00  0.2269E+00  0.3894E+00  0.5313E+00  0.4480E+00
      0.826  0.1883E-01  0.2172E-01  0.2162E-01  0.1441E-01  0.8877E+00  0.2960E+00  0.3378E+00  0.7386E+00  0.4415E+00
      0.888  0.3212E-01  0.3087E-01  0.3062E-01  0.2258E-01  0.8573E+00  0.3587E+00  0.2977E+00  0.8126E+00  0.5709E+00
      0.949  0.4500E-01  0.3078E-01  0.2351E-01  0.2643E-01  0.6702E+00  0.2863E+00  0.2318E+00  0.5844E+00  0.6118E+00
      1.010  0.5910E-01  0.2536E-01  0.9601E-02  0.2949E-01  0.5425E+00  0.1546E+00  0.1874E+00  0.3251E+00  0.4816E+00
      1.071  0.5972E-01  0.1740E-01  0.3882E-02  0.2886E-01  0.4246E+00  0.1021E+00  0.1907E+00  0.3101E+00  0.4191E+00
      1.132  0.4249E-01  0.1175E-01  0.8669E-02  0.2239E-01  0.3058E+00  0.1417E+00  0.2156E+00  0.4913E+00  0.4479E+00
      1.194  0.3299E-01  0.1828E-01  0.2676E-01  0.2225E-01  0.2579E+00  0.2437E+00  0.2300E+00  0.6288E+00  0.3707E+00
      1.255  0.4369E-01  0.3362E-01  0.5119E-01  0.3302E-01  0.2315E+00  0.3850E+00  0.2572E+00  0.6057E+00  0.2943E+00
      1.316  0.4907E-01  0.4036E-01  0.5605E-01  0.3861E-01  0.1708E+00  0.4539E+00  0.2915E+00  0.4475E+00  0.4325E+00
      1.377  0.3308E-01  0.3369E-01  0.3873E-01  0.3231E-01  0.1224E+00  0.3797E+00  0.2847E+00  0.2740E+00  0.6661E+00
      1.438  0.1463E-01  0.2304E-01  0.2073E-01  0.2238E-01  0.1017E+00  0.2438E+00  0.2362E+00  0.1837E+00  0.7131E+00
      1.499  0.7668E-02  0.1365E-01  0.1067E-01  0.1286E-01  0.1002E+00  0.1342E+00  0.1986E+00  0.1773E+00  0.6152E+00
      1.561  0.1162E-01  0.1299E-01  0.1168E-01  0.8563E-02  0.1876E+00  0.9958E-01  0.2505E+00  0.3344E+00  0.7393E+00
      1.622  0.2060E-01  0.2258E-01  0.2159E-01  0.9807E-02  0.3339E+00  0.1340E+00  0.3194E+00  0.6050E+00  0.1045E+01
      1.683  0.2390E-01  0.2788E-01  0.2514E-01  0.1056E-01  0.3610E+00  0.1933E+00  0.2869E+00  0.7049E+00  0.1230E+01
      1.744  0.1933E-01  0.2238E-01  0.1648E-01  0.9197E-02  0.2666E+00  0.2258E+00  0.2742E+00  0.5813E+00  0.1244E+01
      1.805  0.1404E-01  0.1679E-01  0.7648E-02  0.6831E-02  0.1890E+00  0.1876E+00  0.3918E+00  0.3811E+00  0.1120E+01
      1.867  0.1363E-01  0.1292E-01  0.4010E-02  0.5487E-02  0.1286E+00  0.1120E+00  0.4800E+00  0.1931E+00  0.9495E+00
      1.928  0.1715E-01  0.7295E-02  0.2414E-02  0.9244E-02  0.8927E-01  0.5519E-01  0.4364E+00  0.1013E+00  0.7220E+00
      1.989  0.2239E-01  0.3505E-02  0.1493E-02  0.1908E-01  0.1121E+00  0.4229E-01  0.3925E+00  0.1222E+00  0.5445E+00
      2.050  0.2361E-01  0.4075E-02  0.2172E-02  0.2491E-01  0.1443E+00  0.7638E-01  0.3948E+00  0.1743E+00  0.4938E+00
      2.111  0.1709E-01  0.9099E-02  0.6189E-02  0.2202E-01  0.1453E+00  0.1829E+00  0.4692E+00  0.2435E+00  0.4443E+00
      2.173  0.1084E-01  0.1537E-01  0.1193E-01  0.1943E-01  0.1389E+00  0.3408E+00  0.5750E+00  0.3667E+00  0.4135E+00
      2.234  0.9014E-02  0.1484E-01  0.1254E-01  0.1668E-01  0.1192E+00  0.3985E+00  0.5493E+00  0.4492E+00  0.4230E+00
      2.295  0.1524E-01  0.9409E-02  0.9110E-02  0.1523E-01  0.1221E+00  0.3575E+00  0.4882E+00  0.5342E+00  0.5348E+00
      2.356  0.3100E-01  0.7589E-02  0.8755E-02  0.2138E-01  0.1875E+00  0.3129E+00  0.5135E+00  0.6768E+00  0.7624E+00
      2.417  0.3974E-01  0.7512E-02  0.8931E-02  0.2532E-01  0.2357E+00  0.2098E+00  0.4974E+00  0.6225E+00  0.7842E+00
      2.479  0.2880E-01  0.5021E-02  0.5706E-02  0.1760E-01  0.2034E+00  0.8537E-01  0.3795E+00  0.3654E+00  0.4882E+00
      2.540  0.1357E-01  0.2595E-02  0.2348E-02  0.7429E-02  0.1715E+00  0.4186E-01  0.3382E+00  0.1776E+00  0.2162E+00
      2.601  0.1133E-01  0.3350E-02  0.2018E-02  0.4697E-02  0.2334E+00  0.1750E+00  0.4570E+00  0.1460E+00  0.1523E+00
      2.662  0.1728E-01  0.6910E-02  0.5249E-02  0.7871E-02  0.3594E+00  0.6486E+00  0.6014E+00  0.2784E+00  0.2642E+00
      2.723  0.1702E-01  0.9554E-02  0.9448E-02  0.1029E-01  0.4061E+00  0.1255E+01  0.6025E+00  0.5195E+00  0.4764E+00
      2.785  0.1032E-01  0.8393E-02  0.9818E-02  0.8596E-02  0.3500E+00  0.1375E+01  0.4993E+00  0.6586E+00  0.5795E+00
      2.846  0.7685E-02  0.7081E-02  0.8612E-02  0.6952E-02  0.3208E+00  0.1088E+01  0.4454E+00  0.6704E+00  0.5119E+00
      2.907  0.1156E-01  0.9471E-02  0.1045E-01  0.9160E-02  0.3374E+00  0.7839E+00  0.4404E+00  0.6170E+00  0.4030E+00
      2.968  0.1366E-01  0.1086E-01  0.1126E-01  0.1047E-01  0.3007E+00  0.5740E+00  0.3574E+00  0.4457E+00  0.2797E+00
      3.029  0.8970E-02  0.7164E-02  0.7242E-02  0.6647E-02  0.2168E+00  0.7377E+00  0.2070E+00  0.2583E+00  0.1632E+00
      3.090  0.3966E-02  0.3072E-02  0.2971E-02  0.2347E-02  0.1698E+00  0.1149E+01  0.9495E-01  0.1725E+00  0.8560E-01
      3.152  0.4686E-02  0.2274E-02  0.1525E-02  0.1618E-02  0.1685E+00  0.1097E+01  0.5660E-01  0.1447E+00  0.4299E-01
      3.213  0.1231E-01  0.4430E-02  0.1934E-02  0.4124E-02  0.1748E+00  0.5528E+00  0.7591E-01  0.9399E-01  0.1887E-01
      3.274  0.2014E-01  0.6810E-02  0.2646E-02  0.6794E-02  0.1702E+00  0.1452E+00  0.1049E+00  0.3534E-01  0.5696E-02
      3.335  0.2037E-01  0.6130E-02  0.2145E-02  0.6818E-02  0.1381E+00  0.2041E-01  0.9601E-01  0.7514E-02  0.1200E-02
      3.396  0.2968E-01  0.5798E-02  0.1162E-02  0.9949E-02  0.1638E+00  0.2017E-02  0.1096E+00  0.1970E-02  0.1439E-02
      3.458  0.6321E-01  0.9707E-02  0.1055E-02  0.2191E-01  0.3228E+00  0.1008E-02  0.2064E+00  0.3095E-02  0.3984E-02
      3.519  0.8315E-01  0.1202E-01  0.1253E-02  0.2982E-01  0.4166E+00  0.1304E-02  0.2612E+00  0.4627E-02  0.5974E-02
      3.580  0.5767E-01  0.8050E-02  0.1125E-02  0.2159E-01  0.2794E+00  0.1170E-02  0.1714E+00  0.6407E-02  0.6382E-02
      3.641  0.2972E-01  0.4127E-02  0.1884E-02  0.1292E-01  0.1097E+00  0.1762E-02  0.6010E-01  0.1890E-01  0.1347E-01
      3.702  0.3274E-01  0.4656E-02  0.4293E-02  0.1711E-01  0.6274E-01  0.3877E-02  0.1987E-01  0.4767E-01  0.3223E-01
      3.764  0.4300E-01  0.5662E-02  0.5633E-02  0.2454E-01  0.6707E-01  0.5012E-02  0.1547E-01  0.6583E-01  0.4419E-01
      3.825  0.4537E-01  0.4003E-02  0.4002E-02  0.3182E-01  0.5917E-01  0.3301E-02  0.1305E-01  0.5912E-01  0.3905E-01
      3.886  0.5281E-01  0.2063E-02  0.2063E-02  0.4477E-01  0.5470E-01  0.1192E-02  0.1172E-01  0.5470E-01  0.3516E-01
      3.947  0.4931E-01  0.1164E-02  0.1164E-02  0.4407E-01  0.4692E-01  0.3352E-03  0.9934E-02  0.4692E-01  0.2980E-01
      4.008  0.2552E-01  0.5344E-03  0.5344E-03  0.2301E-01  0.2392E-01  0.1041E-03  0.5052E-02  0.2392E-01  0.1516E-01
      4.070  0.6643E-02  0.1365E-03  0.1365E-03  0.5998E-02  0.6211E-02  0.2438E-04  0.1312E-02  0.6211E-02  0.3935E-02
      4.131  0.8528E-03  0.1747E-04  0.1747E-04  0.7701E-03  0.7970E-03  0.3080E-05  0.1683E-03  0.7970E-03  0.5049E-03
      4.192  0.5359E-04  0.1098E-05  0.1097E-05  0.4840E-04  0.5009E-04  0.1931E-06  0.1058E-04  0.5008E-04  0.3173E-04
      4.253  0.1876E-05  0.8328E-07  0.3733E-07  0.1530E-05  0.2081E-05  0.7793E-08  0.5626E-06  0.1534E-05  0.9822E-06
      4.314  0.1245E-04  0.2622E-05  0.2017E-06  0.2644E-05  0.2892E-04  0.1012E-06  0.1260E-04  0.1239E-06  0.6233E-06
      4.376  0.3182E-03  0.6741E-04  0.5395E-05  0.6741E-04  0.7400E-03  0.2718E-05  0.3224E-03  0.2719E-05  0.1578E-04
      4.437  0.4003E-02  0.8567E-03  0.7628E-04  0.8567E-03  0.9301E-02  0.3863E-04  0.4053E-02  0.3864E-04  0.2049E-03
      4.498  0.2516E-01  0.5530E-02  0.6212E-03  0.5530E-02  0.5829E-01  0.3174E-03  0.2541E-01  0.3176E-03  0.1395E-02
      4.559  0.8172E-01  0.1914E-01  0.3166E-02  0.1914E-01  0.1881E+00  0.1636E-02  0.8205E-01  0.1637E-02  0.5396E-02
      4.620  0.1464E+00  0.3880E-01  0.1004E-01  0.3880E-01  0.3323E+00  0.5231E-02  0.1452E+00  0.5234E-02  0.1296E-01
      4.682  0.1585E+00  0.4969E-01  0.1835E-01  0.4969E-01  0.3517E+00  0.9595E-02  0.1541E+00  0.9601E-02  0.1964E-01
      4.743  0.1093E+00  0.4091E-01  0.1927E-01  0.4091E-01  0.2366E+00  0.1002E-01  0.1044E+00  0.1003E-01  0.1808E-01
      4.804  0.4830E-01  0.2714E-01  0.1815E-01  0.2713E-01  0.1006E+00  0.9071E-02  0.4701E-01  0.9070E-02  0.1288E-01
      4.865  0.1930E-01  0.2954E-01  0.2740E-01  0.2952E-01  0.3410E-01  0.1320E-01  0.2222E-01  0.1319E-01  0.1461E-01
      4.926  0.1578E-01  0.3460E-01  0.3328E-01  0.3458E-01  0.2292E-01  0.1612E-01  0.1863E-01  0.1611E-01  0.1751E-01
      4.987  0.2827E-01  0.2888E-01  0.2155E-01  0.2887E-01  0.4202E-01  0.1177E-01  0.1815E-01  0.1176E-01  0.1650E-01
      5.049  0.7229E-01  0.3230E-01  0.7666E-02  0.3230E-01  0.1101E+00  0.8643E-02  0.2863E-01  0.8641E-02  0.2324E-01
      5.110  0.1167E+00  0.4354E-01  0.2543E-02  0.4354E-01  0.1783E+00  0.9507E-02  0.4257E-01  0.9506E-02  0.3360E-01
      5.171  0.9587E-01  0.3507E-01  0.1301E-02  0.3507E-01  0.1465E+00  0.7451E-02  0.3466E-01  0.7451E-02  0.2728E-01
      5.232  0.3903E-01  0.1425E-01  0.4996E-03  0.1425E-01  0.5965E-01  0.3020E-02  0.1410E-01  0.3020E-02  0.1110E-01
      5.293  0.7838E-02  0.2861E-02  0.9976E-04  0.2861E-02  0.1198E-01  0.6062E-03  0.2831E-02  0.6062E-03  0.2228E-02
      5.355  0.7727E-03  0.2821E-03  0.9830E-05  0.2821E-03  0.1181E-02  0.5976E-04  0.2791E-03  0.5976E-04  0.2196E-03
      5.416  0.3721E-04  0.1358E-04  0.4734E-06  0.1358E-04  0.5686E-04  0.2878E-05  0.1344E-04  0.2878E-05  0.1058E-04
      5.477  0.9197E-06  0.3296E-06  0.2012E-07  0.3297E-06  0.1365E-05  0.8304E-07  0.3291E-06  0.8304E-07  0.2566E-06
      5.538  0.3462E-05  0.8237E-06  0.6048E-06  0.8242E-06  0.2529E-05  0.1047E-05  0.1030E-05  0.1047E-05  0.6133E-06
      5.599  0.1182E-03  0.2764E-04  0.1960E-04  0.2766E-04  0.8855E-04  0.3376E-04  0.3519E-04  0.3376E-04  0.1968E-04
      5.661  0.1980E-02  0.4557E-03  0.3096E-03  0.4559E-03  0.1525E-02  0.5303E-03  0.5904E-03  0.5304E-03  0.3089E-03
      5.722  0.1631E-01  0.3692E-02  0.2396E-02  0.3694E-02  0.1291E-01  0.4078E-02  0.4872E-02  0.4078E-02  0.2373E-02
      5.783  0.6639E-01  0.1478E-01  0.9129E-02  0.1479E-01  0.5394E-01  0.1543E-01  0.1986E-01  0.1543E-01  0.8967E-02
      5.844  0.1341E+00  0.2943E-01  0.1726E-01  0.2944E-01  0.1117E+00  0.2884E-01  0.4020E-01  0.2884E-01  0.1674E-01
      5.905  0.1355E+00  0.3004E-01  0.1706E-01  0.3006E-01  0.1154E+00  0.2694E-01  0.4069E-01  0.2694E-01  0.1560E-01
      5.967  0.7409E-01  0.2199E-01  0.1481E-01  0.2200E-01  0.6365E-01  0.1423E-01  0.2281E-01  0.1423E-01  0.8201E-02
      6.028  0.4431E-01  0.3258E-01  0.2873E-01  0.3258E-01  0.3863E-01  0.9696E-02  0.1721E-01  0.9695E-02  0.5492E-02
      6.089  0.6028E-01  0.5711E-01  0.5102E-01  0.5707E-01  0.6090E-01  0.1193E-01  0.3046E-01  0.1193E-01  0.6719E-02
      6.150  0.6702E-01  0.5886E-01  0.4988E-01  0.5810E-01  0.7760E-01  0.9751E-02  0.3817E-01  0.9650E-02  0.5745E-02
      6.211  0.5769E-01  0.3894E-01  0.2596E-01  0.3269E-01  0.6745E-01  0.4777E-02  0.2793E-01  0.3958E-02  0.5012E-02
      6.273  0.9194E-01  0.3964E-01  0.7829E-02  0.1453E-01  0.9022E-01  0.4096E-02  0.2225E-01  0.8148E-03  0.1171E-01
      6.334  0.1612E+00  0.6219E-01  0.2603E-02  0.1247E-01  0.1495E+00  0.6600E-02  0.2960E-01  0.1037E-03  0.2234E-01
      6.395  0.1563E+00  0.5973E-01  0.1642E-02  0.1102E-01  0.1440E+00  0.6390E-02  0.2782E-01  0.2671E-04  0.2185E-01
      6.456  0.7569E-01  0.2890E-01  0.7625E-03  0.5296E-02  0.6970E-01  0.3094E-02  0.1343E-01  0.1112E-04  0.1059E-01
      6.517  0.1810E-01  0.6910E-02  0.1817E-03  0.1266E-02  0.1667E-01  0.7400E-03  0.3212E-02  0.2637E-05  0.2531E-02
      6.578  0.2127E-02  0.8122E-03  0.2137E-04  0.1488E-03  0.1959E-02  0.8698E-04  0.3775E-03  0.3220E-06  0.2975E-03
      6.640  0.1244E-03  0.4754E-04  0.2080E-05  0.8997E-05  0.1135E-03  0.5618E-05  0.2243E-04  0.9409E-06  0.1741E-04
      6.701  0.8147E-04  0.3255E-04  0.3128E-04  0.1659E-04  0.3698E-04  0.2283E-04  0.2743E-04  0.3384E-04  0.1166E-04
      6.762  0.1392E-02  0.5570E-03  0.5570E-03  0.2916E-03  0.6033E-03  0.4045E-03  0.4782E-03  0.6033E-03  0.1994E-03
      6.823  0.1213E-01  0.4856E-02  0.4856E-02  0.2542E-02  0.5259E-02  0.3526E-02  0.4169E-02  0.5260E-02  0.1738E-02
      6.884  0.5198E-01  0.2081E-01  0.2081E-01  0.1089E-01  0.2253E-01  0.1511E-01  0.1786E-01  0.2253E-01  0.7447E-02
      6.946  0.1099E+00  0.4399E-01  0.4399E-01  0.2303E-01  0.4764E-01  0.3194E-01  0.3777E-01  0.4764E-01  0.1574E-01
      7.007  0.1149E+00  0.4600E-01  0.4600E-01  0.2408E-01  0.4982E-01  0.3341E-01  0.3949E-01  0.4982E-01  0.1646E-01
      7.068  0.5946E-01  0.2380E-01  0.2380E-01  0.1246E-01  0.2578E-01  0.1728E-01  0.2043E-01  0.2578E-01  0.8519E-02
      7.129  0.1524E-01  0.6121E-02  0.6121E-02  0.3183E-02  0.6609E-02  0.4421E-02  0.5228E-02  0.6609E-02  0.2182E-02
      7.190  0.2845E-02  0.1564E-02  0.1562E-02  0.4099E-03  0.1305E-02  0.6863E-03  0.8379E-03  0.1301E-02  0.3853E-03
      7.252  0.9010E-02  0.7481E-02  0.7425E-02  0.1363E-03  0.4568E-02  0.1257E-02  0.1730E-02  0.4434E-02  0.1060E-02
      7.313  0.4393E-01  0.3433E-01  0.3348E-01  0.7693E-03  0.2195E-01  0.5629E-02  0.7746E-02  0.1993E-01  0.4851E-02
      7.374  0.1248E+00  0.8129E-01  0.7500E-01  0.3653E-02  0.5989E-01  0.1317E-01  0.1791E-01  0.4487E-01  0.1173E-01
      7.435  0.2345E+00  0.1062E+00  0.8323E-01  0.1108E-01  0.1055E+00  0.1667E-01  0.2190E-01  0.5066E-01  0.1617E-01
      7.496  0.3019E+00  0.8731E-01  0.4595E-01  0.1873E-01  0.1282E+00  0.1290E-01  0.1573E-01  0.2951E-01  0.1458E-01
      7.558  0.2364E+00  0.4961E-01  0.1275E-01  0.1637E-01  0.9755E-01  0.6847E-02  0.7590E-02  0.9559E-02  0.9049E-02
      7.619  0.9983E-01  0.1809E-01  0.1840E-02  0.7170E-02  0.4076E-01  0.2397E-02  0.2483E-02  0.1969E-02  0.3460E-02
      7.680  0.2162E-01  0.3686E-02  0.1595E-03  0.1566E-02  0.8763E-02  0.5427E-03  0.4835E-03  0.2872E-03  0.7179E-03
      7.741  0.5041E-02  0.3956E-03  0.1245E-03  0.2970E-03  0.1572E-02  0.9244E-03  0.5303E-04  0.1216E-03  0.7909E-04
      7.802  0.1894E-01  0.8781E-04  0.7933E-03  0.9003E-03  0.4449E-02  0.5961E-02  0.2462E-04  0.6582E-03  0.2817E-04
      7.864  0.6313E-01  0.2280E-03  0.2660E-02  0.2990E-02  0.1476E-01  0.1998E-01  0.7431E-04  0.2204E-02  0.8141E-04
      7.925  0.1047E+00  0.3802E-03  0.4439E-02  0.4957E-02  0.2446E-01  0.3313E-01  0.1345E-03  0.3679E-02  0.1347E-03
      7.986  0.8792E-01  0.3767E-03  0.4232E-02  0.4126E-02  0.2019E-01  0.2769E-01  0.3247E-03  0.3543E-02  0.1104E-03
      8.047  0.5483E-01  0.7625E-03  0.7103E-02  0.2267E-02  0.9544E-02  0.1609E-01  0.2085E-02  0.6267E-02  0.4522E-04
      8.108  0.9732E-01  0.3027E-02  0.2551E-01  0.3250E-02  0.8117E-02  0.2519E-01  0.9189E-02  0.2310E-01  0.2179E-04
      8.170  0.2052E+00  0.7806E-02  0.5654E-01  0.7547E-02  0.1575E-01  0.5188E-01  0.2069E-01  0.5202E-01  0.1717E-03
      8.231  0.2534E+00  0.1528E-01  0.6814E-01  0.1427E-01  0.2459E-01  0.6019E-01  0.2522E-01  0.6466E-01  0.1117E-02
      8.292  0.2328E+00  0.2957E-01  0.5796E-01  0.2666E-01  0.3733E-01  0.4340E-01  0.2203E-01  0.5916E-01  0.3671E-02
      8.353  0.2265E+00  0.4305E-01  0.5058E-01  0.3703E-01  0.4955E-01  0.2879E-01  0.1975E-01  0.5543E-01  0.6783E-02
      8.414  0.2269E+00  0.4128E-01  0.4226E-01  0.2840E-01  0.4599E-01  0.1880E-01  0.1665E-01  0.4678E-01  0.1046E-01
      8.475  0.2699E+00  0.3759E-01  0.3764E-01  0.1118E-01  0.4037E-01  0.1113E-01  0.1484E-01  0.4043E-01  0.1751E-01
      8.537  0.2893E+00  0.3524E-01  0.3523E-01  0.2412E-02  0.3707E-01  0.7558E-02  0.1388E-01  0.3708E-01  0.2080E-01
      8.598  0.1798E+00  0.2133E-01  0.2132E-01  0.4048E-03  0.2233E-01  0.4204E-02  0.8398E-02  0.2234E-01  0.1316E-01
      8.659  0.5672E-01  0.6699E-02  0.6696E-02  0.7525E-04  0.7010E-02  0.1302E-02  0.2638E-02  0.7012E-02  0.4163E-02
      8.720  0.8844E-02  0.1044E-02  0.1043E-02  0.1054E-04  0.1092E-02  0.2025E-03  0.4111E-03  0.1093E-02  0.6493E-03
      8.781  0.6762E-03  0.7981E-04  0.7978E-04  0.7931E-06  0.8350E-04  0.1548E-04  0.3143E-04  0.8353E-04  0.4965E-04
      8.843  0.2521E-04  0.2975E-05  0.2974E-05  0.2954E-07  0.3113E-05  0.5770E-06  0.1171E-05  0.3114E-05  0.1851E-05
      8.904  0.4705E-06  0.6087E-07  0.7288E-07  0.7611E-08  0.6301E-07  0.1308E-07  0.2247E-07  0.5895E-07  0.3347E-07
      8.965  0.1059E-05  0.5088E-06  0.1373E-05  0.5085E-06  0.4839E-06  0.1903E-06  0.9268E-07  0.1907E-06  0.2922E-09
      9.026  0.3670E-04  0.1768E-04  0.4775E-04  0.1769E-04  0.1682E-04  0.6615E-05  0.3218E-05  0.6617E-05  0.1241E-11
      9.087  0.6213E-03  0.2993E-03  0.8084E-03  0.2994E-03  0.2847E-03  0.1120E-03  0.5447E-04  0.1120E-03  0.2231E-12
      9.149  0.5145E-02  0.2479E-02  0.6694E-02  0.2480E-02  0.2357E-02  0.9273E-03  0.4510E-03  0.9275E-03  0.1827E-11
      9.210  0.2094E-01  0.1009E-01  0.2725E-01  0.1009E-01  0.9596E-02  0.3775E-02  0.1836E-02  0.3776E-02  0.7437E-11
      9.271  0.4208E-01  0.2027E-01  0.5475E-01  0.2028E-01  0.1928E-01  0.7584E-02  0.3689E-02  0.7586E-02  0.1515E-10
      9.332  0.4183E-01  0.2015E-01  0.5442E-01  0.2016E-01  0.1916E-01  0.7538E-02  0.3667E-02  0.7540E-02  0.4787E-10
      9.393  0.2057E-01  0.9907E-02  0.2676E-01  0.9911E-02  0.9422E-02  0.3707E-02  0.1803E-02  0.3707E-02  0.2493E-08
      9.455  0.5080E-02  0.2410E-02  0.6521E-02  0.2409E-02  0.2298E-02  0.9092E-03  0.4427E-03  0.9043E-03  0.9065E-07
      9.516  0.2190E-02  0.3952E-03  0.1270E-02  0.3509E-03  0.4767E-03  0.2809E-03  0.1446E-03  0.1902E-03  0.1610E-05
      9.577  0.1388E-01  0.9679E-03  0.4381E-02  0.5814E-03  0.1786E-02  0.1520E-02  0.8219E-03  0.7455E-03  0.1407E-04
      9.638  0.5933E-01  0.4277E-02  0.1929E-01  0.2602E-02  0.7569E-02  0.6621E-02  0.3828E-02  0.3550E-02  0.6221E-04
      9.699  0.1280E+00  0.1115E-01  0.4839E-01  0.7362E-02  0.1616E-01  0.1557E-01  0.1132E-01  0.1132E-01  0.1525E-03
      9.761  0.1486E+00  0.2182E-01  0.8751E-01  0.1663E-01  0.1800E-01  0.2403E-01  0.2731E-01  0.3007E-01  0.2613E-03
      9.822  0.1128E+00  0.3518E-01  0.1321E+00  0.2958E-01  0.1205E-01  0.3071E-01  0.5044E-01  0.5834E-01  0.3752E-03
      9.883  0.7081E-01  0.3674E-01  0.1346E+00  0.3191E-01  0.6299E-02  0.2909E-01  0.5503E-01  0.6456E-01  0.3751E-03
      9.944  0.3390E-01  0.2084E-01  0.7511E-01  0.1815E-01  0.2748E-02  0.1588E-01  0.3116E-01  0.3678E-01  0.2196E-03
     10.005  0.1687E-01  0.8806E-02  0.2343E-01  0.6568E-02  0.1809E-02  0.4569E-02  0.9036E-02  0.1171E-01  0.2212E-03
     10.067  0.3953E-01  0.1847E-01  0.1774E-01  0.8384E-02  0.6782E-02  0.1165E-02  0.3011E-02  0.9110E-02  0.1196E-02