    4    4   10    1
  0.1820629E+02  0.4176000E-09  0.4176000E-09  0.4176000E-09  0.3500000E-15
   1.0000000000000000E-004
  CAR 
 Au, FCC                                 
   44   10   26

  0.8333333E-01  0.8333333E-01  0.8333333E-01  0.3703704E-01
   1       -4.0482
   2       -1.4927
   3       -1.4927
   4       -1.4927
   5       -1.2254
   6       -1.2254
   7       -1.2254
   8        0.4378
   9        0.5763
  10        0.5763
  11        1.8261
  12        1.8261
  13        2.7137
  14        2.7137
  15        2.7137
  16        2.7300
  17        2.7300
  18        2.7300
  19        3.1348
  20        3.1348
  21        3.1348
  22        6.0724
  23        6.0724
  24        6.0724
  25       10.7670
  26       10.7670

  0.2500000E+00  0.8333333E-01  0.8333333E-01  0.1111111E+00
   1       -3.4659
   2       -1.3432
   3       -1.1703
   4       -1.1703
   5       -1.0218
   6       -0.8737
   7       -0.8737
   8        0.2052
   9        0.7909
  10        0.7977
  11        1.5809
  12        1.6373
  13        1.6373
  14        1.9841
  15        2.0079
  16        2.3667
  17        2.3882
  18        2.3882
  19        2.9168
  20        3.0954
  21        3.0954
  22        3.8918
  23        7.3829
  24        7.3829
  25       10.3367
  26       10.3367

  0.4166667E+00  0.8333333E-01  0.8333333E-01  0.1111111E+00
   1       -2.4283
   2       -1.4701
   3       -0.6597
   4       -0.6597
   5       -0.6573
   6       -0.2973
   7       -0.2973
   8       -0.2106
   9        0.5471
  10        0.5471
  11        0.9370
  12        1.0664
  13        1.2216
  14        1.6011
  15        1.7900
  16        1.8728
  17        1.8728
  18        2.2639
  19        2.4127
  20        2.6004
  21        3.0802
  22        3.0802
  23        8.4980
  24        8.4980
  25       10.1945
  26       10.1945

  0.2500000E+00  0.2500000E+00  0.8333333E-01  0.1111111E+00
   1       -2.9463
   2       -1.0573
   3       -1.0289
   4       -1.0289
   5       -0.6712
   6       -0.6712
   7       -0.4640
   8        0.1815
   9        0.8099
  10        0.8601
  11        0.9945
  12        0.9945
  13        1.2490
  14        1.5866
  15        2.0325
  16        2.1341
  17        2.1553
  18        2.1553
  19        2.8396
  20        2.8396
  21        2.8730
  22        5.0930
  23        5.0930
  24        8.1754
  25        9.2705
  26       12.3097

  0.4166667E+00  0.2500000E+00  0.8333333E-01  0.2222222E+00
   1       -2.0345
   2       -1.1654
   3       -0.6855
   4       -0.5135
   5       -0.3518
   6       -0.2166
   7       -0.1183
   8       -0.0458
   9        0.2423
  10        0.4932
  11        0.5922
  12        0.6982
  13        1.1423
  14        1.6137
  15        1.6971
  16        1.7241
  17        1.8138
  18        2.3565
  19        2.6506
  20        2.7091
  21        2.7153
  22        3.4901
  23        6.3319
  24        7.4864
  25        9.8346
  26       10.9396

  0.4166667E+00  0.4166667E+00  0.8333333E-01  0.1111111E+00
   1       -1.4148
   2       -0.8251
   3       -0.8251
   4       -0.7213
   5        0.0897
   6        0.1165
   7        0.1165
   8        0.1268
   9        0.2408
  10        0.2408
  11        0.5890
  12        0.5969
  13        1.1076
  14        1.3854
  15        1.4182
  16        1.4182
  17        1.7213
  18        2.1855
  19        2.1855
  20        2.3229
  21        3.4671
  22        4.5935
  23        4.5935
  24        5.8496
  25       10.8539
  26       12.2516

  0.2500000E+00  0.2500000E+00  0.2500000E+00  0.3703704E-01
   1       -2.5719
   2       -1.0659
   3       -1.0659
   4       -1.0659
   5       -0.2270
   6       -0.2270
   7       -0.2270
   8        0.4195
   9        0.7573
  10        0.7573
  11        0.8570
  12        0.8570
  13        0.8570
  14        1.5717
  15        1.5717
  16        1.5717
  17        2.0123
  18        2.0123
  19        3.0067
  20        3.0067
  21        3.0067
  22        5.8372
  23        5.8372
  24        5.8372
  25       10.1329
  26       10.1329

  0.4166667E+00  0.2500000E+00  0.2500000E+00  0.1111111E+00
   1       -1.9543
   2       -1.3518
   3       -0.9569
   4       -0.9569
   5       -0.0459
   6       -0.0459
   7        0.2236
   8        0.5082
   9        0.5428
  10        0.6561
  11        0.8277
  12        0.8657
  13        0.8657
  14        1.1162
  15        1.3206
  16        1.3206
  17        2.3527
  18        2.5092
  19        2.8520
  20        2.8520
  21        2.8857
  22        3.7257
  23        6.9495
  24        6.9495
  25        8.3319
  26        8.3319

  0.4166667E+00  0.4166667E+00  0.2500000E+00  0.1111111E+00
   1       -1.7455
   2       -1.3920
   3       -1.3920
   4       -1.2618
   5        0.1633
   6        0.2657
   7        0.2657
   8        0.5281
   9        0.7008
  10        0.8739
  11        0.8739
  12        0.9372
  13        1.2443
  14        1.2443
  15        1.2943
  16        1.3952
  17        2.3166
  18        2.7304
  19        2.7304
  20        2.7369
  21        3.2561
  22        4.6819
  23        4.6819
  24        6.1174
  25        8.1796
  26        9.7028

  0.4166667E+00  0.4166667E+00  0.4166667E+00  0.3703704E-01
   1       -1.8705
   2       -1.7003
   3       -1.7003
   4       -1.7003
   5        0.3789
   6        0.3789
   7        0.3789
   8        0.5223
   9        0.5223
  10        0.6088
  11        0.6088
  12        0.6088
  13        2.1735
  14        2.1735
  15        2.1735
  16        2.7792
  17        2.7792
  18        2.9314
  19        2.9376
  20        2.9376
  21        2.9376
  22        4.8881
  23        4.8881
  24        4.8881
  25        7.9074
  26        7.9074
