       N       E                     dE             d eps       ncg     rms          rms(c)
DAV:   1     0.349862683136E+03    0.34986E+03   -0.17501E+04   520   0.123E+03

DAV:   2     0.360846551165E+01   -0.34625E+03   -0.33380E+03   534   0.420E+02

DAV:   3    -0.134086489742E+02   -0.17017E+02   -0.16378E+02   616   0.897E+01

DAV:   4    -0.137612652997E+02   -0.35262E+00   -0.35158E+00   556   0.127E+01

DAV:   5    -0.137673058107E+02   -0.60405E-02   -0.60397E-02   580   0.139E+00    0.576E+00
RMM:   6    -0.128261552900E+02    0.94115E+00   -0.26850E+00   520   0.145E+01    0.150E+00
RMM:   7    -0.127746001073E+02    0.51555E-01   -0.28856E-01   524   0.335E+00    0.581E-01
RMM:   8    -0.127626105225E+02    0.11990E-01   -0.12342E-02   524   0.112E+00    0.843E-02
RMM:   9    -0.127625146954E+02    0.95827E-04   -0.15148E-03   511   0.234E-01    0.281E-02
RMM:  10    -0.127625152277E+02   -0.53232E-06   -0.57698E-05   273   0.597E-02

   1 F= -.12762515E+02 E0= -.12759407E+02  d E =-.127625E+02

