 vasp.4.6.26 15Dec04 complex 
 executed on             LinuxPgi date 2009.11.30  23:44:10
 serial version


--------------------------------------------------------------------------------------------------------


 INCAR:
 POTCAR:   PAW_GGA Au 18Jul2000                   
 POTCAR:   PAW_GGA Au 18Jul2000                   
  local pseudopotential read in
  partial core-charges read in
  atomic valenz-charges read in
  non local Contribution for L=                        2  read in
    real space projection operators read in
  non local Contribution for L=                        2  read in
    real space projection operators read in
  non local Contribution for L=                        0  read in
    real space projection operators read in
  non local Contribution for L=                        0  read in
    real space projection operators read in
  non local Contribution for L=                        1  read in
    real space projection operators read in
  non local Contribution for L=                        1  read in
    real space projection operators read in
    PAW grid and wavefunctions read in

   number of l-projection  operators is LMAX  =                        6
   number of lm-projection operators is LMMAX =                       18

 PAW_GGA Au 18Jul2000                   :
 energy of atom  1       EATOM= -927.0928
 kinetic energy error for atom=    0.0152 (will be added to EATOM!!)

 EXHCAR: internal setup
 exchange correlation table for  LEXCH =        7
   RHO(1)=    0.500       N(1)  =     2000
   RHO(2)=  100.500       N(2)  =     4000

 POSCAR: Pure FCC metal                          
  positions in direct lattice
  velocities in cartesian coordinates
  No initial velocities read in



--------------------------------------------------------------------------------------------------------


 ion  position               nearest neighbor table
   1  0.000  0.000  0.000-   2 2.95   3 2.95   4 2.95   3 2.95   4 2.95   2 2.95   4 2.95   4 2.95
                             2 2.95   3 2.95   3 2.95   2 2.95
   2  0.500  0.500  0.000-   1 2.95   3 2.95   4 2.95   3 2.95   4 2.95   1 2.95   3 2.95   3 2.95
                             1 2.95   4 2.95   4 2.95   1 2.95
   3  0.500  0.000  0.500-   1 2.95   2 2.95   4 2.95   1 2.95   2 2.95   2 2.95   4 2.95   2 2.95
                             1 2.95   4 2.95   1 2.95   4 2.95
   4  0.000  0.500  0.500-   1 2.95   2 2.95   3 2.95   1 2.95   2 2.95   1 2.95   3 2.95   1 2.95
                             2 2.95   3 2.95   2 2.95   3 2.95

  LATTYP: Found a simple cubic cell.
 ALAT       =     4.1760000000
  
  Lattice vectors:
  
 A1 = (   4.1760000000,   0.0000000000,   0.0000000000)
 A2 = (   0.0000000000,   4.1760000000,   0.0000000000)
 A3 = (   0.0000000000,   0.0000000000,   4.1760000000)
 Subroutine PRICEL returns following result:
 
  LATTYP: Found a face centered cubic cell.
 ALAT       =     4.1760000000
  
  Lattice vectors:
  
 A1 = (   2.0880000000,   2.0880000000,   0.0000000000)
 A2 = (   2.0880000000,   0.0000000000,  -2.0880000000)
 A3 = (   0.0000000000,   2.0880000000,  -2.0880000000)
 
   4 primitive cells build up your supercell.
 

Analysis of symmetry for initial positions (statically):

 Routine SETGRP: Setting up the symmetry group for a 
 simple cubic supercell.


 Subroutine GETGRP returns: Found 48 space group operations
 (whereof 48 operations were pure point group operations)
 out of a pool of 48 trial point group operations.


The static configuration has the point symmetry O_h .

Analysis of symmetry for dynamics (positions and initial velocities):

 Subroutine DYNSYM returns: Found 48 space group operations
 (whereof 48 operations were pure point group operations)
 out of a pool of 48 trial space group operations
 (whereof 48 operations were pure point group operations)
 and found also     4 'primitive' translations


The dynamic configuration has the point symmetry O_h .


 KPOINTS: 6x6x6 title card                        

Automatic generation of k-mesh.
 
 Subroutine IBZKPT returns following result:
 ===========================================
 
 Found     10 irreducible k-points:
 
 Following reciprocal coordinates:
            Coordinates               Weight
  0.083333  0.083333  0.083333      8.000000
  0.250000  0.083333  0.083333     24.000000
  0.416667  0.083333  0.083333     24.000000
  0.250000  0.250000  0.083333     24.000000
  0.416667  0.250000  0.083333     48.000000
  0.416667  0.416667  0.083333     24.000000
  0.250000  0.250000  0.250000      8.000000
  0.416667  0.250000  0.250000     24.000000
  0.416667  0.416667  0.250000     24.000000
  0.416667  0.416667  0.416667      8.000000
 
 Following cartesian coordinates:
            Coordinates               Weight
  0.083333  0.083333  0.083333      8.000000
  0.250000  0.083333  0.083333     24.000000
  0.416667  0.083333  0.083333     24.000000
  0.250000  0.250000  0.083333     24.000000
  0.416667  0.250000  0.083333     48.000000
  0.416667  0.416667  0.083333     24.000000
  0.250000  0.250000  0.250000      8.000000
  0.416667  0.250000  0.250000     24.000000
  0.416667  0.416667  0.250000     24.000000
  0.416667  0.416667  0.416667      8.000000
 


--------------------------------------------------------------------------------------------------------




 Dimension of arrays:
   k-Points           NKPTS =     10   number of bands    NBANDS=     26
   number of dos      NEDOS =    301   number of ions     NIONS =      4
   non local maximal  LDIM  =      6   non local SUM 2l+1 LMDIM =     18
   total plane-waves  NPLWV =   8000
   max r-space proj   IRMAX =      1   max aug-charges    IRDMAX=   6917
   dimension x,y,z NGX =    20 NGY =   20 NGZ =   20
   dimension x,y,z NGXF=    40 NGYF=   40 NGZF=   40
   support grid    NGXF=    40 NGYF=   40 NGZF=   40
   ions per type =               4
 NGX,Y,Z   is equivalent  to a cutoff of   7.96,  7.96,  7.96 a.u.
 NGXF,Y,Z  is equivalent  to a cutoff of  15.92, 15.92, 15.92 a.u.


 I would recommend the setting:
   dimension x,y,z NGX =    19 NGY =   19 NGZ =   19
 SYSTEM =  Au, FCC                                 
 POSCAR =  Pure FCC metal                          

 Startparameter for this run:
   NWRITE =      1    write-flag & timer
   PREC   = normal    medium, high low
   ISTART =      0    job   : 0-new  1-cont  2-samecut
   ICHARG =      2    charge: 1-file 2-atom 10-const
   ISPIN  =      1    spin polarized calculation?
   LNONCOLLINEAR =      F non collinear calculations
   LSORBIT =      F    spin-orbit coupling
   INIWAV =      1    electr: 0-lowe 1-rand  2-diag
   LASPH  =      F    aspherical Exc in radial PAW
   METAGGA=      F    non-selfconsistent MetaGGA calc.

 Electronic Relaxation 1
   ENCUT  =  350.0 eV  25.72 Ry    5.07 a.u.   6.37  6.37  6.37*2*pi/ulx,y,z
   ENINI  =  350.0     initial cutoff
   ENAUG  =  356.7 eV  augmentation charge cutoff
   NELM   =     60;   NELMIN=  2; NELMDL= -5     # of ELM steps 
   EDIFF  = 0.1E-03   stopping-criterion for ELM
   LREAL  =      F    real-space projection
   LCOMPAT=      F    compatible to vasp.4.4
   LREAL_COMPAT= F    compatible to vasp.4.5.1-3
   GGA_COMPAT  = T    GGA compatible to vasp.4.4-vasp.4.6
   LMAXPAW     = -100 max onsite density
   LMAXMIX     =    2 max onsite mixed and CHGCAR
   VOSKOWN=      0    Vosko Wilk Nusair interpolation
   ROPT   =    0.00000
 Ionic relaxation
   EDIFFG = 0.1E-02   stopping-criterion for IOM
   NSW    =     10    number of steps for IOM
   NBLOCK =      1;   KBLOCK =     10    inner block; outer block 
   IBRION =      1    ionic relax: 0-MD 1-quasi-New 2-CG
   NFREE  =      5    steps in history (QN), initial steepest desc. (CG)
   ISIF   =      3    stress and relaxation
   IWAVPR =     11    prediction:  0-non 1-charg 2-wave 3-comb
   ISYM   =      2    0-nonsym 1-usesym 2-fastsym
   LCORR  =      T    Harris-Foulkes like correction to forces

   POTIM  =   0.35    time-step for ionic-motion
   TEIN   =    0.0    initial temperature
   TEBEG  =    0.0;   TEEND  =   0.0 temperature during run
   SMASS  =  -3.00    Nose mass-parameter (am)
   estimated Nose-frequenzy (Omega)   =  0.10E-29 period in steps =****** mass=  -0.399E-27a.u.
   NPACO  =    256;   APACO  = 16.0  distance and # of slots for P.C.
   PSTRESS=    0.0 pullay stress

  Mass of Ions in am
   POMASS = 196.97
  Ionic Valenz
   ZVAL   =  11.00
  Atomic Wigner-Seitz radii
   RWIGS  =  -1.00
   NELECT =      44.0000    total number of electrons
   NUPDOWN=      -1.0000    fix difference up-down

 DOS related values:
   EMIN   =  10.00;   EMAX   =-10.00  energy-range for DOS
   ISMEAR =     0;   SIGMA  =   0.10  broadening in eV -4-tet -1-fermi 0-gaus

 Electronic relaxation 2 (details)
   IALGO  =     68    algorithm
   LDIAG  =      T    sub-space diagonalisation
   IMIX   =      4    mixing-type and parameters
     AMIX     =   0.40;   BMIX     =  1.00
     AMIX_MAG =   1.60;   BMIX_MAG =  1.00
     AMIN     =   0.10
     WC   =   100.;   INIMIX=   1;  MIXPRE=   1

 Intra band minimization:
   WEIMIN = 0.0010     energy-eigenvalue tresh-hold
   EBREAK =  0.96E-06  absolut break condition
   DEPER  =   0.30     relativ break condition  

   TIME   =   0.10     timestep for ELM

  volume/ion in A,a.u.               =      18.21       122.86
  Fermi-wavevector in a.u.,eV,Ry     =   1.383987 26.060858  1.915419

 Second variation
   LSECVAR=     F    do a second variation

 Write flags
   LWAVE  =      F    write WAVECAR
   LCHARG =      T    write CHGCAR
   LVTOT  =      F    write LOCPOT, local potential
   LELF   =      F    write electronic localiz. function (ELF)
   LORBIT =     11    0 simple, 1 ext, 2 COOP (PROOUT)


 Dipole corrections
   IDIPOL =      0    1-x, 2-y, 3-z
   LDIPOL =      F    correct potential



--------------------------------------------------------------------------------------------------------


 quasi-Newton-method for relaxation of ions
 charge density will be updated during run
 non-spin polarized calculation
 RMM-DIIS sequential band-by-band and
  variant of blocked Davidson during initial phase
 performe sub-space diagonalisation
    before iterative eigenvector-optimisation
 modified Broyden-mixing scheme, WC =      100.0
 initial mixing is a Kerker type mixing with AMIX =  0.4000 and BMIX =      1.0000
 Hartree-type preconditioning will be used
 using additional bands                         4
 reciprocal scheme for non local part
 use partial core corrections
 calculate Harris-corrections to forces 
   (improved forces if not selfconsistent)
 use gradient corrections 
 use of overlap-Matrix (Vanderbilt PP)
 Gauss-broadening in eV      SIGMA  =   0.10


--------------------------------------------------------------------------------------------------------


  energy-cutoff  :      350.00
  volume of cell :       72.83
      direct lattice vectors                 reciprocal lattice vectors
     4.176000000  0.000000000  0.000000000     0.239463602  0.000000000  0.000000000
     0.000000000  4.176000000  0.000000000     0.000000000  0.239463602  0.000000000
     0.000000000  0.000000000  4.176000000     0.000000000  0.000000000  0.239463602

  length of vectors
     4.176000000  4.176000000  4.176000000     0.239463602  0.239463602  0.239463602



 k-points in units of 2pi/SCALE and weight: 6x6x6 title card                        
   0.08333333  0.08333333  0.08333333       0.037
   0.25000000  0.08333333  0.08333333       0.111
   0.41666667  0.08333333  0.08333333       0.111
   0.25000000  0.25000000  0.08333333       0.111
   0.41666667  0.25000000  0.08333333       0.222
   0.41666667  0.41666667  0.08333333       0.111
   0.25000000  0.25000000  0.25000000       0.037
   0.41666667  0.25000000  0.25000000       0.111
   0.41666667  0.41666667  0.25000000       0.111
   0.41666667  0.41666667  0.41666667       0.037

 k-points in reciprocal lattice and weights: 6x6x6 title card                        
   0.08333333  0.08333333  0.08333333       0.037
   0.25000000  0.08333333  0.08333333       0.111
   0.41666667  0.08333333  0.08333333       0.111
   0.25000000  0.25000000  0.08333333       0.111
   0.41666667  0.25000000  0.08333333       0.222
   0.41666667  0.41666667  0.08333333       0.111
   0.25000000  0.25000000  0.25000000       0.037
   0.41666667  0.25000000  0.25000000       0.111
   0.41666667  0.41666667  0.25000000       0.111
   0.41666667  0.41666667  0.41666667       0.037

 position of ions in fractional coordinates (direct lattice) 
   0.00000000  0.00000000  0.00000000
   0.50000000  0.50000000  0.00000000
   0.50000000  0.00000000  0.50000000
   0.00000000  0.50000000  0.50000000

 position of ions in cartesian coordinates  (Angst):
   0.00000000  0.00000000  0.00000000
   2.08800000  2.08800000  0.00000000
   2.08800000  0.00000000  2.08800000
   0.00000000  2.08800000  2.08800000



--------------------------------------------------------------------------------------------------------


 k-point  1 :  0.08330.08330.0833  plane waves:   1081
 k-point  2 :  0.25000.08330.0833  plane waves:   1084
 k-point  3 :  0.41670.08330.0833  plane waves:   1086
 k-point  4 :  0.25000.25000.0833  plane waves:   1082
 k-point  5 :  0.41670.25000.0833  plane waves:   1097
 k-point  6 :  0.41670.41670.0833  plane waves:   1075
 k-point  7 :  0.25000.25000.2500  plane waves:   1069
 k-point  8 :  0.41670.25000.2500  plane waves:   1078
 k-point  9 :  0.41670.41670.2500  plane waves:   1074
 k-point 10 :  0.41670.41670.4167  plane waves:   1070

 maximum number of plane-waves:   1097
 maximal index in each direction: 
   IXMAX=  6   IYMAX=  6   IZMAX=  6
   IXMIN= -6   IYMIN= -6   IZMIN= -6

 WARNING: wrap around error must be expected set NGX to  26
 WARNING: wrap around error must be expected set NGY to  26
 WARNING: wrap around error must be expected set NGZ to  26
 For storing wavefunctions    4.49 MBYTES are necessary
 For predicting wavefunctions    1.59 MBYTES are necessary
Broyden mixing: mesh for mixing (old mesh)
   NGX = 13   NGY = 13   NGZ = 13
  (NGX  = 40   NGY  = 40   NGZ  = 40)
 gives a total of   2197 points
 initial charge density was supplied:
 charge density of overlapping atoms calculated
 number of electron   44.0000000 magnetization 
 keeping initial charge density in first step


--------------------------------------------------------------------------------------------------------


 Maximum index for augmentation-charges                      6619 (set IRDMAX)


--------------------------------------------------------------------------------------------------------


 First call to EWALD:  gamma=   0.424
 Maximum number of real-space cells 3x 3x 3
 Maximum number of reciprocal cells 3x 3x 3



----------------------------------------- Iteration    1(   1)  ---------------------------------------


      LOOP:  VPU time    2.06: CPU time    2.00

 eigenvalue-minimisations  :   520
 total energy-change (2. order) : 0.3498627E+03  (-0.1750072E+04)
 number of electron   44.0000000 magnetization 
 augmentation part    44.0000000 magnetization 

 Free energy of the ion-electron system (eV)
  ---------------------------------------------------
  alpha Z        PSCENC =       410.59993510
  Ewald energy   TEWEN  =     -3825.93184368
  -1/2 Hartree   DENC   =      -529.55712152
  -V(xc)+E(xc)   XCENC  =        59.97000211
  PAW double counting   =      2990.61254974    -2898.25794382
  entropy T*S    EENTRO =        -0.01803508
  eigenvalues    EBANDS =       434.13468254
  atomic energy  EATOM  =      3708.31045775
  ---------------------------------------------------
  free energy    TOTEN  =       349.86268314 eV

  energy without entropy =      349.88071822  energy(sigma->0) =      349.87170068


--------------------------------------------------------------------------------------------------------




----------------------------------------- Iteration    1(   2)  ---------------------------------------


      LOOP:  VPU time    2.04: CPU time    1.78

 eigenvalue-minimisations  :   534
 total energy-change (2. order) :-0.3462542E+03  (-0.3337978E+03)
 number of electron   44.0000000 magnetization 
 augmentation part    44.0000000 magnetization 

 Free energy of the ion-electron system (eV)
  ---------------------------------------------------
  alpha Z        PSCENC =       410.59993510
  Ewald energy   TEWEN  =     -3825.93184368
  -1/2 Hartree   DENC   =      -529.55712152
  -V(xc)+E(xc)   XCENC  =        59.97000211
  PAW double counting   =      2990.61254974    -2898.25794382
  entropy T*S    EENTRO =        -0.00805337
  eigenvalues    EBANDS =        87.87048320
  atomic energy  EATOM  =      3708.31045775
  ---------------------------------------------------
  free energy    TOTEN  =         3.60846551 eV

  energy without entropy =        3.61651888  energy(sigma->0) =        3.61249220


--------------------------------------------------------------------------------------------------------




----------------------------------------- Iteration    1(   3)  ---------------------------------------


      LOOP:  VPU time    2.19: CPU time    2.00

 eigenvalue-minimisations  :   616
 total energy-change (2. order) :-0.1701711E+02  (-0.1637828E+02)
 number of electron   44.0000000 magnetization 
 augmentation part    44.0000000 magnetization 

 Free energy of the ion-electron system (eV)
  ---------------------------------------------------
  alpha Z        PSCENC =       410.59993510
  Ewald energy   TEWEN  =     -3825.93184368
  -1/2 Hartree   DENC   =      -529.55712152
  -V(xc)+E(xc)   XCENC  =        59.97000211
  PAW double counting   =      2990.61254974    -2898.25794382
  entropy T*S    EENTRO =        -0.02123400
  eigenvalues    EBANDS =        70.86654935
  atomic energy  EATOM  =      3708.31045775
  ---------------------------------------------------
  free energy    TOTEN  =       -13.40864897 eV

  energy without entropy =      -13.38741497  energy(sigma->0) =      -13.39803197


--------------------------------------------------------------------------------------------------------




----------------------------------------- Iteration    1(   4)  ---------------------------------------


      LOOP:  VPU time    2.06: CPU time    1.82

 eigenvalue-minimisations  :   556
 total energy-change (2. order) :-0.3526163E+00  (-0.3515757E+00)
 number of electron   44.0000000 magnetization 
 augmentation part    44.0000000 magnetization 

 Free energy of the ion-electron system (eV)
  ---------------------------------------------------
  alpha Z        PSCENC =       410.59993510
  Ewald energy   TEWEN  =     -3825.93184368
  -1/2 Hartree   DENC   =      -529.55712152
  -V(xc)+E(xc)   XCENC  =        59.97000211
  PAW double counting   =      2990.61254974    -2898.25794382
  entropy T*S    EENTRO =        -0.02169988
  eigenvalues    EBANDS =        70.51439890
  atomic energy  EATOM  =      3708.31045775
  ---------------------------------------------------
  free energy    TOTEN  =       -13.76126530 eV

  energy without entropy =      -13.73956542  energy(sigma->0) =      -13.75041536


--------------------------------------------------------------------------------------------------------




----------------------------------------- Iteration    1(   5)  ---------------------------------------


      LOOP:  VPU time    2.24: CPU time    2.06

 eigenvalue-minimisations  :   580
 total energy-change (2. order) :-0.6040511E-02  (-0.6039735E-02)
 number of electron   43.9999947 magnetization 
 augmentation part    15.4986746 magnetization 

 Broyden mixing:
  rms(total) = 0.57562E+00    rms(broyden)= 0.57562E+00
  rms(prec ) = 0.14546E+01
  weight for this iteration     100.00

 Free energy of the ion-electron system (eV)
  ---------------------------------------------------
  alpha Z        PSCENC =       410.59993510
  Ewald energy   TEWEN  =     -3825.93184368
  -1/2 Hartree   DENC   =      -529.55712152
  -V(xc)+E(xc)   XCENC  =        59.97000211
  PAW double counting   =      2990.61254974    -2898.25794382
  entropy T*S    EENTRO =        -0.02170626
  eigenvalues    EBANDS =        70.50836477
  atomic energy  EATOM  =      3708.31045775
  ---------------------------------------------------
  free energy    TOTEN  =       -13.76730581 eV

  energy without entropy =      -13.74559955  energy(sigma->0) =      -13.75645268


--------------------------------------------------------------------------------------------------------




----------------------------------------- Iteration    1(   6)  ---------------------------------------


      LOOP:  VPU time    2.29: CPU time    2.27

 eigenvalue-minimisations  :   520
 total energy-change (2. order) : 0.9411505E+00  (-0.2684962E+00)
 number of electron   43.9999946 magnetization 
 augmentation part    16.0398739 magnetization 

 Broyden mixing:
  rms(total) = 0.15013E+00    rms(broyden)= 0.15010E+00
  rms(prec ) = 0.36084E+00
  weight for this iteration     100.00

 eigenvalues of (default mixing * dielectric matrix)
  average eigenvalue GAMMA=   1.2212
  1.2212

 Free energy of the ion-electron system (eV)
  ---------------------------------------------------
  alpha Z        PSCENC =       410.59993510
  Ewald energy   TEWEN  =     -3825.93184368
  -1/2 Hartree   DENC   =      -498.67483972
  -V(xc)+E(xc)   XCENC  =        58.55596050
  PAW double counting   =      2958.99287238    -2871.16804579
  entropy T*S    EENTRO =        -0.00985041
  eigenvalues    EBANDS =        46.49919858
  atomic energy  EATOM  =      3708.31045775
  ---------------------------------------------------
  free energy    TOTEN  =       -12.82615529 eV

  energy without entropy =      -12.81630488  energy(sigma->0) =      -12.82123008


--------------------------------------------------------------------------------------------------------




----------------------------------------- Iteration    1(   7)  ---------------------------------------


      LOOP:  VPU time    2.30: CPU time    2.29

 eigenvalue-minimisations  :   524
 total energy-change (2. order) : 0.5155518E-01  (-0.2885639E-01)
 number of electron   43.9999946 magnetization 
 augmentation part    16.1757605 magnetization 

 Broyden mixing:
  rms(total) = 0.58059E-01    rms(broyden)= 0.58046E-01
  rms(prec ) = 0.83496E-01
  weight for this iteration     100.00

 eigenvalues of (default mixing * dielectric matrix)
  average eigenvalue GAMMA=   1.7377
  1.2488  2.2266

 Free energy of the ion-electron system (eV)
  ---------------------------------------------------
  alpha Z        PSCENC =       410.59993510
  Ewald energy   TEWEN  =     -3825.93184368
  -1/2 Hartree   DENC   =      -489.39298267
  -V(xc)+E(xc)   XCENC  =        58.11579049
  PAW double counting   =      2965.95596677    -2880.92861916
  entropy T*S    EENTRO =        -0.00603860
  eigenvalues    EBANDS =        40.50273390
  atomic energy  EATOM  =      3708.31045775
  ---------------------------------------------------
  free energy    TOTEN  =       -12.77460011 eV

  energy without entropy =      -12.76856151  energy(sigma->0) =      -12.77158081


--------------------------------------------------------------------------------------------------------




----------------------------------------- Iteration    1(   8)  ---------------------------------------


      LOOP:  VPU time    2.30: CPU time    2.21

 eigenvalue-minimisations  :   524
 total energy-change (2. order) : 0.1198958E-01  (-0.1234223E-02)
 number of electron   43.9999946 magnetization 
 augmentation part    16.1579662 magnetization 

 Broyden mixing:
  rms(total) = 0.84251E-02    rms(broyden)= 0.84229E-02
  rms(prec ) = 0.21263E-01
  weight for this iteration     100.00

 eigenvalues of (default mixing * dielectric matrix)
  average eigenvalue GAMMA=   1.7207
  2.6408  1.2607  1.2607

 Free energy of the ion-electron system (eV)
  ---------------------------------------------------
  alpha Z        PSCENC =       410.59993510
  Ewald energy   TEWEN  =     -3825.93184368
  -1/2 Hartree   DENC   =      -487.94109579
  -V(xc)+E(xc)   XCENC  =        58.02768546
  PAW double counting   =      2989.56926785    -2906.56982620
  entropy T*S    EENTRO =        -0.00648348
  eigenvalues    EBANDS =        41.17929247
  atomic energy  EATOM  =      3708.31045775
  ---------------------------------------------------
  free energy    TOTEN  =       -12.76261052 eV

  energy without entropy =      -12.75612705  energy(sigma->0) =      -12.75936878


--------------------------------------------------------------------------------------------------------




----------------------------------------- Iteration    1(   9)  ---------------------------------------


      LOOP:  VPU time    2.24: CPU time    2.24

 eigenvalue-minimisations  :   511
 total energy-change (2. order) : 0.9582713E-04  (-0.1514769E-03)
 number of electron   43.9999946 magnetization 
 augmentation part    16.1680220 magnetization 

 Broyden mixing:
  rms(total) = 0.28108E-02    rms(broyden)= 0.28099E-02
  rms(prec ) = 0.53181E-02
  weight for this iteration     100.00

 eigenvalues of (default mixing * dielectric matrix)
  average eigenvalue GAMMA=   1.8637
  1.1544  1.0430  2.6847  2.5728

 Free energy of the ion-electron system (eV)
  ---------------------------------------------------
  alpha Z        PSCENC =       410.59993510
  Ewald energy   TEWEN  =     -3825.93184368
  -1/2 Hartree   DENC   =      -487.12360959
  -V(xc)+E(xc)   XCENC  =        57.98807850
  PAW double counting   =      2992.55568481    -2909.81720945
  entropy T*S    EENTRO =        -0.00620123
  eigenvalues    EBANDS =        40.66219310
  atomic energy  EATOM  =      3708.31045775
  ---------------------------------------------------
  free energy    TOTEN  =       -12.76251470 eV

  energy without entropy =      -12.75631347  energy(sigma->0) =      -12.75941408


--------------------------------------------------------------------------------------------------------




----------------------------------------- Iteration    1(  10)  ---------------------------------------


      LOOP:  VPU time    1.52: CPU time    1.44

 eigenvalue-minimisations  :   273
 total energy-change (2. order) :-0.5323250E-06  (-0.5769818E-05)
 number of electron   43.9999946 magnetization 
 augmentation part    16.1680220 magnetization 

 Free energy of the ion-electron system (eV)
  ---------------------------------------------------
  alpha Z        PSCENC =       410.59993510
  Ewald energy   TEWEN  =     -3825.93184368
  -1/2 Hartree   DENC   =      -487.25509184
  -V(xc)+E(xc)   XCENC  =        57.99383794
  PAW double counting   =      2993.68066477    -2910.82245160
  entropy T*S    EENTRO =        -0.00621728
  eigenvalues    EBANDS =        40.66819361
  atomic energy  EATOM  =      3708.31045775
  ---------------------------------------------------
  free energy    TOTEN  =       -12.76251523 eV

  energy without entropy =      -12.75629795  energy(sigma->0) =      -12.75940659


--------------------------------------------------------------------------------------------------------




 average (electrostatic) potential at core
  the test charge radii are     1.2098
  (the norm of the test charge is              1.0000)
       1 -46.1476       2 -46.1476       3 -46.1476       4 -46.1476



 E-fermi :   4.7986     XC(G=0): -12.3428     alpha+bet : -9.5478
   add alpha+bet to get absolut eigen values

 k-point   1 :       0.0833    0.0833    0.0833
  band No.  band energies     occupation 
      1      -4.0482      2.00000
      2      -1.4927      2.00000
      3      -1.4927      2.00000
      4      -1.4927      2.00000
      5      -1.2254      2.00000
      6      -1.2254      2.00000
      7      -1.2254      2.00000
      8       0.4378      2.00000
      9       0.5763      2.00000
     10       0.5763      2.00000
     11       1.8261      2.00000
     12       1.8261      2.00000
     13       2.7137      2.00000
     14       2.7137      2.00000
     15       2.7137      2.00000
     16       2.7300      2.00000
     17       2.7300      2.00000
     18       2.7300      2.00000
     19       3.1348      2.00000
     20       3.1348      2.00000
     21       3.1348      2.00000
     22       6.0724      0.00000
     23       6.0724      0.00000
     24       6.0724      0.00000
     25      10.7670      0.00000
     26      10.7670      0.00000

 k-point   2 :       0.2500    0.0833    0.0833
  band No.  band energies     occupation 
      1      -3.4659      2.00000
      2      -1.3432      2.00000
      3      -1.1703      2.00000
      4      -1.1703      2.00000
      5      -1.0218      2.00000
      6      -0.8737      2.00000
      7      -0.8737      2.00000
      8       0.2052      2.00000
      9       0.7909      2.00000
     10       0.7977      2.00000
     11       1.5809      2.00000
     12       1.6373      2.00000
     13       1.6373      2.00000
     14       1.9841      2.00000
     15       2.0079      2.00000
     16       2.3667      2.00000
     17       2.3882      2.00000
     18       2.3882      2.00000
     19       2.9168      2.00000
     20       3.0954      2.00000
     21       3.0954      2.00000
     22       3.8918      2.00000
     23       7.3829      0.00000
     24       7.3829      0.00000
     25      10.3367      0.00000
     26      10.3367      0.00000

 k-point   3 :       0.4167    0.0833    0.0833
  band No.  band energies     occupation 
      1      -2.4283      2.00000
      2      -1.4701      2.00000
      3      -0.6597      2.00000
      4      -0.6597      2.00000
      5      -0.6573      2.00000
      6      -0.2973      2.00000
      7      -0.2973      2.00000
      8      -0.2106      2.00000
      9       0.5471      2.00000
     10       0.5471      2.00000
     11       0.9370      2.00000
     12       1.0664      2.00000
     13       1.2216      2.00000
     14       1.6011      2.00000
     15       1.7900      2.00000
     16       1.8728      2.00000
     17       1.8728      2.00000
     18       2.2639      2.00000
     19       2.4127      2.00000
     20       2.6004      2.00000
     21       3.0802      2.00000
     22       3.0802      2.00000
     23       8.4980      0.00000
     24       8.4980      0.00000
     25      10.1945      0.00000
     26      10.1945      0.00000

 k-point   4 :       0.2500    0.2500    0.0833
  band No.  band energies     occupation 
      1      -2.9463      2.00000
      2      -1.0573      2.00000
      3      -1.0289      2.00000
      4      -1.0289      2.00000
      5      -0.6712      2.00000
      6      -0.6712      2.00000
      7      -0.4640      2.00000
      8       0.1815      2.00000
      9       0.8099      2.00000
     10       0.8601      2.00000
     11       0.9945      2.00000
     12       0.9945      2.00000
     13       1.2490      2.00000
     14       1.5866      2.00000
     15       2.0325      2.00000
     16       2.1341      2.00000
     17       2.1553      2.00000
     18       2.1553      2.00000
     19       2.8396      2.00000
     20       2.8396      2.00000
     21       2.8730      2.00000
     22       5.0930      0.00003
     23       5.0930      0.00003
     24       8.1754      0.00000
     25       9.2705      0.00000
     26      12.3097      0.00000

 k-point   5 :       0.4167    0.2500    0.0833
  band No.  band energies     occupation 
      1      -2.0345      2.00000
      2      -1.1654      2.00000
      3      -0.6855      2.00000
      4      -0.5135      2.00000
      5      -0.3518      2.00000
      6      -0.2166      2.00000
      7      -0.1183      2.00000
      8      -0.0458      2.00000
      9       0.2423      2.00000
     10       0.4932      2.00000
     11       0.5922      2.00000
     12       0.6982      2.00000
     13       1.1423      2.00000
     14       1.6137      2.00000
     15       1.6971      2.00000
     16       1.7241      2.00000
     17       1.8138      2.00000
     18       2.3565      2.00000
     19       2.6506      2.00000
     20       2.7091      2.00000
     21       2.7153      2.00000
     22       3.4901      2.00000
     23       6.3319      0.00000
     24       7.4864      0.00000
     25       9.8346      0.00000
     26      10.9396      0.00000

 k-point   6 :       0.4167    0.4167    0.0833
  band No.  band energies     occupation 
      1      -1.4148      2.00000
      2      -0.8251      2.00000
      3      -0.8251      2.00000
      4      -0.7213      2.00000
      5       0.0897      2.00000
      6       0.1165      2.00000
      7       0.1165      2.00000
      8       0.1268      2.00000
      9       0.2408      2.00000
     10       0.2408      2.00000
     11       0.5890      2.00000
     12       0.5969      2.00000
     13       1.1076      2.00000
     14       1.3854      2.00000
     15       1.4182      2.00000
     16       1.4182      2.00000
     17       1.7213      2.00000
     18       2.1855      2.00000
     19       2.1855      2.00000
     20       2.3229      2.00000
     21       3.4671      2.00000
     22       4.5935      1.99627
     23       4.5935      1.99627
     24       5.8496      0.00000
     25      10.8539      0.00000
     26      12.2516      0.00000

 k-point   7 :       0.2500    0.2500    0.2500
  band No.  band energies     occupation 
      1      -2.5719      2.00000
      2      -1.0659      2.00000
      3      -1.0659      2.00000
      4      -1.0659      2.00000
      5      -0.2270      2.00000
      6      -0.2270      2.00000
      7      -0.2270      2.00000
      8       0.4195      2.00000
      9       0.7573      2.00000
     10       0.7573      2.00000
     11       0.8570      2.00000
     12       0.8570      2.00000
     13       0.8570      2.00000
     14       1.5717      2.00000
     15       1.5717      2.00000
     16       1.5717      2.00000
     17       2.0123      2.00000
     18       2.0123      2.00000
     19       3.0067      2.00000
     20       3.0067      2.00000
     21       3.0067      2.00000
     22       5.8372      0.00000
     23       5.8372      0.00000
     24       5.8372      0.00000
     25      10.1329      0.00000
     26      10.1329      0.00000

 k-point   8 :       0.4167    0.2500    0.2500
  band No.  band energies     occupation 
      1      -1.9543      2.00000
      2      -1.3518      2.00000
      3      -0.9569      2.00000
      4      -0.9569      2.00000
      5      -0.0459      2.00000
      6      -0.0459      2.00000
      7       0.2236      2.00000
      8       0.5082      2.00000
      9       0.5428      2.00000
     10       0.6561      2.00000
     11       0.8277      2.00000
     12       0.8657      2.00000
     13       0.8657      2.00000
     14       1.1162      2.00000
     15       1.3206      2.00000
     16       1.3206      2.00000
     17       2.3527      2.00000
     18       2.5092      2.00000
     19       2.8520      2.00000
     20       2.8520      2.00000
     21       2.8857      2.00000
     22       3.7257      2.00000
     23       6.9495      0.00000
     24       6.9495      0.00000
     25       8.3319      0.00000
     26       8.3319      0.00000

 k-point   9 :       0.4167    0.4167    0.2500
  band No.  band energies     occupation 
      1      -1.7455      2.00000
      2      -1.3920      2.00000
      3      -1.3920      2.00000
      4      -1.2618      2.00000
      5       0.1633      2.00000
      6       0.2657      2.00000
      7       0.2657      2.00000
      8       0.5281      2.00000
      9       0.7008      2.00000
     10       0.8739      2.00000
     11       0.8739      2.00000
     12       0.9372      2.00000
     13       1.2443      2.00000
     14       1.2443      2.00000
     15       1.2943      2.00000
     16       1.3952      2.00000
     17       2.3166      2.00000
     18       2.7304      2.00000
     19       2.7304      2.00000
     20       2.7369      2.00000
     21       3.2561      2.00000
     22       4.6819      1.90098
     23       4.6819      1.90098
     24       6.1174      0.00000
     25       8.1796      0.00000
     26       9.7028      0.00000

 k-point  10 :       0.4167    0.4167    0.4167
  band No.  band energies     occupation 
      1      -1.8705      2.00000
      2      -1.7003      2.00000
      3      -1.7003      2.00000
      4      -1.7003      2.00000
      5       0.3789      2.00000
      6       0.3789      2.00000
      7       0.3789      2.00000
      8       0.5223      2.00000
      9       0.5223      2.00000
     10       0.6088      2.00000
     11       0.6088      2.00000
     12       0.6088      2.00000
     13       2.1735      2.00000
     14       2.1735      2.00000
     15       2.1735      2.00000
     16       2.7792      2.00000
     17       2.7792      2.00000
     18       2.9314      2.00000
     19       2.9376      2.00000
     20       2.9376      2.00000
     21       2.9376      2.00000
     22       4.8881      0.20544
     23       4.8881      0.20544
     24       4.8881      0.20544
     25       7.9074      0.00000
     26       7.9074      0.00000


--------------------------------------------------------------------------------------------------------


 soft charge-density along one line, spin component                        1
         0         1         2         3         4         5         6         7         8         9
x    27.8320    0.0000    2.3108    0.0000   -0.9499    0.0000    0.1386    0.0000    0.0172    0.0000
x     0.0000
y    27.8320    0.0000    0.0000    0.0000    0.0000    0.0000    0.0000    0.0000    0.0056    0.0872
y    -1.2284
z    27.8320    0.0000    0.0000   -0.0003   -0.0005    0.0000    0.0000    0.0000    0.0000    0.0000
z     0.0000
 total charge-density along one line
x    44.0000    0.0000   11.6433    0.0000    0.3168    0.0000    0.0891    0.0000    0.0292    0.0000
x    -0.0023    0.0000    0.0002    0.0000    0.0002    0.0000   -0.0003    0.0000    0.0002    0.0000
x    -0.0002
y    44.0000    0.0000   11.6433    0.0000    0.3168    0.0000    0.0891    0.0000    0.0292    0.0000
y    -0.0023    0.0000    0.0002    0.0000    0.0002    0.0000   -0.0003    0.0000    0.0002    0.0000
y    -0.0002
z    44.0000    0.0000   11.6433    0.0000    0.3168    0.0000    0.0891    0.0000    0.0292    0.0000
z    -0.0023    0.0000    0.0002    0.0000    0.0002    0.0000   -0.0003    0.0000    0.0002    0.0000
z    -0.0002

 pseudopotential strength for first ion, spin component: 
                        1
-10.058   0.000   0.000   0.000   0.000  -0.066   0.000   0.000
  0.000 -10.058   0.000   0.000   0.000   0.000  -0.066   0.000
  0.000   0.000 -10.044   0.000   0.000   0.000   0.000  -0.068
  0.000   0.000   0.000 -10.058   0.000   0.000   0.000   0.000
  0.000   0.000   0.000   0.000 -10.044   0.000   0.000   0.000
 -0.066   0.000   0.000   0.000   0.000   0.280   0.000   0.000
  0.000  -0.066   0.000   0.000   0.000   0.000   0.280   0.000
  0.000   0.000  -0.068   0.000   0.000   0.000   0.000   0.280
  0.000   0.000   0.000  -0.066   0.000   0.000   0.000   0.000
  0.000   0.000   0.000   0.000  -0.068   0.000   0.000   0.000
  0.000   0.000   0.000   0.000   0.000   0.000   0.000   0.000
  0.000   0.000   0.000   0.000   0.000   0.000   0.000   0.000
  0.000   0.000   0.000   0.000   0.000   0.000   0.000   0.000
  0.000   0.000   0.000   0.000   0.000   0.000   0.000   0.000
  0.000   0.000   0.000   0.000   0.000   0.000   0.000   0.000
  0.000   0.000   0.000   0.000   0.000   0.000   0.000   0.000
  0.000   0.000   0.000   0.000   0.000   0.000   0.000   0.000
  0.000   0.000   0.000   0.000   0.000   0.000   0.000   0.000
 total augmentation occupancy for first ion, spin component: 
                        1
  1.855  -0.018  -0.001  -0.008  -0.012  -0.033   0.017  -0.030   0.008   0.012   0.015  -0.024   0.000   0.000   0.000   0.000
 -0.018   1.955   0.000  -0.020  -0.002   0.017  -0.094   0.007   0.022  -0.015   0.072   0.007   0.000   0.000   0.000   0.000
 -0.001   0.000   1.924   0.007  -0.019  -0.030   0.007  -0.067  -0.001   0.020  -0.077  -0.068   0.000   0.000   0.000   0.000
 -0.008  -0.020   0.007   1.918  -0.003   0.008   0.022  -0.001  -0.034   0.019   0.041  -0.003   0.000   0.000   0.000   0.000
 -0.012  -0.002  -0.019  -0.003   1.985   0.012  -0.015   0.020   0.019  -0.119   0.089   0.040   0.000   0.000   0.000   0.000
 -0.033   0.017  -0.030   0.008   0.012   0.216  -0.010   0.056  -0.005  -0.009   0.045   0.050   0.000   0.000   0.000   0.000
  0.017  -0.094   0.007   0.022  -0.015  -0.010   0.193  -0.012  -0.015   0.029  -0.024   0.024   0.000   0.000   0.000   0.000
 -0.030   0.007  -0.067  -0.001   0.020   0.056  -0.012   0.168  -0.005   0.004   0.126   0.006   0.000   0.000   0.000   0.000
  0.008   0.022  -0.001  -0.034   0.019  -0.005  -0.015  -0.005   0.137  -0.031   0.000   0.026   0.000   0.000   0.000   0.000
  0.012  -0.015   0.020   0.019  -0.119  -0.009   0.029   0.004  -0.031   0.119  -0.080   0.018   0.000   0.000   0.000   0.000
  0.015   0.072  -0.077   0.041   0.089   0.045  -0.024   0.126   0.000  -0.080   1.054  -0.347   0.000   0.000   0.000   0.000
 -0.024   0.007  -0.068  -0.003   0.040   0.050   0.024   0.006   0.026   0.018  -0.347   0.220   0.000   0.000   0.000   0.000
  0.000   0.000   0.000   0.000   0.000   0.000   0.000   0.000   0.000   0.000   0.000   0.000   0.132   0.014  -0.009  -0.010
  0.000   0.000   0.000   0.000   0.000   0.000   0.000   0.000   0.000   0.000   0.000   0.000   0.014   0.107   0.004  -0.001
  0.000   0.000   0.000   0.000   0.000   0.000   0.000   0.000   0.000   0.000   0.000   0.000  -0.009   0.004   0.179  -0.001
  0.000   0.000   0.000   0.000   0.000   0.000   0.000   0.000   0.000   0.000   0.000   0.000  -0.010  -0.001  -0.001   0.001
  0.000   0.000   0.000   0.000   0.000   0.000   0.000   0.000   0.000   0.000   0.000   0.000  -0.001  -0.008  -0.001   0.000
  0.000   0.000   0.000   0.000   0.000   0.000   0.000   0.000   0.000   0.000   0.000   0.000  -0.001  -0.001  -0.013   0.000


------------------------ aborting loop because EDIFF is reached ----------------------------------------





 total charge     

# of ion     s       p       d       tot
----------------------------------------
  1        0.525   0.311   8.749   9.585
  2        0.525   0.311   8.749   9.585
  3        0.525   0.311   8.749   9.585
  4        0.525   0.311   8.749   9.585
------------------------------------------------
tot        2.100   1.244  34.998  38.341



--------------------------------------------------------------------------------------------------------




--------------------------------------------------------------------------------------------------------



  FREE ENERGIE OF THE ION-ELECTRON SYSTEM (eV)
  ---------------------------------------------------
  free  energy   TOTEN  =       -12.762515 eV

  energy  without entropy=      -12.756298  energy(sigma->0) =      -12.759407


  FORCE on cell =-STRESS in cart. coord.  units (eV/reduce length):
  Direction    X        Y        Z        XY       YZ       ZX
  --------------------------------------------------------------------------------------
  Alpha Z    410.60    410.60    410.60
  Ewald    -1275.31  -1275.31  -1275.31      0.00      0.00      0.00
  Hartree    162.49    162.49    162.49      0.00      0.00      0.00
  E(xc)     -198.64   -198.64   -198.64      0.00      0.00      0.00
  Local      318.94    318.94    318.94      0.00      0.00      0.00
  n-local   -189.50   -204.34   -210.22      0.70      5.59      3.20
  augment    171.13    171.13    171.13      0.00      0.00      0.00
  Kinetic    615.76    613.14    607.64     -5.81     -2.39     -3.19
  -------------------------------------------------------------------------------------
  Total        0.03      0.03      0.03      0.00      0.00      0.00
  in kB        0.61      0.61      0.61      0.00      0.00      0.00
  external pressure =        0.61 kB  Pullay stress =        0.00 kB


 VOLUME and BASIS-vectors are now :
 -----------------------------------------------------------------------------
  energy-cutoff  :      350.00
  volume of cell :       72.83
      direct lattice vectors                 reciprocal lattice vectors
     4.176000000  0.000000000  0.000000000     0.239463602  0.000000000  0.000000000
     0.000000000  4.176000000  0.000000000     0.000000000  0.239463602  0.000000000
     0.000000000  0.000000000  4.176000000     0.000000000  0.000000000  0.239463602

  length of vectors
     4.176000000  4.176000000  4.176000000     0.239463602  0.239463602  0.239463602


 FORCES acting on ions
    electron-ion (+dipol)            ewald-force                    non-local-force                 convergence-correction
 -----------------------------------------------------------------------------------------------
   -.208E-13 0.283E-13 0.336E-13   0.241E-14 -.134E-13 -.793E-14   0.000E+00 0.371E-21 0.000E+00   -.258E-13 -.936E-14 0.119E-13
   -.948E-13 -.402E-13 0.347E-13   0.459E-14 -.134E-13 -.790E-14   0.106E-21 0.265E-21 0.000E+00   0.104E-13 0.259E-13 0.141E-13
   -.931E-13 0.294E-13 -.327E-13   0.297E-14 0.118E-13 0.899E-14   -.794E-22 0.291E-21 -.106E-21   0.142E-13 -.335E-14 -.399E-14
   -.271E-13 -.381E-13 -.341E-13   -.117E-13 0.118E-13 0.902E-14   0.132E-21 0.106E-21 -.212E-21   -.136E-13 0.135E-13 -.159E-14
 -----------------------------------------------------------------------------------------------
   -.236E-12 -.207E-13 0.141E-14   -.175E-14 -.331E-14 0.217E-14   0.159E-21 0.103E-20 -.318E-21   -.147E-13 0.266E-13 0.204E-13


 POSITION                                       TOTAL-FORCE (eV/Angst)
 -----------------------------------------------------------------------------------
      0.00000      0.00000      0.00000         0.000000      0.000000      0.000000
      2.08800      2.08800      0.00000         0.000000      0.000000      0.000000
      2.08800      0.00000      2.08800         0.000000      0.000000      0.000000
      0.00000      2.08800      2.08800         0.000000      0.000000      0.000000
 -----------------------------------------------------------------------------------
    total drift:                                0.000000      0.000000      0.000000


--------------------------------------------------------------------------------------------------------


 Quasi-Newton relaxation of ions (Broydens 2nd method)
  g(Force)  = 0.216E-63   g(Stress)= 0.197E-04

 Reset! Starting new Quasi-Newton update for ions 


--------------------------------------------------------------------------------------------------------


  
 reached required accuracy - stopping structural energy minimisation
     LOOP+:  VPU time   23.24: CPU time   21.96



 total charge     

# of ion     s       p       d       tot
----------------------------------------
  1        0.525   0.311   8.749   9.585
  2        0.525   0.311   8.749   9.585
  3        0.525   0.311   8.749   9.585
  4        0.525   0.311   8.749   9.585
------------------------------------------------
tot        2.100   1.244  34.998  38.341

  
  
 General timing and accounting informations for this job:
 ========================================================
  
                  Total CPU time used (sec):       24.720
                            User time (sec):       22.364
                          System time (sec):        2.357
                         Elapsed time (sec):       23.545
  
                   Maximum memory used (kb):           0.
                   Average memory used (kb):           0.
  
                          Minor page faults:       232088
                          Major page faults:            0
                 Voluntary context switches:       423393
