PROCAR lm decomposed
# of k-points:   10         # of bands:  26         # of ions:   4

 k-point    1 :    0.08333333 0.08333333 0.08333333     weight = 0.03703704

band   1 # energy   -4.04819473 # occ.  2.00000000

ion      s     py     pz     px    dxy    dyz    dz2    dxz    dx2    tot
  1  0.142  0.001  0.001  0.001  0.000  0.000  0.000  0.000  0.000  0.145
  2  0.142  0.001  0.001  0.001  0.000  0.000  0.000  0.000  0.000  0.145
  3  0.142  0.001  0.001  0.001  0.000  0.000  0.000  0.000  0.000  0.145
  4  0.142  0.001  0.001  0.001  0.000  0.000  0.000  0.000  0.000  0.145
tot  0.569  0.003  0.003  0.003  0.000  0.000  0.000  0.000  0.000  0.578

band   2 # energy   -1.49274667 # occ.  2.00000000

ion      s     py     pz     px    dxy    dyz    dz2    dxz    dx2    tot
  1  0.027  0.000  0.000  0.000  0.004  0.000  0.059  0.001  0.035  0.127
  2  0.002  0.001  0.001  0.000  0.004  0.000  0.219  0.002  0.035  0.264
  3  0.002  0.001  0.001  0.000  0.004  0.000  0.211  0.002  0.041  0.262
  4  0.026  0.000  0.000  0.000  0.004  0.000  0.063  0.001  0.041  0.136
tot  0.056  0.001  0.001  0.001  0.016  0.000  0.553  0.007  0.152  0.788

band   3 # energy   -1.49274666 # occ.  2.00000000

ion      s     py     pz     px    dxy    dyz    dz2    dxz    dx2    tot
  1  0.012  0.000  0.001  0.000  0.001  0.003  0.187  0.002  0.002  0.208
  2  0.040  0.000  0.000  0.000  0.001  0.003  0.014  0.002  0.002  0.061
  3  0.001  0.000  0.000  0.001  0.001  0.003  0.036  0.002  0.222  0.267
  4  0.004  0.001  0.000  0.000  0.001  0.003  0.018  0.002  0.222  0.252
tot  0.056  0.001  0.001  0.001  0.004  0.012  0.256  0.008  0.449  0.788

band   4 # energy   -1.49274664 # occ.  2.00000000

ion      s     py     pz     px    dxy    dyz    dz2    dxz    dx2    tot
  1  0.003  0.001  0.000  0.000  0.001  0.003  0.019  0.003  0.227  0.256
  2  0.001  0.000  0.000  0.001  0.001  0.003  0.031  0.002  0.227  0.266
  3  0.039  0.000  0.000  0.000  0.001  0.002  0.017  0.002  0.001  0.062
  4  0.013  0.000  0.001  0.000  0.001  0.003  0.183  0.002  0.001  0.204
tot  0.056  0.001  0.001  0.001  0.003  0.011  0.249  0.009  0.456  0.788

band   5 # energy   -1.22539347 # occ.  2.00000000

ion      s     py     pz     px    dxy    dyz    dz2    dxz    dx2    tot
  1  0.000  0.000  0.001  0.000  0.001  0.206  0.002  0.000  0.003  0.213
  2  0.000  0.001  0.001  0.000  0.000  0.205  0.001  0.000  0.003  0.212
  3  0.000  0.001  0.000  0.000  0.000  0.206  0.001  0.001  0.004  0.214
  4  0.000  0.001  0.000  0.000  0.000  0.206  0.001  0.001  0.004  0.214
tot  0.001  0.002  0.002  0.000  0.001  0.824  0.005  0.003  0.015  0.853

band   6 # energy   -1.22539327 # occ.  2.00000000

ion      s     py     pz     px    dxy    dyz    dz2    dxz    dx2    tot
  1  0.000  0.000  0.000  0.001  0.154  0.000  0.002  0.048  0.001  0.208
  2  0.000  0.000  0.000  0.000  0.159  0.000  0.006  0.053  0.001  0.219
  3  0.000  0.000  0.000  0.000  0.159  0.000  0.006  0.053  0.001  0.219
  4  0.000  0.000  0.000  0.001  0.154  0.000  0.002  0.048  0.001  0.208
tot  0.001  0.002  0.001  0.002  0.626  0.000  0.016  0.202  0.004  0.853

band   7 # energy   -1.22539326 # occ.  2.00000000

ion      s     py     pz     px    dxy    dyz    dz2    dxz    dx2    tot
  1  0.000  0.000  0.000  0.000  0.052  0.001  0.004  0.158  0.003  0.219
  2  0.000  0.000  0.000  0.001  0.048  0.002  0.000  0.154  0.003  0.209
  3  0.000  0.000  0.000  0.001  0.048  0.001  0.000  0.153  0.002  0.206
  4  0.000  0.000  0.001  0.000  0.052  0.001  0.004  0.158  0.002  0.218
tot  0.001  0.001  0.002  0.002  0.201  0.004  0.008  0.623  0.011  0.853

band   8 # energy    0.43781102 # occ.  2.00000000

ion      s     py     pz     px    dxy    dyz    dz2    dxz    dx2    tot
  1  0.000  0.000  0.000  0.000  0.076  0.076  0.000  0.076  0.000  0.229
  2  0.000  0.000  0.000  0.000  0.076  0.076  0.000  0.076  0.000  0.229
  3  0.000  0.000  0.000  0.000  0.076  0.076  0.000  0.076  0.000  0.229
  4  0.000  0.000  0.000  0.000  0.076  0.076  0.000  0.076  0.000  0.229
tot  0.000  0.001  0.001  0.001  0.305  0.305  0.000  0.305  0.000  0.917

band   9 # energy    0.57634736 # occ.  2.00000000

ion      s     py     pz     px    dxy    dyz    dz2    dxz    dx2    tot
  1  0.000  0.000  0.000  0.000  0.071  0.146  0.000  0.013  0.000  0.231
  2  0.000  0.000  0.000  0.000  0.071  0.146  0.000  0.013  0.000  0.231
  3  0.000  0.000  0.000  0.000  0.071  0.146  0.000  0.013  0.000  0.231
  4  0.000  0.000  0.000  0.000  0.071  0.146  0.000  0.013  0.000  0.231
tot  0.000  0.000  0.000  0.000  0.286  0.582  0.002  0.052  0.002  0.924

band  10 # energy    0.57634751 # occ.  2.00000000

ion      s     py     pz     px    dxy    dyz    dz2    dxz    dx2    tot
  1  0.000  0.000  0.000  0.000  0.082  0.008  0.000  0.140  0.000  0.231
  2  0.000  0.000  0.000  0.000  0.082  0.008  0.000  0.140  0.000  0.231
  3  0.000  0.000  0.000  0.000  0.082  0.008  0.000  0.140  0.000  0.231
  4  0.000  0.000  0.000  0.000  0.082  0.008  0.000  0.140  0.000  0.231
tot  0.000  0.000  0.000  0.000  0.328  0.031  0.002  0.561  0.002  0.924

band  11 # energy    1.82611430 # occ.  2.00000000

ion      s     py     pz     px    dxy    dyz    dz2    dxz    dx2    tot
  1  0.000  0.000  0.000  0.000  0.000  0.000  0.163  0.000  0.075  0.239
  2  0.000  0.000  0.000  0.000  0.000  0.000  0.163  0.000  0.075  0.239
  3  0.000  0.000  0.000  0.000  0.000  0.000  0.163  0.000  0.075  0.239
  4  0.000  0.000  0.000  0.000  0.000  0.000  0.163  0.000  0.075  0.239
tot  0.000  0.000  0.000  0.000  0.002  0.000  0.653  0.002  0.299  0.956

band  12 # energy    1.82611460 # occ.  2.00000000

ion      s     py     pz     px    dxy    dyz    dz2    dxz    dx2    tot
  1  0.000  0.000  0.000  0.000  0.000  0.001  0.075  0.000  0.163  0.239
  2  0.000  0.000  0.000  0.000  0.000  0.001  0.075  0.000  0.163  0.239
  3  0.000  0.000  0.000  0.000  0.000  0.001  0.075  0.000  0.163  0.239
  4  0.000  0.000  0.000  0.000  0.000  0.001  0.075  0.000  0.163  0.239
tot  0.000  0.000  0.000  0.000  0.001  0.002  0.299  0.001  0.653  0.956

band  13 # energy    2.71371501 # occ.  2.00000000

ion      s     py     pz     px    dxy    dyz    dz2    dxz    dx2    tot
  1  0.003  0.003  0.010  0.000  0.026  0.188  0.000  0.086  0.000  0.317
  2  0.000  0.002  0.008  0.000  0.021  0.028  0.001  0.082  0.000  0.143
  3  0.000  0.002  0.008  0.000  0.021  0.028  0.001  0.080  0.000  0.141
  4  0.003  0.003  0.010  0.000  0.027  0.188  0.000  0.088  0.000  0.320
tot  0.006  0.011  0.037  0.000  0.095  0.431  0.003  0.337  0.001  0.921

band  14 # energy    2.71371510 # occ.  2.00000000

ion      s     py     pz     px    dxy    dyz    dz2    dxz    dx2    tot
  1  0.002  0.002  0.000  0.010  0.175  0.007  0.001  0.060  0.000  0.257
  2  0.003  0.003  0.001  0.011  0.178  0.037  0.000  0.131  0.000  0.365
  3  0.000  0.001  0.000  0.009  0.030  0.030  0.000  0.056  0.001  0.127
  4  0.001  0.001  0.001  0.009  0.031  0.004  0.000  0.125  0.001  0.173
tot  0.006  0.007  0.002  0.039  0.415  0.078  0.001  0.371  0.002  0.921

band  15 # energy    2.71371564 # occ.  2.00000000

ion      s     py     pz     px    dxy    dyz    dz2    dxz    dx2    tot
  1  0.000  0.006  0.002  0.002  0.015  0.021  0.000  0.070  0.001  0.117
  2  0.001  0.008  0.002  0.001  0.017  0.151  0.000  0.002  0.001  0.183
  3  0.004  0.009  0.003  0.003  0.165  0.159  0.000  0.080  0.000  0.423
  4  0.001  0.008  0.001  0.003  0.157  0.024  0.001  0.003  0.000  0.197
tot  0.006  0.031  0.009  0.009  0.353  0.354  0.001  0.155  0.002  0.921

band  16 # energy    2.72999782 # occ.  2.00000000

ion      s     py     pz     px    dxy    dyz    dz2    dxz    dx2    tot
  1  0.000  0.000  0.000  0.000  0.010  0.000  0.179  0.009  0.049  0.248
  2  0.000  0.000  0.000  0.000  0.010  0.000  0.179  0.009  0.055  0.254
  3  0.000  0.000  0.000  0.000  0.009  0.000  0.156  0.009  0.057  0.231
  4  0.000  0.000  0.000  0.000  0.009  0.000  0.156  0.009  0.063  0.238
tot  0.000  0.001  0.001  0.000  0.037  0.000  0.671  0.037  0.224  0.970

band  17 # energy    2.72999800 # occ.  2.00000000

ion      s     py     pz     px    dxy    dyz    dz2    dxz    dx2    tot
  1  0.000  0.000  0.000  0.000  0.002  0.004  0.040  0.007  0.120  0.174
  2  0.000  0.000  0.000  0.000  0.002  0.014  0.040  0.007  0.247  0.311
  3  0.000  0.000  0.000  0.000  0.002  0.014  0.040  0.007  0.248  0.312
  4  0.000  0.000  0.000  0.000  0.002  0.004  0.040  0.007  0.120  0.173
tot  0.000  0.001  0.000  0.001  0.009  0.037  0.159  0.028  0.735  0.970

band  18 # energy    2.72999801 # occ.  2.00000000

ion      s     py     pz     px    dxy    dyz    dz2    dxz    dx2    tot
  1  0.000  0.000  0.000  0.000  0.006  0.014  0.117  0.002  0.166  0.307
  2  0.000  0.000  0.000  0.000  0.006  0.004  0.117  0.002  0.033  0.162
  3  0.000  0.000  0.000  0.000  0.008  0.004  0.139  0.002  0.031  0.185
  4  0.000  0.000  0.000  0.000  0.008  0.014  0.139  0.002  0.153  0.316
tot  0.000  0.000  0.001  0.001  0.028  0.037  0.512  0.009  0.383  0.970

band  19 # energy    3.13478860 # occ.  2.00000000

ion      s     py     pz     px    dxy    dyz    dz2    dxz    dx2    tot
  1  0.000  0.000  0.000  0.000  0.086  0.022  0.011  0.021  0.000  0.139
  2  0.000  0.000  0.000  0.000  0.086  0.204  0.011  0.025  0.016  0.342
  3  0.000  0.000  0.000  0.000  0.094  0.204  0.012  0.021  0.015  0.346
  4  0.000  0.000  0.000  0.000  0.094  0.022  0.012  0.025  0.000  0.153
tot  0.000  0.000  0.000  0.000  0.359  0.451  0.045  0.094  0.031  0.981

band  20 # energy    3.13478861 # occ.  2.00000000

ion      s     py     pz     px    dxy    dyz    dz2    dxz    dx2    tot
  1  0.000  0.000  0.000  0.000  0.030  0.203  0.004  0.078  0.022  0.337
  2  0.000  0.000  0.000  0.000  0.030  0.022  0.004  0.102  0.009  0.166
  3  0.000  0.000  0.000  0.000  0.018  0.022  0.002  0.078  0.008  0.128
  4  0.000  0.000  0.000  0.000  0.018  0.203  0.002  0.102  0.025  0.350
tot  0.000  0.000  0.000  0.000  0.095  0.449  0.012  0.360  0.064  0.981

band  21 # energy    3.13478871 # occ.  2.00000000

ion      s     py     pz     px    dxy    dyz    dz2    dxz    dx2    tot
  1  0.000  0.000  0.000  0.000  0.111  0.001  0.014  0.126  0.006  0.259
  2  0.000  0.000  0.000  0.000  0.111  0.000  0.014  0.099  0.004  0.228
  3  0.000  0.000  0.000  0.000  0.114  0.000  0.014  0.126  0.006  0.261
  4  0.000  0.000  0.000  0.000  0.114  0.001  0.014  0.099  0.004  0.232
tot  0.000  0.000  0.000  0.000  0.450  0.004  0.057  0.451  0.019  0.981

band  22 # energy    6.07238955 # occ.  0.00000000

ion      s     py     pz     px    dxy    dyz    dz2    dxz    dx2    tot
  1  0.044  0.021  0.066  0.000  0.004  0.027  0.004  0.011  0.002  0.179
  2  0.004  0.026  0.072  0.000  0.004  0.002  0.013  0.011  0.002  0.134
  3  0.004  0.026  0.072  0.000  0.004  0.002  0.014  0.011  0.002  0.134
  4  0.045  0.021  0.066  0.000  0.004  0.027  0.004  0.011  0.002  0.180
tot  0.097  0.094  0.276  0.000  0.015  0.058  0.035  0.043  0.008  0.627

band  23 # energy    6.07238963 # occ.  0.00000000

ion      s     py     pz     px    dxy    dyz    dz2    dxz    dx2    tot
  1  0.027  0.016  0.008  0.068  0.025  0.001  0.009  0.006  0.002  0.160
  2  0.057  0.015  0.004  0.066  0.025  0.007  0.002  0.018  0.002  0.194
  3  0.001  0.019  0.006  0.073  0.003  0.007  0.002  0.006  0.014  0.131
  4  0.011  0.021  0.005  0.070  0.003  0.001  0.000  0.018  0.014  0.142
tot  0.097  0.070  0.023  0.277  0.055  0.015  0.013  0.047  0.031  0.627

band  24 # energy    6.07239027 # occ.  0.00000000

ion      s     py     pz     px    dxy    dyz    dz2    dxz    dx2    tot
  1  0.001  0.056  0.018  0.024  0.001  0.002  0.003  0.013  0.013  0.131
  2  0.011  0.052  0.017  0.027  0.001  0.020  0.001  0.000  0.013  0.142
  3  0.068  0.047  0.015  0.020  0.023  0.020  0.001  0.013  0.000  0.206
  4  0.017  0.051  0.021  0.022  0.023  0.002  0.012  0.000  0.000  0.148
tot  0.096  0.206  0.071  0.093  0.047  0.044  0.017  0.026  0.026  0.627

band  25 # energy   10.76703213 # occ.  0.00000000

ion      s     py     pz     px    dxy    dyz    dz2    dxz    dx2    tot
  1  0.013  0.001  0.016  0.017  0.000  0.000  0.044  0.000  0.010  0.101
  2  0.308  0.001  0.005  0.008  0.000  0.000  0.002  0.000  0.010  0.335
  3  0.001  0.001  0.014  0.020  0.000  0.000  0.033  0.000  0.022  0.091
  4  0.204  0.005  0.006  0.010  0.000  0.000  0.004  0.000  0.022  0.253
tot  0.526  0.008  0.042  0.054  0.001  0.001  0.083  0.001  0.065  0.780

band  26 # energy   10.76703251 # occ.  0.00000000

ion      s     py     pz     px    dxy    dyz    dz2    dxz    dx2    tot
  1  0.374  0.004  0.004  0.001  0.001  0.001  0.001  0.001  0.002  0.388
  2  0.027  0.011  0.017  0.005  0.000  0.000  0.050  0.000  0.002  0.112
  3  0.024  0.018  0.011  0.005  0.000  0.000  0.021  0.000  0.032  0.110
  4  0.100  0.008  0.008  0.012  0.000  0.000  0.010  0.000  0.032  0.170
tot  0.526  0.042  0.040  0.022  0.001  0.001  0.081  0.001  0.068  0.780


 k-point    2 :    0.25000000 0.08333333 0.08333333     weight = 0.11111111

band   1 # energy   -3.46589378 # occ.  2.00000000

ion      s     py     pz     px    dxy    dyz    dz2    dxz    dx2    tot
  1  0.135  0.001  0.001  0.006  0.001  0.000  0.000  0.001  0.001  0.145
  2  0.135  0.001  0.001  0.006  0.001  0.000  0.000  0.001  0.001  0.145
  3  0.135  0.001  0.001  0.006  0.001  0.000  0.000  0.001  0.001  0.145
  4  0.135  0.001  0.001  0.006  0.001  0.000  0.000  0.001  0.001  0.145
tot  0.541  0.003  0.003  0.026  0.002  0.000  0.001  0.002  0.002  0.580

band   2 # energy   -1.34319156 # occ.  2.00000000

ion      s     py     pz     px    dxy    dyz    dz2    dxz    dx2    tot
  1  0.025  0.000  0.000  0.005  0.000  0.007  0.038  0.000  0.115  0.191
  2  0.025  0.000  0.000  0.005  0.000  0.007  0.038  0.000  0.115  0.191
  3  0.025  0.000  0.000  0.005  0.000  0.007  0.038  0.000  0.115  0.191
  4  0.025  0.000  0.000  0.005  0.000  0.007  0.038  0.000  0.115  0.191
tot  0.100  0.001  0.001  0.018  0.001  0.029  0.154  0.001  0.461  0.766

band   3 # energy   -1.17028086 # occ.  2.00000000

ion      s     py     pz     px    dxy    dyz    dz2    dxz    dx2    tot
  1  0.006  0.000  0.000  0.001  0.003  0.000  0.089  0.037  0.102  0.238
  2  0.014  0.000  0.000  0.002  0.001  0.000  0.017  0.036  0.094  0.165
  3  0.014  0.000  0.000  0.002  0.001  0.000  0.017  0.036  0.094  0.165
  4  0.006  0.000  0.000  0.001  0.003  0.000  0.089  0.037  0.102  0.238
tot  0.038  0.001  0.000  0.007  0.008  0.000  0.212  0.146  0.393  0.806

band   4 # energy   -1.17028086 # occ.  2.00000000

ion      s     py     pz     px    dxy    dyz    dz2    dxz    dx2    tot
  1  0.014  0.000  0.000  0.002  0.036  0.000  0.110  0.001  0.002  0.165
  2  0.006  0.000  0.000  0.001  0.037  0.000  0.181  0.003  0.010  0.238
  3  0.006  0.000  0.000  0.001  0.037  0.000  0.181  0.003  0.010  0.238
  4  0.014  0.000  0.000  0.002  0.036  0.000  0.110  0.001  0.002  0.165
tot  0.038  0.000  0.001  0.007  0.146  0.000  0.581  0.008  0.024  0.806

band   5 # energy   -1.02180575 # occ.  2.00000000

ion      s     py     pz     px    dxy    dyz    dz2    dxz    dx2    tot
  1  0.000  0.001  0.001  0.000  0.000  0.206  0.002  0.000  0.005  0.214
  2  0.000  0.001  0.001  0.000  0.000  0.206  0.002  0.000  0.005  0.214
  3  0.000  0.001  0.001  0.000  0.000  0.206  0.002  0.000  0.005  0.214
  4  0.000  0.001  0.001  0.000  0.000  0.206  0.002  0.000  0.005  0.214
tot  0.002  0.002  0.002  0.000  0.001  0.824  0.006  0.001  0.018  0.857

band   6 # energy   -0.87365138 # occ.  2.00000000

ion      s     py     pz     px    dxy    dyz    dz2    dxz    dx2    tot
  1  0.000  0.004  0.000  0.002  0.170  0.000  0.035  0.001  0.001  0.212
  2  0.001  0.004  0.000  0.002  0.169  0.000  0.032  0.000  0.000  0.208
  3  0.001  0.004  0.000  0.002  0.169  0.000  0.032  0.000  0.000  0.208
  4  0.000  0.004  0.000  0.002  0.170  0.000  0.035  0.001  0.001  0.212
tot  0.002  0.015  0.000  0.007  0.678  0.001  0.135  0.001  0.001  0.841

band   7 # energy   -0.87365138 # occ.  2.00000000

ion      s     py     pz     px    dxy    dyz    dz2    dxz    dx2    tot
  1  0.001  0.000  0.004  0.002  0.000  0.000  0.010  0.169  0.022  0.208
  2  0.000  0.000  0.004  0.002  0.001  0.000  0.013  0.170  0.023  0.212
  3  0.000  0.000  0.004  0.002  0.001  0.000  0.013  0.170  0.023  0.212
  4  0.001  0.000  0.004  0.002  0.000  0.000  0.010  0.169  0.022  0.208
tot  0.002  0.000  0.015  0.007  0.001  0.001  0.046  0.678  0.090  0.841

band   8 # energy    0.20518425 # occ.  2.00000000

ion      s     py     pz     px    dxy    dyz    dz2    dxz    dx2    tot
  1  0.000  0.000  0.000  0.000  0.011  0.203  0.000  0.011  0.000  0.226
  2  0.000  0.000  0.000  0.000  0.011  0.203  0.000  0.011  0.000  0.226
  3  0.000  0.000  0.000  0.000  0.011  0.203  0.000  0.011  0.000  0.226
  4  0.000  0.000  0.000  0.000  0.011  0.203  0.000  0.011  0.000  0.226
tot  0.001  0.002  0.002  0.000  0.043  0.813  0.000  0.043  0.000  0.904

band   9 # energy    0.79090880 # occ.  2.00000000

ion      s     py     pz     px    dxy    dyz    dz2    dxz    dx2    tot
  1  0.000  0.000  0.000  0.000  0.099  0.022  0.002  0.099  0.007  0.231
  2  0.000  0.000  0.000  0.000  0.099  0.022  0.002  0.099  0.007  0.231
  3  0.000  0.000  0.000  0.000  0.099  0.022  0.002  0.099  0.007  0.231
  4  0.000  0.000  0.000  0.000  0.099  0.022  0.002  0.099  0.007  0.231
tot  0.001  0.001  0.001  0.001  0.395  0.089  0.010  0.395  0.030  0.924

band  10 # energy    0.79766700 # occ.  2.00000000

ion      s     py     pz     px    dxy    dyz    dz2    dxz    dx2    tot
  1  0.000  0.000  0.000  0.000  0.111  0.000  0.006  0.111  0.002  0.231
  2  0.000  0.000  0.000  0.000  0.111  0.000  0.006  0.111  0.002  0.231
  3  0.000  0.000  0.000  0.000  0.111  0.000  0.006  0.111  0.002  0.231
  4  0.000  0.000  0.000  0.000  0.111  0.000  0.006  0.111  0.002  0.231
tot  0.000  0.002  0.002  0.000  0.445  0.000  0.023  0.445  0.008  0.925

band  11 # energy    1.58092401 # occ.  2.00000000

ion      s     py     pz     px    dxy    dyz    dz2    dxz    dx2    tot
  1  0.001  0.000  0.000  0.000  0.004  0.001  0.056  0.004  0.168  0.235
  2  0.001  0.000  0.000  0.000  0.004  0.001  0.056  0.004  0.168  0.235
  3  0.001  0.000  0.000  0.000  0.004  0.001  0.056  0.004  0.168  0.235
  4  0.001  0.000  0.000  0.000  0.004  0.001  0.056  0.004  0.168  0.235
tot  0.003  0.000  0.000  0.001  0.018  0.004  0.225  0.018  0.674  0.942

band  12 # energy    1.63732128 # occ.  2.00000000

ion      s     py     pz     px    dxy    dyz    dz2    dxz    dx2    tot
  1  0.002  0.017  0.000  0.000  0.173  0.008  0.010  0.001  0.000  0.213
  2  0.003  0.017  0.000  0.000  0.176  0.012  0.009  0.004  0.001  0.223
  3  0.003  0.017  0.000  0.000  0.176  0.012  0.009  0.004  0.001  0.223
  4  0.002  0.017  0.000  0.000  0.173  0.008  0.010  0.001  0.000  0.213
tot  0.012  0.068  0.001  0.000  0.698  0.041  0.039  0.009  0.004  0.871

band  13 # energy    1.63732128 # occ.  2.00000000

ion      s     py     pz     px    dxy    dyz    dz2    dxz    dx2    tot
  1  0.003  0.000  0.017  0.000  0.004  0.012  0.000  0.176  0.011  0.223
  2  0.002  0.000  0.017  0.000  0.001  0.008  0.001  0.173  0.010  0.213
  3  0.002  0.000  0.017  0.000  0.001  0.008  0.001  0.173  0.010  0.213
  4  0.003  0.000  0.017  0.000  0.004  0.012  0.000  0.176  0.011  0.223
tot  0.012  0.001  0.068  0.000  0.009  0.041  0.003  0.698  0.040  0.871

band  14 # energy    1.98409954 # occ.  2.00000000

ion      s     py     pz     px    dxy    dyz    dz2    dxz    dx2    tot
  1  0.000  0.000  0.000  0.000  0.004  0.000  0.174  0.004  0.058  0.240
  2  0.000  0.000  0.000  0.000  0.004  0.000  0.174  0.004  0.058  0.240
  3  0.000  0.000  0.000  0.000  0.004  0.000  0.174  0.004  0.058  0.240
  4  0.000  0.000  0.000  0.000  0.004  0.000  0.174  0.004  0.058  0.240
tot  0.000  0.000  0.000  0.000  0.016  0.000  0.695  0.016  0.232  0.959

band  15 # energy    2.00786888 # occ.  2.00000000

ion      s     py     pz     px    dxy    dyz    dz2    dxz    dx2    tot
  1  0.018  0.000  0.000  0.018  0.079  0.001  0.004  0.079  0.013  0.213
  2  0.018  0.000  0.000  0.018  0.079  0.001  0.004  0.079  0.013  0.213
  3  0.018  0.000  0.000  0.018  0.079  0.001  0.004  0.079  0.013  0.213
  4  0.018  0.000  0.000  0.018  0.079  0.001  0.004  0.079  0.013  0.213
tot  0.070  0.001  0.001  0.072  0.317  0.004  0.017  0.317  0.052  0.852

band  16 # energy    2.36673256 # occ.  2.00000000

ion      s     py     pz     px    dxy    dyz    dz2    dxz    dx2    tot
  1  0.000  0.001  0.001  0.000  0.057  0.000  0.092  0.057  0.031  0.239
  2  0.000  0.001  0.001  0.000  0.057  0.000  0.092  0.057  0.031  0.239
  3  0.000  0.001  0.001  0.000  0.057  0.000  0.092  0.057  0.031  0.239
  4  0.000  0.001  0.001  0.000  0.057  0.000  0.092  0.057  0.031  0.239
tot  0.000  0.003  0.003  0.000  0.229  0.000  0.368  0.229  0.123  0.955

band  17 # energy    2.38824502 # occ.  2.00000000

ion      s     py     pz     px    dxy    dyz    dz2    dxz    dx2    tot
  1  0.000  0.000  0.000  0.000  0.002  0.002  0.058  0.002  0.053  0.119
  2  0.001  0.001  0.001  0.002  0.002  0.018  0.083  0.003  0.245  0.355
  3  0.001  0.001  0.001  0.002  0.002  0.018  0.083  0.003  0.245  0.355
  4  0.000  0.000  0.000  0.000  0.002  0.002  0.058  0.002  0.053  0.119
tot  0.001  0.003  0.003  0.004  0.009  0.042  0.281  0.010  0.596  0.949

band  18 # energy    2.38824502 # occ.  2.00000000

ion      s     py     pz     px    dxy    dyz    dz2    dxz    dx2    tot
  1  0.001  0.001  0.001  0.002  0.003  0.018  0.090  0.002  0.237  0.355
  2  0.000  0.000  0.000  0.000  0.002  0.002  0.066  0.002  0.045  0.119
  3  0.000  0.000  0.000  0.000  0.002  0.002  0.066  0.002  0.045  0.119
  4  0.001  0.001  0.001  0.002  0.003  0.018  0.090  0.002  0.237  0.355
tot  0.001  0.003  0.003  0.004  0.010  0.042  0.312  0.009  0.564  0.949

band  19 # energy    2.91680781 # occ.  2.00000000

ion      s     py     pz     px    dxy    dyz    dz2    dxz    dx2    tot
  1  0.000  0.000  0.000  0.000  0.062  0.000  0.090  0.062  0.030  0.244
  2  0.000  0.000  0.000  0.000  0.062  0.000  0.090  0.062  0.030  0.244
  3  0.000  0.000  0.000  0.000  0.062  0.000  0.090  0.062  0.030  0.244
  4  0.000  0.000  0.000  0.000  0.062  0.000  0.090  0.062  0.030  0.244
tot  0.000  0.001  0.001  0.000  0.248  0.000  0.359  0.248  0.120  0.976

band  20 # energy    3.09537958 # occ.  2.00000000

ion      s     py     pz     px    dxy    dyz    dz2    dxz    dx2    tot
  1  0.000  0.000  0.000  0.000  0.003  0.127  0.000  0.020  0.005  0.155
  2  0.000  0.000  0.000  0.000  0.000  0.308  0.000  0.017  0.008  0.334
  3  0.000  0.000  0.000  0.000  0.000  0.308  0.000  0.017  0.008  0.334
  4  0.000  0.000  0.000  0.000  0.003  0.127  0.000  0.020  0.005  0.155
tot  0.000  0.001  0.000  0.000  0.005  0.870  0.001  0.074  0.027  0.978

band  21 # energy    3.09537960 # occ.  2.00000000

ion      s     py     pz     px    dxy    dyz    dz2    dxz    dx2    tot
  1  0.000  0.000  0.000  0.000  0.017  0.308  0.005  0.000  0.004  0.334
  2  0.000  0.000  0.000  0.000  0.020  0.127  0.004  0.003  0.001  0.155
  3  0.000  0.000  0.000  0.000  0.020  0.127  0.004  0.003  0.001  0.155
  4  0.000  0.000  0.000  0.000  0.017  0.308  0.005  0.000  0.004  0.334
tot  0.000  0.000  0.001  0.000  0.074  0.870  0.018  0.005  0.009  0.978

band  22 # energy    3.89181039 # occ.  2.00000000

ion      s     py     pz     px    dxy    dyz    dz2    dxz    dx2    tot
  1  0.042  0.001  0.001  0.038  0.039  0.000  0.008  0.039  0.025  0.193
  2  0.042  0.001  0.001  0.038  0.039  0.000  0.008  0.039  0.025  0.193
  3  0.042  0.001  0.001  0.038  0.039  0.000  0.008  0.039  0.025  0.193
  4  0.042  0.001  0.001  0.038  0.039  0.000  0.008  0.039  0.025  0.193
tot  0.168  0.003  0.003  0.151  0.157  0.001  0.033  0.157  0.099  0.772

band  23 # energy    7.38285156 # occ.  0.00000000

ion      s     py     pz     px    dxy    dyz    dz2    dxz    dx2    tot
  1  0.052  0.002  0.068  0.001  0.001  0.007  0.011  0.040  0.000  0.184
  2  0.030  0.003  0.069  0.000  0.002  0.004  0.014  0.041  0.000  0.165
  3  0.030  0.003  0.069  0.000  0.002  0.004  0.014  0.041  0.000  0.165
  4  0.052  0.002  0.068  0.001  0.001  0.007  0.011  0.040  0.000  0.184
tot  0.165  0.011  0.274  0.002  0.007  0.024  0.051  0.163  0.002  0.698

band  24 # energy    7.38285157 # occ.  0.00000000

ion      s     py     pz     px    dxy    dyz    dz2    dxz    dx2    tot
  1  0.030  0.069  0.003  0.000  0.041  0.004  0.005  0.002  0.010  0.165
  2  0.052  0.068  0.002  0.001  0.040  0.007  0.002  0.001  0.010  0.184
  3  0.052  0.068  0.002  0.001  0.040  0.007  0.002  0.001  0.010  0.184
  4  0.030  0.069  0.003  0.000  0.041  0.004  0.005  0.002  0.010  0.165
tot  0.165  0.274  0.011  0.002  0.163  0.024  0.014  0.007  0.038  0.698

band  25 # energy   10.33667136 # occ.  0.00000000

ion      s     py     pz     px    dxy    dyz    dz2    dxz    dx2    tot
  1  0.023  0.024  0.032  0.001  0.001  0.000  0.007  0.001  0.002  0.091
  2  0.209  0.004  0.012  0.011  0.006  0.000  0.006  0.005  0.011  0.265
  3  0.209  0.004  0.012  0.011  0.006  0.000  0.006  0.005  0.011  0.265
  4  0.023  0.024  0.032  0.001  0.001  0.000  0.007  0.001  0.002  0.091
tot  0.465  0.057  0.088  0.024  0.013  0.000  0.027  0.012  0.025  0.711

band  26 # energy   10.33668876 # occ.  0.00000000

ion      s     py     pz     px    dxy    dyz    dz2    dxz    dx2    tot
  1  0.209  0.012  0.004  0.011  0.005  0.000  0.003  0.006  0.014  0.265
  2  0.023  0.032  0.024  0.001  0.001  0.000  0.004  0.001  0.005  0.091
  3  0.023  0.032  0.024  0.001  0.001  0.000  0.004  0.001  0.005  0.091
  4  0.209  0.012  0.004  0.011  0.005  0.000  0.003  0.006  0.014  0.265
tot  0.465  0.088  0.057  0.025  0.012  0.000  0.015  0.013  0.037  0.711


 k-point    3 :    0.41666667 0.08333333 0.08333333     weight = 0.11111111

band   1 # energy   -2.42832476 # occ.  2.00000000

ion      s     py     pz     px    dxy    dyz    dz2    dxz    dx2    tot
  1  0.117  0.001  0.001  0.015  0.002  0.000  0.003  0.002  0.008  0.148
  2  0.117  0.001  0.001  0.015  0.002  0.000  0.003  0.002  0.008  0.148
  3  0.117  0.001  0.001  0.015  0.002  0.000  0.003  0.002  0.008  0.148
  4  0.117  0.001  0.001  0.015  0.002  0.000  0.003  0.002  0.008  0.148
tot  0.468  0.002  0.002  0.062  0.007  0.002  0.011  0.007  0.033  0.593

band   2 # energy   -1.47007814 # occ.  2.00000000

ion      s     py     pz     px    dxy    dyz    dz2    dxz    dx2    tot
  1  0.069  0.000  0.000  0.015  0.002  0.003  0.019  0.002  0.058  0.168
  2  0.069  0.000  0.000  0.015  0.002  0.003  0.019  0.002  0.058  0.168
  3  0.069  0.000  0.000  0.015  0.002  0.003  0.019  0.002  0.058  0.168
  4  0.069  0.000  0.000  0.015  0.002  0.003  0.019  0.002  0.058  0.168
tot  0.275  0.001  0.001  0.062  0.006  0.011  0.077  0.006  0.231  0.671

band   3 # energy   -0.65969589 # occ.  2.00000000

ion      s     py     pz     px    dxy    dyz    dz2    dxz    dx2    tot
  1  0.003  0.000  0.000  0.006  0.001  0.000  0.083  0.024  0.075  0.193
  2  0.003  0.000  0.000  0.005  0.001  0.000  0.102  0.024  0.080  0.215
  3  0.003  0.000  0.000  0.005  0.001  0.000  0.102  0.024  0.080  0.215
  4  0.003  0.000  0.000  0.006  0.001  0.000  0.083  0.024  0.075  0.193
tot  0.012  0.001  0.001  0.022  0.002  0.001  0.370  0.097  0.310  0.816

band   4 # energy   -0.65969589 # occ.  2.00000000

ion      s     py     pz     px    dxy    dyz    dz2    dxz    dx2    tot
  1  0.003  0.000  0.000  0.005  0.024  0.000  0.163  0.001  0.019  0.215
  2  0.003  0.000  0.000  0.006  0.024  0.000  0.145  0.001  0.013  0.193
  3  0.003  0.000  0.000  0.006  0.024  0.000  0.145  0.001  0.013  0.193
  4  0.003  0.000  0.000  0.005  0.024  0.000  0.163  0.001  0.019  0.215
tot  0.012  0.001  0.001  0.022  0.097  0.001  0.616  0.002  0.064  0.816

band   5 # energy   -0.65732725 # occ.  2.00000000

ion      s     py     pz     px    dxy    dyz    dz2    dxz    dx2    tot
  1  0.001  0.000  0.000  0.000  0.001  0.211  0.001  0.001  0.002  0.217
  2  0.001  0.000  0.000  0.000  0.001  0.211  0.001  0.001  0.002  0.217
  3  0.001  0.000  0.000  0.000  0.001  0.211  0.001  0.001  0.002  0.217
  4  0.001  0.000  0.000  0.000  0.001  0.211  0.001  0.001  0.002  0.217
tot  0.002  0.002  0.002  0.001  0.004  0.846  0.002  0.004  0.006  0.868

band   6 # energy   -0.29732178 # occ.  2.00000000

ion      s     py     pz     px    dxy    dyz    dz2    dxz    dx2    tot
  1  0.001  0.009  0.000  0.002  0.171  0.001  0.018  0.003  0.005  0.209
  2  0.001  0.009  0.000  0.002  0.172  0.001  0.019  0.004  0.005  0.212
  3  0.001  0.009  0.000  0.002  0.172  0.001  0.019  0.004  0.005  0.212
  4  0.001  0.009  0.000  0.002  0.171  0.001  0.018  0.003  0.005  0.209
tot  0.003  0.035  0.000  0.008  0.685  0.005  0.073  0.012  0.020  0.842

band   7 # energy   -0.29732178 # occ.  2.00000000

ion      s     py     pz     px    dxy    dyz    dz2    dxz    dx2    tot
  1  0.001  0.000  0.009  0.002  0.004  0.001  0.017  0.172  0.007  0.212
  2  0.001  0.000  0.009  0.002  0.003  0.001  0.016  0.171  0.006  0.209
  3  0.001  0.000  0.009  0.002  0.003  0.001  0.016  0.171  0.006  0.209
  4  0.001  0.000  0.009  0.002  0.004  0.001  0.017  0.172  0.007  0.212
tot  0.003  0.000  0.035  0.008  0.012  0.005  0.067  0.685  0.026  0.842

band   8 # energy   -0.21061591 # occ.  2.00000000

ion      s     py     pz     px    dxy    dyz    dz2    dxz    dx2    tot
  1  0.000  0.000  0.000  0.000  0.003  0.214  0.000  0.003  0.000  0.221
  2  0.000  0.000  0.000  0.000  0.003  0.214  0.000  0.003  0.000  0.221
  3  0.000  0.000  0.000  0.000  0.003  0.214  0.000  0.003  0.000  0.221