<?xml version="1.0" encoding="ISO-8859-1"?>
<modeling>
 <generator>
  <i name="program"" type=""stringvasp</i>
  <i name="version"" type=""string4.6.26 </i>
  <i name="subversion"" type=""string15Dec04 complex  serial</i>
  <i name="platform"" type=""stringLinuxPgi</i>
  <i name="date"" type=""string2009 11 30</i>
  <i name="time"" type=""string23:44:10</i>
 </generator>
 <incar>
  <i type=""string"" nameSYSTEM"" Au, FCC</i>
  <i type=""int"" nameISTART""     0</i>
  <i type=""string"" namePREC""normal ! set fft mesh, cutoffs</i>
  <i type=""string"" nameALGO"" Fast   ! use fast algorithm for electro</i>
  <i type=""int"" nameISPIN""     1</i>
  <i name="EDIFF""      0.00010000</i>
  <i name="EDIFFG""      0.00100000</i>
  <i type=""int"" nameIBRION""     1</i>
  <i type=""int"" nameNFREE""     5</i>
  <i type=""int"" nameNSW""    10</i>
  <i type=""int"" nameISIF""     3</i>
  <i name="ENCUT""    350.00000000</i>
  <i name="POTIM""      0.35000000</i>
  <i type=""int"" nameISMEAR""     0</i>
  <i name="SIGMA""      0.10000000</i>
  <i type=""int"" nameNWRITE""     1</i>
  <i type=""logical"" nameLWAVE"" F  </i>
  <i type=""logical"" nameLCHARG"" T  </i>
  <i type=""logical"" nameLVTOT"" F  </i>
  <i type=""logical"" nameLORBIT"" F  </i>
 </incar>
 <kpoints>
  <generation param="Monkhorst-Pack">
   <v type=""int"" namedivisions""       6       6       6</v>
   <v name="usershift""      0.00000000      0.00000000      0.00000000</v>
   <v name="genvec1""      0.16666667      0.00000000      0.00000000</v>
   <v name="genvec2""      0.00000000      0.16666667      0.00000000</v>
   <v name="genvec3""      0.00000000      0.00000000      0.16666667</v>
   <v name="shift""      0.50000000      0.50000000      0.50000000</v>
  </generation>
  <varray name="kpointlist"">
   <v>       0.08333333      0.08333333      0.08333333</v>
   <v>       0.25000000      0.08333333      0.08333333</v>
   <v>       0.41666667      0.08333333      0.08333333</v>
   <v>       0.25000000      0.25000000      0.08333333</v>
   <v>       0.41666667      0.25000000      0.08333333</v>
   <v>       0.41666667      0.41666667      0.08333333</v>
   <v>       0.25000000      0.25000000      0.25000000</v>
   <v>       0.41666667      0.25000000      0.25000000</v>
   <v>       0.41666667      0.41666667      0.25000000</v>
   <v>       0.41666667      0.41666667      0.41666667</v>
  </varray>
  <varray name="weights"">
   <v>       0.03703704</v>
   <v>       0.11111111</v>
   <v>       0.11111111</v>
   <v>       0.11111111</v>
   <v>       0.22222222</v>
   <v>       0.11111111</v>
   <v>       0.03703704</v>
   <v>       0.11111111</v>
   <v>       0.11111111</v>
   <v>       0.03703704</v>
  </varray>
 </kpoints>
 <parameters>
  <separator name="general"">
   <i type=""string"" nameSYSTEM""Au, FCC</i>
   <i type=""logical"" nameLCOMPAT"" F  </i>
  </separator>
  <separator name="electronic"">
   <i type=""string"" namePREC""normal</i>
   <i name="ENMAX""    350.00000000</i>
   <i name="ENAUG""    356.67000000</i>
   <i name="EDIFF""      0.00010000</i>
   <i type=""int"" nameIALGO""    68</i>
   <i type=""int"" nameIWAVPR""    11</i>
   <i type=""int"" nameNBANDS""    26</i>
   <i name="NELECT""     44.00000000</i>
   <separator name="electronic smearing"">
    <i type=""int"" nameISMEAR""     0</i>
    <i name="SIGMA""      0.10000000</i>
   </separator>
   <separator name="electronic projectors"">
    <i type=""logical"" nameLREAL"" F  </i>
    <v name="ROPT""      0.00000000</v>
    <i type=""int"" nameLMAXPAW""  -100</i>
    <i type=""int"" nameLMAXMIX""     2</i>
   </separator>
   <separator name="electronic startup"">
    <i type=""int"" nameISTART""     0</i>
    <i type=""int"" nameICHARG""     2</i>
    <i type=""int"" nameINIWAV""     1</i>
   </separator>
   <separator name="electronic spin"">
    <i type=""int"" nameISPIN""     1</i>
    <i type=""logical"" nameLNONCOLLINEAR"" F  </i>
    <v name="MAGMOM""      1.00000000      1.00000000      1.00000000      1.00000000</v>
    <i name="NUPDOWN""     -1.00000000</i>
    <i type=""logical"" nameLSORBIT"" F  </i>
    <v name="SAXIS""      0.00000000      0.00000000      1.00000000</v>
    <i type=""logical"" nameLSPIRAL"" F  </i>
    <v name="QSPIRAL""      0.00000000      0.00000000      0.00000000</v>
    <i type=""logical"" nameLZEROZ"" F  </i>
   </separator>
   <separator name="electronic exchange-correlation"">
    <i type=""string"" nameGGA""--</i>
    <i type=""int"" nameVOSKOWN""     0</i>
    <i type=""logical"" nameLASPH"" F  </i>
    <i type=""logical"" nameLMETAGGA"" F  </i>
    <i type=""string"" nameGGA2""--</i>
   </separator>
   <separator name="electronic convergence"">
    <i type=""int"" nameNELM""    60</i>
    <i type=""int"" nameNELMDL""    -5</i>
    <i type=""int"" nameNELMIN""     2</i>
    <i name="ENINI""    350.00000000</i>
    <separator name="electronic convergence detail"">
     <i type=""logical"" nameLDIAG"" T  </i>
     <i name="WEIMIN""      0.00100000</i>
     <i name="EBREAK""      0.00000096</i>
     <i name="DEPER""      0.30000000</i>
     <i type=""int"" nameNRMM""     4</i>
     <i name="TIME""      0.10000000</i>
    </separator>
   </separator>
   <separator name="electronic mixer"">
    <i name="AMIX""      0.40000000</i>
    <i name="BMIX""      1.00000000</i>
    <i name="AMIN""      0.10000000</i>
    <i name="AMIX_MAG""      1.60000000</i>
    <i name="BMIX_MAG""      1.00000000</i>
    <separator name="electronic mixer details"">
     <i type=""int"" nameIMIX""     4</i>
     <i type=""int"" nameMAXMIX""   -45</i>
     <i name="WC""    100.00000000</i>
     <i type=""int"" nameINIMIX""     1</i>
     <i type=""int"" nameMIXPRE""     1</i>
     <i type=""int"" nameMREMOVE""     5</i>
    </separator>
   </separator>
   <separator name="electronic dipolcorrection"">
    <i type=""int"" nameIDIPOL""     0</i>
    <i type=""logical"" nameLDIPOL"" F  </i>
    <v name="DIPOL""   -100.00000000</v>
    <i name="EFIELD""      0.00000000</i>
   </separator>
  </separator>
  <separator name="grids"">
   <i type=""int"" nameNGX""    20</i>
   <i type=""int"" nameNGY""    20</i>
   <i type=""int"" nameNGZ""    20</i>
   <i type=""int"" nameNGXF""    40</i>
   <i type=""int"" nameNGYF""    40</i>
   <i type=""int"" nameNGZF""    40</i>
   <i type=""logical"" nameADDGRID"" F  </i>
  </separator>
  <separator name="ionic"">
   <i type=""int"" nameNSW""    10</i>
   <i type=""int"" nameIBRION""     1</i>
   <i type=""int"" nameISIF""     3</i>
   <i name="PSTRESS""      0.00000000</i>
   <i name="EDIFFG""      0.00100000</i>
   <i type=""int"" nameNFREE""     5</i>
   <i name="POTIM""      0.35000000</i>
   <i name="SMASS""     -3.00000000</i>
  </separator>
  <separator name="ionic md"">
   <i name="TEBEG""      0.00010000</i>
   <i name="TEEND""      0.00010000</i>
   <i type=""int"" nameNBLOCK""     1</i>
   <i type=""int"" nameKBLOCK""    10</i>
   <i type=""int"" nameNPACO""   256</i>
   <i name="APACO""     16.00000000</i>
  </separator>
  <separator name="symmetry"">
   <i type=""int"" nameISYM""     2</i>
   <i name="SYMPREC""      0.00001000</i>
  </separator>
  <separator name="dos"">
   <i type=""logical"" nameLORBIT"" F  </i>
   <v name="RWIGS""     -1.00000000</v>
   <i type=""int"" nameNEDOS""   301</i>
   <i name="EMIN""     10.00000000</i>
   <i name="EMAX""    -10.00000000</i>
  </separator>
  <separator name="writing"">
   <i type=""int"" nameNWRITE""     1</i>
   <i type=""logical"" nameLWAVE"" F  </i>
   <i type=""logical"" nameLCHARG"" T  </i>
   <i type=""logical"" nameLPARD"" F  </i>
   <i type=""logical"" nameLVTOT"" F  </i>
   <i type=""logical"" nameLELF"" F  </i>
   <i type=""logical"" nameLOPTICS"" F  </i>
   <i name="STM""      0.00000000</i>
  </separator>
  <separator name="performance"">
   <i type=""int"" nameNPAR""     1</i>
   <i type=""int"" nameNSIM""     4</i>
   <i type=""int"" nameNBLK""    96</i>
   <i type=""logical"" nameLPLANE"" T  </i>
   <i type=""logical"" nameLCRITICAL_MEM"" F  </i>
   <i type=""logical"" nameLSCALAPACK"" F  </i>
   <i type=""logical"" nameLSCALU"" F  </i>
   <i type=""logical"" nameLASYNC"" F  </i>
  </separator>
  <separator name="miscellaneous"">
   <i type=""int"" nameIDIOT""     3</i>
   <i type=""logical"" nameLMUSIC"" F  </i>
   <v name="POMASS""    196.96600000</v>
   <i type=""logical"" nameLCORR"" T  </i>
  </separator>
  <i type=""logical"" nameLREAL_COMPAT"" F  </i>
  <i type=""logical"" nameGGA_COMPAT"" T  </i>
  <i type=""logical"" nameLBERRY"" F  </i>
  <i type=""int"" nameICORELEVEL""     0</i>
  <i type=""logical"" nameLDAU"" F  </i>
  <i type=""int"" nameI_CONSTRAINED_M""     0</i>
 </parameters>
 <atominfo>
  <atoms>       4</atoms>
  <types>       1</types>
  <array name="atoms"">
   <dimension dim="1">ion</dimension>
   <field type="string">element</field>
   <field type="int">atomtype</field>
   <set>
    <rc><c>Au</c><c>   1</c></rc>
    <rc><c>Au</c><c>   1</c></rc>
    <rc><c>Au</c><c>   1</c></rc>
    <rc><c>Au</c><c>   1</c></rc>
   </set>
  </array>
  <array name="atomtypes"">
   <dimension dim="1">type</dimension>
   <field type="int">atomspertype</field>
   <field type="string">element</field>
   <field>mass</field>
   <field>valence</field>
   <field type="string">pseudopotential</field>
   <set>
    <rc><c>   4</c><c>Au</c><c>    196.96600000</c><c>     11.00000000</c><c> PAW_GGA Au 18Jul2000                   </c></rc>
   </set>
  </array>
 </atominfo>
 <structure name="initialpos"">
  <crystal>
   <varray name="basis"">
    <v>       4.17600000      0.00000000      0.00000000</v>
    <v>       0.00000000      4.17600000      0.00000000</v>
    <v>       0.00000000      0.00000000      4.17600000</v>
   </varray>
   <i name="volume""     72.82516378</i>
   <varray name="rec_basis"">
    <v>       0.23946360      0.00000000      0.00000000</v>
    <v>       0.00000000      0.23946360      0.00000000</v>
    <v>       0.00000000      0.00000000      0.23946360</v>
   </varray>
  </crystal>
  <varray name="positions"">
   <v>       0.00000000      0.00000000      0.00000000</v>
   <v>       0.50000000      0.50000000      0.00000000</v>
   <v>       0.50000000      0.00000000      0.50000000</v>
   <v>       0.00000000      0.50000000      0.50000000</v>
  </varray>
 </structure>
 <calculation>
  <scstep>
   <time name="dav""    1.91    1.83</time>
   <time name="total""    2.06    2.00</time>
   <energy>
    <i name="alphaZ""    410.59993510</i>
    <i name="ewald""  -3825.93184368</i>
    <i name="hartreedc""   -529.55712152</i>
    <i name="XCdc""     59.97000211</i>
    <i name="pawpsdc""   2990.61254974</i>
    <i name="pawaedc""  -2898.25794382</i>
    <i name="eentropy""     -0.01803508</i>
    <i name="bandstr""    434.13468254</i>
    <i name="atom""   3708.31045775</i>
    <i name="e_fr_energy""    349.86268314</i>
    <i name="e_wo_entrp""    349.88071822</i>
    <i name="e_0_energy""    349.87170068</i>
   </energy>
  </scstep>
  <scstep>
   <time name="dav""    2.04    1.78</time>
   <time name="total""    2.04    1.78</time>
   <energy>
    <i name="e_fr_energy""      3.60846551</i>
    <i name="e_wo_entrp""      3.61651888</i>
    <i name="e_0_energy""      3.61249220</i>
   </energy>
  </scstep>
  <scstep>
   <time name="dav""    2.18    1.99</time>
   <time name="total""    2.19    2.00</time>
   <energy>
    <i name="e_fr_energy""    -13.40864897</i>
    <i name="e_wo_entrp""    -13.38741497</i>
    <i name="e_0_energy""    -13.39803197</i>
   </energy>
  </scstep>
  <scstep>
   <time name="dav""    2.06    1.81</time>
   <time name="total""    2.06    1.82</time>
   <energy>
    <i name="e_fr_energy""    -13.76126530</i>
    <i name="e_wo_entrp""    -13.73956542</i>
    <i name="e_0_energy""    -13.75041536</i>
   </energy>
  </scstep>
  <scstep>
   <time name="dav""    2.09    1.90</time>
   <time name="total""    2.24    2.06</time>
   <energy>
    <i name="e_fr_energy""    -13.76730581</i>
    <i name="e_wo_entrp""    -13.74559955</i>
    <i name="e_0_energy""    -13.75645268</i>
   </energy>
  </scstep>
  <scstep>
   <time name="diag""    0.34    0.33</time>
   <time name="diis""    1.61    1.60</time>
   <time name="orth""    0.04    0.04</time>
   <time name="total""    2.29    2.27</time>
   <energy>
    <i name="e_fr_energy""    -12.82615529</i>
    <i name="e_wo_entrp""    -12.81630488</i>
    <i name="e_0_energy""    -12.82123008</i>
   </energy>
  </scstep>
  <scstep>
   <time name="diag""    0.34    0.34</time>
   <time name="diis""    1.62    1.62</time>
   <time name="orth""    0.04    0.03</time>
   <time name="total""    2.30    2.29</time>
   <energy>
    <i name="e_fr_energy""    -12.77460011</i>
    <i name="e_wo_entrp""    -12.76856151</i>
    <i name="e_0_energy""    -12.77158081</i>
   </energy>
  </scstep>
  <scstep>
   <time name="diag""    0.35    0.33</time>
   <time name="diis""    1.62    1.54</time>
   <time name="orth""    0.04    0.03</time>
   <time name="total""    2.30    2.21</time>
   <energy>
    <i name="e_fr_energy""    -12.76261052</i>
    <i name="e_wo_entrp""    -12.75612705</i>
    <i name="e_0_energy""    -12.75936878</i>
   </energy>
  </scstep>
  <scstep>
   <time name="diag""    0.34    0.33</time>
   <time name="diis""    1.57    1.57</time>
   <time name="orth""    0.03    0.04</time>
   <time name="total""    2.24    2.24</time>
   <energy>
    <i name="e_fr_energy""    -12.76251470</i>
    <i name="e_wo_entrp""    -12.75631347</i>
    <i name="e_0_energy""    -12.75941408</i>
   </energy>
  </scstep>
  <scstep>
   <time name="diag""    0.34    0.33</time>
   <time name="diis""    0.99    0.93</time>
   <time name="orth""    0.04    0.03</time>
   <time name="total""    1.52    1.44</time>
   <energy>
    <i name="alphaZ""    410.59993510</i>
    <i name="ewald""  -3825.93184368</i>
    <i name="hartreedc""   -487.25509184</i>
    <i name="XCdc""     57.99383794</i>
    <i name="pawpsdc""   2993.68066477</i>
    <i name="pawaedc""  -2910.82245160</i>
    <i name="eentropy""     -0.00621728</i>
    <i name="bandstr""     40.66819361</i>
    <i name="atom""   3708.31045775</i>
    <i name="e_fr_energy""    -12.76251523</i>
    <i name="e_wo_entrp""    -12.75629795</i>
    <i name="e_0_energy""    -12.75940659</i>
   </energy>
  </scstep>
  <structure>
   <crystal>
    <varray name="basis"">
     <v>       4.17600000      0.00000000      0.00000000</v>
     <v>       0.00000000      4.17600000      0.00000000</v>
     <v>       0.00000000      0.00000000      4.17600000</v>
    </varray>
    <i name="volume""     72.82516378</i>
    <varray name="rec_basis"">
     <v>       0.23946360      0.00000000      0.00000000</v>
     <v>       0.00000000      0.23946360      0.00000000</v>
     <v>       0.00000000      0.00000000      0.23946360</v>
    </varray>
   </crystal>
   <varray name="positions"">
    <v>       0.00000000      0.00000000      0.00000000</v>
    <v>       0.50000000      0.50000000      0.00000000</v>
    <v>       0.50000000      0.00000000      0.50000000</v>
    <v>       0.00000000      0.50000000      0.50000000</v>
   </varray>
  </structure>
  <varray name="forces"">
   <v>       0.00000000      0.00000000      0.00000000</v>
   <v>       0.00000000      0.00000000      0.00000000</v>
   <v>       0.00000000      0.00000000      0.00000000</v>
   <v>       0.00000000      0.00000000      0.00000000</v>
  </varray>
  <varray name="stress"">
   <v>       0.61359143      0.00000000      0.00000000</v>
   <v>       0.00000000      0.61359143      0.00000000</v>
   <v>       0.00000000      0.00000000      0.61359143</v>
  </varray>
  <energy>
   <i name="e_fr_energy""    -12.76251523</i>
   <i name="e_wo_entrp""    -12.75940659</i>
   <i name="e_0_energy""     -0.00621728</i>
  </energy>
  <eigenvalues>
   <array>
    <dimension dim="1">band</dimension>
    <dimension dim="2">kpoint</dimension>
    <dimension dim="3">spin</dimension>
    <field>eigene</field>
    <field>occ</field>
    <set>
     <set comment="spin 1">
      <set comment="kpoint 1">
       <r>  -4.0482  1.0000</r>
       <r>  -1.4927  1.0000</r>
       <r>  -1.4927  1.0000</r>
       <r>  -1.4927  1.0000</r>
       <r>  -1.2254  1.0000</r>
       <r>  -1.2254  1.0000</r>
       <r>  -1.2254  1.0000</r>
       <r>   0.4378  1.0000</r>
       <r>   0.5763  1.0000</r>
       <r>   0.5763  1.0000</r>
       <r>   1.8261  1.0000</r>
       <r>   1.8261  1.0000</r>
       <r>   2.7137  1.0000</r>
       <r>   2.7137  1.0000</r>
       <r>   2.7137  1.0000</r>
       <r>   2.7300  1.0000</r>
       <r>   2.7300  1.0000</r>
       <r>   2.7300  1.0000</r>
       <r>   3.1348  1.0000</r>
       <r>   3.1348  1.0000</r>
       <r>   3.1348  1.0000</r>
       <r>   6.0724  0.0000</r>
       <r>   6.0724  0.0000</r>
       <r>   6.0724  0.0000</r>
       <r>  10.7670  0.0000</r>
       <r>  10.7670  0.0000</r>
      </set>
      <set comment="kpoint 2">
       <r>  -3.4659  1.0000</r>
       <r>  -1.3432  1.0000</r>
       <r>  -1.1703  1.0000</r>
       <r>  -1.1703  1.0000</r>
       <r>  -1.0218  1.0000</r>
       <r>  -0.8737  1.0000</r>
       <r>  -0.8737  1.0000</r>
       <r>   0.2052  1.0000</r>
       <r>   0.7909  1.0000</r>
       <r>   0.7977  1.0000</r>
       <r>   1.5809  1.0000</r>
       <r>   1.6373  1.0000</r>
       <r>   1.6373  1.0000</r>
       <r>   1.9841  1.0000</r>
       <r>   2.0079  1.0000</r>
       <r>   2.3667  1.0000</r>
       <r>   2.3882  1.0000</r>
       <r>   2.3882  1.0000</r>
       <r>   2.9168  1.0000</r>
       <r>   3.0954  1.0000</r>
       <r>   3.0954  1.0000</r>
       <r>   3.8918  1.0000</r>
       <r>   7.3829  0.0000</r>
       <r>   7.3829  0.0000</r>
       <r>  10.3367  0.0000</r>
       <r>  10.3367  0.0000</r>
      </set>
      <set comment="kpoint 3">
       <r>  -2.4283  1.0000</r>
       <r>  -1.4701  1.0000</r>
       <r>  -0.6597  1.0000</r>
       <r>  -0.6597  1.0000</r>
       <r>  -0.6573  1.0000</r>
       <r>  -0.2973  1.0000</r>
       <r>  -0.2973  1.0000</r>
       <r>  -0.2106  1.0000</r>
       <r>   0.5471  1.0000</r>
       <r>   0.5471  1.0000</r>
       <r>   0.9370  1.0000</r>
       <r>   1.0664  1.0000</r>
       <r>   1.2216  1.0000</r>
       <r>   1.6011  1.0000</r>
       <r>   1.7900  1.0000</r>
       <r>   1.8728  1.0000</r>
       <r>   1.8728  1.0000</r>
       <r>   2.2639  1.0000</r>
       <r>   2.4127  1.0000</r>
       <r>   2.6004  1.0000</r>
       <r>   3.0802  1.0000</r>
       <r>   3.0802  1.0000</r>
       <r>   8.4980  0.0000</r>
       <r>   8.4980  0.0000</r>
       <r>  10.1945  0.0000</r>
       <r>  10.1945  0.0000</r>
      </set>
      <set comment="kpoint 4">
       <r>  -2.9463  1.0000</r>
       <r>  -1.0573  1.0000</r>
       <r>  -1.0289  1.0000</r>
       <r>  -1.0289  1.0000</r>
       <r>  -0.6712  1.0000</r>
       <r>  -0.6712  1.0000</r>
       <r>  -0.4640  1.0000</r>
       <r>   0.1815  1.0000</r>
       <r>   0.8099  1.0000</r>
       <r>   0.8601  1.0000</r>
       <r>   0.9945  1.0000</r>
       <r>   0.9945  1.0000</r>
       <r>   1.2490  1.0000</r>
       <r>   1.5866  1.0000</r>
       <r>   2.0325  1.0000</r>
       <r>   2.1341  1.0000</r>
       <r>   2.1553  1.0000</r>
       <r>   2.1553  1.0000</r>
       <r>   2.8396  1.0000</r>
       <r>   2.8396  1.0000</r>
       <r>   2.8730  1.0000</r>
       <r>   5.0930  0.0000</r>
       <r>   5.0930  0.0000</r>
       <r>   8.1754  0.0000</r>
       <r>   9.2705  0.0000</r>
       <r>  12.3097  0.0000</r>
      </set>
      <set comment="kpoint 5">
       <r>  -2.0345  1.0000</r>
       <r>  -1.1654  1.0000</r>
       <r>  -0.6855  1.0000</r>
       <r>  -0.5135  1.0000</r>
       <r>  -0.3518  1.0000</r>
       <r>  -0.2166  1.0000</r>
       <r>  -0.1183  1.0000</r>
       <r>  -0.0458  1.0000</r>
       <r>   0.2423  1.0000</r>
       <r>   0.4932  1.0000</r>
       <r>   0.5922  1.0000</r>
       <r>   0.6982  1.0000</r>
       <r>   1.1423  1.0000</r>
       <r>   1.6137  1.0000</r>
       <r>   1.6971  1.0000</r>
       <r>   1.7241  1.0000</r>
       <r>   1.8138  1.0000</r>
       <r>   2.3565  1.0000</r>
       <r>   2.6506  1.0000</r>
       <r>   2.7091  1.0000</r>
       <r>   2.7153  1.0000</r>
       <r>   3.4901  1.0000</r>
       <r>   6.3319  0.0000</r>
       <r>   7.4864  0.0000</r>
       <r>   9.8346  0.0000</r>
       <r>  10.9396  0.0000</r>
      </set>
      <set comment="kpoint 6">
       <r>  -1.4148  1.0000</r>
       <r>  -0.8251  1.0000</r>
       <r>  -0.8251  1.0000</r>
       <r>  -0.7213  1.0000</r>
       <r>   0.0897  1.0000</r>
       <r>   0.1165  1.0000</r>
       <r>   0.1165  1.0000</r>
       <r>   0.1268  1.0000</r>
       <r>   0.2408  1.0000</r>
       <r>   0.2408  1.0000</r>
       <r>   0.5890  1.0000</r>
       <r>   0.5969  1.0000</r>
       <r>   1.1076  1.0000</r>
       <r>   1.3854  1.0000</r>
       <r>   1.4182  1.0000</r>
       <r>   1.4182  1.0000</r>
       <r>   1.7213  1.0000</r>
       <r>   2.1855  1.0000</r>
       <r>   2.1855  1.0000</r>
       <r>   2.3229  1.0000</r>
       <r>   3.4671  1.0000</r>
       <r>   4.5935  0.9981</r>
       <r>   4.5935  0.9981</r>
       <r>   5.8496  0.0000</r>
       <r>  10.8539  0.0000</r>
       <r>  12.2516  0.0000</r>
      </set>
      <set comment="kpoint 7">
       <r>  -2.5719  1.0000</r>
       <r>  -1.0659  1.0000</r>
       <r>  -1.0659  1.0000</r>
       <r>  -1.0659  1.0000</r>
       <r>  -0.2270  1.0000</r>
       <r>  -0.2270  1.0000</r>
       <r>  -0.2270  1.0000</r>
       <r>   0.4195  1.0000</r>
       <r>   0.7573  1.0000</r>
       <r>   0.7573  1.0000</r>
       <r>   0.8570  1.0000</r>
       <r>   0.8570  1.0000</r>
       <r>   0.8570  1.0000</r>
       <r>   1.5717  1.0000</r>
       <r>   1.5717  1.0000</r>
       <r>   1.5717  1.0000</r>
       <r>   2.0123  1.0000</r>
       <r>   2.0123  1.0000</r>
       <r>   3.0067  1.0000</r>
       <r>   3.0067  1.0000</r>
       <r>   3.0067  1.0000</r>
       <r>   5.8372  0.0000</r>
       <r>   5.8372  0.0000</r>
       <r>   5.8372  0.0000</r>
       <r>  10.1329  0.0000</r>
       <r>  10.1329  0.0000</r>
      </set>
      <set comment="kpoint 8">
       <r>  -1.9543  1.0000</r>
       <r>  -1.3518  1.0000</r>
       <r>  -0.9569  1.0000</r>
       <r>  -0.9569  1.0000</r>
       <r>  -0.0459  1.0000</r>
       <r>  -0.0459  1.0000</r>
       <r>   0.2236  1.0000</r>
       <r>   0.5082  1.0000</r>
       <r>   0.5428  1.0000</r>
       <r>   0.6561  1.0000</r>
       <r>   0.8277  1.0000</r>
       <r>   0.8657  1.0000</r>
       <r>   0.8657  1.0000</r>
       <r>   1.1162  1.0000</r>
       <r>   1.3206  1.0000</r>
       <r>   1.3206  1.0000</r>
       <r>   2.3527  1.0000</r>
       <r>   2.5092  1.0000</r>
       <r>   2.8520  1.0000</r>
       <r>   2.8520  1.0000</r>
       <r>   2.8857  1.0000</r>
       <r>   3.7257  1.0000</r>
       <r>   6.9495  0.0000</r>
       <r>   6.9495  0.0000</r>
       <r>   8.3319  0.0000</r>
       <r>   8.3319  0.0000</r>
      </set>
      <set comment="kpoint 9">
       <r>  -1.7455  1.0000</r>
       <r>  -1.3920  1.0000</r>
       <r>  -1.3920  1.0000</r>
       <r>  -1.2618  1.0000</r>
       <r>   0.1633  1.0000</r>
       <r>   0.2657  1.0000</r>
       <r>   0.2657  1.0000</r>
       <r>   0.5281  1.0000</r>
       <r>   0.7008  1.0000</r>
       <r>   0.8739  1.0000</r>
       <r>   0.8739  1.0000</r>
       <r>   0.9372  1.0000</r>
       <r>   1.2443  1.0000</r>
       <r>   1.2443  1.0000</r>
       <r>   1.2943  1.0000</r>
       <r>   1.3952  1.0000</r>
       <r>   2.3166  1.0000</r>
       <r>   2.7304  1.0000</r>
       <r>   2.7304  1.0000</r>
       <r>   2.7369  1.0000</r>
       <r>   3.2561  1.0000</r>
       <r>   4.6819  0.9505</r>
       <r>   4.6819  0.9505</r>
       <r>   6.1174  0.0000</r>
       <r>   8.1796  0.0000</r>
       <r>   9.7028  0.0000</r>
      </set>
      <set comment="kpoint 10">
       <r>  -1.8705  1.0000</r>
       <r>  -1.7003  1.0000</r>
       <r>  -1.7003  1.0000</r>
       <r>  -1.7003  1.0000</r>
       <r>   0.3789  1.0000</r>
       <r>   0.3789  1.0000</r>
       <r>   0.3789  1.0000</r>
       <r>   0.5223  1.0000</r>
       <r>   0.5223  1.0000</r>
       <r>   0.6088  1.0000</r>
       <r>   0.6088  1.0000</r>
       <r>   0.6088  1.0000</r>
       <r>   2.1735  1.0000</r>
       <r>   2.1735  1.0000</r>
       <r>   2.1735  1.0000</r>
       <r>   2.7792  1.0000</r>
       <r>   2.7792  1.0000</r>
       <r>   2.9314  1.0000</r>
       <r>   2.9376  1.0000</r>
       <r>   2.9376  1.0000</r>
       <r>   2.9376  1.0000</r>
       <r>   4.8881  0.1027</r>
       <r>   4.8881  0.1027</r>
       <r>   4.8881  0.1027</r>
       <r>   7.9074  0.0000</r>
       <r>   7.9074  0.0000</r>
      </set>
     </set>
    </set>
   </array>
  </eigenvalues>
  <dos>
   <i name="efermi""      4.79858106</i>
   <total>
    <array>
     <dimension dim="1">gridpoints</dimension>
     <dimension dim="2">spin</dimension>
     <field>energy</field>
     <field>total</field>
     <field>integrated</field>
     <set>
      <set comment="spin 1">
       <r>  -5.0482   0.0000   0.0000 </r>
       <r>  -4.9870   0.0000   0.0000 </r>
       <r>  -4.9258   0.0000   0.0000 </r>
       <r>  -4.8646   0.0000   0.0000 </r>
       <r>  -4.8034   0.0000   0.0000 </r>
       <r>  -4.7422   0.0000   0.0000 </r>
       <r>  -4.6810   0.0000   0.0000 </r>
       <r>  -4.6198   0.0000   0.0000 </r>
       <r>  -4.5586   0.0000   0.0000 </r>
       <r>  -4.4975   0.0000   0.0000 </r>
       <r>  -4.4363   0.0000   0.0000 </r>
       <r>  -4.3751   0.0000   0.0000 </r>
       <r>  -4.3139   0.0001   0.0000 </r>
       <r>  -4.2527   0.0022   0.0001 </r>
       <r>  -4.1915   0.0235   0.0016 </r>
       <r>  -4.1303   0.1228   0.0091 </r>
       <r>  -4.0691   0.3159   0.0284 </r>
       <r>  -4.0079   0.4017   0.0530 </r>
       <r>  -3.9467   0.2528   0.0685 </r>
       <r>  -3.8855   0.0786   0.0733 </r>
       <r>  -3.8243   0.0120   0.0740 </r>
       <r>  -3.7631   0.0009   0.0741 </r>
       <r>  -3.7019   0.0015   0.0742 </r>
       <r>  -3.6408   0.0228   0.0756 </r>
       <r>  -3.5796   0.1717   0.0861 </r>
       <r>  -3.5184   0.6357   0.1250 </r>
       <r>  -3.4572   1.1623   0.1961 </r>
       <r>  -3.3960   1.0514   0.2604 </r>
       <r>  -3.3348   0.4704   0.2892 </r>
       <r>  -3.2736   0.1038   0.2956 </r>
       <r>  -3.2124   0.0116   0.2963 </r>
       <r>  -3.1512   0.0071   0.2967 </r>
       <r>  -3.0900   0.0697   0.3010 </r>
       <r>  -3.0288   0.3652   0.3233 </r>
       <r>  -2.9676   0.9438   0.3811 </r>
       <r>  -2.9064   1.2059   0.4549 </r>
       <r>  -2.8452   0.7625   0.5015 </r>
       <r>  -2.7840   0.2397   0.5162 </r>
       <r>  -2.7229   0.0549   0.5196 </r>
       <r>  -2.6617   0.1084   0.5262 </r>
       <r>  -2.6005   0.3172   0.5456 </r>
       <r>  -2.5393   0.5898   0.5817 </r>
       <r>  -2.4781   0.9410   0.6393 </r>
       <r>  -2.4169   1.2689   0.7169 </r>
       <r>  -2.3557   1.0457   0.7809 </r>
       <r>  -2.2945   0.4487   0.8084 </r>
       <r>  -2.2333   0.1127   0.8153 </r>
       <r>  -2.1721   0.1831   0.8265 </r>
       <r>  -2.1109   0.8738   0.8799 </r>
       <r>  -2.0497   2.2749   1.0192 </r>
       <r>  -1.9885   3.2488   1.2180 </r>
       <r>  -1.9273   2.8336   1.3914 </r>
       <r>  -1.8662   1.8527   1.5047 </r>
       <r>  -1.8050   1.5283   1.5982 </r>
       <r>  -1.7438   2.0833   1.7257 </r>
       <r>  -1.6826   2.3611   1.8702 </r>
       <r>  -1.6214   1.6917   1.9737 </r>
       <r>  -1.5602   1.4576   2.0629 </r>
       <r>  -1.4990   2.9070   2.2408 </r>
       <r>  -1.4378   5.3511   2.5683 </r>
       <r>  -1.3766   7.0193   2.9978 </r>
       <r>  -1.3154   6.8274   3.4156 </r>
       <r>  -1.2542   6.2265   3.7966 </r>
       <r>  -1.1930   6.9981   4.2248 </r>
       <r>  -1.1318   7.9098   4.7089 </r>
       <r>  -1.0706   8.2253   5.2122 </r>
       <r>  -1.0094   8.4945   5.7320 </r>
       <r>  -0.9483   7.8447   6.2120 </r>
       <r>  -0.8871   6.8398   6.6306 </r>
       <r>  -0.8259   6.3748   7.0207 </r>
       <r>  -0.7647   6.5568   7.4219 </r>
       <r>  -0.7035   8.5238   7.9435 </r>
       <r>  -0.6423   9.9551   8.5527 </r>
       <r>  -0.5811   7.7302   9.0257 </r>
       <r>  -0.5199   5.1489   9.3408 </r>
       <r>  -0.4587   4.3621   9.6077 </r>
       <r>  -0.3975   4.3132   9.8717 </r>
       <r>  -0.3363   5.3607  10.1997 </r>
       <r>  -0.2751   7.0125  10.6288 </r>
       <r>  -0.2139   7.9049  11.1125 </r>
       <r>  -0.1527   7.6851  11.5828 </r>
       <r>  -0.0916   7.4946  12.0414 </r>
       <r>  -0.0304   7.3773  12.4929 </r>
       <r>   0.0308   6.4258  12.8861 </r>
       <r>   0.0920   6.8631  13.3061 </r>
       <r>   0.1532   9.7506  13.9027 </r>
       <r>   0.2144  12.5306  14.6695 </r>
       <r>   0.2756  12.1259  15.4115 </r>
       <r>   0.3368   8.1876  15.9126 </r>
       <r>   0.3980   5.3181  16.2380 </r>
       <r>   0.4592   6.9041  16.6605 </r>
       <r>   0.5204  11.7836  17.3815 </r>
       <r>   0.5816  15.3275  18.3195 </r>
       <r>   0.6428  14.2494  19.1914 </r>
       <r>   0.7040  11.2640  19.8807 </r>
       <r>   0.7652  10.4502  20.5202 </r>
       <r>   0.8263  12.3238  21.2743 </r>
       <r>   0.8875  13.4740  22.0989 </r>
       <r>   0.9487  11.3036  22.7906 </r>
       <r>   1.0099   8.2331  23.2944 </r>
       <r>   1.0711   7.0353  23.7249 </r>
       <r>   1.1323   7.5227  24.1852 </r>
       <r>   1.1935   8.2244  24.6885 </r>
       <r>   1.2547   8.9111  25.2338 </r>
       <r>   1.3159   9.1927  25.7963 </r>
       <r>   1.3771   8.5322  26.3184 </r>
       <r>   1.4383   7.0078  26.7472 </r>
       <r>   1.4995   5.6066  27.0903 </r>
       <r>   1.5607   7.2034  27.5311 </r>
       <r>   1.6219  10.9246  28.1996 </r>
       <r>   1.6830  12.4602  28.9621 </r>
       <r>   1.7442  11.5174  29.6669 </r>
       <r>   1.8054   9.9637  30.2766 </r>
       <r>   1.8666   8.1618  30.7761 </r>
       <r>   1.9278   6.1990  31.1554 </r>
       <r>   1.9890   5.4423  31.4884 </r>
       <r>   2.0502   5.7855  31.8425 </r>
       <r>   2.1114   6.6380  32.2487 </r>
       <r>   2.1726   8.1416  32.7469 </r>
       <r>   2.2338   8.5351  33.2692 </r>
       <r>   2.2950   8.8706  33.8120 </r>
       <r>   2.3562  10.7138  34.4676 </r>
       <r>   2.4174  10.3595  35.1015 </r>
       <r>   2.4786   6.7305  35.5134 </r>
       <r>   2.5398   4.0972  35.7641 </r>
       <r>   2.6009   4.9489  36.0669 </r>
       <r>   2.6621   9.1345  36.6259 </r>
       <r>   2.7233  13.7730  37.4687 </r>
       <r>   2.7845  14.5431  38.3587 </r>
       <r>   2.8457  12.7241  39.1373 </r>
       <r>   2.9069  10.9159  39.8053 </r>
       <r>   2.9681   8.3841  40.3183 </r>
       <r>   3.0293   6.7088  40.7289 </r>
       <r>   3.0905   6.9246  41.1526 </r>
       <r>   3.1517   6.2354  41.5342 </r>
       <r>   3.2129   3.8969  41.7726 </r>
       <r>   3.2741   2.1305  41.9030 </r>
       <r>   3.3353   1.3123  41.9833 </r>
       <r>   3.3965   1.4364  42.0712 </r>
       <r>   3.4576   2.7971  42.2423 </r>
       <r>   3.5188   3.6099  42.4633 </r>
       <r>   3.5800   2.4562  42.6136 </r>
       <r>   3.6412   1.1472  42.6838 </r>
       <r>   3.7024   1.0708  42.7493 </r>
       <r>   3.7636   1.3338  42.8309 </r>
       <r>   3.8248   1.2790  42.9092 </r>
       <r>   3.8860   1.3231  42.9901 </r>
       <r>   3.9472   1.1868  43.0628 </r>
       <r>   4.0084   0.6100  43.1001 </r>
       <r>   4.0696   0.1586  43.1098 </r>
       <r>   4.1308   0.0204  43.1110 </r>
       <r>   4.1920   0.0013  43.1111 </r>
       <r>   4.2532   0.0000  43.1111 </r>
       <r>   4.3144   0.0003  43.1111 </r>
       <r>   4.3755   0.0072  43.1116 </r>
       <r>   4.4367   0.0910  43.1171 </r>
       <r>   4.4979   0.5758  43.1524 </r>
       <r>   4.5591   1.9007  43.2687 </r>
       <r>   4.6203   3.5218  43.4842 </r>
       <r>   4.6815   4.0117  43.7297 </r>
       <r>   4.7427   2.9462  43.9100 </r>
       <r>   4.8039   1.5779  44.0065 </r>
       <r>   4.8651   1.2149  44.0809 </r>
       <r>   4.9263   1.3047  44.1607 </r>
       <r>   4.9875   1.2075  44.2346 </r>
       <r>   5.0487   1.6836  44.3376 </r>
       <r>   5.1099   2.4278  44.4862 </r>
       <r>   5.1711   1.9705  44.6068 </r>
       <r>   5.2322   0.8014  44.6558 </r>
       <r>   5.2934   0.1609  44.6656 </r>
       <r>   5.3546   0.0159  44.6666 </r>
       <r>   5.4158   0.0008  44.6667 </r>
       <r>   5.4770   0.0000  44.6667 </r>
       <r>   5.5382   0.0001  44.6667 </r>
       <r>   5.5994   0.0021  44.6668 </r>
       <r>   5.6606   0.0342  44.6689 </r>
       <r>   5.7218   0.2783  44.6859 </r>
       <r>   5.7830   1.1186  44.7544 </r>
       <r>   5.8442   2.2322  44.8910 </r>
       <r>   5.9054   2.2457  45.0284 </r>
       <r>   5.9666   1.3553  45.1113 </r>
       <r>   6.0278   1.2930  45.1905 </r>
       <r>   6.0890   2.1039  45.3192 </r>
       <r>   6.1501   2.2383  45.4562 </r>
       <r>   6.2113   1.5204  45.5492 </r>
       <r>   6.2725   1.5000  45.6410 </r>
       <r>   6.3337   2.3045  45.7820 </r>
       <r>   6.3949   2.2075  45.9171 </r>
       <r>   6.4561   1.0677  45.9824 </r>
       <r>   6.5173   0.2553  45.9981 </r>
       <r>   6.5785   0.0300  45.9999 </r>
       <r>   6.6397   0.0018  46.0000 </r>
       <r>   6.7009   0.0016  46.0001 </r>
       <r>   6.7621   0.0275  46.0018 </r>
       <r>   6.8233   0.2400  46.0165 </r>
       <r>   6.8845   1.0285  46.0794 </r>
       <r>   6.9457   2.1744  46.2125 </r>
       <r>   7.0068   2.2739  46.3516 </r>
       <r>   7.0680   1.1765  46.4236 </r>
       <r>   7.1292   0.3017  46.4421 </r>
       <r>   7.1904   0.0602  46.4457 </r>
       <r>   7.2516   0.2123  46.4587 </r>
       <r>   7.3128   0.9866  46.5191 </r>
       <r>   7.3740   2.4564  46.6694 </r>
       <r>   7.4352   3.6227  46.8911 </r>
       <r>   7.4964   3.6103  47.1120 </r>
       <r>   7.5576   2.4272  47.2606 </r>
       <r>   7.6188   0.9640  47.3196 </r>
       <r>   7.6800   0.2042  47.3320 </r>
       <r>   7.7412   0.0425  47.3346 </r>
       <r>   7.8024   0.1446  47.3435 </r>
       <r>   7.8636   0.4812  47.3729 </r>
       <r>   7.9247   0.7984  47.4218 </r>
       <r>   7.9859   0.6767  47.4632 </r>
       <r>   8.0471   0.4776  47.4924 </r>
       <r>   8.1083   1.0123  47.5544 </r>
       <r>   8.1695   2.1912  47.6885 </r>
       <r>   8.2307   2.7921  47.8593 </r>
       <r>   8.2919   2.7916  48.0301 </r>
       <r>   8.3531   2.8821  48.2065 </r>
       <r>   8.4143   2.6461  48.3684 </r>
       <r>   8.4755   2.6002  48.5275 </r>
       <r>   8.5367   2.5568  48.6840 </r>
       <r>   8.5979   1.5631  48.7797 </r>
       <r>   8.6591   0.4918  48.8098 </r>
       <r>   8.7203   0.0767  48.8144 </r>
       <r>   8.7814   0.0059  48.8148 </r>
       <r>   8.8426   0.0002  48.8148 </r>
       <r>   8.9038   0.0000  48.8148 </r>
       <r>   8.9650   0.0000  48.8148 </r>
       <r>   9.0262   0.0010  48.8149 </r>
       <r>   9.0874   0.0165  48.8159 </r>
       <r>   9.1486   0.1365  48.8242 </r>
       <r>   9.2098   0.5558  48.8583 </r>
       <r>   9.2710   1.1167  48.9266 </r>
       <r>   9.3322   1.1100  48.9945 </r>
       <r>   9.3934   0.5458  49.0279 </r>
       <r>   9.4546   0.1332  49.0361 </r>
       <r>   9.5158   0.0299  49.0379 </r>
       <r>   9.5770   0.1236  49.0455 </r>
       <r>   9.6382   0.5375  49.0783 </r>
       <r>   9.6993   1.2731  49.1562 </r>
       <r>   9.7605   2.0024  49.2788 </r>
       <r>   9.8217   2.6195  49.4391 </r>
       <r>   9.8829   2.5096  49.5926 </r>
       <r>   9.9441   1.3832  49.6773 </r>
       <r>  10.0053   0.4875  49.7071 </r>
       <r>  10.0665   0.6167  49.7449 </r>
       <r>  10.1277   1.7294  49.8507 </r>
       <r>  10.1889   3.0340  50.0363 </r>
       <r>  10.2501   3.3625  50.2421 </r>
       <r>  10.3113   3.1254  50.4334 </r>
       <r>  10.3725   2.7540  50.6019 </r>
       <r>  10.4337   1.6484  50.7028 </r>
       <r>  10.4949   0.5290  50.7351 </r>
       <r>  10.5560   0.0883  50.7405 </r>
       <r>  10.6172   0.0461  50.7433 </r>
       <r>  10.6784   0.2364  50.7578 </r>
       <r>  10.7396   0.7759  50.8053 </r>
       <r>  10.8008   1.6029  50.9034 </r>
       <r>  10.8620   2.5179  51.0575 </r>
       <r>  10.9232   3.2164  51.2543 </r>
       <r>  10.9844   2.8919  51.4312 </r>
       <r>  11.0456   1.5332  51.5251 </r>
       <r>  11.1068   0.4321  51.5515 </r>
       <r>  11.1680   0.0617  51.5553 </r>
       <r>  11.2292   0.0044  51.5555 </r>
       <r>  11.2904   0.0002  51.5556 </r>
       <r>  11.3516   0.0000  51.5556 </r>
       <r>  11.4128   0.0000  51.5556 </r>
       <r>  11.4739   0.0000  51.5556 </r>
       <r>  11.5351   0.0000  51.5556 </r>
       <r>  11.5963   0.0000  51.5556 </r>
       <r>  11.6575   0.0000  51.5556 </r>
       <r>  11.7187   0.0000  51.5556 </r>
       <r>  11.7799   0.0000  51.5556 </r>
       <r>  11.8411   0.0000  51.5556 </r>
       <r>  11.9023   0.0000  51.5556 </r>
       <r>  11.9635   0.0001  51.5556 </r>
       <r>  12.0247   0.0024  51.5557 </r>
       <r>  12.0859   0.0349  51.5578 </r>
       <r>  12.1471   0.2542  51.5734 </r>
       <r>  12.2083   0.9628  51.6323 </r>
       <r>  12.2695   1.9555  51.7520 </r>
       <r>  12.3306   2.1805  51.8854 </r>
       <r>  12.3918   1.3405  51.9674 </r>
       <r>  12.4530   0.4464  51.9948 </r>
       <r>  12.5142   0.0782  51.9996 </r>
       <r>  12.5754   0.0070  52.0000 </r>
       <r>  12.6366   0.0003  52.0000 </r>
       <r>  12.6978   0.0000  52.0000 </r>
       <r>  12.7590   0.0000  52.0000 </r>
       <r>  12.8202   0.0000  52.0000 </r>
       <r>  12.8814   0.0000  52.0000 </r>
       <r>  12.9426   0.0000  52.0000 </r>
       <r>  13.0038   0.0000  52.0000 </r>
       <r>  13.0650   0.0000  52.0000 </r>
       <r>  13.1262   0.0000  52.0000 </r>
       <r>  13.1874   0.0000  52.0000 </r>
       <r>  13.2485   0.0000  52.0000 </r>
       <r>  13.3097   0.0000  52.0000 </r>
      </set>
     </set>
    </array>
   </total>
   <partial>
    <array>
     <dimension dim="1">gridpoints</dimension>
     <dimension dim="2">spin</dimension>
     <dimension dim="3">ion</dimension>
     <field>energy</field>
     <field>  s</field>
     <field> py</field>
     <field> pz</field>
     <field> px</field>
     <field>dxy</field>
     <field>dyz</field>
     <field>dz2</field>
     <field>dxz</field>
     <field>dx2</field>
     <set>
      <set comment="ion 1">
       <set comment="spin 1">
        <r>  -5.0482   0.0000   0.0000   0.0000   0.0000   0.0000   0.0000   0.0000   0.0000   0.0000 </r>
        <r>  -4.9870   0.0000   0.0000   0.0000   0.0000   0.0000   0.0000   0.0000   0.0000   0.0000 </r>
        <r>  -4.9258   0.0000   0.0000   0.0000   0.0000   0.0000   0.0000   0.0000   0.0000   0.0000 </r>
        <r>  -4.8646   0.0000   0.0000   0.0000   0.0000   0.0000   0.0000   0.0000   0.0000   0.0000 </r>
        <r>  -4.8034   0.0000   0.0000   0.0000   0.0000   0.0000   0.0000   0.0000   0.0000   0.0000 </r>
        <r>  -4.7422   0.0000   0.0000   0.0000   0.0000   0.0000   0.0000   0.0000   0.0000   0.0000 </r>
        <r>  -4.6810   0.0000   0.0000   0.0000   0.0000   0.0000   0.0000   0.0000   0.0000   0.0000 </r>
        <r>  -4.6198   0.0000   0.0000   0.0000   0.0000   0.0000   0.0000   0.0000   0.0000   0.0000 </r>
        <r>  -4.5586   0.0000   0.0000   0.0000   0.0000   0.0000   0.0000   0.0000   0.0000   0.0000 </r>
        <r>  -4.4975   0.0000   0.0000   0.0000   0.0000   0.0000   0.0000   0.0000   0.0000   0.0000 </r>
        <r>  -4.4363   0.0000   0.0000   0.0000   0.0000   0.0000   0.0000   0.0000   0.0000   0.0000 </r>
        <r>  -4.3751   0.0000   0.0000   0.0000   0.0000   0.0000   0.0000   0.0000   0.0000   0.0000 </r>
        <r>  -4.3139   0.0000   0.0000   0.0000   0.0000   0.0000   0.0000   0.0000   0.0000   0.0000 </r>
        <r>  -4.2527   0.0003   0.0000   0.0000   0.0000   0.0000   0.0000   0.0000   0.0000   0.0000 </r>
        <r>  -4.1915   0.0033   0.0000   0.0000   0.0000   0.0000   0.0000   0.0000   0.0000   0.0000 </r>
        <r>  -4.1303   0.0175   0.0001   0.0001   0.0001   0.0000   0.0000   0.0000   0.0000   0.0000 </r>
        <r>  -4.0691   0.0449   0.0002   0.0002   0.0002   0.0000   0.0000   0.0000   0.0000   0.0000 </r>
        <r>  -4.0079   0.0571   0.0003   0.0003   0.0003   0.0000   0.0000   0.0000   0.0000   0.0000 </r>
        <r>  -3.9467   0.0359   0.0002   0.0002   0.0002   0.0000   0.0000   0.0000   0.0000   0.0000 </r>
        <r>  -3.8855   0.0112   0.0001   0.0001   0.0001   0.0000   0.0000   0.0000   0.0000   0.0000 </r>
        <r>  -3.8243   0.0017   0.0000   0.0000   0.0000   0.0000   0.0000   0.0000   0.0000   0.0000 </r>
        <r>  -3.7631   0.0001   0.0000   0.0000   0.0000   0.0000   0.0000   0.0000   0.0000   0.0000 </r>
        <r>  -3.7019   0.0002   0.0000   0.0000   0.0000   0.0000   0.0000   0.0000   0.0000   0.0000 </r>
        <r>  -3.6408   0.0031   0.0000   0.0000   0.0001   0.0000   0.0000   0.0000   0.0000   0.0000 </r>
        <r>  -3.5796   0.0232   0.0001   0.0001   0.0011   0.0001   0.0000   0.0000   0.0001   0.0001 </r>
        <r>  -3.5184   0.0860   0.0004   0.0004   0.0041   0.0004   0.0001   0.0001   0.0004   0.0004 </r>
        <r>  -3.4572   0.1572   0.0008   0.0008   0.0075   0.0007   0.0001   0.0002   0.0007   0.0007 </r>
        <r>  -3.3960   0.1422   0.0007   0.0007   0.0068   0.0006   0.0001   0.0002   0.0006   0.0006 </r>
        <r>  -3.3348   0.0636   0.0003   0.0003   0.0030   0.0003   0.0001   0.0001   0.0003   0.0003 </r>
        <r>  -3.2736   0.0140   0.0001   0.0001   0.0007   0.0001   0.0000   0.0000   0.0001   0.0001 </r>
        <r>  -3.2124   0.0016   0.0000   0.0000   0.0001   0.0000   0.0000   0.0000   0.0000   0.0000 </r>
        <r>  -3.1512   0.0009   0.0000   0.0000   0.0000   0.0000   0.0000   0.0000   0.0000   0.0000 </r>
        <r>  -3.0900   0.0089   0.0004   0.0000   0.0004   0.0004   0.0001   0.0000   0.0001   0.0000 </r>
        <r>  -3.0288   0.0464   0.0020   0.0002   0.0020   0.0021   0.0004   0.0002   0.0004   0.0000 </r>
        <r>  -2.9676   0.1199   0.0053   0.0005   0.0053   0.0054   0.0010   0.0005   0.0010   0.0000 </r>
        <r>  -2.9064   0.1532   0.0068   0.0006   0.0068   0.0069   0.0013   0.0006   0.0013   0.0000 </r>
        <r>  -2.8452   0.0968   0.0043   0.0004   0.0043   0.0044   0.0008   0.0004   0.0008   0.0000 </r>
        <r>  -2.7840   0.0304   0.0013   0.0001   0.0013   0.0014   0.0003   0.0001   0.0003   0.0000 </r>
        <r>  -2.7229   0.0067   0.0003   0.0001   0.0003   0.0004   0.0002   0.0000   0.0002   0.0000 </r>
        <r>  -2.6617   0.0123   0.0004   0.0004   0.0004   0.0010   0.0010   0.0000   0.0010   0.0000 </r>
        <r>  -2.6005   0.0360   0.0011   0.0011   0.0015   0.0029   0.0028   0.0001   0.0029   0.0002 </r>
        <r>  -2.5393   0.0675   0.0017   0.0017   0.0044   0.0043   0.0040   0.0005   0.0043   0.0015 </r>
        <r>  -2.4781   0.1090   0.0014   0.0014   0.0113   0.0038   0.0030   0.0018   0.0038   0.0055 </r>
        <r>  -2.4169   0.1480   0.0010   0.0010   0.0185   0.0029   0.0014   0.0033   0.0029   0.0098 </r>
        <r>  -2.3557   0.1222   0.0006   0.0006   0.0160   0.0019   0.0006   0.0029   0.0019   0.0086 </r>
        <r>  -2.2945   0.0525   0.0002   0.0002   0.0069   0.0008   0.0002   0.0012   0.0008   0.0037 </r>
        <r>  -2.2333   0.0130   0.0001   0.0001   0.0017   0.0005   0.0001   0.0003   0.0002   0.0009 </r>
        <r>  -2.1721   0.0195   0.0007   0.0000   0.0024   0.0030   0.0008   0.0004   0.0007   0.0007 </r>
        <r>  -2.1109   0.0918   0.0034   0.0002   0.0112   0.0150   0.0044   0.0019   0.0039   0.0033 </r>
        <r>  -2.0497   0.2355   0.0084   0.0008   0.0284   0.0402   0.0149   0.0047   0.0134   0.0082 </r>
        <r>  -1.9885   0.3248   0.0108   0.0016   0.0377   0.0615   0.0317   0.0059   0.0295   0.0106 </r>
        <r>  -1.9273   0.2632   0.0075   0.0021   0.0282   0.0619   0.0450   0.0039   0.0430   0.0075 </r>
        <r>  -1.8662   0.1481   0.0035   0.0015   0.0130   0.0531   0.0477   0.0015   0.0467   0.0031 </r>
        <r>  -1.8050   0.0954   0.0026   0.0008   0.0053   0.0610   0.0568   0.0005   0.0564   0.0008 </r>
        <r>  -1.7438   0.1124   0.0039   0.0006   0.0043   0.0949   0.0874   0.0005   0.0874   0.0003 </r>
        <r>  -1.6826   0.1196   0.0039   0.0007   0.0040   0.1105   0.1032   0.0016   0.1032   0.0015 </r>
        <r>  -1.6214   0.0791   0.0022   0.0006   0.0030   0.0738   0.0700   0.0112   0.0700   0.0131 </r>
        <r>  -1.5602   0.0603   0.0015   0.0005   0.0062   0.0334   0.0304   0.0497   0.0298   0.0619 </r>
        <r>  -1.4990   0.1282   0.0045   0.0009   0.0184   0.0484   0.0368   0.1136   0.0329   0.1514 </r>
        <r>  -1.4378   0.2554   0.0117   0.0019   0.0339   0.1338   0.1081   0.1381   0.0910   0.2101 </r>
        <r>  -1.3766   0.3300   0.0163   0.0028   0.0399   0.2260   0.2058   0.1089   0.1624   0.2138 </r>
        <r>  -1.3154   0.2820   0.0126   0.0035   0.0332   0.2492   0.2418   0.0890   0.1842   0.2004 </r>
        <r>  -1.2542   0.2005   0.0075   0.0041   0.0265   0.2545   0.2252   0.1247   0.1865   0.1801 </r>
        <r>  -1.1930   0.1935   0.0072   0.0038   0.0332   0.2681   0.2138   0.2408   0.1937   0.2127 </r>
        <r>  -1.1318   0.2117   0.0089   0.0031   0.0401   0.2592   0.2216   0.3476   0.1772   0.2728 </r>
        <r>  -1.0706   0.1832   0.0108   0.0042   0.0303   0.2685   0.3059   0.3555   0.1799   0.2919 </r>
        <r>  -1.0094   0.1470   0.0139   0.0074   0.0163   0.3066   0.4109   0.2944   0.2425   0.2784 </r>
        <r>  -0.9483   0.1268   0.0167   0.0111   0.0100   0.3578   0.3536   0.1920   0.3276   0.2015 </r>
        <r>  -0.8871   0.1194   0.0194   0.0124   0.0123   0.4304   0.1963   0.1132   0.3788   0.1069 </r>
        <r>  -0.8259   0.1322   0.0222   0.0109   0.0187   0.4762   0.1218   0.0929   0.3433   0.0639 </r>
        <r>  -0.7647   0.1339   0.0210   0.0096   0.0209   0.4870   0.1644   0.1611   0.2520   0.0724 </r>
        <r>  -0.7035   0.1102   0.0172   0.0117   0.0210   0.5302   0.3228   0.3663   0.2327   0.1416 </r>
        <r>  -0.6423   0.0792   0.0141   0.0139   0.0217   0.4836   0.4583   0.5214   0.2648   0.2121 </r>
        <r>  -0.5811   0.0503   0.0122   0.0117   0.0180   0.2899   0.3578   0.4176   0.2560   0.1932 </r>
        <r>  -0.5199   0.0384   0.0148   0.0095   0.0145   0.1676   0.1620   0.2573   0.2556   0.1415 </r>
        <r>  -0.4587   0.0333   0.0177   0.0091   0.0146   0.1646   0.1138   0.2047   0.2316   0.1049 </r>
        <r>  -0.3975   0.0241   0.0162   0.0113   0.0136   0.1676   0.2544   0.1627   0.1693   0.0736 </r>
        <r>  -0.3363   0.0190   0.0160   0.0185   0.0135   0.2005   0.4384   0.1383   0.1994   0.0797 </r>
        <r>  -0.2751   0.0148   0.0183   0.0248   0.0176   0.2744   0.4721   0.2234   0.2948   0.1360 </r>
        <r>  -0.2139   0.0095   0.0183   0.0240   0.0240   0.2787   0.4244   0.3830   0.3025   0.2004 </r>
        <r>  -0.1527   0.0089   0.0192   0.0178   0.0299   0.2199   0.3869   0.5038   0.2254   0.2021 </r>
        <r>  -0.0916   0.0120   0.0209   0.0136   0.0327   0.1726   0.4121   0.5648   0.1761   0.1689 </r>
        <r>  -0.0304   0.0135   0.0167   0.0139   0.0280   0.1320   0.4943   0.5398   0.1750   0.1485 </r>
        <r>   0.0308   0.0134   0.0106   0.0155   0.0181   0.1129   0.4605   0.4414   0.1946   0.1057 </r>
        <r>   0.0920   0.0190   0.0110   0.0218   0.0126   0.1735   0.4340   0.4395   0.2969   0.0685 </r>
        <r>   0.1532   0.0323   0.0205   0.0312   0.0143   0.3006   0.5723   0.5514   0.4592   0.1217 </r>
        <r>   0.2144   0.0487   0.0374   0.0355   0.0196   0.4372   0.6627   0.6497   0.5301   0.2741 </r>
        <r>   0.2756   0.0528   0.0446   0.0304   0.0210   0.4840   0.5117   0.6410   0.4420   0.3716 </r>
        <r>   0.3368   0.0354   0.0296   0.0174   0.0143   0.3605   0.2696   0.4651   0.2674   0.3014 </r>
        <r>   0.3980   0.0232   0.0133   0.0089   0.0095   0.2597   0.1848   0.2881   0.1679   0.2036 </r>
        <r>   0.4592   0.0389   0.0144   0.0154   0.0161   0.3875   0.3079   0.3002   0.2353   0.1931 </r>
        <r>   0.5204   0.0654   0.0294   0.0399   0.0292   0.6659   0.5299   0.4663   0.4979   0.2388 </r>
        <r>   0.5816   0.0666   0.0413   0.0663   0.0350   0.8099   0.6154   0.6035   0.7953   0.2960 </r>
        <r>   0.6428   0.0407   0.0354   0.0625   0.0268   0.7094   0.4645   0.5971   0.7823   0.3942 </r>
        <r>   0.7040   0.0170   0.0209   0.0334   0.0138   0.6116   0.2783   0.4932   0.5533   0.4805 </r>
        <r>   0.7652   0.0104   0.0148   0.0160   0.0086   0.7134   0.2269   0.3894   0.5313   0.4480 </r>
        <r>   0.8263   0.0188   0.0217   0.0216   0.0144   0.8877   0.2960   0.3378   0.7386   0.4415 </r>
        <r>   0.8875   0.0321   0.0309   0.0306   0.0226   0.8573   0.3587   0.2977   0.8126   0.5709 </r>
        <r>   0.9487   0.0450   0.0308   0.0235   0.0264   0.6702   0.2863   0.2318   0.5844   0.6118 </r>
        <r>   1.0099   0.0591   0.0254   0.0096   0.0295   0.5425   0.1546   0.1874   0.3251   0.4816 </r>
        <r>   1.0711   0.0597   0.0174   0.0039   0.0289   0.4246   0.1021   0.1907   0.3101   0.4191 </r>
        <r>   1.1323   0.0425   0.0118   0.0087   0.0224   0.3058   0.1417   0.2156   0.4913   0.4479 </r>
        <r>   1.1935   0.0330   0.0183   0.0268   0.0223   0.2579   0.2437   0.2300   0.6288   0.3707 </r>
        <r>   1.2547   0.0437   0.0336   0.0512   0.0330   0.2315   0.3850   0.2572   0.6057   0.2943 </r>
        <r>   1.3159   0.0491   0.0404   0.0561   0.0386   0.1708   0.4539   0.2915   0.4475   0.4325 </r>
        <r>   1.3771   0.0331   0.0337   0.0387   0.0323   0.1224   0.3797   0.2847   0.2740   0.6661 </r>
        <r>   1.4383   0.0146   0.0230   0.0207   0.0224   0.1017   0.2438   0.2362   0.1837   0.7131 </r>
        <r>   1.4995   0.0077   0.0137   0.0107   0.0129   0.1002   0.1342   0.1986   0.1773   0.6152 </r>
        <r>   1.5607   0.0116   0.0130   0.0117   0.0086   0.1876   0.0996   0.2505   0.3344   0.7393 </r>
        <r>   1.6219   0.0206   0.0226   0.0216   0.0098   0.3339   0.1340   0.3194   0.6050   1.0449 </r>
        <r>   1.6830   0.0239   0.0279   0.0251   0.0106   0.3610   0.1933   0.2869   0.7049   1.2298 </r>
        <r>   1.7442   0.0193   0.0224   0.0165   0.0092   0.2666   0.2258   0.2742   0.5813   1.2444 </r>
        <r>   1.8054   0.0140   0.0168   0.0076   0.0068   0.1890   0.1876   0.3918   0.3811   1.1195 </r>
        <r>   1.8666   0.0136   0.0129   0.0040   0.0055   0.1286   0.1120   0.4800   0.1931   0.9495 </r>
        <r>   1.9278   0.0171   0.0073   0.0024   0.0092   0.0893   0.0552   0.4364   0.1013   0.7220 </r>
        <r>   1.9890   0.0224   0.0035   0.0015   0.0191   0.1121   0.0423   0.3925   0.1222   0.5445 </r>
        <r>   2.0502   0.0236   0.0041   0.0022   0.0249   0.1443   0.0764   0.3948   0.1743   0.4938 </r>
        <r>   2.1114   0.0171   0.0091   0.0062   0.0220   0.1453   0.1829   0.4692   0.2435   0.4443 </r>
        <r>   2.1726   0.0108   0.0154   0.0119   0.0194   0.1389   0.3408   0.5750   0.3667   0.4135 </r>
        <r>   2.2338   0.0090   0.0148   0.0125   0.0167   0.1192   0.3985   0.5493   0.4492   0.4230 </r>
        <r>   2.2950   0.0152   0.0094   0.0091   0.0152   0.1221   0.3575   0.4882   0.5342   0.5348 </r>
        <r>   2.3562   0.0310   0.0076   0.0088   0.0214   0.1875   0.3129   0.5135   0.6768   0.7624 </r>
        <r>   2.4174   0.0397   0.0075   0.0089   0.0253   0.2357   0.2098   0.4974   0.6225   0.7842 </r>
        <r>   2.4786   0.0288   0.0050   0.0057   0.0176   0.2034   0.0854   0.3795   0.3654   0.4882 </r>
        <r>   2.5398   0.0136   0.0026   0.0023   0.0074   0.1715   0.0419   0.3382   0.1776   0.2162 </r>
        <r>   2.6009   0.0113   0.0033   0.0020   0.0047   0.2334   0.1750   0.4570   0.1460   0.1523 </r>
        <r>   2.6621   0.0173   0.0069   0.0052   0.0079   0.3594   0.6486   0.6014   0.2784   0.2642 </r>
        <r>   2.7233   0.0170   0.0096   0.0094   0.0103   0.4061   1.2547   0.6025   0.5195   0.4764 </r>
        <r>   2.7845   0.0103   0.0084   0.0098   0.0086   0.3500   1.3748   0.4993   0.6586   0.5795 </r>
        <r>   2.8457   0.0077   0.0071   0.0086   0.0070   0.3208   1.0880   0.4454   0.6704   0.5119 </r>
        <r>   2.9069   0.0116   0.0095   0.0105   0.0092   0.3374   0.7839   0.4404   0.6170   0.4030 </r>
        <r>   2.9681   0.0137   0.0109   0.0113   0.0105   0.3007   0.5740   0.3574   0.4457   0.2797 </r>
        <r>   3.0293   0.0090   0.0072   0.0072   0.0066   0.2168   0.7377   0.2070   0.2583   0.1632 </r>
        <r>   3.0905   0.0040   0.0031   0.0030   0.0023   0.1698   1.1490   0.0950   0.1725   0.0856 </r>
        <r>   3.1517   0.0047   0.0023   0.0015   0.0016   0.1685   1.0968   0.0566   0.1447   0.0430 </r>
        <r>   3.2129   0.0123   0.0044   0.0019   0.0041   0.1748   0.5528   0.0759   0.0940   0.0189 </r>
        <r>   3.2741   0.0201   0.0068   0.0026   0.0068   0.1702   0.1452   0.1049   0.0353   0.0057 </r>
        <r>   3.3353   0.0204   0.0061   0.0021   0.0068   0.1381   0.0204   0.0960   0.0075   0.0012 </r>
        <r>   3.3965   0.0297   0.0058   0.0012   0.0099   0.1638   0.0020   0.1096   0.0020   0.0014 </r>
        <r>   3.4576   0.0632   0.0097   0.0011   0.0219   0.3228   0.0010   0.2064   0.0031   0.0040 </r>
        <r>   3.5188   0.0832   0.0120   0.0013   0.0298   0.4166   0.0013   0.2612   0.0046   0.0060 </r>
        <r>   3.5800   0.0577   0.0081   0.0011   0.0216   0.2794   0.0012   0.1714   0.0064   0.0064 </r>
        <r>   3.6412   0.0297   0.0041   0.0019   0.0129   0.1097   0.0018   0.0601   0.0189   0.0135 </r>
        <r>   3.7024   0.0327   0.0047   0.0043   0.0171   0.0627   0.0039   0.0199   0.0477   0.0322 </r>
        <r>   3.7636   0.0430   0.0057   0.0056   0.0245   0.0671   0.0050   0.0155   0.0658   0.0442 </r>
        <r>   3.8248   0.0454   0.0040   0.0040   0.0318   0.0592   0.0033   0.0130   0.0591   0.0390 </r>
        <r>   3.8860   0.0528   0.0021   0.0021   0.0448   0.0547   0.0012   0.0117   0.0547   0.0352 </r>
        <r>   3.9472   0.0493   0.0012   0.0012   0.0441   0.0469   0.0003   0.0099   0.0469   0.0298 </r>
        <r>   4.0084   0.0255   0.0005   0.0005   0.0230   0.0239   0.0001   0.0051   0.0239   0.0152 </r>
        <r>   4.0696   0.0066   0.0001   0.0001   0.0060   0.0062   0.0000   0.0013   0.0062   0.0039 </r>
        <r>   4.1308   0.0009   0.0000   0.0000   0.0008   0.0008   0.0000   0.0002   0.0008   0.0005 </r>
        <r>   4.1920   0.0001   0.0000   0.0000   0.0000   0.0001   0.0000   0.0000   0.0001   0.0000 </r>
        <r>   4.2532   0.0000   0.0000   0.0000   0.0000   0.0000   0.0000   0.0000   0.0000   0.0000 </r>
        <r>   4.3144   0.0000   0.0000   0.0000   0.0000   0.0000   0.0000   0.0000   0.0000   0.0000 </r>
        <r>   4.3755   0.0003   0.0001   0.0000   0.0001   0.0007   0.0000   0.0003   0.0000   0.0000 </r>
        <r>   4.4367   0.0040   0.0009   0.0001   0.0009   0.0093   0.0000   0.0041   0.0000   0.0002 </r>
        <r>   4.4979   0.0252   0.0055   0.0006   0.0055   0.0583   0.0003   0.0254   0.0003   0.0014 </r>
        <r>   4.5591   0.0817   0.0191   0.0032   0.0191   0.1881   0.0016   0.0820   0.0016   0.0054 </r>
        <r>   4.6203   0.1464   0.0388   0.0100   0.0388   0.3323   0.0052   0.1452   0.0052   0.0130 </r>
        <r>   4.6815   0.1585   0.0497   0.0183   0.0497   0.3517   0.0096   0.1541   0.0096   0.0196 </r>
        <r>   4.7427   0.1093   0.0409   0.0193   0.0409   0.2366   0.0100   0.1044   0.0100   0.0181 </r>
        <r>   4.8039   0.0483   0.0271   0.0181   0.0271   0.1006   0.0091   0.0470   0.0091   0.0129 </r>
        <r>   4.8651   0.0193   0.0295   0.0274   0.0295   0.0341   0.0132   0.0222   0.0132   0.0146 </r>
        <r>   4.9263   0.0158   0.0346   0.0333   0.0346   0.0229   0.0161   0.0186   0.0161   0.0175 </r>
        <r>   4.9875   0.0283   0.0289   0.0215   0.0289   0.0420   0.0118   0.0181   0.0118   0.0165 </r>
        <r>   5.0487   0.0723   0.0323   0.0077   0.0323   0.1101   0.0086   0.0286   0.0086   0.0232 </r>
        <r>   5.1099   0.1167   0.0435   0.0025   0.0435   0.1783   0.0095   0.0426   0.0095   0.0336 </r>
        <r>   5.1711   0.0959   0.0351   0.0013   0.0351   0.1465   0.0075   0.0347   0.0075   0.0273 </r>
        <r>   5.2322   0.0390   0.0143   0.0005   0.0143   0.0597   0.0030   0.0141   0.0030   0.0111 </r>
        <r>   5.2934   0.0078   0.0029   0.0001   0.0029   0.0120   0.0006   0.0028   0.0006   0.0022 </r>
        <r>   5.3546   0.0008   0.0003   0.0000   0.0003   0.0012   0.0001   0.0003   0.0001   0.0002 </r>
        <r>   5.4158   0.0000   0.0000   0.0000   0.0000   0.0001   0.0000   0.0000   0.0000   0.0000 </r>
        <r>   5.4770   0.0000   0.0000   0.0000   0.0000   0.0000   0.0000   0.0000   0.0000   0.0000 </r>
        <r>   5.5382   0.0000   0.0000   0.0000   0.0000   0.0000   0.0000   0.0000   0.0000   0.0000 </r>
        <r>   5.5994   0.0001   0.0000   0.0000   0.0000   0.0001   0.0000   0.0000   0.0000   0.0000 </r>
        <r>   5.6606   0.0020   0.0005   0.0003   0.0005   0.0015   0.0005   0.0006   0.0005   0.0003 </r>
        <r>   5.7218   0.0163   0.0037   0.0024   0.0037   0.0129   0.0041   0.0049   0.0041   0.0024 </r>
        <r>   5.7830   0.0664   0.0148   0.0091   0.0148   0.0539   0.0154   0.0199   0.0154   0.0090 </r>
        <r>   5.8442   0.1341   0.0294   0.0173   0.0294   0.1117   0.0288   0.0402   0.0288   0.0167 </r>
        <r>   5.9054   0.1355   0.0300   0.0171   0.0301   0.1154   0.0269   0.0407   0.0269   0.0156 </r>
        <r>   5.9666   0.0741   0.0220   0.0148   0.0220   0.0636   0.0142   0.0228   0.0142   0.0082 </r>
        <r>   6.0278   0.0443   0.0326   0.0287   0.0326   0.0386   0.0097   0.0172   0.0097   0.0055 </r>
        <r>   6.0890   0.0603   0.0571   0.0510   0.0571   0.0609   0.0119   0.0305   0.0119   0.0067 </r>
        <r>   6.1501   0.0670   0.0589   0.0499   0.0581   0.0776   0.0098   0.0382   0.0096   0.0057 </r>
        <r>   6.2113   0.0577   0.0389   0.0260   0.0327   0.0675   0.0048   0.0279   0.0040   0.0050 </r>
        <r>   6.2725   0.0919   0.0396   0.0078   0.0145   0.0902   0.0041   0.0223   0.0008   0.0117 </r>
        <r>   6.3337   0.1612   0.0622   0.0026   0.0125   0.1495   0.0066   0.0296   0.0001   0.0223 </r>
        <r>   6.3949   0.1563   0.0597   0.0016   0.0110   0.1440   0.0064   0.0278   0.0000   0.0218 </r>
        <r>   6.4561   0.0757   0.0289   0.0008   0.0053   0.0697   0.0031   0.0134   0.0000   0.0106 </r>
        <r>   6.5173   0.0181   0.0069   0.0002   0.0013   0.0167   0.0007   0.0032   0.0000   0.0025 </r>
        <r>   6.5785   0.0021   0.0008   0.0000   0.0001   0.0020   0.0001   0.0004   0.0000   0.0003 </r>
        <r>   6.6397   0.0001   0.0000   0.0000   0.0000   0.0001   0.0000   0.0000   0.0000   0.0000 </r>
        <r>   6.7009   0.0001   0.0000   0.0000   0.0000   0.0000   0.0000   0.0000   0.0000   0.0000 </r>
        <r>   6.7621   0.0014   0.0006   0.0006   0.0003   0.0006   0.0004   0.0005   0.0006   0.0002 </r>
        <r>   6.8233   0.0121   0.0049   0.0049   0.0025   0.0053   0.0035   0.0042   0.0053   0.0017 </r>
        <r>   6.8845   0.0520   0.0208   0.0208   0.0109   0.0225   0.0151   0.0179   0.0225   0.0074 </r>
        <r>   6.9457   0.1099   0.0440   0.0440   0.0230   0.0476   0.0319   0.0378   0.0476   0.0157 </r>
        <r>   7.0068   0.1149   0.0460   0.0460   0.0241   0.0498   0.0334   0.0395   0.0498   0.0165 </r>
        <r>   7.0680   0.0595   0.0238   0.0238   0.0125   0.0258   0.0173   0.0204   0.0258   0.0085 </r>
        <r>   7.1292   0.0152   0.0061   0.0061   0.0032   0.0066   0.0044   0.0052   0.0066   0.0022 </r>
        <r>   7.1904   0.0028   0.0016   0.0016   0.0004   0.0013   0.0007   0.0008   0.0013   0.0004 </r>
        <r>   7.2516   0.0090   0.0075   0.0074   0.0001   0.0046   0.0013   0.0017   0.0044   0.0011 </r>
        <r>   7.3128   0.0439   0.0343   0.0335   0.0008   0.0220   0.0056   0.0077   0.0199   0.0049 </r>
        <r>   7.3740   0.1248   0.0813   0.0750   0.0037   0.0599   0.0132   0.0179   0.0449   0.0117 </r>
        <r>   7.4352   0.2345   0.1062   0.0832   0.0111   0.1055   0.0167   0.0219   0.0507   0.0162 </r>
        <r>   7.4964   0.3019   0.0873   0.0460   0.0187   0.1282   0.0129   0.0157   0.0295   0.0146 </r>
        <r>   7.5576   0.2364   0.0496   0.0128   0.0164   0.0976   0.0068   0.0076   0.0096   0.0090 </r>
        <r>   7.6188   0.0998   0.0181   0.0018   0.0072   0.0408   0.0024   0.0025   0.0020   0.0035 </r>
        <r>   7.6800   0.0216   0.0037   0.0002   0.0016   0.0088   0.0005   0.0005   0.0003   0.0007 </r>
        <r>   7.7412   0.0050   0.0004   0.0001   0.0003   0.0016   0.0009   0.0001   0.0001   0.0001 </r>
        <r>   7.8024   0.0189   0.0001   0.0008   0.0009   0.0044   0.0060   0.0000   0.0007   0.0000 </r>
        <r>   7.8636   0.0631   0.0002   0.0027   0.0030   0.0148   0.0200   0.0001   0.0022   0.0001 </r>
        <r>   7.9247   0.1047   0.0004   0.0044   0.0050   0.0245   0.0331   0.0001   0.0037   0.0001 </r>
        <r>   7.9859   0.0879   0.0004   0.0042   0.0041   0.0202   0.0277   0.0003   0.0035   0.0001 </r>
        <r>   8.0471   0.0548   0.0008   0.0071   0.0023   0.0095   0.0161   0.0021   0.0063   0.0000 </r>
        <r>   8.1083   0.0973   0.0030   0.0255   0.0032   0.0081   0.0252   0.0092   0.0231   0.0000 </r>
        <r>   8.1695   0.2052   0.0078   0.0565   0.0075   0.0157   0.0519   0.0207   0.0520   0.0002 </r>
        <r>   8.2307   0.2534   0.0153   0.0681   0.0143   0.0246   0.0602   0.0252   0.0647   0.0011 </r>
        <r>   8.2919   0.2328   0.0296   0.0580   0.0267   0.0373   0.0434   0.0220   0.0592   0.0037 </r>
        <r>   8.3531   0.2265   0.0430   0.0506   0.0370   0.0495   0.0288   0.0198   0.0554   0.0068 </r>
        <r>   8.4143   0.2269   0.0413   0.0423   0.0284   0.0460   0.0188   0.0166   0.0468   0.0105 </r>
        <r>   8.4755   0.2699   0.0376   0.0376   0.0112   0.0404   0.0111   0.0148   0.0404   0.0175 </r>
        <r>   8.5367   0.2893   0.0352   0.0352   0.0024   0.0371   0.0076   0.0139   0.0371   0.0208 </r>
        <r>   8.5979   0.1798   0.0213   0.0213   0.0004   0.0223   0.0042   0.0084   0.0223   0.0132 </r>
        <r>   8.6591   0.0567   0.0067   0.0067   0.0001   0.0070   0.0013   0.0026   0.0070   0.0042 </r>
        <r>   8.7203   0.0088   0.0010   0.0010   0.0000   0.0011   0.0002   0.0004   0.0011   0.0006 </r>
        <r>   8.7814   0.0007   0.0001   0.0001   0.0000   0.0001   0.0000   0.0000   0.0001   0.0000 </r>
        <r>   8.8426   0.0000   0.0000   0.0000   0.0000   0.0000   0.0000   0.0000   0.0000   0.0000 </r>
        <r>   8.9038   0.0000   0.0000   0.0000   0.0000   0.0000   0.0000   0.0000   0.0000   0.0000 </r>
        <r>   8.9650   0.0000   0.0000   0.0000   0.0000   0.0000   0.0000   0.0000   0.0000   0.0000 </r>
        <r>   9.0262   0.0000   0.0000   0.0000   0.0000   0.0000   0.0000   0.0000   0.0000   0.0000 </r>
        <r>   9.0874   0.0006   0.0003   0.0008   0.0003   0.0003   0.0001   0.0001   0.0001   0.0000 </r>
        <r>   9.1486   0.0051   0.0025   0.0067   0.0025   0.0024   0.0009   0.0005   0.0009   0.0000 </r>
        <r>   9.2098   0.0209   0.0101   0.0272   0.0101   0.0096   0.0038   0.0018   0.0038   0.0000 </r>
        <r>   9.2710   0.0421   0.0203   0.0547   0.0203   0.0193   0.0076   0.0037   0.0076   0.0000 </r>
        <r>   9.3322   0.0418   0.0201   0.0544   0.0202   0.0192   0.0075   0.0037   0.0075   0.0000 </r>
        <r>   9.3934   0.0206   0.0099   0.0268   0.0099   0.0094   0.0037   0.0018   0.0037   0.0000 </r>
        <r>   9.4546   0.0051   0.0024   0.0065   0.0024   0.0023   0.0009   0.0004   0.0009   0.0000 </r>
        <r>   9.5158   0.0022   0.0004   0.0013   0.0004   0.0005   0.0003   0.0001   0.0002   0.0000 </r>
        <r>   9.5770   0.0139   0.0010   0.0044   0.0006   0.0018   0.0015   0.0008   0.0007   0.0000 </r>
        <r>   9.6382   0.0593   0.0043   0.0193   0.0026   0.0076   0.0066   0.0038   0.0035   0.0001 </r>
        <r>   9.6993   0.1280   0.0111   0.0484   0.0074   0.0162   0.0156   0.0113   0.0113   0.0002 </r>
        <r>   9.7605   0.1486   0.0218   0.0875   0.0166   0.0180   0.0240   0.0273   0.0301   0.0003 </r>
        <r>   9.8217   0.1128   0.0352   0.1321   0.0296   0.0121   0.0307   0.0504   0.0583   0.0004 </r>
        <r>   9.8829   0.0708   0.0367   0.1346   0.0319   0.0063   0.0291   0.0550   0.0646   0.0004 </r>
        <r>   9.9441   0.0339   0.0208   0.0751   0.0182   0.0027   0.0159   0.0312   0.0368   0.0002 </r>
        <r>  10.0053   0.0169   0.0088   0.0234   0.0066   0.0018   0.0046   0.0090   0.0117   0.0002 </r>
        <r>  10.0665   0.0395   0.0185   0.0177   0.0084   0.0068   0.0012   0.0030   0.0091   0.0012 </r>
        <r>  10.1277   0.0991   0.0580   0.0521   0.0219   0.0223   0.0013   0.0072   0.0245   0.0047 </r>
        <r>  10.1889   0.1514   0.1062   0.1000   0.0352   0.0411   0.0014   0.0151   0.0433   0.0103 </r>
        <r>  10.2501   0.1855   0.1122   0.1093   0.0343   0.0416   0.0009   0.0186   0.0428   0.0148 </r>
        <r>  10.3113   0.2571   0.0828   0.0822   0.0254   0.0255   0.0005   0.0174   0.0258   0.0190 </r>
        <r>  10.3725   0.2924   0.0565   0.0565   0.0184   0.0126   0.0003   0.0148   0.0127   0.0200 </r>
        <r>  10.4337   0.1879   0.0306   0.0306   0.0103   0.0056   0.0002   0.0087   0.0057   0.0126 </r>
        <r>  10.4949   0.0612   0.0096   0.0096   0.0033   0.0017   0.0001   0.0028   0.0017   0.0041 </r>
        <r>  10.5560   0.0105   0.0015   0.0016   0.0006   0.0003   0.0000   0.0005   0.0003   0.0007 </r>
        <r>  10.6172   0.0082   0.0002   0.0006   0.0004   0.0000   0.0000   0.0009   0.0001   0.0003 </r>
        <r>  10.6784   0.0425   0.0009   0.0029   0.0023   0.0001   0.0004   0.0052   0.0004   0.0013 </r>
        <r>  10.7396   0.1238   0.0047   0.0121   0.0085   0.0002   0.0029   0.0169   0.0030   0.0037 </r>
        <r>  10.8008   0.1976   0.0163   0.0340   0.0210   0.0005   0.0110   0.0338   0.0126   0.0050 </r>
        <r>  10.8620   0.2101   0.0386   0.0682   0.0403   0.0007   0.0225   0.0493   0.0314   0.0034 </r>
        <r>  10.9232   0.1998   0.0609   0.0955   0.0587   0.0006   0.0266   0.0571   0.0492   0.0012 </r>
        <r>  10.9844   0.1639   0.0593   0.0867   0.0560   0.0002   0.0195   0.0477   0.0472   0.0002 </r>
        <r>  11.0456   0.0859   0.0323   0.0457   0.0303   0.0001   0.0088   0.0244   0.0254   0.0000 </r>
        <r>  11.1068   0.0242   0.0092   0.0128   0.0086   0.0000   0.0023   0.0068   0.0072   0.0000 </r>
        <r>  11.1680   0.0035   0.0013   0.0018   0.0012   0.0000   0.0003   0.0010   0.0010   0.0000 </r>
        <r>  11.2292   0.0002   0.0001   0.0001   0.0001   0.0000   0.0000   0.0001   0.0001   0.0000 </r>
        <r>  11.2904   0.0000   0.0000   0.0000   0.0000   0.0000   0.0000   0.0000   0.0000   0.0000 </r>
        <r>  11.3516   0.0000   0.0000   0.0000   0.0000   0.0000   0.0000   0.0000   0.0000   0.0000 </r>
        <r>  11.4128   0.0000   0.0000   0.0000   0.0000   0.0000   0.0000   0.0000   0.0000   0.0000 </r>
        <r>  11.4739   0.0000   0.0000   0.0000   0.0000   0.0000   0.0000   0.0000   0.0000   0.0000 </r>
        <r>  11.5351   0.0000   0.0000   0.0000   0.0000   0.0000   0.0000   0.0000   0.0000   0.0000 </r>
        <r>  11.5963   0.0000   0.0000   0.0000   0.0000   0.0000   0.0000   0.0000   0.0000   0.0000 </r>
        <r>  11.6575   0.0000   0.0000   0.0000   0.0000   0.0000   0.0000   0.0000   0.0000   0.0000 </r>
        <r>  11.7187   0.0000   0.0000   0.0000   0.0000   0.0000   0.0000   0.0000   0.0000   0.0000 </r>
        <r>  11.7799   0.0000   0.0000   0.0000   0.0000   0.0000   0.0000   0.0000   0.0000   0.0000 </r>
        <r>  11.8411   0.0000   0.0000   0.0000   0.0000   0.0000   0.0000   0.0000   0.0000   0.0000 </r>
        <r>  11.9023   0.0000   0.0000   0.0000   0.0000   0.0000   0.0000   0.0000   0.0000   0.0000 </r>
        <r>  11.9635   0.0000   0.0000   0.0000   0.0000   0.0000   0.0000   0.0000   0.0000   0.0000 </r>
        <r>  12.0247   0.0003   0.0000   0.0001   0.0000   0.0000   0.0000   0.0001   0.0000   0.0000 </r>
        <r>  12.0859   0.0036   0.0001   0.0014   0.0002   0.0003   0.0000   0.0007   0.0001   0.0000 </r>
        <r>  12.1471   0.0272   0.0010   0.0100   0.0013   0.0018   0.0003   0.0050   0.0008   0.0000 </r>
        <r>  12.2083   0.1065   0.0039   0.0369   0.0045   0.0063   0.0010   0.0175   0.0031   0.0000 </r>
        <r>  12.2695   0.2266   0.0082   0.0725   0.0080   0.0112   0.0017   0.0312   0.0063   0.0001 </r>
        <r>  12.3306   0.2658   0.0097   0.0777   0.0075   0.0104   0.0014   0.0290   0.0070   0.0001 </r>
        <r>  12.3918   0.1710   0.0063   0.0460   0.0038   0.0052   0.0006   0.0146   0.0043   0.0001 </r>
        <r>  12.4530   0.0589   0.0022   0.0149   0.0010   0.0014   0.0001   0.0040   0.0014   0.0000 </r>
        <r>  12.5142   0.0105   0.0004   0.0026   0.0002   0.0002   0.0000   0.0006   0.0002   0.0000 </r>
        <r>  12.5754   0.0010   0.0000   0.0002   0.0000   0.0000   0.0000   0.0000   0.0000   0.0000 </r>
        <r>  12.6366   0.0000   0.0000   0.0000   0.0000   0.0000   0.0000   0.0000   0.0000   0.0000 </r>
        <r>  12.6978   0.0000   0.0000   0.0000   0.0000   0.0000   0.0000   0.0000   0.0000   0.0000 </r>
        <r>  12.7590   0.0000   0.0000   0.0000   0.0000   0.0000   0.0000   0.0000   0.0000   0.0000 </r>
        <r>  12.8202   0.0000   0.0000   0.0000   0.0000   0.0000   0.0000   0.0000   0.0000   0.0000 </r>
        <r>  12.8814   0.0000   0.0000   0.0000   0.0000   0.0000   0.0000   0.0000   0.0000   0.0000 </r>
        <r>  12.9426   0.0000   0.0000   0.0000   0.0000   0.0000   0.0000   0.0000   0.0000   0.0000 </r>
        <r>  13.0038   0.0000   0.0000   0.0000   0.0000   0.0000   0.0000   0.0000   0.0000   0.0000 </r>
        <r>  13.0650   0.0000   0.0000   0.0000   0.0000   0.0000   0.0000   0.0000   0.0000   0.0000 </r>
        <r>  13.1262   0.0000   0.0000   0.0000   0.0000   0.0000   0.0000   0.0000   0.0000   0.0000 </r>
        <r>  13.1874   0.0000   0.0000   0.0000   0.0000   0.0000   0.0000   0.0000   0.0000   0.0000 </r>
        <r>  13.2485   0.0000   0.0000   0.0000   0.0000   0.0000   0.0000   0.0000   0.0000   0.0000 </r>
        <r>  13.3097   0.0000   0.0000   0.0000   0.0000   0.0000   0.0000   0.0000   0.0000   0.0000 </r>
       </set>
      </set>
      <set comment="ion 2">
       <set comment="spin 1">
        <r>  -5.0482   0.0000   0.0000   0.0000   0.0000   0.0000   0.0000   0.0000   0.0000   0.0000 </r>
        <r>  -4.9870   0.0000   0.0000   0.0000   0.0000   0.0000   0.0000   0.0000   0.0000   0.0000 </r>
        <r>  -4.9258   0.0000   0.0000   0.0000   0.0000   0.0000   0.0000   0.0000   0.0000   0.0000 </r>
        <r>  -4.8646   0.0000   0.0000   0.0000   0.0000   0.0000   0.0000   0.0000   0.0000   0.0000 </r>
        <r>  -4.8034   0.0000   0.0000   0.0000   0.0000   0.0000   0.0000   0.0000   0.0000   0.0000 </r>
        <r>  -4.7422   0.0000   0.0000   0.0000   0.0000   0.0000   0.0000   0.0000   0.0000   0.0000 </r>
        <r>  -4.6810   0.0000   0.0000   0.0000   0.0000   0.0000   0.0000   0.0000   0.0000   0.0000 </r>
        <r>  -4.6198   0.0000   0.0000   0.0000   0.0000   0.0000   0.0000   0.0000   0.0000   0.0000 </r>
        <r>  -4.5586   0.0000   0.0000   0.0000   0.0000   0.0000   0.0000   0.0000   0.0000   0.0000 </r>
        <r>  -4.4975   0.0000   0.0000   0.0000   0.0000   0.0000   0.0000   0.0000   0.0000   0.0000 </r>
        <r>  -4.4363   0.0000   0.0000   0.0000   0.0000   0.0000   0.0000   0.0000   0.0000   0.0000 </r>
        <r>  -4.3751   0.0000   0.0000   0.0000   0.0000   0.0000   0.0000   0.0000   0.0000   0.0000 </r>
        <r>  -4.3139   0.0000   0.0000   0.0000   0.0000   0.0000   0.0000   0.0000   0.0000   0.0000 </r>
        <r>  -4.2527   0.0003   0.0000   0.0000   0.0000   0.0000   0.0000   0.0000   0.0000   0.0000 </r>
        <r>  -4.1915   0.0033   0.0000   0.0000   0.0000   0.0000   0.0000   0.0000   0.0000   0.0000 </r>
        <r>  -4.1303   0.0175   0.0001   0.0001   0.0001   0.0000   0.0000   0.0000   0.0000   0.0000 </r>
        <r>  -4.0691   0.0449   0.0002   0.0002   0.0002   0.0000   0.0000   0.0000   0.0000   0.0000 </r>
        <r>  -4.0079   0.0571   0.0003   0.0003   0.0003   0.0000   0.0000   0.0000   0.0000   0.0000 </r>
        <r>  -3.9467   0.0359   0.0002   0.0002   0.0002   0.0000   0.0000   0.0000   0.0000   0.0000 </r>
        <r>  -3.8855   0.0112   0.0001   0.0001   0.0001   0.0000   0.0000   0.0000   0.0000   0.0000 </r>
        <r>  -3.8243   0.0017   0.0000   0.0000   0.0000   0.0000   0.0000   0.0000   0.0000   0.0000 </r>
        <r>  -3.7631   0.0001   0.0000   0.0000   0.0000   0.0000   0.0000   0.0000   0.0000   0.0000 </r>
        <r>  -3.7019   0.0002   0.0000   0.0000   0.0000   0.0000   0.0000   0.0000   0.0000   0.0000 </r>
        <r>  -3.6408   0.0031   0.0000   0.0000   0.0001   0.0000   0.0000   0.0000   0.0000   0.0000 </r>
        <r>  -3.5796   0.0232   0.0001   0.0001   0.0011   0.0001   0.0000   0.0000   0.0001   0.0001 </r>
        <r>  -3.5184   0.0860   0.0004   0.0004   0.0041   0.0004   0.0001   0.0001   0.0004   0.0004 </r>
        <r>  -3.4572   0.1572   0.0008   0.0008   0.0075   0.0007   0.0001   0.0002   0.0007   0.0007 </r>
        <r>  -3.3960   0.1422   0.0007   0.0007   0.0068   0.0006   0.0001   0.0002   0.0006   0.0006 </r>
        <r>  -3.3348   0.0636   0.0003   0.0003   0.0030   0.0003   0.0001   0.0001   0.0003   0.0003 </r>
        <r>  -3.2736   0.0140   0.0001   0.0001   0.0007   0.0001   0.0000   0.0000   0.0001   0.0001 </r>
        <r>  -3.2124   0.0016   0.0000   0.0000   0.0001   0.0000   0.0000   0.0000   0.0000   0.0000 </r>
        <r>  -3.1512   0.0009   0.0000   0.0000   0.0000   0.0000   0.0000   0.0000   0.0000   0.0000 </r>
        <r>  -3.0900   0.0089   0.0004   0.0000   0.0004   0.0004   0.0001   0.0000   0.0001   0.0000 </r>
        <r>  -3.0288   0.0464   0.0020   0.0002   0.0020   0.0021   0.0004   0.0002   0.0004   0.0000 </r>
        <r>  -2.9676   0.1199   0.0053   0.0005   0.0053   0.0054   0.0010   0.0005   0.0010   0.0000 </r>
        <r>  -2.9064   0.1532   0.0068   0.0006   0.0068   0.0069   0.0013   0.0006   0.0013   0.0000 </r>
        <r>  -2.8452   0.0968   0.0043   0.0004   0.0043   0.0044   0.0008   0.0004   0.0008   0.0000 </r>
        <r>  -2.7840   0.0304   0.0013   0.0001   0.0013   0.0014   0.0003   0.0001   0.0003   0.0000 </r>
        <r>  -2.7229   0.0067   0.0003   0.0001   0.0003   0.0004   0.0002   0.0000   0.0002   0.0000 </r>
        <r>  -2.6617   0.0123   0.0004   0.0004   0.0004   0.0010   0.0010   0.0000   0.0010   0.0000 </r>
        <r>  -2.6005   0.0360   0.0011   0.0011   0.0015   0.0029   0.0028   0.0001   0.0029   0.0002 </r>
        <r>  -2.5393   0.0675   0.0017   0.0017   0.0044   0.0043   0.0040   0.0005   0.0043   0.0015 </r>
        <r>  -2.4781   0.1090   0.0014   0.0014   0.0113   0.0038   0.0030   0.0018   0.0038   0.0055 </r>
        <r>  -2.4169   0.1480   0.0010   0.0010   0.0185   0.0029   0.0014   0.0033   0.0029   0.0098 </r>
        <r>  -2.3557   0.1222   0.0006   0.0006   0.0160   0.0019   0.0006   0.0029   0.0019   0.0086 </r>
        <r>  -2.2945   0.0525   0.0002   0.0002   0.0069   0.0008   0.0002   0.0012   0.0008   0.0037 </r>
        <r>  -2.2333   0.0130   0.0001   0.0001   0.0017   0.0005   0.0001   0.0003   0.0002   0.0009 </r>
        <r>  -2.1721   0.0195   0.0007   0.0000   0.0024   0.0030   0.0008   0.0004   0.0007   0.0007 </r>
        <r>  -2.1109   0.0918   0.0034   0.0002   0.0112   0.0150   0.0044   0.0019   0.0039   0.0033 </r>
        <r>  -2.0497   0.2355   0.0084   0.0008   0.0284   0.0402   0.0149   0.0047   0.0134   0.0082 </r>
        <r>  -1.9885   0.3248   0.0108   0.0016   0.0377   0.0615   0.0317   0.0059   0.0295   0.0106 </r>
        <r>  -1.9273   0.2632   0.0075   0.0021   0.0282   0.0619   0.0450   0.0039   0.0430   0.0075 </r>
        <r>  -1.8662   0.1481   0.0035   0.0015   0.0130   0.0531   0.0477   0.0015   0.0467   0.0031 </r>
        <r>  -1.8050   0.0954   0.0026   0.0008   0.0053   0.0610   0.0568   0.0005   0.0564   0.0008 </r>
        <r>  -1.7438   0.1124   0.0039   0.0006   0.0043   0.0949   0.0874   0.0005   0.0874   0.0003 </r>
        <r>  -1.6826   0.1196   0.0039   0.0007   0.0040   0.1105   0.1032   0.0016   0.1032   0.0015 </r>
        <r>  -1.6214   0.0791   0.0022   0.0006   0.0030   0.0738   0.0700   0.0112   0.0700   0.0131 </r>
        <r>  -1.5602   0.0603   0.0015   0.0005   0.0062   0.0334   0.0304   0.0497   0.0298   0.0619 </r>
        <r>  -1.4990   0.1282   0.0045   0.0009   0.0184   0.0484   0.0368   0.1136   0.0329   0.1514 </r>
        <r>  -1.4378   0.2554   0.0117   0.0019   0.0339   0.1338   0.1081   0.1381   0.0910   0.2101 </r>
        <r>  -1.3766   0.3300   0.0163   0.0028   0.0399   0.2260   0.2058   0.1089   0.1624   0.2138 </r>
        <r>  -1.3154   0.2820   0.0126   0.0035   0.0332   0.2492   0.2418   0.0890   0.1842   0.2004 </r>
        <r>  -1.2542   0.2005   0.0075   0.0041   0.0265   0.2545   0.2252   0.1247   0.1865   0.1801 </r>
        <r>  -1.1930   0.1935   0.0072   0.0038   0.0332   0.2681   0.2138   0.2408   0.1937   0.2127 </r>
        <r>  -1.1318   0.2117   0.0089   0.0031   0.0401   0.2592   0.2216   0.3476   0.1772   0.2728 </r>
        <r>  -1.0706   0.1832   0.0108   0.0042   0.0303   0.2685   0.3059   0.3555   0.1799   0.2919 </r>
        <r>  -1.0094   0.1470   0.0139   0.0074   0.0163   0.3066   0.4109   0.2944   0.2425   0.2784 </r>
        <r>  -0.9483   0.1268   0.0167   0.0111   0.0100   0.3578   0.3536   0.1920   0.3276   0.2015 </r>
        <r>  -0.8871   0.1194   0.0194   0.0124   0.0123   0.4304   0.1963   0.1132   0.3788   0.1069 </r>
        <r>  -0.8259   0.1322   0.0222   0.0109   0.0187   0.4762   0.1218   0.0929   0.3433   0.0639 </r>
        <r>  -0.7647   0.1339   0.0210   0.0096   0.0209   0.4870   0.1644   0.1611   0.2520   0.0724 </r>
        <r>  -0.7035   0.1102   0.0172   0.0117   0.0210   0.5302   0.3228   0.3663   0.2327   0.1416 </r>
        <r>  -0.6423   0.0792   0.0141   0.0139   0.0217   0.4836   0.4583   0.5214   0.2648   0.2121 </r>
        <r>  -0.5811   0.0503   0.0122   0.0117   0.0180   0.2899   0.3578   0.4176   0.2560   0.1932 </r>
        <r>  -0.5199   0.0384   0.0148   0.0095   0.0145   0.1676   0.1620   0.2573   0.2556   0.1415 </r>
        <r>  -0.4587   0.0333   0.0177   0.0091   0.0146   0.1646   0.1138   0.2047   0.2316   0.1049 </r>
        <r>  -0.3975   0.0241   0.0162   0.0113   0.0136   0.1676   0.2544   0.1627   0.1693   0.0736 </r>
        <r>  -0.3363   0.0190   0.0160   0.0185   0.0135   0.2005   0.4384   0.1383   0.1994   0.0797 </r>
        <r>  -0.2751   0.0148   0.0183   0.0248   0.0176   0.2744   0.4721   0.2234   0.2948   0.1360 </r>
        <r>  -0.2139   0.0095   0.0183   0.0240   0.0240   0.2787   0.4244   0.3830   0.3025   0.2004 </r>
        <r>  -0.1527   0.0089   0.0192   0.0178   0.0299   0.2199   0.3869   0.5038   0.2254   0.2021 </r>
        <r>  -0.0916   0.0120   0.0209   0.0136   0.0327   0.1726   0.4121   0.5648   0.1761   0.1689 </r>
        <r>  -0.0304   0.0135   0.0167   0.0139   0.0280   0.1320   0.4943   0.5398   0.1750   0.1485 </r>
        <r>   0.0308   0.0134   0.0106   0.0155   0.0181   0.1129   0.4605   0.4414   0.1946   0.1057 </r>
[...]
        <r>  0.0001  0.0011  0.0004  0.0011  0.0300  0.0194  0.1478  0.0194  0.0000 </r>
       </set>
       <set comment="band 6">
        <r>  0.0001  0.0011  0.0000  0.0002  0.0804  0.0251  0.1688  0.0066  0.0148 </r>
        <r>  0.0001  0.0011  0.0000  0.0002  0.0804  0.0251  0.1688  0.0066  0.0148 </r>
        <r>  0.0000  0.0011  0.0000  0.0002  0.0158  0.0204  0.0331  0.0019  0.0753 </r>
        <r>  0.0000  0.0011  0.0000  0.0002  0.0158  0.0204  0.0331  0.0019  0.0753 </r>
       </set>
       <set comment="band 7">
        <r>  0.0000  0.0002  0.0000  0.0011  0.0158  0.0019  0.0331  0.0204  0.0753 </r>
        <r>  0.0000  0.0002  0.0000  0.0011  0.0158  0.0019  0.0331  0.0204  0.0753 </r>
        <r>  0.0001  0.0002  0.0000  0.0011  0.0803  0.0066  0.1688  0.0252  0.0148 </r>
        <r>  0.0001  0.0002  0.0000  0.0011  0.0803  0.0066  0.1688  0.0252  0.0148 </r>
       </set>
       <set comment="band 8">
        <r>  0.0003  0.0000  0.0006  0.0000  0.0741  0.0206  0.1114  0.0206  0.0000 </r>
        <r>  0.0003  0.0000  0.0006  0.0000  0.0741  0.0206  0.1114  0.0206  0.0000 </r>
        <r>  0.0003  0.0000  0.0006  0.0000  0.0741  0.0206  0.1114  0.0206  0.0000 </r>
        <r>  0.0003  0.0000  0.0006  0.0000  0.0741  0.0206  0.1114  0.0206  0.0000 </r>
       </set>
       <set comment="band 9">
        <r>  0.0000  0.0000  0.0000  0.0000  0.0000  0.0490  0.0000  0.0490  0.1314 </r>
        <r>  0.0000  0.0000  0.0000  0.0000  0.0000  0.0490  0.0000  0.0490  0.1314 </r>
        <r>  0.0000  0.0000  0.0000  0.0000  0.0000  0.0490  0.0000  0.0490  0.1314 </r>
        <r>  0.0000  0.0000  0.0000  0.0000  0.0000  0.0490  0.0000  0.0490  0.1314 </r>
       </set>
       <set comment="band 10">
        <r>  0.0004  0.0002  0.0030  0.0000  0.0313  0.0084  0.0381  0.0636  0.0468 </r>
        <r>  0.0004  0.0002  0.0030  0.0000  0.0313  0.0084  0.0381  0.0636  0.0468 </r>
        <r>  0.0001  0.0002  0.0008  0.0000  0.0082  0.0058  0.0100  0.0610  0.1782 </r>
        <r>  0.0001  0.0002  0.0008  0.0000  0.0082  0.0058  0.0100  0.0610  0.1782 </r>
       </set>
       <set comment="band 11">
        <r>  0.0001  0.0000  0.0008  0.0002  0.0082  0.0610  0.0100  0.0058  0.1782 </r>
        <r>  0.0001  0.0000  0.0008  0.0002  0.0082  0.0610  0.0100  0.0058  0.1782 </r>
        <r>  0.0004  0.0000  0.0030  0.0002  0.0313  0.0636  0.0381  0.0084  0.0468 </r>
        <r>  0.0004  0.0000  0.0030  0.0002  0.0313  0.0636  0.0381  0.0084  0.0468 </r>
       </set>
       <set comment="band 12">
        <r>  0.0000  0.0004  0.0000  0.0004  0.0000  0.0385  0.0000  0.0385  0.1518 </r>
        <r>  0.0000  0.0004  0.0000  0.0004  0.0000  0.0385  0.0000  0.0385  0.1518 </r>
        <r>  0.0000  0.0004  0.0000  0.0004  0.0000  0.0385  0.0000  0.0385  0.1518 </r>
        <r>  0.0000  0.0004  0.0000  0.0004  0.0000  0.0385  0.0000  0.0385  0.1518 </r>
       </set>
       <set comment="band 13">
        <r>  0.0110  0.0059  0.0091  0.0069  0.0208  0.1094  0.0523  0.0087  0.0014 </r>
        <r>  0.0110  0.0059  0.0091  0.0069  0.0208  0.1094  0.0523  0.0087  0.0014 </r>
        <r>  0.0062  0.0109  0.0051  0.0119  0.0117  0.1014  0.0293  0.0006  0.0025 </r>
        <r>  0.0062  0.0109  0.0051  0.0119  0.0117  0.1014  0.0293  0.0006  0.0025 </r>
       </set>
       <set comment="band 14">
        <r>  0.0062  0.0119  0.0051  0.0109  0.0117  0.0006  0.0293  0.1014  0.0025 </r>
        <r>  0.0062  0.0119  0.0051  0.0109  0.0117  0.0006  0.0293  0.1014  0.0025 </r>
        <r>  0.0110  0.0069  0.0091  0.0059  0.0208  0.0087  0.0523  0.1094  0.0014 </r>
        <r>  0.0110  0.0069  0.0091  0.0059  0.0208  0.0087  0.0523  0.1094  0.0014 </r>
       </set>
       <set comment="band 15">
        <r>  0.0227  0.0115  0.0111  0.0115  0.0000  0.0452  0.0397  0.0452  0.0000 </r>
        <r>  0.0227  0.0115  0.0111  0.0115  0.0000  0.0452  0.0397  0.0452  0.0000 </r>
        <r>  0.0227  0.0115  0.0111  0.0115  0.0000  0.0452  0.0397  0.0452  0.0000 </r>
        <r>  0.0227  0.0115  0.0111  0.0115  0.0000  0.0452  0.0397  0.0452  0.0000 </r>
       </set>
       <set comment="band 16">
        <r>  0.0003  0.0084  0.0094  0.0084  0.0677  0.0325  0.0464  0.0325  0.0000 </r>
        <r>  0.0003  0.0084  0.0094  0.0084  0.0677  0.0325  0.0464  0.0325  0.0000 </r>
        <r>  0.0003  0.0084  0.0094  0.0084  0.0677  0.0325  0.0464  0.0325  0.0000 </r>
        <r>  0.0003  0.0084  0.0094  0.0084  0.0677  0.0325  0.0464  0.0325  0.0000 </r>
       </set>
       <set comment="band 17">
        <r>  0.0000  0.0002  0.0000  0.0002  0.0000  0.0690  0.0000  0.0690  0.1009 </r>
        <r>  0.0000  0.0002  0.0000  0.0002  0.0000  0.0690  0.0000  0.0690  0.1009 </r>
        <r>  0.0000  0.0002  0.0000  0.0002  0.0000  0.0690  0.0000  0.0690  0.1009 </r>
        <r>  0.0000  0.0002  0.0000  0.0002  0.0000  0.0690  0.0000  0.0690  0.1009 </r>
       </set>
       <set comment="band 18">
        <r>  0.0002  0.0000  0.0008  0.0006  0.0327  0.0518  0.0481  0.1240  0.0254 </r>
        <r>  0.0002  0.0000  0.0008  0.0006  0.0327  0.0518  0.0481  0.1240  0.0254 </r>
        <r>  0.0000  0.0004  0.0002  0.0011  0.0084  0.0023  0.0124  0.0745  0.0988 </r>
        <r>  0.0000  0.0004  0.0002  0.0011  0.0084  0.0023  0.0124  0.0745  0.0988 </r>
       </set>
       <set comment="band 19">
        <r>  0.0000  0.0011  0.0002  0.0004  0.0084  0.0745  0.0124  0.0023  0.0987 </r>
        <r>  0.0000  0.0011  0.0002  0.0004  0.0084  0.0745  0.0124  0.0023  0.0988 </r>
        <r>  0.0002  0.0006  0.0008  0.0000  0.0327  0.1240  0.0481  0.0519  0.0254 </r>
        <r>  0.0002  0.0006  0.0008  0.0000  0.0327  0.1240  0.0481  0.0519  0.0254 </r>
       </set>
       <set comment="band 20">
        <r>  0.0000  0.0001  0.0000  0.0001  0.0000  0.0811  0.0000  0.0811  0.0801 </r>
        <r>  0.0000  0.0001  0.0000  0.0001  0.0000  0.0811  0.0000  0.0811  0.0801 </r>
        <r>  0.0000  0.0001  0.0000  0.0001  0.0000  0.0811  0.0000  0.0811  0.0801 </r>
        <r>  0.0000  0.0001  0.0000  0.0001  0.0000  0.0811  0.0000  0.0811  0.0801 </r>
       </set>
       <set comment="band 21">
        <r>  0.0164  0.0056  0.0021  0.0056  0.1117  0.0008  0.0823  0.0008  0.0000 </r>
        <r>  0.0164  0.0056  0.0021  0.0056  0.1117  0.0008  0.0823  0.0008  0.0000 </r>
        <r>  0.0164  0.0056  0.0021  0.0056  0.1117  0.0008  0.0823  0.0008  0.0000 </r>
        <r>  0.0164  0.0056  0.0021  0.0056  0.1117  0.0008  0.0823  0.0008  0.0000 </r>
       </set>
       <set comment="band 22">
        <r>  0.0587  0.0029  0.0125  0.0086  0.1240  0.0037  0.0546  0.0078  0.0026 </r>
        <r>  0.0587  0.0029  0.0125  0.0086  0.1240  0.0037  0.0546  0.0078  0.0026 </r>
        <r>  0.0130  0.0210  0.0028  0.0268  0.0275  0.0002  0.0121  0.0043  0.0116 </r>
        <r>  0.0130  0.0210  0.0028  0.0268  0.0275  0.0002  0.0121  0.0043  0.0116 </r>
       </set>
       <set comment="band 23">
        <r>  0.0130  0.0268  0.0028  0.0211  0.0275  0.0043  0.0121  0.0002  0.0116 </r>
        <r>  0.0130  0.0268  0.0028  0.0211  0.0275  0.0043  0.0121  0.0002  0.0116 </r>
        <r>  0.0587  0.0086  0.0125  0.0029  0.1240  0.0078  0.0546  0.0037  0.0026 </r>
        <r>  0.0587  0.0086  0.0125  0.0029  0.1240  0.0078  0.0546  0.0037  0.0026 </r>
       </set>
       <set comment="band 24">
        <r>  0.0334  0.0226  0.0159  0.0226  0.0540  0.0001  0.0266  0.0001  0.0000 </r>
        <r>  0.0334  0.0226  0.0160  0.0226  0.0540  0.0001  0.0266  0.0001  0.0000 </r>
        <r>  0.0334  0.0226  0.0160  0.0226  0.0540  0.0001  0.0266  0.0001  0.0000 </r>
        <r>  0.0334  0.0226  0.0159  0.0226  0.0540  0.0001  0.0266  0.0001  0.0000 </r>
       </set>
       <set comment="band 25">
        <r>  0.0897  0.0060  0.0190  0.0058  0.0079  0.0284  0.0086  0.0280  0.0000 </r>
        <r>  0.0892  0.0058  0.0189  0.0060  0.0079  0.0280  0.0085  0.0284  0.0000 </r>
        <r>  0.0889  0.0059  0.0188  0.0059  0.0080  0.0281  0.0085  0.0282  0.0000 </r>
        <r>  0.0902  0.0059  0.0191  0.0058  0.0079  0.0282  0.0086  0.0281  0.0000 </r>
       </set>
       <set comment="band 26">
        <r>  0.1136  0.0077  0.0352  0.0045  0.0145  0.0123  0.0065  0.0059  0.0001 </r>
        <r>  0.1135  0.0077  0.0352  0.0045  0.0145  0.0123  0.0065  0.0059  0.0001 </r>
        <r>  0.0306  0.0239  0.0095  0.0207  0.0039  0.0359  0.0018  0.0294  0.0004 </r>
        <r>  0.0306  0.0239  0.0095  0.0207  0.0039  0.0359  0.0018  0.0294  0.0004 </r>
       </set>
      </set>
      <set comment="kpoint 10">
       <set comment="band 1">
        <r>  0.0500  0.0004  0.0004  0.0004  0.0467  0.0467  0.0000  0.0467  0.0000 </r>
        <r>  0.0500  0.0004  0.0004  0.0004  0.0467  0.0467  0.0000  0.0467  0.0000 </r>
        <r>  0.0500  0.0004  0.0004  0.0004  0.0467  0.0467  0.0000  0.0467  0.0000 </r>
        <r>  0.0500  0.0004  0.0004  0.0004  0.0467  0.0467  0.0000  0.0467  0.0000 </r>
       </set>
       <set comment="band 2">
        <r>  0.0240  0.0002  0.0000  0.0011  0.1093  0.0617  0.0002  0.0051  0.0001 </r>
        <r>  0.0905  0.0004  0.0006  0.0015  0.0254  0.0088  0.0000  0.0509  0.0001 </r>
        <r>  0.0049  0.0000  0.0001  0.0008  0.0563  0.1168  0.0001  0.0292  0.0002 </r>
        <r>  0.0458  0.0000  0.0004  0.0012  0.0047  0.0343  0.0000  0.1073  0.0002 </r>
       </set>
       <set comment="band 3">
        <r>  0.0758  0.0014  0.0007  0.0001  0.0048  0.0901  0.0000  0.0103  0.0001 </r>
        <r>  0.0055  0.0008  0.0001  0.0000  0.0937  0.0070  0.0002  0.1009  0.0001 </r>
        <r>  0.0061  0.0008  0.0001  0.0000  0.0961  0.0063  0.0002  0.0984  0.0001 </r>
        <r>  0.0779  0.0014  0.0007  0.0002  0.0054  0.0874  0.0000  0.0094  0.0001 </r>
       </set>
       <set comment="band 4">
        <r>  0.0241  0.0000  0.0009  0.0004  0.0383  0.0006  0.0002  0.1371  0.0001 </r>
        <r>  0.0280  0.0004  0.0009  0.0000  0.0334  0.1366  0.0002  0.0007  0.0001 </r>
        <r>  0.1129  0.0008  0.0014  0.0007  0.0000  0.0293  0.0000  0.0249  0.0000 </r>
        <r>  0.0002  0.0002  0.0005  0.0002  0.1423  0.0307  0.0004  0.0357  0.0000 </r>
       </set>
       <set comment="band 5">
        <r>  0.0000  0.0002  0.0002  0.0004  0.0549  0.0336  0.0085  0.0658  0.0680 </r>
        <r>  0.0000  0.0000  0.0001  0.0000  0.0024  0.0024  0.1340  0.0136  0.0680 </r>
        <r>  0.0000  0.0000  0.0001  0.0000  0.0023  0.0018  0.1308  0.0127  0.0724 </r>
        <r>  0.0000  0.0002  0.0002  0.0004  0.0535  0.0317  0.0087  0.0642  0.0724 </r>
       </set>
       <set comment="band 6">
        <r>  0.0000  0.0001  0.0002  0.0000  0.0082  0.0403  0.0894  0.0162  0.0697 </r>
        <r>  0.0000  0.0003  0.0003  0.0001  0.0401  0.0705  0.0133  0.0367  0.0697 </r>
        <r>  0.0000  0.0001  0.0001  0.0000  0.0028  0.0264  0.0596  0.0040  0.1287 </r>
        <r>  0.0000  0.0003  0.0002  0.0000  0.0262  0.0515  0.0038  0.0160  0.1287 </r>
       </set>
       <set comment="band 7">
        <r>  0.0000  0.0002  0.0000  0.0000  0.0216  0.0108  0.1131  0.0027  0.0734 </r>
        <r>  0.0000  0.0001  0.0001  0.0003  0.0422  0.0119  0.0638  0.0344  0.0734 </r>
        <r>  0.0000  0.0003  0.0003  0.0004  0.0796  0.0565  0.0206  0.0680  0.0099 </r>
        <r>  0.0000  0.0000  0.0001  0.0000  0.0051  0.0015  0.1986  0.0045  0.0099 </r>
       </set>
       <set comment="band 8">
        <r>  0.0000  0.0000  0.0000  0.0000  0.0550  0.0023  0.1090  0.0412  0.0211 </r>
        <r>  0.0000  0.0000  0.0000  0.0000  0.0550  0.0023  0.1090  0.0412  0.0211 </r>
        <r>  0.0000  0.0000  0.0000  0.0000  0.0550  0.0023  0.1090  0.0412  0.0211 </r>
        <r>  0.0000  0.0000  0.0000  0.0000  0.0550  0.0023  0.1090  0.0412  0.0211 </r>
       </set>
       <set comment="band 9">
        <r>  0.0000  0.0000  0.0000  0.0000  0.0107  0.0634  0.0211  0.0244  0.1090 </r>
        <r>  0.0000  0.0000  0.0000  0.0000  0.0107  0.0634  0.0211  0.0244  0.1090 </r>
        <r>  0.0000  0.0000  0.0000  0.0000  0.0107  0.0634  0.0211  0.0244  0.1090 </r>
        <r>  0.0000  0.0000  0.0000  0.0000  0.0107  0.0634  0.0211  0.0244  0.1090 </r>
       </set>
       <set comment="band 10">
        <r>  0.0000  0.0002  0.0002  0.0000  0.0462  0.0001  0.1017  0.0452  0.0326 </r>
        <r>  0.0000  0.0002  0.0002  0.0000  0.0462  0.0000  0.1017  0.0473  0.0355 </r>
        <r>  0.0000  0.0002  0.0002  0.0000  0.0462  0.0000  0.1017  0.0452  0.0325 </r>
        <r>  0.0000  0.0002  0.0002  0.0000  0.0462  0.0001  0.1017  0.0473  0.0356 </r>
       </set>
       <set comment="band 11">
        <r>  0.0000  0.0001  0.0001  0.0000  0.0290  0.0031  0.0639  0.0175  0.0089 </r>
        <r>  0.0000  0.0001  0.0001  0.0003  0.0290  0.0895  0.0639  0.0172  0.1352 </r>
        <r>  0.0000  0.0001  0.0001  0.0003  0.0288  0.0895  0.0635  0.0175  0.1359 </r>
        <r>  0.0000  0.0001  0.0001  0.0000  0.0288  0.0031  0.0635  0.0172  0.0085 </r>
       </set>
       <set comment="band 12">
        <r>  0.0000  0.0001  0.0001  0.0003  0.0173  0.0894  0.0381  0.0298  0.1622 </r>
        <r>  0.0000  0.0001  0.0001  0.0000  0.0173  0.0030  0.0381  0.0281  0.0330 </r>
        <r>  0.0000  0.0001  0.0001  0.0000  0.0175  0.0030  0.0385  0.0298  0.0354 </r>
        <r>  0.0000  0.0001  0.0001  0.0003  0.0175  0.0894  0.0385  0.0281  0.1596 </r>
       </set>
       <set comment="band 13">
        <r>  0.0006  0.0011  0.0164  0.0092  0.0010  0.0633  0.0534  0.0143  0.0262 </r>
        <r>  0.0027  0.0100  0.0042  0.0009  0.0628  0.1196  0.0021  0.0455  0.0262 </r>
        <r>  0.0002  0.0039  0.0096  0.0159  0.0008  0.0437  0.0357  0.0003  0.0556 </r>
        <r>  0.0016  0.0166  0.0012  0.0036  0.0435  0.0920  0.0003  0.0123  0.0556 </r>
       </set>
       <set comment="band 14">
        <r>  0.0025  0.0009  0.0017  0.0139  0.0676  0.0328  0.0000  0.1100  0.0343 </r>
        <r>  0.0002  0.0131  0.0148  0.0011  0.0009  0.0038  0.0553  0.0448  0.0343 </r>
        <r>  0.0002  0.0144  0.0134  0.0015  0.0016  0.0020  0.0515  0.0415  0.0397 </r>
        <r>  0.0022  0.0013  0.0012  0.0152  0.0633  0.0260  0.0003  0.1047  0.0397 </r>
       </set>
       <set comment="band 15">
        <r>  0.0007  0.0211  0.0051  0.0000  0.0562  0.0286  0.0422  0.0005  0.0351 </r>
        <r>  0.0009  0.0000  0.0042  0.0212  0.0609  0.0014  0.0382  0.0345  0.0351 </r>
        <r>  0.0035  0.0048  0.0001  0.0058  0.1223  0.0791  0.0085  0.0830  0.0004 </r>
        <r>  0.0000  0.0053  0.0207  0.0044  0.0179  0.0067  0.0951  0.0078  0.0004 </r>
       </set>
       <set comment="band 16">
        <r>  0.0000  0.0001  0.0000  0.0001  0.0353  0.0491  0.0394  0.0547  0.0642 </r>
        <r>  0.0000  0.0001  0.0000  0.0001  0.0353  0.0491  0.0394  0.0547  0.0642 </r>
        <r>  0.0000  0.0001  0.0000  0.0001  0.0353  0.0491  0.0394  0.0547  0.0642 </r>
        <r>  0.0000  0.0001  0.0000  0.0001  0.0353  0.0491  0.0394  0.0547  0.0642 </r>
       </set>
       <set comment="band 17">
        <r>  0.0000  0.0000  0.0001  0.0000  0.0574  0.0437  0.0642  0.0380  0.0394 </r>
        <r>  0.0000  0.0000  0.0001  0.0000  0.0574  0.0437  0.0642  0.0380  0.0394 </r>
        <r>  0.0000  0.0000  0.0001  0.0000  0.0574  0.0437  0.0642  0.0380  0.0394 </r>
        <r>  0.0000  0.0000  0.0001  0.0000  0.0574  0.0437  0.0642  0.0380  0.0394 </r>
       </set>
       <set comment="band 18">
        <r>  0.0316  0.0246  0.0246  0.0246  0.0146  0.0146  0.0000  0.0146  0.0000 </r>
        <r>  0.0316  0.0246  0.0246  0.0246  0.0146  0.0146  0.0000  0.0146  0.0000 </r>
        <r>  0.0316  0.0246  0.0246  0.0246  0.0146  0.0146  0.0000  0.0146  0.0000 </r>
        <r>  0.0316  0.0246  0.0246  0.0246  0.0146  0.0146  0.0000  0.0146  0.0000 </r>
       </set>
       <set comment="band 19">
        <r>  0.0000  0.0000  0.0000  0.0000  0.0976  0.0111  0.0979  0.0510  0.0089 </r>
        <r>  0.0000  0.0000  0.0000  0.0000  0.0976  0.0033  0.0979  0.0830  0.0251 </r>
        <r>  0.0000  0.0000  0.0000  0.0000  0.0467  0.0033  0.0469  0.0510  0.0207 </r>
        <r>  0.0000  0.0000  0.0000  0.0000  0.0467  0.0111  0.0469  0.0830  0.0473 </r>
       </set>
       <set comment="band 20">
        <r>  0.0000  0.0000  0.0000  0.0000  0.0000  0.0922  0.0000  0.0897  0.1217 </r>
        <r>  0.0000  0.0000  0.0000  0.0000  0.0000  0.0509  0.0000  0.0528  0.0694 </r>
        <r>  0.0000  0.0000  0.0000  0.0000  0.0070  0.0509  0.0071  0.0897  0.0917 </r>
        <r>  0.0000  0.0000  0.0000  0.0000  0.0070  0.0922  0.0071  0.0528  0.0947 </r>
       </set>
       <set comment="band 21">
        <r>  0.0000  0.0000  0.0000  0.0000  0.0487  0.0430  0.0489  0.0057  0.0163 </r>
        <r>  0.0000  0.0000  0.0000  0.0000  0.0487  0.0921  0.0489  0.0105  0.0524 </r>
        <r>  0.0000  0.0000  0.0000  0.0000  0.0926  0.0921  0.0929  0.0057  0.0345 </r>
        <r>  0.0000  0.0000  0.0000  0.0000  0.0926  0.0430  0.0929  0.0105  0.0049 </r>
       </set>
       <set comment="band 22">
        <r>  0.0177  0.0054  0.0041  0.0459  0.0230  0.0297  0.0006  0.0182  0.0149 </r>
        <r>  0.0019  0.0526  0.0507  0.0034  0.0056  0.0029  0.0232  0.0008  0.0149 </r>
        <r>  0.0013  0.0538  0.0497  0.0051  0.0046  0.0022  0.0230  0.0001  0.0159 </r>
        <r>  0.0174  0.0071  0.0025  0.0471  0.0223  0.0293  0.0001  0.0178  0.0159 </r>
       </set>
       <set comment="band 23">
        <r>  0.0051  0.0027  0.0583  0.0354  0.0118  0.0030  0.0233  0.0068  0.0102 </r>
        <r>  0.0208  0.0287  0.0120  0.0048  0.0291  0.0219  0.0009  0.0317  0.0102 </r>
        <r>  0.0011  0.0144  0.0321  0.0627  0.0035  0.0003  0.0145  0.0025  0.0246 </r>
        <r>  0.0112  0.0569  0.0023  0.0172  0.0147  0.0098  0.0001  0.0212  0.0246 </r>
       </set>
       <set comment="band 24">
        <r>  0.0059  0.0738  0.0195  0.0005  0.0043  0.0064  0.0168  0.0141  0.0156 </r>
        <r>  0.0060  0.0005  0.0192  0.0737  0.0044  0.0143  0.0166  0.0066  0.0156 </r>
        <r>  0.0262  0.0137  0.0000  0.0141  0.0309  0.0366  0.0033  0.0365  0.0001 </r>
        <r>  0.0001  0.0179  0.0771  0.0175  0.0021  0.0001  0.0405  0.0001  0.0001 </r>
       </set>
       <set comment="band 25">
        <r>  0.1511  0.0008  0.0108  0.0005  0.0579  0.0117  0.0002  0.0011  0.0000 </r>
        <r>  0.2430  0.0027  0.0080  0.0002  0.0334  0.0031  0.0001  0.0065  0.0000 </r>
        <r>  0.0063  0.0051  0.0013  0.0072  0.0087  0.0661  0.0000  0.0396  0.0005 </r>
        <r>  0.0345  0.0089  0.0005  0.0039  0.0012  0.0428  0.0000  0.0620  0.0005 </r>
       </set>
       <set comment="band 26">
        <r>  0.1113  0.0002  0.0003  0.0120  0.0034  0.0713  0.0001  0.0080  0.0003 </r>
        <r>  0.0101  0.0097  0.0033  0.0006  0.0304  0.0064  0.0002  0.0765  0.0003 </r>
        <r>  0.0225  0.0028  0.0104  0.0002  0.0748  0.0031  0.0004  0.0317  0.0001 </r>
        <r>  0.2910  0.0013  0.0024  0.0066  0.0033  0.0235  0.0000  0.0018  0.0001 </r>
       </set>
      </set>
     </set>
    </set>
   </array>
  </projected>
 </calculation>
 <structure name="finalpos"">
  <crystal>
   <varray name="basis"">
    <v>       4.17600000      0.00000000      0.00000000</v>
    <v>       0.00000000      4.17600000      0.00000000</v>
    <v>       0.00000000      0.00000000      4.17600000</v>
   </varray>
   <i name="volume""     72.82516378</i>
   <varray name="rec_basis"">
    <v>       0.23946360      0.00000000      0.00000000</v>
    <v>       0.00000000      0.23946360      0.00000000</v>
    <v>       0.00000000      0.00000000      0.23946360</v>
   </varray>
  </crystal>
  <varray name="positions"">
   <v>       0.00000000      0.00000000      0.00000000</v>
   <v>       0.50000000      0.50000000      0.00000000</v>
   <v>       0.50000000      0.00000000      0.50000000</v>
   <v>       0.00000000      0.50000000      0.50000000</v>
  </varray>
 </structure>
</modeling>
