----- GAMESS execution script 'rungms' -----
This job is running on host dftfe.crc.nd.edu
under operating system Linux at Thu Feb 26 00:19:10 EST 2015
Available scratch disk space (Kbyte units) at beginning of the job is
Filesystem     1K-blocks     Used Available Use% Mounted on
/dev/sda2      147771864 22815456 117449976  17% /
GAMESS temporary binary files will be written to /tmp
GAMESS supplementary output files will be written to /tmp
Copying input file gamess.inp to your run's scratch directory...

 Distributed Data Interface kickoff program.
 Initiating 1 compute processes on 1 nodes to run the following command:
 /opt/crc/gamess/2012R1/gamess/gamess.00.x gamess 

          ******************************************************
          *         GAMESS VERSION =  1 MAY 2012 (R1)          *
          *             FROM IOWA STATE UNIVERSITY             *
          * M.W.SCHMIDT, K.K.BALDRIDGE, J.A.BOATZ, S.T.ELBERT, *
          *   M.S.GORDON, J.H.JENSEN, S.KOSEKI, N.MATSUNAGA,   *
          *          K.A.NGUYEN, S.J.SU, T.L.WINDUS,           *
          *       TOGETHER WITH M.DUPUIS, J.A.MONTGOMERY       *
          *         J.COMPUT.CHEM.  14, 1347-1363(1993)        *
          **************** 64 BIT LINUX VERSION ****************

  SINCE 1993, STUDENTS AND POSTDOCS WORKING AT IOWA STATE UNIVERSITY
  AND ALSO IN THEIR VARIOUS JOBS AFTER LEAVING ISU HAVE MADE IMPORTANT
  CONTRIBUTIONS TO THE CODE:
     IVANA ADAMOVIC, CHRISTINE AIKENS, YURI ALEXEEV, POOJA ARORA,
     ANDREY ASADCHEV, ROB BELL, PRADIPTA BANDYOPADHYAY, JONATHAN BENTZ,
     BRETT BODE, GALINA CHABAN, WEI CHEN, CHEOL HO CHOI, PAUL DAY,
     ALBERT DEFUSCO, TIM DUDLEY, DMITRI FEDOROV, GRAHAM FLETCHER,
     MARK FREITAG, KURT GLAESEMANN, DAN KEMP, GRANT MERRILL,
     NORIYUKI MINEZAWA, JONATHAN MULLIN, TAKESHI NAGATA,
     SEAN NEDD, HEATHER NETZLOFF, BOSILJKA NJEGIC, RYAN OLSON, MIKE PAK,
     JIM SHOEMAKER, LYUDMILA SLIPCHENKO, SAROM SOK, JIE SONG,
     TETSUYA TAKETSUGU, SIMON WEBB, SOOHAENG YOO, FEDERICO ZAHARIEV

  ADDITIONAL CODE HAS BEEN PROVIDED BY COLLABORATORS IN OTHER GROUPS:
     IOWA STATE UNIVERSITY:
          JOE IVANIC, LAIMUTIS BYTAUTAS, KLAUS RUEDENBERG
     UNIVERSITY OF TOKYO: KIMIHIKO HIRAO, TAKAHITO NAKAJIMA,
          TAKAO TSUNEDA, MUNEAKI KAMIYA, SUSUMU YANAGISAWA,
          KIYOSHI YAGI, MAHITO CHIBA, SEIKEN TOKURA, NAOAKI KAWAKAMI
     UNIVERSITY OF AARHUS: FRANK JENSEN
     UNIVERSITY OF IOWA: VISVALDAS KAIRYS, HUI LI
     NATIONAL INST. OF STANDARDS AND TECHNOLOGY: WALT STEVENS, DAVID GARMER
     UNIVERSITY OF PISA: BENEDETTA MENNUCCI, JACOPO TOMASI
     UNIVERSITY OF MEMPHIS: HENRY KURTZ, PRAKASHAN KORAMBATH
     UNIVERSITY OF ALBERTA: TOBY ZENG, MARIUSZ KLOBUKOWSKI
     UNIVERSITY OF NEW ENGLAND: MARK SPACKMAN
     MIE UNIVERSITY: HIROAKI UMEDA
     MICHIGAN STATE UNIVERSITY:
          KAROL KOWALSKI, MARTA WLOCH, JEFFREY GOUR, JESSE LUTZ, PIOTR PIECUCH
     UNIVERSITY OF SILESIA: MONIKA MUSIAL, STANISLAW KUCHARSKI
     FACULTES UNIVERSITAIRES NOTRE-DAME DE LA PAIX:
          OLIVIER QUINET, BENOIT CHAMPAGNE
     UNIVERSITY OF CALIFORNIA - SANTA BARBARA: BERNARD KIRTMAN
     INSTITUTE FOR MOLECULAR SCIENCE:
          KAZUYA ISHIMURA, MICHIO KATOUDA, AND SHIGERU NAGASE
     UNIVERSITY OF NOTRE DAME: DAN CHIPMAN
     KYUSHU UNIVERSITY:
          HARUYUKI NAKANO,
          FENG LONG GU, JACEK KORCHOWIEC, MARCIN MAKOWSKI, AND YURIKO AOKI,
          HIROTOSHI MORI AND EISAKU MIYOSHI
     PENNSYLVANIA STATE UNIVERSITY:
          TZVETELIN IORDANOV, CHET SWALINA, JONATHAN SKONE,
          SHARON HAMMES-SCHIFFER
     WASEDA UNIVERSITY:
          MASATO KOBAYASHI, TOMOKO AKAMA, TSUGUKI TOUMA,
          TAKESHI YOSHIKAWA, YASUHIRO IKABATA, HIROMI NAKAI
     UNIVERSITY OF NEBRASKA:
          PEIFENG SU, DEJUN SI, NANDUN THELLAMUREGE, YALI WANG, HUI LI
     UNIVERSITY OF ZURICH:
          ROBERTO PEVERATI, KIM BALDRIDGE
     N. COPERNICUS UNIVERSITY AND JACKSON STATE UNIVERSITY:
          MARIA BARYSZ

 EXECUTION OF GAMESS BEGUN Thu Feb 26 00:19:10 2015

            ECHO OF THE FIRST FEW INPUT CARDS -
 INPUT CARD> $BASIS GBASIS=PC1 $END                                                         
 INPUT CARD> $CONTRL COORD=ZMT ISPHER=1 RUNTYP=ENERGY DFTTYP=PBE $END                       
 INPUT CARD>                                                                                
 INPUT CARD> $DATA                                                                          
 INPUT CARD>Title                                                                           
 INPUT CARD>Cnv 2                                                                           
 INPUT CARD>                                                                                
 INPUT CARD>S                                                                               
 INPUT CARD>O 1 1.70                                                                        
 INPUT CARD>O 1 1.70 2 110.0                                                                
 INPUT CARD> $END                                                                           
    1000000 WORDS OF MEMORY AVAILABLE

     BASIS OPTIONS
     -------------
     GBASIS=PC1          IGAUSS=       0      POLAR=NONE    
     NDFUNC=       0     NFFUNC=       0     DIFFSP=       F
     NPFUNC=       0      DIFFS=       F     BASNAM=        


     RUN TITLE
     ---------
 Title                                                                           

 THE POINT GROUP OF THE MOLECULE IS CNV     
 THE ORDER OF THE PRINCIPAL AXIS IS     2

 YOUR FULLY SUBSTITUTED Z-MATRIX IS
 S   
 O      1   1.7000000
 O      1   1.7000000  2  110.0000

 THE MOMENTS OF INERTIA ARE (AMU-ANGSTROM**2)
 IXX=    15.203   IYY=    62.035   IZZ=    77.239

 ATOM      ATOMIC                      COORDINATES (BOHR)
           CHARGE         X                   Y                   Z
 S          16.0     0.0000000000        0.0000000000       -0.9215726268
 O           8.0    -2.6315539402        0.0000000000        0.9210612793
 O           8.0     2.6315539402        0.0000000000        0.9210612793

          INTERNUCLEAR DISTANCES (ANGS.)
          ------------------------------

                1 S          2 O          3 O     

   1 S       0.0000000    1.7000000 *  1.7000000 *
   2 O       1.7000000 *  0.0000000    2.7851170 *
   3 O       1.7000000 *  2.7851170 *  0.0000000  

  * ... LESS THAN  3.000


     ATOMIC BASIS SET
     ----------------
 THE CONTRACTED PRIMITIVE FUNCTIONS HAVE BEEN UNNORMALIZED
 THE CONTRACTED BASIS FUNCTIONS ARE NOW NORMALIZED TO UNITY

  SHELL TYPE  PRIMITIVE        EXPONENT          CONTRACTION COEFFICIENT(S)

 S         

      1   S       1         55510.0000000    0.000587229760
      1   S       2          8326.7000000    0.004532413947
      1   S       3          1895.6000000    0.023265261648
      1   S       4           536.7700000    0.089696133027
      1   S       5           174.6700000    0.254098332277
      1   S       6            62.5780000    0.438665087637
      1   S       7            23.5730000    0.314547135094
      1   S       8             5.8908000    0.032727897102

      2   S       9          8326.7000000   -0.000019755715
      2   S      10          1895.6000000   -0.000043822381
      2   S      11           536.7700000   -0.001730264906
      2   S      12           174.6700000   -0.009381263460
      2   S      13            62.5780000   -0.064050766303
      2   S      14            23.5730000   -0.082478179196
      2   S      15             5.8908000    0.478342956889
      2   S      16             2.1852000    0.626896670208

      3   S      17          1895.6000000    0.000016227260
      3   S      18           536.7700000    0.000191135619
      3   S      19           174.6700000    0.001952069674
      3   S      20            62.5780000    0.010578701087
      3   S      21            23.5730000    0.022164934551
      3   S      22             5.8908000   -0.184968323118
      3   S      23             2.1852000   -0.480920750976
      3   S      24             0.4528200    1.243822243872

      4   S      25             0.1620200    1.000000000000

      5   P      26           395.4500000    0.004642761329
      5   P      27            92.8340000    0.036023396489
      5   P      28            29.2660000    0.149058869978
      5   P      29            10.5950000    0.360033266263
      5   P      30             4.0272000    0.455756476221
      5   P      31             1.5484000    0.206167664178

      6   P      32            92.8340000    0.000169901442
      6   P      33            29.2660000   -0.002541839934
      6   P      34            10.5950000   -0.007867614595
      6   P      35             4.0272000   -0.037231009184
      6   P      36             1.5484000    0.161417246830
      6   P      37             0.4613400    0.902230419976

      7   P      38             0.1313100    1.000000000000

      8   D      39             0.5500000    1.000000000000

 O         

     15   S      40          2306.7000000    0.005424388755
     15   S      41           347.1500000    0.040474749465
     15   S      42            78.8900000    0.180219634554
     15   S      43            21.8760000    0.462370311787
     15   S      44             6.6646000    0.454888396263

     16   S      45           347.1500000   -0.000655003786
     16   S      46            78.8900000   -0.005362052952
     16   S      47            21.8760000   -0.074902158894
     16   S      48             6.6646000   -0.181442579655
     16   S      49             1.0669000    1.102006874042

     17   S      50             0.3070000    1.000000000000

     18   P      51            17.0220000    0.068979967443
     18   P      52             3.6838000    0.351985516325
     18   P      53             0.9923400    0.724036547822

     19   P      54             0.2448700    1.000000000000

     20   D      55             1.0000000    1.000000000000

 TOTAL NUMBER OF BASIS SET SHELLS             =   20
 NUMBER OF CARTESIAN GAUSSIAN BASIS FUNCTIONS =   49
 NOTE: THIS RUN WILL RESTRICT THE MO VARIATION SPACE TO SPHERICAL HARMONICS.
 THE NUMBER OF ORBITALS KEPT IN THE VARIATIONAL SPACE WILL BE PRINTED LATER.
 NUMBER OF ELECTRONS                          =   32
 CHARGE OF MOLECULE                           =    0
 SPIN MULTIPLICITY                            =    1
 NUMBER OF OCCUPIED ORBITALS (ALPHA)          =   16
 NUMBER OF OCCUPIED ORBITALS (BETA )          =   16
 TOTAL NUMBER OF ATOMS                        =    3
 THE NUCLEAR REPULSION ENERGY IS       91.8479836752

     LEBEDEV GRID-BASED DFT OPTIONS
     ------------------------------
     DFTTYP=PBE     
     NRAD  =      96     NLEB  =     302
     NRAD0 =      24     NLEB0 =     110
     SWOFF =    5.00E-03 (PURE SCF -> DFT)
     SWITCH=    3.00E-04 (COARSE -> TIGHT GRID)
     THRESH=    0.00E+00 GTHRE=    1.00E+00

 GRIMME'S EMPIRICAL DISPERSION CORRECTION= F

     $CONTRL OPTIONS
     ---------------
 SCFTYP=RHF          RUNTYP=ENERGY       EXETYP=RUN     
 MPLEVL=       0     CITYP =NONE         CCTYP =NONE         VBTYP =NONE    
 DFTTYP=PBE          TDDFT =NONE    
 MULT  =       1     ICHARG=       0     NZVAR =       0     COORD =ZMT     
 PP    =NONE         RELWFN=NONE         LOCAL =NONE         NUMGRD=       F
 ISPHER=       1     NOSYM =       0     MAXIT =      30     UNITS =ANGS    
 PLTORB=       F     MOLPLT=       F     AIMPAC=       F     FRIEND=        
 NPRINT=       7     IREST =       0     GEOM  =INPUT   
 NORMF =       0     NORMP =       0     ITOL  =      20     ICUT  =       9
 INTTYP=BEST         GRDTYP=BEST         QMTTOL= 1.0E-06

     $SYSTEM OPTIONS
     ---------------
  REPLICATED MEMORY=     1000000 WORDS (ON EVERY NODE).
 DISTRIBUTED MEMDDI=           0 MILLION WORDS IN AGGREGATE,
 MEMDDI DISTRIBUTED OVER   1 PROCESSORS IS           0 WORDS/PROCESSOR.
 TOTAL MEMORY REQUESTED ON EACH PROCESSOR=     1000000 WORDS.
 TIMLIM=      525600.00 MINUTES, OR     365.0 DAYS.
 PARALL= F  BALTYP=  DLB     KDIAG=    0  COREFL= F
 MXSEQ2=     300 MXSEQ3=     150

          ----------------
          PROPERTIES INPUT
          ----------------

     MOMENTS            FIELD           POTENTIAL          DENSITY
 IEMOM =       1   IEFLD =       0   IEPOT =       0   IEDEN =       0
 WHERE =COMASS     WHERE =NUCLEI     WHERE =NUCLEI     WHERE =NUCLEI  
 OUTPUT=BOTH       OUTPUT=BOTH       OUTPUT=BOTH       OUTPUT=BOTH    
 IEMINT=       0   IEFINT=       0                     IEDINT=       0
                                                       MORB  =       0
          EXTRAPOLATION IN EFFECT
          DIIS IN EFFECT
 ORBITAL PRINTING OPTION: NPREO=     1    49     2     1

     -------------------------------
     INTEGRAL TRANSFORMATION OPTIONS
     -------------------------------
     NWORD  =            0
     CUTOFF = 1.0E-09     MPTRAN =       0
     DIRTRF =       F     AOINTS =DUP     

          ----------------------
          INTEGRAL INPUT OPTIONS
          ----------------------
 NOPK  =       1 NORDER=       0 SCHWRZ=       F

   --- ENCODED Z MATRIX ---
 COORD  TYPE   I   J   K   L   M   N
    1      1    3   1
    2      1    2   1
    3      2    2   1   3

 THE DETERMINANT OF THE G MATRIX IS 10**(    -4)

 THE DETERMINANT OF THE G MATRIX IS 10**(    -4)
 * * * WARNING * * *
 YOUR B MATRIX HAS A SMALL DETERMINANT.
 THIS SUGGESTS YOU MAY HAVE BADLY CHOSEN COORDINATES.

     ------------------------------------------
     THE POINT GROUP IS CNV, NAXIS= 2, ORDER= 4
     ------------------------------------------

 -- VARIATIONAL SPACE WILL BE RESTRICTED TO PURE SPHERICAL HARMONICS ONLY --
 AFTER EXCLUDING CONTAMINANT COMBINATIONS FROM THE CARTESIAN GAUSSIAN BASIS
 SET, THE NUMBER OF SPHERICAL HARMONICS KEPT IN THE VARIATION SPACE IS   46

     DIMENSIONS OF THE SYMMETRY SUBSPACES ARE
 A1  =   19     A2  =    5     B1  =   14     B2  =    8

 ..... DONE SETTING UP THE RUN .....
 STEP CPU TIME =     0.01 TOTAL CPU TIME =        0.0 (    0.0 MIN)
 TOTAL WALL CLOCK TIME=        0.0 SECONDS, CPU UTILIZATION IS  50.00%

          ********************
          1 ELECTRON INTEGRALS
          ********************
 ...... END OF ONE-ELECTRON INTEGRALS ......
 STEP CPU TIME =     0.00 TOTAL CPU TIME =        0.0 (    0.0 MIN)
 TOTAL WALL CLOCK TIME=        0.0 SECONDS, CPU UTILIZATION IS  33.33%

          -------------
          GUESS OPTIONS
          -------------
          GUESS =HUCKEL            NORB  =       0          NORDER=       0
          MIX   =       F          PRTMO =       F          PUNMO =       F
          TOLZ  = 1.0E-08          TOLE  = 1.0E-05
          SYMDEN=       F          PURIFY=       F

 INITIAL GUESS ORBITALS GENERATED BY HUCKEL   ROUTINE.
 HUCKEL GUESS REQUIRES     21583 WORDS.

 STATISTICS FOR GENERATION OF SYMMETRY ORBITAL -Q- MATRIX
 NUMBER OF CARTESIAN ATOMIC ORBITALS=         49
 NUMBER OF SPHERICAL CONTAMINANTS DROPPED=     3
 NUMBER OF LINEARLY DEPENDENT MOS DROPPED=     0
 TOTAL NUMBER OF MOS IN VARIATION SPACE=      46

 SYMMETRIES FOR INITIAL GUESS ORBITALS FOLLOW.   BOTH SET(S).
    16 ORBITALS ARE OCCUPIED (    7 CORE ORBITALS).
     8=?A1      9=?B1     10=?A1     11=B2      12=B1      13=A1      14=A2  
    15=B1      16=A1      17=B2      18=A1      19=B1      20=A1      21=A1  
    22=A1      23=A1      24=A1      25=A1      26=A1  
 ...... END OF INITIAL ORBITAL SELECTION ......
 STEP CPU TIME =     0.01 TOTAL CPU TIME =        0.0 (    0.0 MIN)
 TOTAL WALL CLOCK TIME=        0.0 SECONDS, CPU UTILIZATION IS  66.67%

                    ----------------------
                    AO INTEGRAL TECHNOLOGY
                    ----------------------
     S,P,L SHELL ROTATED AXIS INTEGRALS, REPROGRAMMED BY
        KAZUYA ISHIMURA (IMS) AND JOSE SIERRA (SYNSTAR).
     S,P,D,L SHELL ROTATED AXIS INTEGRALS PROGRAMMED BY
        KAZUYA ISHIMURA (INSTITUTE FOR MOLECULAR SCIENCE).
     S,P,D,F,G SHELL TO TOTAL QUARTET ANGULAR MOMENTUM SUM 5,
        ERIC PROGRAM BY GRAHAM FLETCHER (ELORET AND NASA ADVANCED
        SUPERCOMPUTING DIVISION, AMES RESEARCH CENTER).
     S,P,D,F,G,L SHELL GENERAL RYS QUADRATURE PROGRAMMED BY
        MICHEL DUPUIS (PACIFIC NORTHWEST NATIONAL LABORATORY).

          --------------------
          2 ELECTRON INTEGRALS
          --------------------

 THE -PK- OPTION IS OFF, THE INTEGRALS ARE NOT IN SUPERMATRIX FORM.
 STORING   15000 INTEGRALS/RECORD ON DISK, USING 12 BYTES/INTEGRAL.
 TWO ELECTRON INTEGRAL EVALUATION REQUIRES   90606 WORDS OF MEMORY.
 II,JST,KST,LST =  1  1  1  1 NREC =         1 INTLOC =    1
 II,JST,KST,LST =  2  1  1  1 NREC =         1 INTLOC =    2
 II,JST,KST,LST =  3  1  1  1 NREC =         1 INTLOC =    7
 II,JST,KST,LST =  4  1  1  1 NREC =         1 INTLOC =   22
 II,JST,KST,LST =  5  1  1  1 NREC =         1 INTLOC =   56
 II,JST,KST,LST =  6  1  1  1 NREC =         1 INTLOC =  125
 II,JST,KST,LST =  7  1  1  1 NREC =         1 INTLOC =  329
 II,JST,KST,LST =  8  1  1  1 NREC =         1 INTLOC =  776
 II,JST,KST,LST =  9  1  1  1 NREC =         1 INTLOC = 2864
 II,JST,KST,LST = 10  1  1  1 NREC =         1 INTLOC = 2864
 II,JST,KST,LST = 11  1  1  1 NREC =         1 INTLOC = 2864
 II,JST,KST,LST = 12  1  1  1 NREC =         1 INTLOC = 2864
 II,JST,KST,LST = 13  1  1  1 NREC =         1 INTLOC = 2864
 II,JST,KST,LST = 14  1  1  1 NREC =         1 INTLOC = 2864
 II,JST,KST,LST = 15  1  1  1 NREC =         1 INTLOC = 2864
 II,JST,KST,LST = 16  1  1  1 NREC =         1 INTLOC = 4980
 II,JST,KST,LST = 17  1  1  1 NREC =         1 INTLOC = 8107
 II,JST,KST,LST = 18  1  1  1 NREC =         1 INTLOC =12507
 II,JST,KST,LST = 19  1  1  1 NREC =         2 INTLOC =14785
 II,JST,KST,LST = 20  1  1  1 NREC =         5 INTLOC =  690
 TOTAL NUMBER OF NONZERO TWO-ELECTRON INTEGRALS =              172976
         12 INTEGRAL RECORDS WERE STORED ON DISK FILE  8.
  ...... END OF TWO-ELECTRON INTEGRALS .....
 STEP CPU TIME =     0.15 TOTAL CPU TIME =        0.2 (    0.0 MIN)
 TOTAL WALL CLOCK TIME=        0.2 SECONDS, CPU UTILIZATION IS  89.47%

          --------------------------
               R-PBE SCF CALCULATION
          --------------------------

     NUCLEAR ENERGY =        91.8479836752
     MAXIT =   30     NPUNCH=    2
     EXTRAP=T  DAMP=F  SHIFT=F  RSTRCT=F  DIIS=T  DEM=F  SOSCF=F
         DENSITY MATRIX CONVERGENCE THRESHOLD=  1.00E-05
     COARSE -> FINE DFT GRID SWITCH THRESHOLD=  3.00E-04 (SWITCH IN $DFT)
                   HF -> DFT SWITCH THRESHOLD=  5.00E-03 (SWOFF IN $DFT)
     MEMORY REQUIRED FOR RHF ITERS=    183108 WORDS.

 DFT CODE IS SWITCHING FROM THE FINE GRID NRAD= 96,  NLEB=  302
                      TO THE COARSE GRID NRAD0= 24, NLEB0=  110

     EXCHANGE FUNCTIONAL   =PBE       
     CORRELATION FUNCTIONAL=PBE       
     DFT THRESHOLD         =.460E-07
     GRID CHANGE THRESHOLD =.300E-03
 FOR AN EULER-MACLAURIN QUADRATURE USING  96 RADIAL POINTS:
 SMALLEST GAUSSIAN PRIMITIVE EXPONENT=        0.1313100000 OF TYPE -P-
 ON ATOM NUMBER   1 HAS RADIAL NORMALIZATION=  1.000000
  LARGEST GAUSSIAN PRIMITIVE EXPONENT=    55510.0000000000 OF TYPE -S-
 ON ATOM NUMBER   1 HAS RADIAL NORMALIZATION=  0.999999
 DFT IS SWITCHED OFF, PERFORMING PURE SCF UNTIL SWOFF THRESHOLD IS REACHED.

 ITER EX DEM     TOTAL ENERGY        E CHANGE  DENSITY CHANGE    DIIS ERROR
   1  0  0     -545.9708432486  -545.9708432486   0.503551984   1.200049428
          * * *   INITIATING DIIS PROCEDURE   * * *
   2  1  0     -546.4190726615    -0.4482294129   0.573905504   0.455862045
   3  2  0     -546.3590499934     0.0600226682   0.280341671   0.474757823
   4  3  0     -546.9867608527    -0.6277108593   0.027541181   0.015221391
   5  4  0     -546.9880741455    -0.0013132928   0.007147875   0.007313409
   6  5  0     -546.9883745492    -0.0003004036   0.003857141   0.004039120
 CONVERGED TO SWOFF, SO DFT CALCULATION IS NOW SWITCHED ON.
          * * *   INITIATING DIIS PROCEDURE   * * *
   7  6  0     -548.1554622381    -1.1670876889   0.359691987   0.110241644
   8  7  0     -548.1251370211     0.0303252169   0.321659905   0.165403853
   9  8  0     -548.1386185427    -0.0134815216   0.100184981   0.179105023
  10  9  0     -548.2016926666    -0.0630741239   0.018006304   0.012555191
  11 10  0     -548.2024143085    -0.0007216419   0.001156008   0.001647616
  12 11  0     -548.2024212772    -0.0000069686   0.000561525   0.000602958
  13 12  0     -548.2024221477    -0.0000008706   0.000056633   0.000043121
 DFT CODE IS SWITCHING BACK TO THE FINE GRID
          * * *   INITIATING DIIS PROCEDURE   * * *
  14 13  0     -548.2084513682    -0.0060292204   0.016497066   0.010102293
  15 14  0     -548.2085443187    -0.0000929505   0.021798487   0.010859600
  16 15  0     -548.2081612015     0.0003831172   0.014244080   0.017313075
  17 16  0     -548.2087972400    -0.0006360384   0.000300800   0.000588922
  18 17  0     -548.2087978623    -0.0000006224   0.000125164   0.000088959
  19 18  0     -548.2087979046    -0.0000000422   0.000034512   0.000015690
  20 19  0     -548.2087979052    -0.0000000006   0.000007368   0.000006703
  21 20  0     -548.2087979053    -0.0000000001   0.000000492   0.000000304

          -----------------
          DENSITY CONVERGED
          -----------------
     TIME TO FORM FOCK OPERATORS=       4.2 SECONDS (       0.2 SEC/ITER)
     TIME TO SOLVE SCF EQUATIONS=       0.0 SECONDS (       0.0 SEC/ITER)

 FINAL R-PBE ENERGY IS     -548.2087979053 AFTER  21 ITERATIONS
 DFT EXCHANGE + CORRELATION ENERGY =       -42.2635499088
 TOTAL ELECTRON NUMBER             =        31.9999811189

          ------------
          EIGENVECTORS
          ------------

                      1          2          3          4          5
                  -88.2239   -18.8197   -18.8196    -7.8454    -5.8664
                     A1         A1         B1         A1         B1  
    1  S  1  S    1.002979  -0.000079   0.000000  -0.274107   0.000000
    2  S  1  S   -0.010273  -0.001188   0.000000   1.039558   0.000000
    3  S  1  S    0.001791  -0.002235   0.000000   0.040646   0.000000
    4  S  1  S   -0.000951   0.009242   0.000000  -0.012470   0.000000
    5  S  1  X    0.000000   0.000000   0.000108   0.000000   0.996833
    6  S  1  Y    0.000000   0.000000   0.000000   0.000000   0.000000
    7  S  1  Z    0.000056  -0.000120   0.000000   0.008522   0.000000
    8  S  1  X    0.000000   0.000000  -0.001030   0.000000   0.009043
    9  S  1  Y    0.000000   0.000000   0.000000   0.000000   0.000000
   10  S  1  Z    0.000032   0.000874   0.000000   0.000807   0.000000
   11  S  1  X    0.000000   0.000000  -0.004195   0.000000  -0.000194
   12  S  1  Y    0.000000   0.000000   0.000000   0.000000   0.000000
   13  S  1  Z   -0.000077   0.004221   0.000000  -0.000795   0.000000
   14  S  1 XX    0.000014   0.001021   0.000000   0.000376   0.000000
   15  S  1 YY   -0.000006  -0.001244   0.000000  -0.000204   0.000000
   16  S  1 ZZ   -0.000008   0.000223   0.000000  -0.000172   0.000000
   17  S  1 XY    0.000000   0.000000   0.000000   0.000000   0.000000
   18  S  1 XZ    0.000000   0.000000  -0.001243   0.000000   0.000493
   19  S  1 YZ    0.000000   0.000000   0.000000   0.000000   0.000000
   20  O  2  S    0.000002   0.703289   0.703241   0.000026   0.000088
   21  O  2  S   -0.000002   0.025642   0.025105  -0.000071   0.000047
   22  O  2  S    0.000087  -0.012223  -0.010637   0.000795  -0.000088
   23  O  2  X   -0.000002   0.000797   0.000699  -0.000169  -0.000065
   24  O  2  Y    0.000000   0.000000   0.000000   0.000000   0.000000
   25  O  2  Z   -0.000004  -0.000456  -0.000591   0.000067   0.000046
   26  O  2  X   -0.000017  -0.003221  -0.001796  -0.000292  -0.000068
   27  O  2  Y    0.000000   0.000000   0.000000   0.000000   0.000000
   28  O  2  Z    0.000038   0.001440   0.001856   0.000461   0.000057
   29  O  2 XX   -0.000040  -0.000344  -0.000133  -0.000378  -0.000115
   30  O  2 YY    0.000043   0.000249   0.000212   0.000409   0.000134
   31  O  2 ZZ   -0.000003   0.000094  -0.000079  -0.000030  -0.000019
   32  O  2 XY    0.000000   0.000000   0.000000   0.000000   0.000000
   33  O  2 XZ    0.000071   0.000344   0.000320   0.000676   0.000220
   34  O  2 YZ    0.000000   0.000000   0.000000   0.000000   0.000000
   35  O  3  S    0.000002   0.703289  -0.703241   0.000026  -0.000088
   36  O  3  S   -0.000002   0.025642  -0.025105  -0.000071  -0.000047
   37  O  3  S    0.000087  -0.012223   0.010637   0.000795   0.000088
   38  O  3  X    0.000002  -0.000797   0.000699   0.000169  -0.000065
   39  O  3  Y    0.000000   0.000000   0.000000   0.000000   0.000000
   40  O  3  Z   -0.000004  -0.000456   0.000591   0.000067  -0.000046
   41  O  3  X    0.000017   0.003221  -0.001796   0.000292  -0.000068
   42  O  3  Y    0.000000   0.000000   0.000000   0.000000   0.000000
   43  O  3  Z    0.000038   0.001440  -0.001856   0.000461  -0.000057
   44  O  3 XX   -0.000040  -0.000344   0.000133  -0.000378   0.000115
   45  O  3 YY    0.000043   0.000249  -0.000212   0.000409  -0.000134
   46  O  3 ZZ   -0.000003   0.000094   0.000079  -0.000030   0.000019
   47  O  3 XY    0.000000   0.000000   0.000000   0.000000   0.000000
   48  O  3 XZ   -0.000071  -0.000344   0.000320  -0.000676   0.000220
   49  O  3 YZ    0.000000   0.000000   0.000000   0.000000   0.000000

                      6          7          8          9         10
                   -5.8646    -5.8618    -0.9553    -0.8943    -0.6397
                     B2         A1         A1         B1         A1  
    1  S  1  S    0.000000   0.002323   0.045017   0.000000   0.072891
    2  S  1  S    0.000000  -0.009028  -0.129092   0.000000  -0.206163
    3  S  1  S    0.000000  -0.000390   0.268202   0.000000   0.458683
    4  S  1  S    0.000000  -0.000208   0.169000   0.000000   0.433038
    5  S  1  X    0.000000   0.000000   0.000000   0.084990   0.000000
    6  S  1  Y    0.996900   0.000000   0.000000   0.000000   0.000000
    7  S  1  Z    0.000000   0.996904  -0.048481   0.000000   0.033523
    8  S  1  X    0.000000   0.000000   0.000000  -0.171288   0.000000
    9  S  1  Y    0.008910   0.000000   0.000000   0.000000   0.000000
   10  S  1  Z    0.000000   0.008723   0.096993   0.000000  -0.067287
   11  S  1  X    0.000000   0.000000   0.000000  -0.031314   0.000000
   12  S  1  Y   -0.000183   0.000000   0.000000   0.000000   0.000000
   13  S  1  Z    0.000000  -0.000237   0.006240   0.000000  -0.052979
   14  S  1 XX    0.000000  -0.000287   0.025648   0.000000  -0.008827
   15  S  1 YY    0.000000  -0.000185  -0.024558   0.000000   0.012912
   16  S  1 ZZ    0.000000   0.000472  -0.001090   0.000000  -0.004085
   17  S  1 XY    0.000000   0.000000   0.000000   0.000000   0.000000
   18  S  1 XZ    0.000000   0.000000   0.000000  -0.052338   0.000000
   19  S  1 YZ    0.000389   0.000000   0.000000   0.000000   0.000000
   20  O  2  S    0.000000  -0.000073  -0.127664  -0.151741   0.097007
   21  O  2  S    0.000000  -0.000118   0.253544   0.308195  -0.201744
   22  O  2  S    0.000000   0.000299   0.313034   0.383032  -0.303269
   23  O  2  X    0.000000   0.000068   0.076003   0.061113   0.081579
   24  O  2  Y    0.000008   0.000000   0.000000   0.000000   0.000000
   25  O  2  Z    0.000000  -0.000034  -0.050557  -0.049359  -0.065290
   26  O  2  X    0.000000   0.000152   0.037964   0.028864   0.037182
   27  O  2  Y   -0.000052   0.000000   0.000000   0.000000   0.000000
   28  O  2  Z    0.000000  -0.000189  -0.025068  -0.024928  -0.026874
   29  O  2 XX    0.000000   0.000118   0.006901   0.002762   0.003226
   30  O  2 YY    0.000000  -0.000129  -0.005030  -0.002161  -0.004795
   31  O  2 ZZ    0.000000   0.000010  -0.001871  -0.000601   0.001568
   32  O  2 XY   -0.000004   0.000000   0.000000   0.000000   0.000000
   33  O  2 XZ    0.000000  -0.000224  -0.011114  -0.008500  -0.005700
   34  O  2 YZ   -0.000002   0.000000   0.000000   0.000000   0.000000
   35  O  3  S    0.000000  -0.000073  -0.127664   0.151741   0.097007
   36  O  3  S    0.000000  -0.000118   0.253544  -0.308195  -0.201744
   37  O  3  S    0.000000   0.000299   0.313034  -0.383032  -0.303269
   38  O  3  X    0.000000  -0.000068  -0.076003   0.061113  -0.081579
   39  O  3  Y    0.000008   0.000000   0.000000   0.000000   0.000000
   40  O  3  Z    0.000000  -0.000034  -0.050557   0.049359  -0.065290
   41  O  3  X    0.000000  -0.000152  -0.037964   0.028864  -0.037182
   42  O  3  Y   -0.000052   0.000000   0.000000   0.000000   0.000000
   43  O  3  Z    0.000000  -0.000189  -0.025068   0.024928  -0.026874
   44  O  3 XX    0.000000   0.000118   0.006901  -0.002762   0.003226
   45  O  3 YY    0.000000  -0.000129  -0.005030   0.002161  -0.004795
   46  O  3 ZZ    0.000000   0.000010  -0.001871   0.000601   0.001568
   47  O  3 XY    0.000004   0.000000   0.000000   0.000000   0.000000
   48  O  3 XZ    0.000000   0.000224   0.011114  -0.008500   0.005700
   49  O  3 YZ   -0.000002   0.000000   0.000000   0.000000   0.000000

                     11         12         13         14         15
                   -0.4278    -0.4055    -0.3979    -0.3053    -0.2901
                     B1         A1         B2         A2         A1  
    1  S  1  S    0.000000  -0.009659   0.000000   0.000000   0.013812
    2  S  1  S    0.000000   0.050384   0.000000   0.000000  -0.061254
    3  S  1  S    0.000000  -0.030830   0.000000   0.000000   0.061247
    4  S  1  S    0.000000  -0.235966   0.000000   0.000000   0.293267
    5  S  1  X   -0.183839   0.000000   0.000000   0.000000   0.000000
    6  S  1  Y    0.000000   0.000000  -0.212110   0.000000   0.000000
    7  S  1  Z    0.000000  -0.208531   0.000000   0.000000   0.062007
    8  S  1  X    0.435407   0.000000   0.000000   0.000000   0.000000
    9  S  1  Y    0.000000   0.000000   0.499884   0.000000   0.000000
   10  S  1  Z    0.000000   0.490906   0.000000   0.000000  -0.151534
   11  S  1  X    0.141412   0.000000   0.000000   0.000000   0.000000
   12  S  1  Y    0.000000   0.000000   0.315168   0.000000   0.000000
   13  S  1  Z    0.000000   0.238275   0.000000   0.000000  -0.032374
   14  S  1 XX    0.000000  -0.012717   0.000000   0.000000  -0.107843
   15  S  1 YY    0.000000  -0.021075   0.000000   0.000000   0.036403
   16  S  1 ZZ    0.000000   0.033792   0.000000   0.000000   0.071441
   17  S  1 XY    0.000000   0.000000   0.000000  -0.085836   0.000000
   18  S  1 XZ    0.042410   0.000000   0.000000   0.000000   0.000000
   19  S  1 YZ    0.000000   0.000000   0.035725   0.000000   0.000000
   20  O  2  S   -0.056770   0.031126   0.000000   0.000000  -0.002439
   21  O  2  S    0.114980  -0.064016   0.000000   0.000000   0.007518
   22  O  2  S    0.213351  -0.115223   0.000000   0.000000  -0.018509
   23  O  2  X   -0.244996   0.303095   0.000000   0.000000   0.038736
   24  O  2  Y    0.000000   0.000000   0.283513   0.473016   0.000000
   25  O  2  Z    0.254946   0.017914   0.000000   0.000000   0.456017
   26  O  2  X   -0.144076   0.194914   0.000000   0.000000   0.025744
   27  O  2  Y    0.000000   0.000000   0.174256   0.336635   0.000000
   28  O  2  Z    0.153207   0.009974   0.000000   0.000000   0.335165
   29  O  2 XX   -0.001917   0.015845   0.000000   0.000000   0.006809
   30  O  2 YY    0.007451  -0.005946   0.000000   0.000000   0.003684
   31  O  2 ZZ   -0.005533  -0.009899   0.000000   0.000000  -0.010494
   32  O  2 XY    0.000000   0.000000   0.014080   0.012358   0.000000
   33  O  2 XZ    0.012408  -0.003940   0.000000   0.000000   0.010077
   34  O  2 YZ    0.000000   0.000000  -0.009712  -0.010127   0.000000
   35  O  3  S    0.056770   0.031126   0.000000   0.000000  -0.002439
   36  O  3  S   -0.114980  -0.064016   0.000000   0.000000   0.007518
   37  O  3  S   -0.213351  -0.115223   0.000000   0.000000  -0.018509
   38  O  3  X   -0.244996  -0.303095   0.000000   0.000000  -0.038736
   39  O  3  Y    0.000000   0.000000   0.283513  -0.473016   0.000000
   40  O  3  Z   -0.254946   0.017914   0.000000   0.000000   0.456017
   41  O  3  X   -0.144076  -0.194914   0.000000   0.000000  -0.025744
   42  O  3  Y    0.000000   0.000000   0.174256  -0.336635   0.000000
   43  O  3  Z   -0.153207   0.009974   0.000000   0.000000   0.335165
   44  O  3 XX    0.001917   0.015845   0.000000   0.000000   0.006809
   45  O  3 YY   -0.007451  -0.005946   0.000000   0.000000   0.003684
   46  O  3 ZZ    0.005533  -0.009899   0.000000   0.000000  -0.010494
   47  O  3 XY    0.000000   0.000000  -0.014080   0.012358   0.000000
   48  O  3 XZ    0.012408   0.003940   0.000000   0.000000  -0.010077
   49  O  3 YZ    0.000000   0.000000  -0.009712   0.010127   0.000000

                     16         17         18         19         20
                   -0.2828    -0.2187    -0.0794    -0.0727     0.3436
                     B1         B2         A1         B1         B1  
    1  S  1  S    0.000000   0.000000   0.030629   0.000000   0.000000
    2  S  1  S    0.000000   0.000000  -0.093693   0.000000   0.000000
    3  S  1  S    0.000000   0.000000   0.199683   0.000000   0.000000
    4  S  1  S    0.000000   0.000000   0.514011   0.000000   0.000000
    5  S  1  X   -0.016347   0.000000   0.000000  -0.208366   0.286924
    6  S  1  Y    0.000000  -0.199266   0.000000   0.000000   0.000000
    7  S  1  Z    0.000000   0.000000  -0.185814   0.000000   0.000000
    8  S  1  X    0.032022   0.000000   0.000000   0.529643  -1.092550
    9  S  1  Y    0.000000   0.498061   0.000000   0.000000   0.000000
   10  S  1  Z    0.000000   0.000000   0.478927   0.000000   0.000000
   11  S  1  X    0.136008   0.000000   0.000000   0.780706   1.471981
   12  S  1  Y    0.000000   0.383684   0.000000   0.000000   0.000000
   13  S  1  Z    0.000000   0.000000   0.630277   0.000000   0.000000
   14  S  1 XX    0.000000   0.000000  -0.088962   0.000000   0.000000
   15  S  1 YY    0.000000   0.000000   0.133490   0.000000   0.000000
   16  S  1 ZZ    0.000000   0.000000  -0.044529   0.000000   0.000000
   17  S  1 XY    0.000000   0.000000   0.000000   0.000000   0.000000
   18  S  1 XZ   -0.075757   0.000000   0.000000  -0.171885  -0.022514
   19  S  1 YZ    0.000000  -0.053478   0.000000   0.000000   0.000000
   20  O  2  S   -0.002547   0.000000   0.040273  -0.039134  -0.010969
   21  O  2  S    0.002791   0.000000  -0.074076   0.066820  -0.034936
   22  O  2  S    0.043972   0.000000  -0.310266   0.344145   0.447915
   23  O  2  X    0.377930   0.000000  -0.381778   0.130702  -0.224783
   24  O  2  Y    0.000000  -0.395935   0.000000   0.000000   0.000000
   25  O  2  Z    0.293304   0.000000   0.063555  -0.313216   0.067677
   26  O  2  X    0.265224   0.000000  -0.369230   0.147478   0.074730
   27  O  2  Y    0.000000  -0.307690   0.000000   0.000000   0.000000
   28  O  2  Z    0.195315   0.000000   0.061160  -0.289029  -0.145126
   29  O  2 XX    0.012669   0.000000   0.002906   0.003761   0.017432
   30  O  2 YY   -0.000489   0.000000   0.002322   0.001278  -0.021225
   31  O  2 ZZ   -0.012181   0.000000  -0.005228  -0.005039   0.003793
   32  O  2 XY    0.000000  -0.002424   0.000000   0.000000   0.000000
   33  O  2 XZ    0.001041   0.000000   0.001962   0.000936  -0.037461
   34  O  2 YZ    0.000000   0.001074   0.000000   0.000000   0.000000
   35  O  3  S    0.002547   0.000000   0.040273   0.039134   0.010969
   36  O  3  S   -0.002791   0.000000  -0.074076  -0.066820   0.034936
   37  O  3  S   -0.043972   0.000000  -0.310266  -0.344145  -0.447915
   38  O  3  X    0.377930   0.000000   0.381778   0.130702  -0.224783
   39  O  3  Y    0.000000  -0.395935   0.000000   0.000000   0.000000
   40  O  3  Z   -0.293304   0.000000   0.063555   0.313216  -0.067677
   41  O  3  X    0.265224   0.000000   0.369230   0.147478   0.074730
   42  O  3  Y    0.000000  -0.307690   0.000000   0.000000   0.000000
   43  O  3  Z   -0.195315   0.000000   0.061160   0.289029   0.145126
   44  O  3 XX   -0.012669   0.000000   0.002906  -0.003761  -0.017432
   45  O  3 YY    0.000489   0.000000   0.002322  -0.001278   0.021225
   46  O  3 ZZ    0.012181   0.000000  -0.005228   0.005039  -0.003793
   47  O  3 XY    0.000000   0.002424   0.000000   0.000000   0.000000
   48  O  3 XZ    0.001041   0.000000  -0.001962   0.000936  -0.037461
   49  O  3 YZ    0.000000   0.001074   0.000000   0.000000   0.000000

                     21         22         23         24         25
                    0.3467     0.3591     0.3966     0.4804     0.4926
                     A1         B2         A1         A2         A1  
    1  S  1  S   -0.000951   0.000000  -0.108685   0.000000   0.003660
    2  S  1  S   -0.059309   0.000000  -0.398720   0.000000   0.010016
    3  S  1  S   -0.083061   0.000000  -1.685999   0.000000   0.052553
    4  S  1  S    0.409204   0.000000   2.091743   0.000000  -0.055826
    5  S  1  X    0.000000   0.000000   0.000000   0.000000   0.000000
    6  S  1  Y    0.000000   0.289399   0.000000   0.000000   0.000000
    7  S  1  Z    0.277174   0.000000  -0.030653   0.000000   0.074227
    8  S  1  X    0.000000   0.000000   0.000000   0.000000   0.000000
    9  S  1  Y    0.000000  -1.120954   0.000000   0.000000   0.000000
   10  S  1  Z   -1.064898   0.000000   0.109969   0.000000  -0.287842
   11  S  1  X    0.000000   0.000000   0.000000   0.000000   0.000000
   12  S  1  Y    0.000000   1.231497   0.000000   0.000000   0.000000
   13  S  1  Z    1.392541   0.000000   0.156679   0.000000   0.245574
   14  S  1 XX    0.122836   0.000000  -0.270141   0.000000  -0.456669
   15  S  1 YY    0.115216   0.000000   0.310760   0.000000  -0.365105
   16  S  1 ZZ   -0.238052   0.000000  -0.040618   0.000000   0.821773
   17  S  1 XY    0.000000   0.000000   0.000000   0.886246   0.000000
   18  S  1 XZ    0.000000   0.000000   0.000000   0.000000   0.000000
   19  S  1 YZ    0.000000  -0.211362   0.000000   0.000000   0.000000
   20  O  2  S    0.013485   0.000000   0.017705   0.000000  -0.001073
   21  O  2  S    0.018575   0.000000  -0.042239   0.000000   0.000878
   22  O  2  S   -0.370966   0.000000  -0.282067   0.000000  -0.024739
   23  O  2  X    0.126256   0.000000   0.049785   0.000000  -0.175596
   24  O  2  Y    0.000000  -0.050022   0.000000   0.306985   0.000000
   25  O  2  Z   -0.085501   0.000000  -0.116554   0.000000  -0.303868
   26  O  2  X   -0.217007   0.000000  -0.159720   0.000000   0.103127
   27  O  2  Y    0.000000  -0.114124   0.000000  -0.148747   0.000000
   28  O  2  Z   -0.010640   0.000000   0.113760   0.000000   0.126982
   29  O  2 XX   -0.033810   0.000000  -0.017397   0.000000   0.039218
   30  O  2 YY    0.018903   0.000000   0.029807   0.000000  -0.004690
   31  O  2 ZZ    0.014907   0.000000  -0.012409   0.000000  -0.034529
   32  O  2 XY    0.000000  -0.018421   0.000000  -0.037602   0.000000
   33  O  2 XZ    0.015074   0.000000   0.041221   0.000000   0.028349
   34  O  2 YZ    0.000000   0.008722   0.000000   0.039624   0.000000
   35  O  3  S    0.013485   0.000000   0.017705   0.000000  -0.001073
   36  O  3  S    0.018575   0.000000  -0.042239   0.000000   0.000878
   37  O  3  S   -0.370966   0.000000  -0.282067   0.000000  -0.024739
   38  O  3  X   -0.126256   0.000000  -0.049785   0.000000   0.175596
   39  O  3  Y    0.000000  -0.050022   0.000000  -0.306985   0.000000
   40  O  3  Z   -0.085501   0.000000  -0.116554   0.000000  -0.303868
   41  O  3  X    0.217007   0.000000   0.159720   0.000000  -0.103127
   42  O  3  Y    0.000000  -0.114124   0.000000   0.148747   0.000000
   43  O  3  Z   -0.010640   0.000000   0.113760   0.000000   0.126982
   44  O  3 XX   -0.033810   0.000000  -0.017397   0.000000   0.039218
   45  O  3 YY    0.018903   0.000000   0.029807   0.000000  -0.004690
   46  O  3 ZZ    0.014907   0.000000  -0.012409   0.000000  -0.034529
   47  O  3 XY    0.000000   0.018421   0.000000  -0.037602   0.000000
   48  O  3 XZ   -0.015074   0.000000  -0.041221   0.000000  -0.028349
   49  O  3 YZ    0.000000   0.008722   0.000000  -0.039624   0.000000

                     26         27         28         29         30
                    0.4930     0.6479     0.6831     0.7960     0.8035
                     B2         A1         B1         A1         A2  
    1  S  1  S    0.000000  -0.034394   0.000000  -0.020538   0.000000
    2  S  1  S    0.000000  -0.229560   0.000000  -0.069272   0.000000
    3  S  1  S    0.000000  -0.661777   0.000000  -0.323033   0.000000
    4  S  1  S    0.000000   1.507300   0.000000  -0.001304   0.000000
    5  S  1  X    0.000000   0.000000  -0.054465   0.000000   0.000000
    6  S  1  Y    0.061185   0.000000   0.000000   0.000000   0.000000
    7  S  1  Z    0.000000  -0.041528   0.000000   0.012022   0.000000
    8  S  1  X    0.000000   0.000000   0.245368   0.000000   0.000000
    9  S  1  Y   -0.237321   0.000000   0.000000   0.000000   0.000000
   10  S  1  Z    0.000000   0.161620   0.000000  -0.098831   0.000000
   11  S  1  X    0.000000   0.000000   0.573761   0.000000   0.000000
   12  S  1  Y    0.198226   0.000000   0.000000   0.000000   0.000000
   13  S  1  Z    0.000000   0.474438   0.000000  -0.280326   0.000000
   14  S  1 XX    0.000000   0.697315   0.000000   0.516068   0.000000
   15  S  1 YY    0.000000  -0.845287   0.000000  -0.131566   0.000000
   16  S  1 ZZ    0.000000   0.147972   0.000000  -0.384502   0.000000
   17  S  1 XY    0.000000   0.000000   0.000000   0.000000   0.478032
   18  S  1 XZ    0.000000   0.000000   0.910479   0.000000   0.000000
   19  S  1 YZ    0.900589   0.000000   0.000000   0.000000   0.000000
   20  O  2  S    0.000000   0.060329  -0.060400  -0.003690   0.000000
   21  O  2  S    0.000000  -0.269355   0.269763   0.026833   0.000000
   22  O  2  S    0.000000  -0.294721   0.218568   0.027284   0.000000
   23  O  2  X    0.000000   0.131571  -0.092637  -0.544515   0.000000
   24  O  2  Y   -0.262572   0.000000   0.000000   0.000000  -0.573954
   25  O  2  Z    0.000000   0.007899   0.147095  -0.120109   0.000000
   26  O  2  X    0.000000  -0.592153   0.549974   0.711768   0.000000
   27  O  2  Y    0.125488   0.000000   0.000000   0.000000   0.756661
   28  O  2  Z    0.000000   0.287054  -0.481078   0.231512   0.000000
   29  O  2 XX    0.000000  -0.010108  -0.033980  -0.050770   0.000000
   30  O  2 YY    0.000000  -0.012372   0.013152   0.000491   0.000000
   31  O  2 ZZ    0.000000   0.022480   0.020828   0.050279   0.000000
   32  O  2 XY    0.038205   0.000000   0.000000   0.000000  -0.038055
   33  O  2 XZ    0.000000  -0.000919   0.025997  -0.002047   0.000000
   34  O  2 YZ   -0.007444   0.000000   0.000000   0.000000   0.031990
   35  O  3  S    0.000000   0.060329   0.060400  -0.003690   0.000000
   36  O  3  S    0.000000  -0.269355  -0.269763   0.026833   0.000000
   37  O  3  S    0.000000  -0.294721  -0.218568   0.027284   0.000000
   38  O  3  X    0.000000  -0.131571  -0.092637   0.544515   0.000000
   39  O  3  Y   -0.262572   0.000000   0.000000   0.000000   0.573954
   40  O  3  Z    0.000000   0.007899  -0.147095  -0.120109   0.000000
   41  O  3  X    0.000000   0.592153   0.549974  -0.711768   0.000000
   42  O  3  Y    0.125488   0.000000   0.000000   0.000000  -0.756661
   43  O  3  Z    0.000000   0.287054   0.481078   0.231512   0.000000
   44  O  3 XX    0.000000  -0.010108   0.033980  -0.050770   0.000000
   45  O  3 YY    0.000000  -0.012372  -0.013152   0.000491   0.000000
   46  O  3 ZZ    0.000000   0.022480  -0.020828   0.050279   0.000000
   47  O  3 XY   -0.038205   0.000000   0.000000   0.000000  -0.038055
   48  O  3 XZ    0.000000   0.000919   0.025997   0.002047   0.000000
   49  O  3 YZ   -0.007444   0.000000   0.000000   0.000000  -0.031990

                     31         32         33         34         35
                    0.8314     0.8340     0.8380     0.8929     1.5308
                     A1         B2         B1         B1         B1  
    1  S  1  S    0.030297   0.000000   0.000000   0.000000   0.000000
    2  S  1  S    0.123186   0.000000   0.000000   0.000000   0.000000
    3  S  1  S    0.502364   0.000000   0.000000   0.000000   0.000000
    4  S  1  S   -0.139541   0.000000   0.000000   0.000000   0.000000
    5  S  1  X    0.000000   0.000000   0.019410  -0.062648  -0.026366
    6  S  1  Y    0.000000  -0.027599   0.000000   0.000000   0.000000
    7  S  1  Z   -0.054626   0.000000   0.000000   0.000000   0.000000
    8  S  1  X    0.000000   0.000000  -0.136005   0.412872   0.152626
    9  S  1  Y    0.000000   0.141708   0.000000   0.000000   0.000000
   10  S  1  Z    0.331695   0.000000   0.000000   0.000000   0.000000
   11  S  1  X    0.000000   0.000000  -0.164987  -0.549511   0.948237
   12  S  1  Y    0.000000  -0.582313   0.000000   0.000000   0.000000
   13  S  1  Z   -0.433643   0.000000   0.000000   0.000000   0.000000
   14  S  1 XX    0.087059   0.000000   0.000000   0.000000   0.000000
   15  S  1 YY    0.245481   0.000000   0.000000   0.000000   0.000000
   16  S  1 ZZ   -0.332540   0.000000   0.000000   0.000000   0.000000
   17  S  1 XY    0.000000   0.000000   0.000000   0.000000   0.000000
   18  S  1 XZ    0.000000   0.000000   0.383738  -0.383951   0.385886
   19  S  1 YZ    0.000000  -0.393441   0.000000   0.000000   0.000000
   20  O  2  S    0.001551   0.000000  -0.001105   0.008536   0.012679
   21  O  2  S   -0.006618   0.000000  -0.025020   0.013117  -1.150430
   22  O  2  S    0.083499   0.000000   0.011901  -0.211297   1.619839
   23  O  2  X    0.182660   0.000000  -0.052083  -0.622166  -0.044174
   24  O  2  Y    0.000000  -0.587452   0.000000   0.000000   0.000000
   25  O  2  Z   -0.552728   0.000000  -0.614719   0.015329   0.078949
   26  O  2  X   -0.201374   0.000000   0.147096   0.716254   0.352100
   27  O  2  Y    0.000000   0.854548   0.000000   0.000000   0.000000
   28  O  2  Z    0.767401   0.000000   0.749156   0.076502  -0.412383
   29  O  2 XX   -0.001620   0.000000  -0.027569  -0.018556  -0.076483
   30  O  2 YY   -0.019984   0.000000   0.001657   0.025029   0.100596
   31  O  2 ZZ    0.021604   0.000000   0.025912  -0.006472  -0.024113
   32  O  2 XY    0.000000  -0.040940   0.000000   0.000000   0.000000
   33  O  2 XZ   -0.055558   0.000000  -0.006823   0.012115   0.163894
   34  O  2 YZ    0.000000   0.021044   0.000000   0.000000   0.000000
   35  O  3  S    0.001551   0.000000   0.001105  -0.008536  -0.012679
   36  O  3  S   -0.006618   0.000000   0.025020  -0.013117   1.150430
   37  O  3  S    0.083499   0.000000  -0.011901   0.211297  -1.619839
   38  O  3  X   -0.182660   0.000000  -0.052083  -0.622166  -0.044174
   39  O  3  Y    0.000000  -0.587452   0.000000   0.000000   0.000000
   40  O  3  Z   -0.552728   0.000000   0.614719  -0.015329  -0.078949
   41  O  3  X    0.201374   0.000000   0.147096   0.716254   0.352100
   42  O  3  Y    0.000000   0.854548   0.000000   0.000000   0.000000
   43  O  3  Z    0.767401   0.000000  -0.749156  -0.076502   0.412383
   44  O  3 XX   -0.001620   0.000000   0.027569   0.018556   0.076483
   45  O  3 YY   -0.019984   0.000000  -0.001657  -0.025029  -0.100596
   46  O  3 ZZ    0.021604   0.000000  -0.025912   0.006472   0.024113
   47  O  3 XY    0.000000   0.040940   0.000000   0.000000   0.000000
   48  O  3 XZ    0.055558   0.000000  -0.006823   0.012115   0.163894
   49  O  3 YZ    0.000000   0.021044   0.000000   0.000000   0.000000

                     36         37         38         39         40
                    1.6663     2.0875     2.0879     2.0891     2.0930
                     A1         A2         B1         B2         B1  
    1  S  1  S   -0.030745   0.000000   0.000000   0.000000   0.000000
    2  S  1  S   -0.299189   0.000000   0.000000   0.000000   0.000000
    3  S  1  S   -0.701156   0.000000   0.000000   0.000000   0.000000
    4  S  1  S    1.977133   0.000000   0.000000   0.000000   0.000000
    5  S  1  X    0.000000   0.000000   0.011172   0.000000  -0.017412
    6  S  1  Y    0.000000   0.000000   0.000000  -0.006697   0.000000
    7  S  1  Z   -0.016625   0.000000   0.000000   0.000000   0.000000
    8  S  1  X    0.000000   0.000000  -0.020797   0.000000   0.057654
    9  S  1  Y    0.000000   0.000000   0.000000   0.014479   0.000000
   10  S  1  Z    0.089275   0.000000   0.000000   0.000000   0.000000
   11  S  1  X    0.000000   0.000000  -0.132507   0.000000   0.101557
   12  S  1  Y    0.000000   0.000000   0.000000   0.036522   0.000000
   13  S  1  Z    0.877562   0.000000   0.000000   0.000000   0.000000
   14  S  1 XX    0.283023   0.000000   0.000000   0.000000   0.000000
   15  S  1 YY   -0.331842   0.000000   0.000000   0.000000   0.000000
   16  S  1 ZZ    0.048819   0.000000   0.000000   0.000000   0.000000
   17  S  1 XY    0.000000   0.031459   0.000000   0.000000   0.000000
   18  S  1 XZ    0.000000   0.000000   0.048646   0.000000  -0.047925
   19  S  1 YZ    0.000000   0.000000   0.000000   0.004098   0.000000
   20  O  2  S   -0.002353   0.000000  -0.000004   0.000000  -0.000203
   21  O  2  S    1.156118   0.000000   0.053409   0.000000  -0.074989
   22  O  2  S   -1.800684   0.000000  -0.097841   0.000000   0.118778
   23  O  2  X    0.068423   0.000000  -0.026225   0.000000  -0.002667
   24  O  2  Y    0.000000  -0.009645   0.000000   0.014082   0.000000
   25  O  2  Z   -0.004257   0.000000  -0.036214   0.000000   0.029661
   26  O  2  X   -0.607588   0.000000   0.028844   0.000000   0.020614
   27  O  2  Y    0.000000   0.014571   0.000000  -0.024500   0.000000
   28  O  2  Z    0.232493   0.000000   0.068510   0.000000  -0.059767
   29  O  2 XX    0.166838   0.000000   0.585620   0.000000  -0.180933
   30  O  2 YY   -0.114055   0.000000  -0.378982   0.000000  -0.496321
   31  O  2 ZZ   -0.052784   0.000000  -0.206638   0.000000   0.677254
   32  O  2 XY    0.000000   0.531583   0.000000   0.243438   0.000000
   33  O  2 XZ   -0.162983   0.000000   0.386764   0.000000   0.095064
   34  O  2 YZ    0.000000   0.466510   0.000000   0.664259   0.000000
   35  O  3  S   -0.002353   0.000000   0.000004   0.000000   0.000203
   36  O  3  S    1.156118   0.000000  -0.053409   0.000000   0.074989
   37  O  3  S   -1.800684   0.000000   0.097841   0.000000  -0.118778
   38  O  3  X   -0.068423   0.000000  -0.026225   0.000000  -0.002667
   39  O  3  Y    0.000000   0.009645   0.000000   0.014082   0.000000
   40  O  3  Z   -0.004257   0.000000   0.036214   0.000000  -0.029661
   41  O  3  X    0.607588   0.000000   0.028844   0.000000   0.020614
   42  O  3  Y    0.000000  -0.014571   0.000000  -0.024500   0.000000
   43  O  3  Z    0.232493   0.000000  -0.068510   0.000000   0.059767
   44  O  3 XX    0.166838   0.000000  -0.585620   0.000000   0.180933
   45  O  3 YY   -0.114055   0.000000   0.378982   0.000000   0.496321
   46  O  3 ZZ   -0.052784   0.000000   0.206638   0.000000  -0.677254
   47  O  3 XY    0.000000   0.531583   0.000000  -0.243438   0.000000
   48  O  3 XZ    0.162983   0.000000   0.386764   0.000000   0.095064
   49  O  3 YZ    0.000000  -0.466510   0.000000   0.664259   0.000000

                     41         42         43         44         45
                    2.0942     2.1486     2.1523     2.2473     2.4850
                     A1         B2         A2         A1         A1  
    1  S  1  S   -0.000483   0.000000   0.000000  -0.005316   0.014858
    2  S  1  S   -0.000078   0.000000   0.000000  -0.049902  -0.151335
    3  S  1  S   -0.005885   0.000000   0.000000  -0.119811  -0.013531
    4  S  1  S   -0.011477   0.000000   0.000000   0.311305   1.139721
    5  S  1  X    0.000000   0.000000   0.000000   0.000000   0.000000
    6  S  1  Y    0.000000   0.024212   0.000000   0.000000   0.000000
    7  S  1  Z    0.001480   0.000000   0.000000  -0.021051  -0.106428
    8  S  1  X    0.000000   0.000000   0.000000   0.000000   0.000000
    9  S  1  Y    0.000000  -0.048649   0.000000   0.000000   0.000000
   10  S  1  Z   -0.007111   0.000000   0.000000   0.042322   0.441923
   11  S  1  X    0.000000   0.000000   0.000000   0.000000   0.000000
   12  S  1  Y    0.000000  -0.157956   0.000000   0.000000   0.000000
   13  S  1  Z   -0.009489   0.000000   0.000000   0.287487   0.376903
   14  S  1 XX    0.022267   0.000000   0.000000  -0.250517   0.391969
   15  S  1 YY   -0.050160   0.000000   0.000000  -0.053841  -0.408300
   16  S  1 ZZ    0.027892   0.000000   0.000000   0.304358   0.016332
   17  S  1 XY    0.000000   0.000000  -0.279174   0.000000   0.000000
   18  S  1 XZ    0.000000   0.000000   0.000000   0.000000   0.000000
   19  S  1 YZ    0.000000  -0.215275   0.000000   0.000000   0.000000
   20  O  2  S    0.001201   0.000000   0.000000   0.001458   0.014458
   21  O  2  S   -0.016097   0.000000   0.000000   0.143819   0.597715
   22  O  2  S    0.014587   0.000000   0.000000  -0.266747  -1.043509
   23  O  2  X   -0.014003   0.000000   0.000000   0.038264   0.081433
   24  O  2  Y    0.000000  -0.051952   0.036524   0.000000   0.000000
   25  O  2  Z    0.001019   0.000000   0.000000   0.033934  -0.049072
   26  O  2  X    0.018733   0.000000   0.000000  -0.154622  -0.518648
   27  O  2  Y    0.000000   0.114138  -0.071957   0.000000   0.000000
   28  O  2  Z    0.000883   0.000000   0.000000  -0.069779   0.309126
   29  O  2 XX   -0.190680   0.000000   0.000000  -0.572535  -0.374155
   30  O  2 YY    0.608129   0.000000   0.000000  -0.006867   0.370691
   31  O  2 ZZ   -0.417449   0.000000   0.000000   0.579402   0.003463
   32  O  2 XY    0.000000   0.670431  -0.472014   0.000000   0.000000
   33  O  2 XZ   -0.336039   0.000000   0.000000  -0.272109   0.580753
   34  O  2 YZ    0.000000  -0.249366   0.534777   0.000000   0.000000
   35  O  3  S    0.001201   0.000000   0.000000   0.001458   0.014458
   36  O  3  S   -0.016097   0.000000   0.000000   0.143819   0.597715
   37  O  3  S    0.014587   0.000000   0.000000  -0.266747  -1.043509
   38  O  3  X    0.014003   0.000000   0.000000  -0.038264  -0.081433
   39  O  3  Y    0.000000  -0.051952  -0.036524   0.000000   0.000000
   40  O  3  Z    0.001019   0.000000   0.000000   0.033934  -0.049072
   41  O  3  X   -0.018733   0.000000   0.000000   0.154622   0.518648
   42  O  3  Y    0.000000   0.114138   0.071957   0.000000   0.000000
   43  O  3  Z    0.000883   0.000000   0.000000  -0.069779   0.309126
   44  O  3 XX   -0.190680   0.000000   0.000000  -0.572535  -0.374155
   45  O  3 YY    0.608129   0.000000   0.000000  -0.006867   0.370691
   46  O  3 ZZ   -0.417449   0.000000   0.000000   0.579402   0.003463
   47  O  3 XY    0.000000  -0.670431  -0.472014   0.000000   0.000000
   48  O  3 XZ    0.336039   0.000000   0.000000   0.272109  -0.580753
   49  O  3 YZ    0.000000  -0.249366  -0.534777   0.000000   0.000000

                     46
                    2.5839
                     B1  
    1  S  1  S    0.000000
    2  S  1  S    0.000000
    3  S  1  S    0.000000
    4  S  1  S    0.000000
    5  S  1  X   -0.149977
    6  S  1  Y    0.000000
    7  S  1  Z    0.000000
    8  S  1  X    0.621060
    9  S  1  Y    0.000000
   10  S  1  Z    0.000000
   11  S  1  X    0.374696
   12  S  1  Y    0.000000
   13  S  1  Z    0.000000
   14  S  1 XX    0.000000
   15  S  1 YY    0.000000
   16  S  1 ZZ    0.000000
   17  S  1 XY    0.000000
   18  S  1 XZ    0.607215
   19  S  1 YZ    0.000000
   20  O  2  S   -0.016309
   21  O  2  S   -0.485547
   22  O  2  S    0.845887
   23  O  2  X   -0.047408
   24  O  2  Y    0.000000
   25  O  2  Z    0.036506
   26  O  2  X    0.415416
   27  O  2  Y    0.000000
   28  O  2  Z   -0.320078
   29  O  2 XX    0.387801
   30  O  2 YY   -0.353284
   31  O  2 ZZ   -0.034517
   32  O  2 XY    0.000000
   33  O  2 XZ   -0.621519
   34  O  2 YZ    0.000000
   35  O  3  S    0.016309
   36  O  3  S    0.485547
   37  O  3  S   -0.845887
   38  O  3  X   -0.047408
   39  O  3  Y    0.000000
   40  O  3  Z   -0.036506
   41  O  3  X    0.415416
   42  O  3  Y    0.000000
   43  O  3  Z    0.320078
   44  O  3 XX   -0.387801
   45  O  3 YY    0.353284
   46  O  3 ZZ    0.034517
   47  O  3 XY    0.000000
   48  O  3 XZ   -0.621519
   49  O  3 YZ    0.000000
 ...... END OF RHF CALCULATION ......
 STEP CPU TIME =     4.28 TOTAL CPU TIME =        4.4 (    0.1 MIN)
 TOTAL WALL CLOCK TIME=        4.5 SECONDS, CPU UTILIZATION IS  99.78%

     ---------------------------------------------------------------------
     PROPERTIES FOR THE PBE      DFT FUNCTIONAL (RHF  TYPE) DENSITY MATRIX
     ---------------------------------------------------------------------

          -----------------
          ENERGY COMPONENTS
          -----------------

         WAVEFUNCTION NORMALIZATION =       1.0000000000

                ONE ELECTRON ENERGY =    -938.2900752814
                TWO ELECTRON ENERGY =     298.2332937010
           NUCLEAR REPULSION ENERGY =      91.8479836752
                                      ------------------
                       TOTAL ENERGY =    -548.2087979053

 ELECTRON-ELECTRON POTENTIAL ENERGY =     298.2332937010
  NUCLEUS-ELECTRON POTENTIAL ENERGY =   -1485.1649486440
   NUCLEUS-NUCLEUS POTENTIAL ENERGY =      91.8479836752
                                      ------------------
             TOTAL POTENTIAL ENERGY =   -1095.0836712679
               TOTAL KINETIC ENERGY =     546.8748733627
                 VIRIAL RATIO (V/T) =       2.0024391769

          ---------------------------------------
          MULLIKEN AND LOWDIN POPULATION ANALYSES
          ---------------------------------------

     ATOMIC MULLIKEN POPULATION IN EACH MOLECULAR ORBITAL

                      1          2          3          4          5

                  2.000000   2.000000   2.000000   2.000000   2.000000

    1             2.000001   0.001112   0.000707   2.000185   1.999961
    2            -0.000001   0.999444   0.999646  -0.000093   0.000020
    3            -0.000001   0.999444   0.999646  -0.000093   0.000020

                      6          7          8          9         10

                  2.000000   2.000000   2.000000   2.000000   2.000000

    1             2.000004   1.999946   0.594499   0.206937   1.229724
    2            -0.000002   0.000027   0.702750   0.896532   0.385138
    3            -0.000002   0.000027   0.702750   0.896532   0.385138

                     11         12         13         14         15

                  2.000000   2.000000   2.000000   2.000000   2.000000

    1             0.598795   1.025691   1.181904   0.042588   0.206679
    2             0.700602   0.487155   0.409048   0.978706   0.896660
    3             0.700602   0.487155   0.409048   0.978706   0.896660

                     16

                  2.000000

    1             0.096451
    2             0.951775
    3             0.951775

               ----- POPULATIONS IN EACH AO -----
                             MULLIKEN      LOWDIN
              1  S  1  S      2.00022     1.99597
              2  S  1  S      2.01030     1.97265
              3  S  1  S      1.00420     0.62968
              4  S  1  S      0.85418     0.54846
              5  S  1  X      1.99622     1.95288
              6  S  1  Y      1.99627     1.95628
              7  S  1  Z      1.99678     1.95925
              8  S  1  X      0.64348     0.59210
              9  S  1  Y      0.69189     0.66507
             10  S  1  Z      0.77812     0.74580
             11  S  1  X      0.19071     0.31204
             12  S  1  Y      0.48671     0.53291
             13  S  1  Z      0.32373     0.44887
             14  S  1 XX      0.03637     0.25371
             15  S  1 YY      0.05395     0.25305
             16  S  1 ZZ      0.04259     0.25367
             17  S  1 XY      0.07245     0.04949
             18  S  1 XZ      0.00703     0.09251
             19  S  1 YZ      0.00000     0.00674
             20  O  2  S      1.99805     1.98112
             21  O  2  S      0.85090     0.66792
             22  O  2  S      1.10721     0.59851
             23  O  2  X      0.87582     0.83631
             24  O  2  Y      0.82888     0.79732
             25  O  2  Z      1.00919     0.97685
             26  O  2  X      0.53615     0.60867
             27  O  2  Y      0.55557     0.59331
             28  O  2  Z      0.63315     0.69040
             29  O  2 XX      0.00192     0.20948
             30  O  2 YY      0.00281     0.21203
             31  O  2 ZZ      0.00216     0.20675
             32  O  2 XY      0.00446     0.00274
             33  O  2 XZ      0.00113     0.00664
             34  O  2 YZ      0.00000     0.00139
             35  O  3  S      1.99805     1.98112
             36  O  3  S      0.85090     0.66792
             37  O  3  S      1.10721     0.59851
             38  O  3  X      0.87582     0.83631
             39  O  3  Y      0.82888     0.79732
             40  O  3  Z      1.00919     0.97685
             41  O  3  X      0.53615     0.60867
             42  O  3  Y      0.55557     0.59331
             43  O  3  Z      0.63315     0.69040
             44  O  3 XX      0.00192     0.20948
             45  O  3 YY      0.00281     0.21203
             46  O  3 ZZ      0.00216     0.20675
             47  O  3 XY      0.00446     0.00274
             48  O  3 XZ      0.00113     0.00664
             49  O  3 YZ      0.00000     0.00139

          ----- MULLIKEN ATOMIC OVERLAP POPULATIONS -----
          (OFF-DIAGONAL ELEMENTS NEED TO BE MULTIPLIED BY 2)

             1           2           3

    1   14.6639929
    2    0.2605957   8.1782107
    3    0.2605957  -0.0313986   8.1782107

          TOTAL MULLIKEN AND LOWDIN ATOMIC POPULATIONS
       ATOM         MULL.POP.    CHARGE          LOW.POP.     CHARGE
    1 S            15.185184    0.814816        15.221137    0.778863
    2 O             8.407408   -0.407408         8.389432   -0.389432
    3 O             8.407408   -0.407408         8.389432   -0.389432

          MULLIKEN SPHERICAL HARMONIC POPULATIONS
       ATOM           S       P       D      F      G      H      I    TOTAL
    1 S             5.87    9.10    0.21   0.00   0.00   0.00   0.00   15.19
    2 O             3.96    4.44    0.01   0.00   0.00   0.00   0.00    8.41
    3 O             3.96    4.44    0.01   0.00   0.00   0.00   0.00    8.41

          -------------------------------
          BOND ORDER AND VALENCE ANALYSIS     BOND ORDER THRESHOLD=0.050
          -------------------------------

                   BOND                       BOND                       BOND
  ATOM PAIR DIST  ORDER      ATOM PAIR DIST  ORDER      ATOM PAIR DIST  ORDER
    1   2  1.700  1.636        1   3  1.700  1.636        2   3  2.785  0.455

                       TOTAL       BONDED        FREE
      ATOM            VALENCE     VALENCE     VALENCE
    1 S                 3.271       3.271       0.000
    2 O                 2.091       2.091       0.000
    3 O                 2.091       2.091       0.000

          ---------------------
          ELECTROSTATIC MOMENTS
          ---------------------

 POINT   1           X           Y           Z (BOHR)    CHARGE
                 0.000000    0.000000    0.000000        0.00 (A.U.)
         DX          DY          DZ         /D/  (DEBYE)
     0.000000    0.000000   -2.565744    2.565744
 ...... END OF PROPERTY EVALUATION ......
 STEP CPU TIME =     0.01 TOTAL CPU TIME =        4.5 (    0.1 MIN)
 TOTAL WALL CLOCK TIME=        4.5 SECONDS, CPU UTILIZATION IS  99.78%
               580000  WORDS OF DYNAMIC MEMORY USED
 EXECUTION OF GAMESS TERMINATED NORMALLY Thu Feb 26 00:19:15 2015
 DDI: 263624 bytes (0.3 MB / 0 MWords) used by master data server.

 ----------------------------------------
 CPU timing information for all processes
 ========================================
 0: 4.442 + 0.27 = 4.470
 ----------------------------------------
 ddikick.x: exited gracefully.
----- accounting info -----
Files used on the master node dftfe.crc.nd.edu were:
-rw-r--r-- 1 pmehta1 campus   37475 Feb 26 00:19 /tmp/gamess.dat
-rw-r--r-- 1 pmehta1 campus     142 Feb 26 00:19 /tmp/gamess.F05
-rw-r--r-- 1 pmehta1 campus 2160288 Feb 26 00:19 /tmp/gamess.F08
-rw-r--r-- 1 pmehta1 campus 1220440 Feb 26 00:19 /tmp/gamess.F10
Thu Feb 26 00:19:18 EST 2015
0.241u 0.177s 0:07.90 5.1%	0+0k 0+104io 0pf+0w
