----- GAMESS execution script 'rungms' -----
This job is running on host dftfe.crc.nd.edu
under operating system Linux at Thu Feb 26 00:16:55 EST 2015
Available scratch disk space (Kbyte units) at beginning of the job is
Filesystem     1K-blocks     Used Available Use% Mounted on
/dev/sda2      147771864 22813588 117451844  17% /
GAMESS temporary binary files will be written to /tmp
GAMESS supplementary output files will be written to /tmp
Copying input file gamess.inp to your run's scratch directory...

 Distributed Data Interface kickoff program.
 Initiating 1 compute processes on 1 nodes to run the following command:
 /opt/crc/gamess/2012R1/gamess/gamess.00.x gamess 

          ******************************************************
          *         GAMESS VERSION =  1 MAY 2012 (R1)          *
          *             FROM IOWA STATE UNIVERSITY             *
          * M.W.SCHMIDT, K.K.BALDRIDGE, J.A.BOATZ, S.T.ELBERT, *
          *   M.S.GORDON, J.H.JENSEN, S.KOSEKI, N.MATSUNAGA,   *
          *          K.A.NGUYEN, S.J.SU, T.L.WINDUS,           *
          *       TOGETHER WITH M.DUPUIS, J.A.MONTGOMERY       *
          *         J.COMPUT.CHEM.  14, 1347-1363(1993)        *
          **************** 64 BIT LINUX VERSION ****************

  SINCE 1993, STUDENTS AND POSTDOCS WORKING AT IOWA STATE UNIVERSITY
  AND ALSO IN THEIR VARIOUS JOBS AFTER LEAVING ISU HAVE MADE IMPORTANT
  CONTRIBUTIONS TO THE CODE:
     IVANA ADAMOVIC, CHRISTINE AIKENS, YURI ALEXEEV, POOJA ARORA,
     ANDREY ASADCHEV, ROB BELL, PRADIPTA BANDYOPADHYAY, JONATHAN BENTZ,
     BRETT BODE, GALINA CHABAN, WEI CHEN, CHEOL HO CHOI, PAUL DAY,
     ALBERT DEFUSCO, TIM DUDLEY, DMITRI FEDOROV, GRAHAM FLETCHER,
     MARK FREITAG, KURT GLAESEMANN, DAN KEMP, GRANT MERRILL,
     NORIYUKI MINEZAWA, JONATHAN MULLIN, TAKESHI NAGATA,
     SEAN NEDD, HEATHER NETZLOFF, BOSILJKA NJEGIC, RYAN OLSON, MIKE PAK,
     JIM SHOEMAKER, LYUDMILA SLIPCHENKO, SAROM SOK, JIE SONG,
     TETSUYA TAKETSUGU, SIMON WEBB, SOOHAENG YOO, FEDERICO ZAHARIEV

  ADDITIONAL CODE HAS BEEN PROVIDED BY COLLABORATORS IN OTHER GROUPS:
     IOWA STATE UNIVERSITY:
          JOE IVANIC, LAIMUTIS BYTAUTAS, KLAUS RUEDENBERG
     UNIVERSITY OF TOKYO: KIMIHIKO HIRAO, TAKAHITO NAKAJIMA,
          TAKAO TSUNEDA, MUNEAKI KAMIYA, SUSUMU YANAGISAWA,
          KIYOSHI YAGI, MAHITO CHIBA, SEIKEN TOKURA, NAOAKI KAWAKAMI
     UNIVERSITY OF AARHUS: FRANK JENSEN
     UNIVERSITY OF IOWA: VISVALDAS KAIRYS, HUI LI
     NATIONAL INST. OF STANDARDS AND TECHNOLOGY: WALT STEVENS, DAVID GARMER
     UNIVERSITY OF PISA: BENEDETTA MENNUCCI, JACOPO TOMASI
     UNIVERSITY OF MEMPHIS: HENRY KURTZ, PRAKASHAN KORAMBATH
     UNIVERSITY OF ALBERTA: TOBY ZENG, MARIUSZ KLOBUKOWSKI
     UNIVERSITY OF NEW ENGLAND: MARK SPACKMAN
     MIE UNIVERSITY: HIROAKI UMEDA
     MICHIGAN STATE UNIVERSITY:
          KAROL KOWALSKI, MARTA WLOCH, JEFFREY GOUR, JESSE LUTZ, PIOTR PIECUCH
     UNIVERSITY OF SILESIA: MONIKA MUSIAL, STANISLAW KUCHARSKI
     FACULTES UNIVERSITAIRES NOTRE-DAME DE LA PAIX:
          OLIVIER QUINET, BENOIT CHAMPAGNE
     UNIVERSITY OF CALIFORNIA - SANTA BARBARA: BERNARD KIRTMAN
     INSTITUTE FOR MOLECULAR SCIENCE:
          KAZUYA ISHIMURA, MICHIO KATOUDA, AND SHIGERU NAGASE
     UNIVERSITY OF NOTRE DAME: DAN CHIPMAN
     KYUSHU UNIVERSITY:
          HARUYUKI NAKANO,
          FENG LONG GU, JACEK KORCHOWIEC, MARCIN MAKOWSKI, AND YURIKO AOKI,
          HIROTOSHI MORI AND EISAKU MIYOSHI
     PENNSYLVANIA STATE UNIVERSITY:
          TZVETELIN IORDANOV, CHET SWALINA, JONATHAN SKONE,
          SHARON HAMMES-SCHIFFER
     WASEDA UNIVERSITY:
          MASATO KOBAYASHI, TOMOKO AKAMA, TSUGUKI TOUMA,
          TAKESHI YOSHIKAWA, YASUHIRO IKABATA, HIROMI NAKAI
     UNIVERSITY OF NEBRASKA:
          PEIFENG SU, DEJUN SI, NANDUN THELLAMUREGE, YALI WANG, HUI LI
     UNIVERSITY OF ZURICH:
          ROBERTO PEVERATI, KIM BALDRIDGE
     N. COPERNICUS UNIVERSITY AND JACKSON STATE UNIVERSITY:
          MARIA BARYSZ

 EXECUTION OF GAMESS BEGUN Thu Feb 26 00:16:55 2015

            ECHO OF THE FIRST FEW INPUT CARDS -
 INPUT CARD> $BASIS GBASIS=PC1 $END                                                         
 INPUT CARD> $CONTRL COORD=ZMT ISPHER=1 RUNTYP=ENERGY DFTTYP=PBE $END                       
 INPUT CARD>                                                                                
 INPUT CARD> $DATA                                                                          
 INPUT CARD>Title                                                                           
 INPUT CARD>Cnv 2                                                                           
 INPUT CARD>                                                                                
 INPUT CARD>S                                                                               
 INPUT CARD>O 1 1.50                                                                        
 INPUT CARD>O 1 1.50 2 130.0                                                                
 INPUT CARD> $END                                                                           
    1000000 WORDS OF MEMORY AVAILABLE

     BASIS OPTIONS
     -------------
     GBASIS=PC1          IGAUSS=       0      POLAR=NONE    
     NDFUNC=       0     NFFUNC=       0     DIFFSP=       F
     NPFUNC=       0      DIFFS=       F     BASNAM=        


     RUN TITLE
     ---------
 Title                                                                           

 THE POINT GROUP OF THE MOLECULE IS CNV     
 THE ORDER OF THE PRINCIPAL AXIS IS     2

 YOUR FULLY SUBSTITUTED Z-MATRIX IS
 S   
 O      1   1.5000000
 O      1   1.5000000  2  130.0000

 THE MOMENTS OF INERTIA ARE (AMU-ANGSTROM**2)
 IXX=     6.426   IYY=    59.122   IZZ=    65.548

 ATOM      ATOMIC                      COORDINATES (BOHR)
           CHARGE         X                   Y                   Z
 S          16.0     0.0000000000        0.0000000000       -0.5991407549
 O           8.0    -2.5690100671        0.0000000000        0.5988083133
 O           8.0     2.5690100671        0.0000000000        0.5988083133

          INTERNUCLEAR DISTANCES (ANGS.)
          ------------------------------

                1 S          2 O          3 O     

   1 S       0.0000000    1.5000000 *  1.5000000 *
   2 O       1.5000000 *  0.0000000    2.7189234 *
   3 O       1.5000000 *  2.7189234 *  0.0000000  

  * ... LESS THAN  3.000


     ATOMIC BASIS SET
     ----------------
 THE CONTRACTED PRIMITIVE FUNCTIONS HAVE BEEN UNNORMALIZED
 THE CONTRACTED BASIS FUNCTIONS ARE NOW NORMALIZED TO UNITY

  SHELL TYPE  PRIMITIVE        EXPONENT          CONTRACTION COEFFICIENT(S)

 S         

      1   S       1         55510.0000000    0.000587229760
      1   S       2          8326.7000000    0.004532413947
      1   S       3          1895.6000000    0.023265261648
      1   S       4           536.7700000    0.089696133027
      1   S       5           174.6700000    0.254098332277
      1   S       6            62.5780000    0.438665087637
      1   S       7            23.5730000    0.314547135094
      1   S       8             5.8908000    0.032727897102

      2   S       9          8326.7000000   -0.000019755715
      2   S      10          1895.6000000   -0.000043822381
      2   S      11           536.7700000   -0.001730264906
      2   S      12           174.6700000   -0.009381263460
      2   S      13            62.5780000   -0.064050766303
      2   S      14            23.5730000   -0.082478179196
      2   S      15             5.8908000    0.478342956889
      2   S      16             2.1852000    0.626896670208

      3   S      17          1895.6000000    0.000016227260
      3   S      18           536.7700000    0.000191135619
      3   S      19           174.6700000    0.001952069674
      3   S      20            62.5780000    0.010578701087
      3   S      21            23.5730000    0.022164934551
      3   S      22             5.8908000   -0.184968323118
      3   S      23             2.1852000   -0.480920750976
      3   S      24             0.4528200    1.243822243872

      4   S      25             0.1620200    1.000000000000

      5   P      26           395.4500000    0.004642761329
      5   P      27            92.8340000    0.036023396489
      5   P      28            29.2660000    0.149058869978
      5   P      29            10.5950000    0.360033266263
      5   P      30             4.0272000    0.455756476221
      5   P      31             1.5484000    0.206167664178

      6   P      32            92.8340000    0.000169901442
      6   P      33            29.2660000   -0.002541839934
      6   P      34            10.5950000   -0.007867614595
      6   P      35             4.0272000   -0.037231009184
      6   P      36             1.5484000    0.161417246830
      6   P      37             0.4613400    0.902230419976

      7   P      38             0.1313100    1.000000000000

      8   D      39             0.5500000    1.000000000000

 O         

     15   S      40          2306.7000000    0.005424388755
     15   S      41           347.1500000    0.040474749465
     15   S      42            78.8900000    0.180219634554
     15   S      43            21.8760000    0.462370311787
     15   S      44             6.6646000    0.454888396263

     16   S      45           347.1500000   -0.000655003786
     16   S      46            78.8900000   -0.005362052952
     16   S      47            21.8760000   -0.074902158894
     16   S      48             6.6646000   -0.181442579655
     16   S      49             1.0669000    1.102006874042

     17   S      50             0.3070000    1.000000000000

     18   P      51            17.0220000    0.068979967443
     18   P      52             3.6838000    0.351985516325
     18   P      53             0.9923400    0.724036547822

     19   P      54             0.2448700    1.000000000000

     20   D      55             1.0000000    1.000000000000

 TOTAL NUMBER OF BASIS SET SHELLS             =   20
 NUMBER OF CARTESIAN GAUSSIAN BASIS FUNCTIONS =   49
 NOTE: THIS RUN WILL RESTRICT THE MO VARIATION SPACE TO SPHERICAL HARMONICS.
 THE NUMBER OF ORBITALS KEPT IN THE VARIATIONAL SPACE WILL BE PRINTED LATER.
 NUMBER OF ELECTRONS                          =   32
 CHARGE OF MOLECULE                           =    0
 SPIN MULTIPLICITY                            =    1
 NUMBER OF OCCUPIED ORBITALS (ALPHA)          =   16
 NUMBER OF OCCUPIED ORBITALS (BETA )          =   16
 TOTAL NUMBER OF ATOMS                        =    3
 THE NUCLEAR REPULSION ENERGY IS      102.7690770336

     LEBEDEV GRID-BASED DFT OPTIONS
     ------------------------------
     DFTTYP=PBE     
     NRAD  =      96     NLEB  =     302
     NRAD0 =      24     NLEB0 =     110
     SWOFF =    5.00E-03 (PURE SCF -> DFT)
     SWITCH=    3.00E-04 (COARSE -> TIGHT GRID)
     THRESH=    0.00E+00 GTHRE=    1.00E+00

 GRIMME'S EMPIRICAL DISPERSION CORRECTION= F

     $CONTRL OPTIONS
     ---------------
 SCFTYP=RHF          RUNTYP=ENERGY       EXETYP=RUN     
 MPLEVL=       0     CITYP =NONE         CCTYP =NONE         VBTYP =NONE    
 DFTTYP=PBE          TDDFT =NONE    
 MULT  =       1     ICHARG=       0     NZVAR =       0     COORD =ZMT     
 PP    =NONE         RELWFN=NONE         LOCAL =NONE         NUMGRD=       F
 ISPHER=       1     NOSYM =       0     MAXIT =      30     UNITS =ANGS    
 PLTORB=       F     MOLPLT=       F     AIMPAC=       F     FRIEND=        
 NPRINT=       7     IREST =       0     GEOM  =INPUT   
 NORMF =       0     NORMP =       0     ITOL  =      20     ICUT  =       9
 INTTYP=BEST         GRDTYP=BEST         QMTTOL= 1.0E-06

     $SYSTEM OPTIONS
     ---------------
  REPLICATED MEMORY=     1000000 WORDS (ON EVERY NODE).
 DISTRIBUTED MEMDDI=           0 MILLION WORDS IN AGGREGATE,
 MEMDDI DISTRIBUTED OVER   1 PROCESSORS IS           0 WORDS/PROCESSOR.
 TOTAL MEMORY REQUESTED ON EACH PROCESSOR=     1000000 WORDS.
 TIMLIM=      525600.00 MINUTES, OR     365.0 DAYS.
 PARALL= F  BALTYP=  DLB     KDIAG=    0  COREFL= F
 MXSEQ2=     300 MXSEQ3=     150

          ----------------
          PROPERTIES INPUT
          ----------------

     MOMENTS            FIELD           POTENTIAL          DENSITY
 IEMOM =       1   IEFLD =       0   IEPOT =       0   IEDEN =       0
 WHERE =COMASS     WHERE =NUCLEI     WHERE =NUCLEI     WHERE =NUCLEI  
 OUTPUT=BOTH       OUTPUT=BOTH       OUTPUT=BOTH       OUTPUT=BOTH    
 IEMINT=       0   IEFINT=       0                     IEDINT=       0
                                                       MORB  =       0
          EXTRAPOLATION IN EFFECT
          DIIS IN EFFECT
 ORBITAL PRINTING OPTION: NPREO=     1    49     2     1

     -------------------------------
     INTEGRAL TRANSFORMATION OPTIONS
     -------------------------------
     NWORD  =            0
     CUTOFF = 1.0E-09     MPTRAN =       0
     DIRTRF =       F     AOINTS =DUP     

          ----------------------
          INTEGRAL INPUT OPTIONS
          ----------------------
 NOPK  =       1 NORDER=       0 SCHWRZ=       F

   --- ENCODED Z MATRIX ---
 COORD  TYPE   I   J   K   L   M   N
    1      1    3   1
    2      1    2   1
    3      2    2   1   3

 THE DETERMINANT OF THE G MATRIX IS 10**(    -4)

 THE DETERMINANT OF THE G MATRIX IS 10**(    -4)
 * * * WARNING * * *
 YOUR B MATRIX HAS A SMALL DETERMINANT.
 THIS SUGGESTS YOU MAY HAVE BADLY CHOSEN COORDINATES.

     ------------------------------------------
     THE POINT GROUP IS CNV, NAXIS= 2, ORDER= 4
     ------------------------------------------

 -- VARIATIONAL SPACE WILL BE RESTRICTED TO PURE SPHERICAL HARMONICS ONLY --
 AFTER EXCLUDING CONTAMINANT COMBINATIONS FROM THE CARTESIAN GAUSSIAN BASIS
 SET, THE NUMBER OF SPHERICAL HARMONICS KEPT IN THE VARIATION SPACE IS   46

     DIMENSIONS OF THE SYMMETRY SUBSPACES ARE
 A1  =   19     A2  =    5     B1  =   14     B2  =    8

 ..... DONE SETTING UP THE RUN .....
 STEP CPU TIME =     0.01 TOTAL CPU TIME =        0.0 (    0.0 MIN)
 TOTAL WALL CLOCK TIME=        0.0 SECONDS, CPU UTILIZATION IS  50.00%

          ********************
          1 ELECTRON INTEGRALS
          ********************
 ...... END OF ONE-ELECTRON INTEGRALS ......
 STEP CPU TIME =     0.00 TOTAL CPU TIME =        0.0 (    0.0 MIN)
 TOTAL WALL CLOCK TIME=        0.0 SECONDS, CPU UTILIZATION IS  33.33%

          -------------
          GUESS OPTIONS
          -------------
          GUESS =HUCKEL            NORB  =       0          NORDER=       0
          MIX   =       F          PRTMO =       F          PUNMO =       F
          TOLZ  = 1.0E-08          TOLE  = 1.0E-05
          SYMDEN=       F          PURIFY=       F

 INITIAL GUESS ORBITALS GENERATED BY HUCKEL   ROUTINE.
 HUCKEL GUESS REQUIRES     21583 WORDS.

 STATISTICS FOR GENERATION OF SYMMETRY ORBITAL -Q- MATRIX
 NUMBER OF CARTESIAN ATOMIC ORBITALS=         49
 NUMBER OF SPHERICAL CONTAMINANTS DROPPED=     3
 NUMBER OF LINEARLY DEPENDENT MOS DROPPED=     0
 TOTAL NUMBER OF MOS IN VARIATION SPACE=      46

 SYMMETRIES FOR INITIAL GUESS ORBITALS FOLLOW.   BOTH SET(S).
    16 ORBITALS ARE OCCUPIED (    7 CORE ORBITALS).
     8=A1       9=B1      10=A1      11=B2      12=A1      13=B1      14=A2  
    15=B1      16=A1      17=B2      18=A1      19=B1      20=A1      21=A1  
    22=A1      23=A1      24=A1      25=A1      26=A1  
 ...... END OF INITIAL ORBITAL SELECTION ......
 STEP CPU TIME =     0.01 TOTAL CPU TIME =        0.0 (    0.0 MIN)
 TOTAL WALL CLOCK TIME=        0.0 SECONDS, CPU UTILIZATION IS  66.67%

                    ----------------------
                    AO INTEGRAL TECHNOLOGY
                    ----------------------
     S,P,L SHELL ROTATED AXIS INTEGRALS, REPROGRAMMED BY
        KAZUYA ISHIMURA (IMS) AND JOSE SIERRA (SYNSTAR).
     S,P,D,L SHELL ROTATED AXIS INTEGRALS PROGRAMMED BY
        KAZUYA ISHIMURA (INSTITUTE FOR MOLECULAR SCIENCE).
     S,P,D,F,G SHELL TO TOTAL QUARTET ANGULAR MOMENTUM SUM 5,
        ERIC PROGRAM BY GRAHAM FLETCHER (ELORET AND NASA ADVANCED
        SUPERCOMPUTING DIVISION, AMES RESEARCH CENTER).
     S,P,D,F,G,L SHELL GENERAL RYS QUADRATURE PROGRAMMED BY
        MICHEL DUPUIS (PACIFIC NORTHWEST NATIONAL LABORATORY).

          --------------------
          2 ELECTRON INTEGRALS
          --------------------

 THE -PK- OPTION IS OFF, THE INTEGRALS ARE NOT IN SUPERMATRIX FORM.
 STORING   15000 INTEGRALS/RECORD ON DISK, USING 12 BYTES/INTEGRAL.
 TWO ELECTRON INTEGRAL EVALUATION REQUIRES   90606 WORDS OF MEMORY.
 II,JST,KST,LST =  1  1  1  1 NREC =         1 INTLOC =    1
 II,JST,KST,LST =  2  1  1  1 NREC =         1 INTLOC =    2
 II,JST,KST,LST =  3  1  1  1 NREC =         1 INTLOC =    7
 II,JST,KST,LST =  4  1  1  1 NREC =         1 INTLOC =   22
 II,JST,KST,LST =  5  1  1  1 NREC =         1 INTLOC =   56
 II,JST,KST,LST =  6  1  1  1 NREC =         1 INTLOC =  125
 II,JST,KST,LST =  7  1  1  1 NREC =         1 INTLOC =  329
 II,JST,KST,LST =  8  1  1  1 NREC =         1 INTLOC =  776
 II,JST,KST,LST =  9  1  1  1 NREC =         1 INTLOC = 2864
 II,JST,KST,LST = 10  1  1  1 NREC =         1 INTLOC = 2864
 II,JST,KST,LST = 11  1  1  1 NREC =         1 INTLOC = 2864
 II,JST,KST,LST = 12  1  1  1 NREC =         1 INTLOC = 2864
 II,JST,KST,LST = 13  1  1  1 NREC =         1 INTLOC = 2864
 II,JST,KST,LST = 14  1  1  1 NREC =         1 INTLOC = 2864
 II,JST,KST,LST = 15  1  1  1 NREC =         1 INTLOC = 2864
 II,JST,KST,LST = 16  1  1  1 NREC =         1 INTLOC = 5109
 II,JST,KST,LST = 17  1  1  1 NREC =         1 INTLOC = 8275
 II,JST,KST,LST = 18  1  1  1 NREC =         1 INTLOC =12705
 II,JST,KST,LST = 19  1  1  1 NREC =         3 INTLOC =  223
 II,JST,KST,LST = 20  1  1  1 NREC =         5 INTLOC = 1266
 TOTAL NUMBER OF NONZERO TWO-ELECTRON INTEGRALS =              175278
         12 INTEGRAL RECORDS WERE STORED ON DISK FILE  8.
  ...... END OF TWO-ELECTRON INTEGRALS .....
 STEP CPU TIME =     0.16 TOTAL CPU TIME =        0.2 (    0.0 MIN)
 TOTAL WALL CLOCK TIME=        0.2 SECONDS, CPU UTILIZATION IS  94.74%

          --------------------------
               R-PBE SCF CALCULATION
          --------------------------

     NUCLEAR ENERGY =       102.7690770336
     MAXIT =   30     NPUNCH=    2
     EXTRAP=T  DAMP=F  SHIFT=F  RSTRCT=F  DIIS=T  DEM=F  SOSCF=F
         DENSITY MATRIX CONVERGENCE THRESHOLD=  1.00E-05
     COARSE -> FINE DFT GRID SWITCH THRESHOLD=  3.00E-04 (SWITCH IN $DFT)
                   HF -> DFT SWITCH THRESHOLD=  5.00E-03 (SWOFF IN $DFT)
     MEMORY REQUIRED FOR RHF ITERS=    183108 WORDS.

 DFT CODE IS SWITCHING FROM THE FINE GRID NRAD= 96,  NLEB=  302
                      TO THE COARSE GRID NRAD0= 24, NLEB0=  110

     EXCHANGE FUNCTIONAL   =PBE       
     CORRELATION FUNCTIONAL=PBE       
     DFT THRESHOLD         =.460E-07
     GRID CHANGE THRESHOLD =.300E-03
 FOR AN EULER-MACLAURIN QUADRATURE USING  96 RADIAL POINTS:
 SMALLEST GAUSSIAN PRIMITIVE EXPONENT=        0.1313100000 OF TYPE -P-
 ON ATOM NUMBER   1 HAS RADIAL NORMALIZATION=  1.000000
  LARGEST GAUSSIAN PRIMITIVE EXPONENT=    55510.0000000000 OF TYPE -S-
 ON ATOM NUMBER   1 HAS RADIAL NORMALIZATION=  0.999999
 DFT IS SWITCHED OFF, PERFORMING PURE SCF UNTIL SWOFF THRESHOLD IS REACHED.

 ITER EX DEM     TOTAL ENERGY        E CHANGE  DENSITY CHANGE    DIIS ERROR
   1  0  0     -546.0766642446  -546.0766642446   0.377938694   1.443603998
          * * *   INITIATING DIIS PROCEDURE   * * *
   2  1  0     -546.8317953274    -0.7551310827   0.398410267   0.259715504
   3  2  0     -546.9270021950    -0.0952068676   0.145250116   0.281015942
   4  3  0     -547.0965664520    -0.1695642571   0.021244503   0.017128245
   5  4  0     -547.0978377788    -0.0012713267   0.019014190   0.006512567
   6  5  0     -547.0980913251    -0.0002535464   0.007598338   0.002471939
   7  6  0     -547.0981465664    -0.0000552413   0.002690186   0.000723918
 CONVERGED TO SWOFF, SO DFT CALCULATION IS NOW SWITCHED ON.
          * * *   INITIATING DIIS PROCEDURE   * * *
   8  7  0     -548.2434726089    -1.1453260425   0.248759354   0.104976850
   9  8  0     -548.2515624141    -0.0080898052   0.210059177   0.092824306
  10  9  0     -548.2503795266     0.0011828876   0.077348883   0.118043669
  11 10  0     -548.2806867171    -0.0303071906   0.014693514   0.016639782
  12 11  0     -548.2812639296    -0.0005772125   0.000846728   0.001143082
  13 12  0     -548.2812661370    -0.0000022074   0.000535517   0.000227419
  14 13  0     -548.2812663127    -0.0000001757   0.000037405   0.000028619
 DFT CODE IS SWITCHING BACK TO THE FINE GRID
          * * *   INITIATING DIIS PROCEDURE   * * *
  15 14  0     -548.2581033377     0.0231629749   0.010090225   0.012247229
  16 15  0     -548.2584352299    -0.0003318922   0.005627196   0.003046470
  17 16  0     -548.2584135434     0.0000216865   0.004211008   0.003656123
  18 17  0     -548.2584506937    -0.0000371503   0.000653503   0.001325449
  19 18  0     -548.2584539607    -0.0000032670   0.000158966   0.000086134
  20 19  0     -548.2584539946    -0.0000000339   0.000034123   0.000010917
  21 20  0     -548.2584539950    -0.0000000004   0.000005064   0.000001824
  22 21  0     -548.2584539950     0.0000000000   0.000000422   0.000000211

          -----------------
          DENSITY CONVERGED
          -----------------
     TIME TO FORM FOCK OPERATORS=       4.3 SECONDS (       0.2 SEC/ITER)
     TIME TO SOLVE SCF EQUATIONS=       0.0 SECONDS (       0.0 SEC/ITER)

 FINAL R-PBE ENERGY IS     -548.2584539950 AFTER  22 ITERATIONS
 DFT EXCHANGE + CORRELATION ENERGY =       -42.4756506198
 TOTAL ELECTRON NUMBER             =        32.0000375299

          ------------
          EIGENVECTORS
          ------------

                      1          2          3          4          5
                  -88.2144   -18.8103   -18.8103    -7.8364    -5.8577
                     A1         A1         B1         A1         B1  
    1  S  1  S    1.002983  -0.000050   0.000000  -0.274050   0.000000
    2  S  1  S   -0.010285  -0.000482   0.000000   1.039394   0.000000
    3  S  1  S    0.001834  -0.000963   0.000000   0.041012   0.000000
    4  S  1  S   -0.000665   0.010271   0.000000  -0.010443   0.000000
    5  S  1  X    0.000000   0.000000  -0.000018   0.000000   0.996608
    6  S  1  Y    0.000000   0.000000   0.000000   0.000000   0.000000
    7  S  1  Z    0.000063  -0.000056   0.000000   0.012425   0.000000
    8  S  1  X    0.000000   0.000000  -0.001494   0.000000   0.009456
    9  S  1  Y    0.000000   0.000000   0.000000   0.000000   0.000000
   10  S  1  Z    0.000092   0.001039   0.000000   0.001626   0.000000
   11  S  1  X    0.000000   0.000000  -0.006148   0.000000  -0.000285
   12  S  1  Y    0.000000   0.000000   0.000000   0.000000   0.000000
   13  S  1  Z    0.000009   0.003625   0.000000  -0.000358   0.000000
   14  S  1 XX    0.000138   0.000804   0.000000   0.001443   0.000000
   15  S  1 YY   -0.000088  -0.000805   0.000000  -0.000794   0.000000
   16  S  1 ZZ   -0.000050   0.000001   0.000000  -0.000648   0.000000
   17  S  1 XY    0.000000   0.000000   0.000000   0.000000   0.000000
   18  S  1 XZ    0.000000   0.000000  -0.000489   0.000000   0.001085
   19  S  1 YZ    0.000000   0.000000   0.000000   0.000000   0.000000
   20  O  2  S    0.000013   0.703291   0.703269  -0.000016   0.000363
   21  O  2  S    0.000051   0.026033   0.025852   0.000043  -0.000216
   22  O  2  S   -0.000137  -0.013276  -0.012856  -0.000572  -0.000198
   23  O  2  X   -0.000044   0.001016   0.000872  -0.000430  -0.000568
   24  O  2  Y    0.000000   0.000000   0.000000   0.000000   0.000000
   25  O  2  Z    0.000019  -0.000220  -0.000520   0.000177   0.000295
   26  O  2  X   -0.000165  -0.003993  -0.002364  -0.001345  -0.000069
   27  O  2  Y    0.000000   0.000000   0.000000   0.000000   0.000000
   28  O  2  Z    0.000094   0.000729   0.002010   0.000874   0.000167
   29  O  2 XX   -0.000102  -0.000487  -0.000166  -0.000465  -0.000387
   30  O  2 YY    0.000077   0.000277   0.000189   0.000370   0.000342
   31  O  2 ZZ    0.000026   0.000210  -0.000023   0.000095   0.000045
   32  O  2 XY    0.000000   0.000000   0.000000   0.000000   0.000000
   33  O  2 XZ    0.000107   0.000247   0.000303   0.000542   0.000537
   34  O  2 YZ    0.000000   0.000000   0.000000   0.000000   0.000000
   35  O  3  S    0.000013   0.703291  -0.703269  -0.000016  -0.000363
   36  O  3  S    0.000051   0.026033  -0.025852   0.000043   0.000216
   37  O  3  S   -0.000137  -0.013276   0.012856  -0.000572   0.000198
   38  O  3  X    0.000044  -0.001016   0.000872   0.000430  -0.000568
   39  O  3  Y    0.000000   0.000000   0.000000   0.000000   0.000000
   40  O  3  Z    0.000019  -0.000220   0.000520   0.000177  -0.000295
   41  O  3  X    0.000165   0.003993  -0.002364   0.001345  -0.000069
   42  O  3  Y    0.000000   0.000000   0.000000   0.000000   0.000000
   43  O  3  Z    0.000094   0.000729  -0.002010   0.000874  -0.000167
   44  O  3 XX   -0.000102  -0.000487   0.000166  -0.000465   0.000387
   45  O  3 YY    0.000077   0.000277  -0.000189   0.000370  -0.000342
   46  O  3 ZZ    0.000026   0.000210   0.000023   0.000095  -0.000045
   47  O  3 XY    0.000000   0.000000   0.000000   0.000000   0.000000
   48  O  3 XZ   -0.000107  -0.000247   0.000303  -0.000542   0.000537
   49  O  3 YZ    0.000000   0.000000   0.000000   0.000000   0.000000

                      6          7          8          9         10
                   -5.8564    -5.8510    -1.0353    -0.9631    -0.5902
                     B2         A1         A1         B1         A1  
    1  S  1  S    0.000000   0.003503   0.050727   0.000000   0.065524
    2  S  1  S    0.000000  -0.013322  -0.145499   0.000000  -0.179410
    3  S  1  S    0.000000   0.000080   0.298089   0.000000   0.422638
    4  S  1  S    0.000000  -0.000942   0.138405   0.000000   0.370445
    5  S  1  X    0.000000   0.000000   0.000000   0.128506   0.000000
    6  S  1  Y    0.996866   0.000000   0.000000   0.000000   0.000000
    7  S  1  Z    0.000000   0.996852  -0.052987   0.000000   0.027769
    8  S  1  X    0.000000   0.000000   0.000000  -0.249522   0.000000
    9  S  1  Y    0.009009   0.000000   0.000000   0.000000   0.000000
   10  S  1  Z    0.000000   0.008654   0.102902   0.000000  -0.051217
   11  S  1  X    0.000000   0.000000   0.000000  -0.019261   0.000000
   12  S  1  Y   -0.000195   0.000000   0.000000   0.000000   0.000000
   13  S  1  Z    0.000000  -0.000301  -0.001065   0.000000  -0.053413
   14  S  1 XX    0.000000  -0.000672   0.050450   0.000000  -0.018402
   15  S  1 YY    0.000000  -0.000316  -0.033869   0.000000   0.019392
   16  S  1 ZZ    0.000000   0.000987  -0.016581   0.000000  -0.000991
   17  S  1 XY    0.000000   0.000000   0.000000   0.000000   0.000000
   18  S  1 XZ    0.000000   0.000000   0.000000  -0.064545   0.000000
   19  S  1 YZ    0.000766   0.000000   0.000000   0.000000   0.000000
   20  O  2  S    0.000000  -0.000190  -0.123126  -0.145120   0.104814
   21  O  2  S    0.000000  -0.000018   0.243726   0.292685  -0.216485
   22  O  2  S    0.000000   0.000700   0.278674   0.341397  -0.349334
   23  O  2  X    0.000000   0.000388   0.107564   0.098038   0.149664
   24  O  2  Y    0.000062   0.000000   0.000000   0.000000   0.000000
   25  O  2  Z    0.000000  -0.000125  -0.044117  -0.047059  -0.082675
   26  O  2  X    0.000000   0.000334   0.044327   0.033722   0.073545
   27  O  2  Y   -0.000065   0.000000   0.000000   0.000000   0.000000
   28  O  2  Z    0.000000  -0.000256  -0.013803  -0.019846  -0.034267
   29  O  2 XX    0.000000   0.000359   0.012226   0.005522   0.007110
   30  O  2 YY    0.000000  -0.000205  -0.005794  -0.003197  -0.006468
   31  O  2 ZZ    0.000000  -0.000154  -0.006432  -0.002325  -0.000642
   32  O  2 XY    0.000091   0.000000   0.000000   0.000000   0.000000
   33  O  2 XZ    0.000000  -0.000265  -0.007582  -0.007482  -0.008163
   34  O  2 YZ   -0.000064   0.000000   0.000000   0.000000   0.000000
   35  O  3  S    0.000000  -0.000190  -0.123126   0.145120   0.104814
   36  O  3  S    0.000000  -0.000018   0.243726  -0.292685  -0.216485
   37  O  3  S    0.000000   0.000700   0.278674  -0.341397  -0.349334
   38  O  3  X    0.000000  -0.000388  -0.107564   0.098038  -0.149664
   39  O  3  Y    0.000062   0.000000   0.000000   0.000000   0.000000
   40  O  3  Z    0.000000  -0.000125  -0.044117   0.047059  -0.082675
   41  O  3  X    0.000000  -0.000334  -0.044327   0.033722  -0.073545
   42  O  3  Y   -0.000065   0.000000   0.000000   0.000000   0.000000
   43  O  3  Z    0.000000  -0.000256  -0.013803   0.019846  -0.034267
   44  O  3 XX    0.000000   0.000359   0.012226  -0.005522   0.007110
   45  O  3 YY    0.000000  -0.000205  -0.005794   0.003197  -0.006468
   46  O  3 ZZ    0.000000  -0.000154  -0.006432   0.002325  -0.000642
   47  O  3 XY   -0.000091   0.000000   0.000000   0.000000   0.000000
   48  O  3 XZ    0.000000   0.000265   0.007582  -0.007482   0.008163
   49  O  3 YZ   -0.000064   0.000000   0.000000   0.000000   0.000000

                     11         12         13         14         15
                   -0.4429    -0.4377    -0.4302    -0.3361    -0.3188
                     B1         B2         A1         A2         B1  
    1  S  1  S    0.000000   0.000000  -0.008424   0.000000   0.000000
    2  S  1  S    0.000000   0.000000   0.040549   0.000000   0.000000
    3  S  1  S    0.000000   0.000000  -0.031269   0.000000   0.000000
    4  S  1  S    0.000000   0.000000  -0.192329   0.000000   0.000000
    5  S  1  X   -0.167594   0.000000   0.000000   0.000000  -0.014326
    6  S  1  Y    0.000000  -0.203472   0.000000   0.000000   0.000000
    7  S  1  Z    0.000000   0.000000  -0.196696   0.000000   0.000000
    8  S  1  X    0.398545   0.000000   0.000000   0.000000   0.026611
    9  S  1  Y    0.000000   0.474592   0.000000   0.000000   0.000000
   10  S  1  Z    0.000000   0.000000   0.456199   0.000000   0.000000
   11  S  1  X    0.038720   0.000000   0.000000   0.000000   0.104248
   12  S  1  Y    0.000000   0.253619   0.000000   0.000000   0.000000
   13  S  1  Z    0.000000   0.000000   0.211631   0.000000   0.000000
   14  S  1 XX    0.000000   0.000000  -0.045519   0.000000   0.000000
   15  S  1 YY    0.000000   0.000000  -0.015415   0.000000   0.000000
   16  S  1 ZZ    0.000000   0.000000   0.060934   0.000000   0.000000
   17  S  1 XY    0.000000   0.000000   0.000000  -0.126569   0.000000
   18  S  1 XZ    0.038036   0.000000   0.000000   0.000000  -0.117605
   19  S  1 YZ    0.000000   0.046974   0.000000   0.000000   0.000000
   20  O  2  S   -0.066977   0.000000   0.021793   0.000000   0.000046
   21  O  2  S    0.135474   0.000000  -0.044771   0.000000  -0.001185
   22  O  2  S    0.246300   0.000000  -0.078284   0.000000   0.025753
   23  O  2  X   -0.313898   0.000000   0.246095   0.000000   0.282063
   24  O  2  Y    0.000000   0.307975   0.000000   0.463156   0.000000
   25  O  2  Z    0.207365   0.000000   0.199340   0.000000   0.372311
   26  O  2  X   -0.171999   0.000000   0.158170   0.000000   0.189320
   27  O  2  Y    0.000000   0.182238   0.000000   0.326502   0.000000
   28  O  2  Z    0.126130   0.000000   0.119946   0.000000   0.258867
   29  O  2 XX   -0.006685   0.000000   0.019681   0.000000   0.012866
   30  O  2 YY    0.008031   0.000000  -0.005109   0.000000   0.000848
   31  O  2 ZZ   -0.001346   0.000000  -0.014571   0.000000  -0.013715
   32  O  2 XY    0.000000   0.020930   0.000000   0.018529   0.000000
   33  O  2 XZ    0.013585   0.000000   0.007845   0.000000   0.013886
   34  O  2 YZ    0.000000  -0.008872   0.000000  -0.008868   0.000000
   35  O  3  S    0.066977   0.000000   0.021793   0.000000  -0.000046
   36  O  3  S   -0.135474   0.000000  -0.044771   0.000000   0.001185
   37  O  3  S   -0.246300   0.000000  -0.078284   0.000000  -0.025753
   38  O  3  X   -0.313898   0.000000  -0.246095   0.000000   0.282063
   39  O  3  Y    0.000000   0.307975   0.000000  -0.463156   0.000000
   40  O  3  Z   -0.207365   0.000000   0.199340   0.000000  -0.372311
   41  O  3  X   -0.171999   0.000000  -0.158170   0.000000   0.189320
   42  O  3  Y    0.000000   0.182238   0.000000  -0.326502   0.000000
   43  O  3  Z   -0.126130   0.000000   0.119946   0.000000  -0.258867
   44  O  3 XX    0.006685   0.000000   0.019681   0.000000  -0.012866
   45  O  3 YY   -0.008031   0.000000  -0.005109   0.000000  -0.000848
   46  O  3 ZZ    0.001346   0.000000  -0.014571   0.000000   0.013715
   47  O  3 XY    0.000000  -0.020930   0.000000   0.018529   0.000000
   48  O  3 XZ    0.013585   0.000000  -0.007845   0.000000   0.013886
   49  O  3 YZ    0.000000  -0.008872   0.000000   0.008868   0.000000

                     16         17         18         19         20
                   -0.2745    -0.1707    -0.0412     0.0705     0.3526
                     A1         B2         A1         B1         B2  
    1  S  1  S    0.021634   0.000000   0.023918   0.000000   0.000000
    2  S  1  S   -0.107575   0.000000  -0.113741   0.000000   0.000000
    3  S  1  S    0.080914   0.000000   0.105434   0.000000   0.000000
    4  S  1  S    0.570740   0.000000   0.772792   0.000000   0.000000
    5  S  1  X    0.000000   0.000000   0.000000  -0.161494   0.000000
    6  S  1  Y    0.000000  -0.211768   0.000000   0.000000   0.283739
    7  S  1  Z    0.106762   0.000000  -0.173108   0.000000   0.000000
    8  S  1  X    0.000000   0.000000   0.000000   0.416815   0.000000
    9  S  1  Y    0.000000   0.537300   0.000000   0.000000  -1.100148
   10  S  1  Z   -0.257240   0.000000   0.458100   0.000000   0.000000
   11  S  1  X    0.000000   0.000000   0.000000   1.279753   0.000000
   12  S  1  Y    0.000000   0.474993   0.000000   0.000000   1.247777
   13  S  1  Z   -0.097202   0.000000   0.677354   0.000000   0.000000
   14  S  1 XX   -0.155888   0.000000  -0.153820   0.000000   0.000000
   15  S  1 YY    0.069979   0.000000   0.158156   0.000000   0.000000
   16  S  1 ZZ    0.085909   0.000000  -0.004336   0.000000   0.000000
   17  S  1 XY    0.000000   0.000000   0.000000   0.000000   0.000000
   18  S  1 XZ    0.000000   0.000000   0.000000  -0.207920   0.000000
   19  S  1 YZ    0.000000  -0.050005   0.000000   0.000000  -0.212786
   20  O  2  S    0.003736   0.000000   0.044047  -0.059947   0.000000
   21  O  2  S   -0.010459   0.000000  -0.088366   0.095092   0.000000
   22  O  2  S   -0.056128   0.000000  -0.369023   0.669518   0.000000
   23  O  2  X   -0.144355   0.000000  -0.367676   0.105111   0.000000
   24  O  2  Y    0.000000  -0.389257   0.000000   0.000000  -0.041564
   25  O  2  Z    0.404187   0.000000  -0.106001  -0.256204   0.000000
   26  O  2  X   -0.106334   0.000000  -0.377085   0.203378   0.000000
   27  O  2  Y    0.000000  -0.329624   0.000000   0.000000  -0.111334
   28  O  2  Z    0.298031   0.000000  -0.096215  -0.286289   0.000000
   29  O  2 XX   -0.000258   0.000000   0.000321   0.007126   0.000000
   30  O  2 YY    0.003447   0.000000   0.003968   0.000441   0.000000
   31  O  2 ZZ   -0.003189   0.000000  -0.004289  -0.007567   0.000000
   32  O  2 XY    0.000000  -0.002214   0.000000   0.000000  -0.029752
   33  O  2 XZ    0.009960   0.000000   0.004644   0.001894   0.000000
   34  O  2 YZ    0.000000  -0.000321   0.000000   0.000000   0.007492
   35  O  3  S    0.003736   0.000000   0.044047   0.059947   0.000000
   36  O  3  S   -0.010459   0.000000  -0.088366  -0.095092   0.000000
   37  O  3  S   -0.056128   0.000000  -0.369023  -0.669518   0.000000
   38  O  3  X    0.144355   0.000000   0.367676   0.105111   0.000000
   39  O  3  Y    0.000000  -0.389257   0.000000   0.000000  -0.041564
   40  O  3  Z    0.404187   0.000000  -0.106001   0.256204   0.000000
   41  O  3  X    0.106334   0.000000   0.377085   0.203378   0.000000
   42  O  3  Y    0.000000  -0.329624   0.000000   0.000000  -0.111334
   43  O  3  Z    0.298031   0.000000  -0.096215   0.286289   0.000000
   44  O  3 XX   -0.000258   0.000000   0.000321  -0.007126   0.000000
   45  O  3 YY    0.003447   0.000000   0.003968  -0.000441   0.000000
   46  O  3 ZZ   -0.003189   0.000000  -0.004289   0.007567   0.000000
   47  O  3 XY    0.000000   0.002214   0.000000   0.000000   0.029752
   48  O  3 XZ   -0.009960   0.000000  -0.004644   0.001894   0.000000
   49  O  3 YZ    0.000000  -0.000321   0.000000   0.000000   0.007492

                     21         22         23         24         25
                    0.3573     0.4007     0.4037     0.5177     0.5258
                     A1         A1         B1         B2         A1  
    1  S  1  S   -0.004918  -0.116839   0.000000   0.000000  -0.003003
    2  S  1  S   -0.052618  -0.404125   0.000000   0.000000  -0.033732
    3  S  1  S   -0.115637  -1.776320   0.000000   0.000000  -0.074160
    4  S  1  S    0.470057   2.290095   0.000000   0.000000   0.276615
    5  S  1  X    0.000000   0.000000   0.293943   0.000000   0.000000
    6  S  1  Y    0.000000   0.000000   0.000000   0.063381   0.000000
    7  S  1  Z    0.275757  -0.029436   0.000000   0.000000   0.055896
    8  S  1  X    0.000000   0.000000  -1.066579   0.000000   0.000000
    9  S  1  Y    0.000000   0.000000   0.000000  -0.254088   0.000000
   10  S  1  Z   -1.047692   0.129908   0.000000   0.000000  -0.220856
   11  S  1  X    0.000000   0.000000   1.490110   0.000000   0.000000
   12  S  1  Y    0.000000   0.000000   0.000000   0.254296   0.000000
   13  S  1  Z    1.332008   0.094944   0.000000   0.000000   0.311146
   14  S  1 XX    0.218040  -0.025248   0.000000   0.000000  -0.075909
   15  S  1 YY    0.046952   0.059419   0.000000   0.000000  -0.753302
   16  S  1 ZZ   -0.264993  -0.034172   0.000000   0.000000   0.829210
   17  S  1 XY    0.000000   0.000000   0.000000   0.000000   0.000000
   18  S  1 XZ    0.000000   0.000000   0.291262   0.000000   0.000000
   19  S  1 YZ    0.000000   0.000000   0.000000   0.933480   0.000000
   20  O  2  S    0.012517   0.016065  -0.011246   0.000000   0.009672
   21  O  2  S    0.015703  -0.029716  -0.046336   0.000000  -0.030546
   22  O  2  S   -0.350769  -0.377865   0.559518   0.000000  -0.115366
   23  O  2  X    0.116442   0.140399  -0.266816   0.000000  -0.087993
   24  O  2  Y    0.000000   0.000000   0.000000  -0.223237   0.000000
   25  O  2  Z   -0.059207  -0.113930   0.122083   0.000000  -0.244312
   26  O  2  X   -0.166113  -0.177552   0.089334   0.000000  -0.055008
   27  O  2  Y    0.000000   0.000000   0.000000   0.054183   0.000000
   28  O  2  Z   -0.039583   0.083297  -0.078733   0.000000   0.104023
   29  O  2 XX   -0.042319  -0.039297   0.028199   0.000000   0.012611
   30  O  2 YY    0.018747   0.031808  -0.030079   0.000000  -0.019439
   31  O  2 ZZ    0.023572   0.007489   0.001880   0.000000   0.006827
   32  O  2 XY    0.000000   0.000000   0.000000   0.032481   0.000000
   33  O  2 XZ   -0.002827   0.041611  -0.047813   0.000000   0.036611
   34  O  2 YZ    0.000000   0.000000   0.000000   0.018651   0.000000
   35  O  3  S    0.012517   0.016065   0.011246   0.000000   0.009672
   36  O  3  S    0.015703  -0.029716   0.046336   0.000000  -0.030546
   37  O  3  S   -0.350769  -0.377865  -0.559518   0.000000  -0.115366
   38  O  3  X   -0.116442  -0.140399  -0.266816   0.000000   0.087993
   39  O  3  Y    0.000000   0.000000   0.000000  -0.223237   0.000000
   40  O  3  Z   -0.059207  -0.113930  -0.122083   0.000000  -0.244312
   41  O  3  X    0.166113   0.177552   0.089334   0.000000   0.055008
   42  O  3  Y    0.000000   0.000000   0.000000   0.054183   0.000000
   43  O  3  Z   -0.039583   0.083297   0.078733   0.000000   0.104023
   44  O  3 XX   -0.042319  -0.039297  -0.028199   0.000000   0.012611
   45  O  3 YY    0.018747   0.031808   0.030079   0.000000  -0.019439
   46  O  3 ZZ    0.023572   0.007489  -0.001880   0.000000   0.006827
   47  O  3 XY    0.000000   0.000000   0.000000  -0.032481   0.000000
   48  O  3 XZ    0.002827  -0.041611  -0.047813   0.000000  -0.036611
   49  O  3 YZ    0.000000   0.000000   0.000000   0.018651   0.000000

                     26         27         28         29         30
                    0.5383     0.6565     0.6571     0.7745     0.8152
                     A2         B1         A1         A2         A1  
    1  S  1  S    0.000000   0.000000   0.016479   0.000000   0.010879
    2  S  1  S    0.000000   0.000000   0.003961   0.000000   0.064515
    3  S  1  S    0.000000   0.000000   0.202166   0.000000   0.205230
    4  S  1  S    0.000000   0.000000   1.243772   0.000000  -0.092377
    5  S  1  X    0.000000  -0.156290   0.000000   0.000000   0.000000
    6  S  1  Y    0.000000   0.000000   0.000000   0.000000   0.000000
    7  S  1  Z    0.000000   0.000000  -0.088130   0.000000  -0.032844
    8  S  1  X    0.000000   0.793277   0.000000   0.000000   0.000000
    9  S  1  Y    0.000000   0.000000   0.000000   0.000000   0.000000
   10  S  1  Z    0.000000   0.000000   0.448082   0.000000   0.163969
   11  S  1  X    0.000000   0.337723   0.000000   0.000000   0.000000
   12  S  1  Y    0.000000   0.000000   0.000000   0.000000   0.000000
   13  S  1  Z    0.000000   0.000000   0.184494   0.000000  -0.679117
   14  S  1 XX    0.000000   0.000000   0.627951   0.000000   0.241141
   15  S  1 YY    0.000000   0.000000  -0.441919   0.000000   0.151756
   16  S  1 ZZ    0.000000   0.000000  -0.186033   0.000000  -0.392897
   17  S  1 XY    0.880531   0.000000   0.000000   0.501185   0.000000
   18  S  1 XZ    0.000000   0.660736   0.000000   0.000000   0.000000
   19  S  1 YZ    0.000000   0.000000   0.000000   0.000000   0.000000
   20  O  2  S    0.000000  -0.060206   0.061987   0.000000  -0.003963
   21  O  2  S    0.000000   0.178413  -0.175549   0.000000   0.091046
   22  O  2  S    0.000000   0.410246  -0.490614   0.000000  -0.009915
   23  O  2  X    0.000000  -0.135431   0.339666   0.000000  -0.182920
   24  O  2  Y    0.364315   0.000000   0.000000  -0.546794   0.000000
   25  O  2  Z    0.000000   0.227775   0.007431   0.000000  -0.536304
   26  O  2  X    0.000000   0.829940  -1.020734   0.000000   0.220245
   27  O  2  Y   -0.096263   0.000000   0.000000   0.792203   0.000000
   28  O  2  Z    0.000000  -0.484383   0.343558   0.000000   0.879408
   29  O  2 XX    0.000000  -0.033103  -0.001774   0.000000  -0.016028
   30  O  2 YY    0.000000   0.007422  -0.009659   0.000000  -0.003749
   31  O  2 ZZ    0.000000   0.025681   0.011433   0.000000   0.019777
   32  O  2 XY   -0.050005   0.000000   0.000000  -0.051195   0.000000
   33  O  2 XZ    0.000000   0.004610  -0.012801   0.000000  -0.048818
   34  O  2 YZ    0.038589   0.000000   0.000000   0.031478   0.000000
   35  O  3  S    0.000000   0.060206   0.061987   0.000000  -0.003963
   36  O  3  S    0.000000  -0.178413  -0.175549   0.000000   0.091046
   37  O  3  S    0.000000  -0.410246  -0.490614   0.000000  -0.009915
   38  O  3  X    0.000000  -0.135431  -0.339666   0.000000   0.182920
   39  O  3  Y   -0.364315   0.000000   0.000000   0.546794   0.000000
   40  O  3  Z    0.000000  -0.227775   0.007431   0.000000  -0.536304
   41  O  3  X    0.000000   0.829940   1.020734   0.000000  -0.220245
   42  O  3  Y    0.096263   0.000000   0.000000  -0.792203   0.000000
   43  O  3  Z    0.000000   0.484383   0.343558   0.000000   0.879408
   44  O  3 XX    0.000000   0.033103  -0.001774   0.000000  -0.016028
   45  O  3 YY    0.000000  -0.007422  -0.009659   0.000000  -0.003749
   46  O  3 ZZ    0.000000  -0.025681   0.011433   0.000000   0.019777
   47  O  3 XY   -0.050005   0.000000   0.000000  -0.051195   0.000000
   48  O  3 XZ    0.000000   0.004610   0.012801   0.000000   0.048818
   49  O  3 YZ   -0.038589   0.000000   0.000000  -0.031478   0.000000

                     31         32         33         34         35
                    0.8166     0.8472     0.9572     0.9734     1.6357
                     B1         B2         B1         A1         B1  
    1  S  1  S    0.000000   0.000000   0.000000  -0.020909   0.000000
    2  S  1  S    0.000000   0.000000   0.000000  -0.223079   0.000000
    3  S  1  S    0.000000   0.000000   0.000000  -0.520818   0.000000
    4  S  1  S    0.000000   0.000000   0.000000   0.711394   0.000000
    5  S  1  X   -0.028820   0.000000  -0.056950   0.000000  -0.025314
    6  S  1  Y    0.000000  -0.026876   0.000000   0.000000   0.000000
    7  S  1  Z    0.000000   0.000000   0.000000  -0.054343   0.000000
    8  S  1  X    0.171225   0.000000  -0.000163   0.000000   0.272044
    9  S  1  Y    0.000000   0.110443   0.000000   0.000000   0.000000
   10  S  1  Z    0.000000   0.000000   0.000000   0.127527   0.000000
   11  S  1  X   -0.366016   0.000000   0.426445   0.000000   1.353585
   12  S  1  Y    0.000000  -0.723082   0.000000   0.000000   0.000000
   13  S  1  Z    0.000000   0.000000   0.000000   0.079279   0.000000
   14  S  1 XX    0.000000   0.000000   0.000000   0.906528   0.000000
   15  S  1 YY    0.000000   0.000000   0.000000  -0.595249   0.000000
   16  S  1 ZZ    0.000000   0.000000   0.000000  -0.311280   0.000000
   17  S  1 XY    0.000000   0.000000   0.000000   0.000000   0.000000
   18  S  1 XZ    0.224966   0.000000   0.813125   0.000000   0.267899
   19  S  1 YZ    0.000000  -0.303269   0.000000   0.000000   0.000000
   20  O  2  S    0.002531   0.000000  -0.025148   0.029704   0.002028
   21  O  2  S   -0.079532   0.000000   0.086684  -0.128775  -1.227307
   22  O  2  S    0.009780   0.000000   0.286990  -0.264824   2.029680
   23  O  2  X   -0.284908   0.000000   0.569012  -0.482716   0.029340
   24  O  2  Y    0.000000  -0.601235   0.000000   0.000000   0.000000
   25  O  2  Z   -0.545548   0.000000  -0.194423   0.271620   0.082180
   26  O  2  X    0.489739   0.000000  -0.369355   0.275598   0.374908
   27  O  2  Y    0.000000   0.942059   0.000000   0.000000   0.000000
   28  O  2  Z    0.686479   0.000000   0.202395  -0.044966  -0.427801
   29  O  2 XX   -0.035747   0.000000  -0.038624  -0.066321  -0.104316
   30  O  2 YY    0.010910   0.000000  -0.025352  -0.005770   0.088998
   31  O  2 ZZ    0.024837   0.000000   0.063976   0.072091   0.015318
   32  O  2 XY    0.000000  -0.045514   0.000000   0.000000   0.000000
   33  O  2 XZ   -0.010894   0.000000  -0.048478  -0.022520   0.155010
   34  O  2 YZ    0.000000   0.008248   0.000000   0.000000   0.000000
   35  O  3  S   -0.002531   0.000000   0.025148   0.029704  -0.002028
   36  O  3  S    0.079532   0.000000  -0.086684  -0.128775   1.227307
   37  O  3  S   -0.009780   0.000000  -0.286990  -0.264824  -2.029680
   38  O  3  X   -0.284908   0.000000   0.569012   0.482716   0.029340
   39  O  3  Y    0.000000  -0.601235   0.000000   0.000000   0.000000
   40  O  3  Z    0.545548   0.000000   0.194423   0.271620  -0.082180
   41  O  3  X    0.489739   0.000000  -0.369355  -0.275598   0.374908
   42  O  3  Y    0.000000   0.942059   0.000000   0.000000   0.000000
   43  O  3  Z   -0.686479   0.000000  -0.202395  -0.044966   0.427801
   44  O  3 XX    0.035747   0.000000   0.038624  -0.066321   0.104316
   45  O  3 YY   -0.010910   0.000000   0.025352  -0.005770  -0.088998
   46  O  3 ZZ   -0.024837   0.000000  -0.063976   0.072091  -0.015318
   47  O  3 XY    0.000000   0.045514   0.000000   0.000000   0.000000
   48  O  3 XZ   -0.010894   0.000000  -0.048478   0.022520   0.155010
   49  O  3 YZ    0.000000   0.008248   0.000000   0.000000   0.000000

                     36         37         38         39         40
                    1.6665     2.0595     2.0601     2.0688     2.0813
                     A1         A2         B1         B2         A1  
    1  S  1  S   -0.020856   0.000000   0.000000   0.000000  -0.002666
    2  S  1  S   -0.207739   0.000000   0.000000   0.000000  -0.014636
    3  S  1  S   -0.470020   0.000000   0.000000   0.000000  -0.050001
    4  S  1  S    2.160552   0.000000   0.000000   0.000000   0.040839
    5  S  1  X    0.000000   0.000000  -0.001384   0.000000   0.000000
    6  S  1  Y    0.000000   0.000000   0.000000  -0.021023   0.000000
    7  S  1  Z   -0.013978   0.000000   0.000000   0.000000   0.005730
    8  S  1  X    0.000000   0.000000  -0.003172   0.000000   0.000000
    9  S  1  Y    0.000000   0.000000   0.000000   0.069202   0.000000
   10  S  1  Z    0.143811   0.000000   0.000000   0.000000  -0.027609
   11  S  1  X    0.000000   0.000000   0.051100   0.000000   0.000000
   12  S  1  Y    0.000000   0.000000   0.000000   0.031037   0.000000
   13  S  1  Z    0.766560   0.000000   0.000000   0.000000   0.014203
   14  S  1 XX    0.318199   0.000000   0.000000   0.000000   0.053235
   15  S  1 YY   -0.269774   0.000000   0.000000   0.000000  -0.111998
   16  S  1 ZZ   -0.048425   0.000000   0.000000   0.000000   0.058763
   17  S  1 XY    0.000000   0.027694   0.000000   0.000000   0.000000
   18  S  1 XZ    0.000000   0.000000  -0.027781   0.000000   0.000000
   19  S  1 YZ    0.000000   0.000000   0.000000  -0.029188   0.000000
   20  O  2  S    0.001846   0.000000   0.000317   0.000000   0.002028
   21  O  2  S    1.184998   0.000000  -0.020498   0.000000  -0.020914
   22  O  2  S   -1.986270   0.000000   0.036797   0.000000  -0.002398
   23  O  2  X    0.037510   0.000000   0.011009   0.000000  -0.025618
   24  O  2  Y    0.000000  -0.008613   0.000000   0.021836   0.000000
   25  O  2  Z    0.068891   0.000000   0.015783   0.000000   0.007656
   26  O  2  X   -0.700106   0.000000  -0.018608   0.000000   0.017986
   27  O  2  Y    0.000000   0.013798   0.000000  -0.036424   0.000000
   28  O  2  Z    0.057870   0.000000  -0.026845   0.000000  -0.004677
   29  O  2 XX    0.207305   0.000000  -0.229399   0.000000  -0.049627
   30  O  2 YY   -0.120974   0.000000   0.607216   0.000000   0.592901
   31  O  2 ZZ   -0.086331   0.000000  -0.377817   0.000000  -0.543274
   32  O  2 XY    0.000000   0.407764   0.000000   0.056091   0.000000
   33  O  2 XZ   -0.090198   0.000000  -0.352777   0.000000  -0.259499
   34  O  2 YZ    0.000000   0.577993   0.000000   0.706054   0.000000
   35  O  3  S    0.001846   0.000000  -0.000317   0.000000   0.002028
   36  O  3  S    1.184998   0.000000   0.020498   0.000000  -0.020914
   37  O  3  S   -1.986270   0.000000  -0.036797   0.000000  -0.002398
   38  O  3  X   -0.037510   0.000000   0.011009   0.000000   0.025618
   39  O  3  Y    0.000000   0.008613   0.000000   0.021836   0.000000
   40  O  3  Z    0.068891   0.000000  -0.015783   0.000000   0.007656
   41  O  3  X    0.700106   0.000000  -0.018608   0.000000  -0.017986
   42  O  3  Y    0.000000  -0.013798   0.000000  -0.036424   0.000000
   43  O  3  Z    0.057870   0.000000   0.026845   0.000000  -0.004677
   44  O  3 XX    0.207305   0.000000   0.229399   0.000000  -0.049627
   45  O  3 YY   -0.120974   0.000000  -0.607216   0.000000   0.592901
   46  O  3 ZZ   -0.086331   0.000000   0.377817   0.000000  -0.543274
   47  O  3 XY    0.000000   0.407764   0.000000  -0.056091   0.000000
   48  O  3 XZ    0.090198   0.000000  -0.352777   0.000000   0.259499
   49  O  3 YZ    0.000000  -0.577993   0.000000   0.706054   0.000000

                     41         42         43         44         45
                    2.1738     2.1793     2.3006     2.3389     2.7599
                     B2         B1         A2         A1         A1  
    1  S  1  S    0.000000   0.000000   0.000000  -0.004479  -0.040807
    2  S  1  S    0.000000   0.000000   0.000000   0.010162   0.020854
    3  S  1  S    0.000000   0.000000   0.000000  -0.048850  -0.481640
    4  S  1  S    0.000000   0.000000   0.000000  -0.391769  -1.330079
    5  S  1  X    0.000000  -0.039364   0.000000   0.000000   0.000000
    6  S  1  Y    0.054770   0.000000   0.000000   0.000000   0.000000
    7  S  1  Z    0.000000   0.000000   0.000000   0.063576   0.094346
    8  S  1  X    0.000000   0.201421   0.000000   0.000000   0.000000
    9  S  1  Y   -0.175487   0.000000   0.000000   0.000000   0.000000
   10  S  1  Z    0.000000   0.000000   0.000000  -0.249938  -0.532729
   11  S  1  X    0.000000   0.096724   0.000000   0.000000   0.000000
   12  S  1  Y   -0.148039   0.000000   0.000000   0.000000   0.000000
   13  S  1  Z    0.000000   0.000000   0.000000  -0.296040  -0.250753
   14  S  1 XX    0.000000   0.000000   0.000000   0.282512  -0.740861
   15  S  1 YY    0.000000   0.000000   0.000000   0.072986   0.468167
   16  S  1 ZZ    0.000000   0.000000   0.000000  -0.355498   0.272693
   17  S  1 XY    0.000000   0.000000   0.486177   0.000000   0.000000
   18  S  1 XZ    0.000000  -0.316350   0.000000   0.000000   0.000000
   19  S  1 YZ   -0.251282   0.000000   0.000000   0.000000   0.000000
   20  O  2  S    0.000000   0.002502   0.000000  -0.000755  -0.032231
   21  O  2  S    0.000000  -0.177403   0.000000  -0.279113  -0.625470
   22  O  2  S    0.000000   0.215841   0.000000   0.438353   1.369535
   23  O  2  X    0.000000  -0.049004   0.000000  -0.092534   0.017342
   24  O  2  Y   -0.065293   0.000000  -0.036649   0.000000   0.000000
   25  O  2  Z    0.000000   0.076344   0.000000  -0.026236  -0.023380
   26  O  2  X    0.000000   0.053753   0.000000   0.282605   0.712401
   27  O  2  Y    0.161080   0.000000   0.150532   0.000000   0.000000
   28  O  2  Z    0.000000  -0.159650   0.000000   0.127424  -0.330495
   29  O  2 XX    0.000000  -0.380855   0.000000   0.562250   0.488206
   30  O  2 YY    0.000000  -0.173726   0.000000  -0.101815  -0.424263
   31  O  2 ZZ    0.000000   0.554580   0.000000  -0.460434  -0.063943
   32  O  2 XY    0.723102   0.000000   0.609686   0.000000   0.000000
   33  O  2 XZ    0.000000  -0.439013   0.000000   0.419751  -0.621248
   34  O  2 YZ   -0.065498   0.000000  -0.422305   0.000000   0.000000
   35  O  3  S    0.000000  -0.002502   0.000000  -0.000755  -0.032231
   36  O  3  S    0.000000   0.177403   0.000000  -0.279113  -0.625470
   37  O  3  S    0.000000  -0.215841   0.000000   0.438353   1.369535
   38  O  3  X    0.000000  -0.049004   0.000000   0.092534  -0.017342
   39  O  3  Y   -0.065293   0.000000   0.036649   0.000000   0.000000
   40  O  3  Z    0.000000  -0.076344   0.000000  -0.026236  -0.023380
   41  O  3  X    0.000000   0.053753   0.000000  -0.282605  -0.712401
   42  O  3  Y    0.161080   0.000000  -0.150532   0.000000   0.000000
   43  O  3  Z    0.000000   0.159650   0.000000   0.127424  -0.330495
   44  O  3 XX    0.000000   0.380855   0.000000   0.562250   0.488206
   45  O  3 YY    0.000000   0.173726   0.000000  -0.101815  -0.424263
   46  O  3 ZZ    0.000000  -0.554580   0.000000  -0.460434  -0.063943
   47  O  3 XY   -0.723102   0.000000   0.609686   0.000000   0.000000
   48  O  3 XZ    0.000000  -0.439013   0.000000  -0.419751   0.621248
   49  O  3 YZ   -0.065498   0.000000   0.422305   0.000000   0.000000

                     46
                    2.8018
                     B1  
    1  S  1  S    0.000000
    2  S  1  S    0.000000
    3  S  1  S    0.000000
    4  S  1  S    0.000000
    5  S  1  X   -0.213286
    6  S  1  Y    0.000000
    7  S  1  Z    0.000000
    8  S  1  X    1.146130
    9  S  1  Y    0.000000
   10  S  1  Z    0.000000
   11  S  1  X    0.432495
   12  S  1  Y    0.000000
   13  S  1  Z    0.000000
   14  S  1 XX    0.000000
   15  S  1 YY    0.000000
   16  S  1 ZZ    0.000000
   17  S  1 XY    0.000000
   18  S  1 XZ    0.623145
   19  S  1 YZ    0.000000
   20  O  2  S   -0.031225
   21  O  2  S   -0.536559
   22  O  2  S    1.194131
   23  O  2  X    0.048007
   24  O  2  Y    0.000000
   25  O  2  Z   -0.007818
   26  O  2  X    0.620546
   27  O  2  Y    0.000000
   28  O  2  Z   -0.292857
   29  O  2 XX    0.669088
   30  O  2 YY   -0.376138
   31  O  2 ZZ   -0.292950
   32  O  2 XY    0.000000
   33  O  2 XZ   -0.488821
   34  O  2 YZ    0.000000
   35  O  3  S    0.031225
   36  O  3  S    0.536559
   37  O  3  S   -1.194131
   38  O  3  X    0.048007
   39  O  3  Y    0.000000
   40  O  3  Z    0.007818
   41  O  3  X    0.620546
   42  O  3  Y    0.000000
   43  O  3  Z    0.292857
   44  O  3 XX   -0.669088
   45  O  3 YY    0.376138
   46  O  3 ZZ    0.292950
   47  O  3 XY    0.000000
   48  O  3 XZ   -0.488821
   49  O  3 YZ    0.000000
 ...... END OF RHF CALCULATION ......
 STEP CPU TIME =     4.35 TOTAL CPU TIME =        4.5 (    0.1 MIN)
 TOTAL WALL CLOCK TIME=        4.5 SECONDS, CPU UTILIZATION IS  99.78%

     ---------------------------------------------------------------------
     PROPERTIES FOR THE PBE      DFT FUNCTIONAL (RHF  TYPE) DENSITY MATRIX
     ---------------------------------------------------------------------

          -----------------
          ENERGY COMPONENTS
          -----------------

         WAVEFUNCTION NORMALIZATION =       1.0000000000

                ONE ELECTRON ENERGY =    -959.7603691326
                TWO ELECTRON ENERGY =     308.7328381040
           NUCLEAR REPULSION ENERGY =     102.7690770336
                                      ------------------
                       TOTAL ENERGY =    -548.2584539950

 ELECTRON-ELECTRON POTENTIAL ENERGY =     308.7328381040
  NUCLEUS-ELECTRON POTENTIAL ENERGY =   -1507.2386504003
   NUCLEUS-NUCLEUS POTENTIAL ENERGY =     102.7690770336
                                      ------------------
             TOTAL POTENTIAL ENERGY =   -1095.7367352627
               TOTAL KINETIC ENERGY =     547.4782812677
                 VIRIAL RATIO (V/T) =       2.0014250295

          ---------------------------------------
          MULLIKEN AND LOWDIN POPULATION ANALYSES
          ---------------------------------------

     ATOMIC MULLIKEN POPULATION IN EACH MOLECULAR ORBITAL

                      1          2          3          4          5

                  2.000000   2.000000   2.000000   2.000000   2.000000

    1             2.000022   0.001437   0.001353   2.001391   1.999786
    2            -0.000011   0.999281   0.999324  -0.000696   0.000107
    3            -0.000011   0.999281   0.999324  -0.000696   0.000107

                      6          7          8          9         10

                  2.000000   2.000000   2.000000   2.000000   2.000000

    1             2.000004   1.999873   0.668647   0.354442   0.909736
    2            -0.000002   0.000063   0.665677   0.822779   0.545132
    3            -0.000002   0.000063   0.665677   0.822779   0.545132

                     11         12         13         14         15

                  2.000000   2.000000   2.000000   2.000000   2.000000

    1             0.390553   1.035747   0.950064   0.098986   0.131583
    2             0.804724   0.482126   0.524968   0.950507   0.934209
    3             0.804724   0.482126   0.524968   0.950507   0.934209

                     16

                  2.000000

    1             0.652585
    2             0.673707
    3             0.673707

               ----- POPULATIONS IN EACH AO -----
                             MULLIKEN      LOWDIN
              1  S  1  S      2.00023     1.99583
              2  S  1  S      2.01000     1.96652
              3  S  1  S      0.96716     0.59090
              4  S  1  S      0.87975     0.54985
              5  S  1  X      1.99658     1.95375
              6  S  1  Y      1.99613     1.95429
              7  S  1  Z      1.99700     1.96096
              8  S  1  X      0.67589     0.60116
              9  S  1  Y      0.64697     0.60936
             10  S  1  Z      0.80910     0.78187
             11  S  1  X      0.07940     0.25264
             12  S  1  Y      0.38112     0.43726
             13  S  1  Z      0.31870     0.43589
             14  S  1 XX      0.06943     0.30807
             15  S  1 YY      0.13236     0.26916
             16  S  1 ZZ      0.09899     0.28086
             17  S  1 XY      0.12585     0.11904
             18  S  1 XZ      0.01154     0.15254
             19  S  1 YZ      0.00000     0.01112
             20  O  2  S      1.99801     1.98074
             21  O  2  S      0.83796     0.65250
             22  O  2  S      1.05559     0.55960
             23  O  2  X      0.88107     0.83822
             24  O  2  Y      0.85661     0.81818
             25  O  2  Z      1.08210     1.05097
             26  O  2  X      0.45795     0.55817
             27  O  2  Y      0.56957     0.60823
             28  O  2  Z      0.64245     0.68924
             29  O  2 XX      0.00312     0.20864
             30  O  2 YY      0.00536     0.20328
             31  O  2 ZZ      0.00535     0.19948
             32  O  2 XY      0.00566     0.00670
             33  O  2 XZ      0.00110     0.00916
             34  O  2 YZ      0.00000     0.00134
             35  O  3  S      1.99801     1.98074
             36  O  3  S      0.83796     0.65250
             37  O  3  S      1.05559     0.55960
             38  O  3  X      0.88107     0.83822
             39  O  3  Y      0.85661     0.81818
             40  O  3  Z      1.08210     1.05097
             41  O  3  X      0.45795     0.55817
             42  O  3  Y      0.56957     0.60823
             43  O  3  Z      0.64245     0.68924
             44  O  3 XX      0.00312     0.20864
             45  O  3 YY      0.00536     0.20328
             46  O  3 ZZ      0.00535     0.19948
             47  O  3 XY      0.00566     0.00670
             48  O  3 XZ      0.00110     0.00916
             49  O  3 YZ      0.00000     0.00134

          ----- MULLIKEN ATOMIC OVERLAP POPULATIONS -----
          (OFF-DIAGONAL ELEMENTS NEED TO BE MULTIPLIED BY 2)

             1           2           3

    1   14.6119148
    2    0.2921469   8.1249513
    3    0.2921469  -0.0152026   8.1249513

          TOTAL MULLIKEN AND LOWDIN ATOMIC POPULATIONS
       ATOM         MULL.POP.    CHARGE          LOW.POP.     CHARGE
    1 S            15.196209    0.803791        15.231061    0.768939
    2 O             8.401896   -0.401896         8.384470   -0.384470
    3 O             8.401896   -0.401896         8.384470   -0.384470

          MULLIKEN SPHERICAL HARMONIC POPULATIONS
       ATOM           S       P       D      F      G      H      I    TOTAL
    1 S             5.86    8.90    0.44   0.00   0.00   0.00   0.00   15.20
    2 O             3.89    4.49    0.02   0.00   0.00   0.00   0.00    8.40
    3 O             3.89    4.49    0.02   0.00   0.00   0.00   0.00    8.40

          -------------------------------
          BOND ORDER AND VALENCE ANALYSIS     BOND ORDER THRESHOLD=0.050
          -------------------------------

                   BOND                       BOND                       BOND
  ATOM PAIR DIST  ORDER      ATOM PAIR DIST  ORDER      ATOM PAIR DIST  ORDER
    1   2  1.500  1.805        1   3  1.500  1.805        2   3  2.719  0.300

                       TOTAL       BONDED        FREE
      ATOM            VALENCE     VALENCE     VALENCE
    1 S                 3.610       3.610       0.000
    2 O                 2.105       2.105       0.000
    3 O                 2.105       2.105       0.000

          ---------------------
          ELECTROSTATIC MOMENTS
          ---------------------

 POINT   1           X           Y           Z (BOHR)    CHARGE
                 0.000000    0.000000    0.000000        0.00 (A.U.)
         DX          DY          DZ         /D/  (DEBYE)
     0.000000    0.000000   -1.316300    1.316300
 ...... END OF PROPERTY EVALUATION ......
 STEP CPU TIME =     0.01 TOTAL CPU TIME =        4.5 (    0.1 MIN)
 TOTAL WALL CLOCK TIME=        4.6 SECONDS, CPU UTILIZATION IS  99.78%
               580000  WORDS OF DYNAMIC MEMORY USED
 EXECUTION OF GAMESS TERMINATED NORMALLY Thu Feb 26 00:17:00 2015
 DDI: 263624 bytes (0.3 MB / 0 MWords) used by master data server.

 ----------------------------------------
 CPU timing information for all processes
 ========================================
 0: 4.517 + 0.30 = 4.548
 ----------------------------------------
 ddikick.x: exited gracefully.
----- accounting info -----
Files used on the master node dftfe.crc.nd.edu were:
-rw-r--r-- 1 pmehta1 campus   37475 Feb 26 00:17 /tmp/gamess.dat
-rw-r--r-- 1 pmehta1 campus     142 Feb 26 00:16 /tmp/gamess.F05
-rw-r--r-- 1 pmehta1 campus 2160288 Feb 26 00:16 /tmp/gamess.F08
-rw-r--r-- 1 pmehta1 campus 1220440 Feb 26 00:17 /tmp/gamess.F10
Thu Feb 26 00:17:03 EST 2015
0.244u 0.176s 0:07.99 5.1%	0+0k 0+104io 0pf+0w
