----- GAMESS execution script 'rungms' -----
This job is running on host dftfe.crc.nd.edu
under operating system Linux at Thu Feb 26 01:17:23 EST 2015
Available scratch disk space (Kbyte units) at beginning of the job is
Filesystem     1K-blocks     Used Available Use% Mounted on
/dev/sda2      147771864 22820016 117445416  17% /
GAMESS temporary binary files will be written to /tmp
GAMESS supplementary output files will be written to /tmp
Copying input file SiO2.inp to your run's scratch directory...

 Distributed Data Interface kickoff program.
 Initiating 1 compute processes on 1 nodes to run the following command:
 /opt/crc/gamess/2012R1/gamess/gamess.00.x SiO2 

          ******************************************************
          *         GAMESS VERSION =  1 MAY 2012 (R1)          *
          *             FROM IOWA STATE UNIVERSITY             *
          * M.W.SCHMIDT, K.K.BALDRIDGE, J.A.BOATZ, S.T.ELBERT, *
          *   M.S.GORDON, J.H.JENSEN, S.KOSEKI, N.MATSUNAGA,   *
          *          K.A.NGUYEN, S.J.SU, T.L.WINDUS,           *
          *       TOGETHER WITH M.DUPUIS, J.A.MONTGOMERY       *
          *         J.COMPUT.CHEM.  14, 1347-1363(1993)        *
          **************** 64 BIT LINUX VERSION ****************

  SINCE 1993, STUDENTS AND POSTDOCS WORKING AT IOWA STATE UNIVERSITY
  AND ALSO IN THEIR VARIOUS JOBS AFTER LEAVING ISU HAVE MADE IMPORTANT
  CONTRIBUTIONS TO THE CODE:
     IVANA ADAMOVIC, CHRISTINE AIKENS, YURI ALEXEEV, POOJA ARORA,
     ANDREY ASADCHEV, ROB BELL, PRADIPTA BANDYOPADHYAY, JONATHAN BENTZ,
     BRETT BODE, GALINA CHABAN, WEI CHEN, CHEOL HO CHOI, PAUL DAY,
     ALBERT DEFUSCO, TIM DUDLEY, DMITRI FEDOROV, GRAHAM FLETCHER,
     MARK FREITAG, KURT GLAESEMANN, DAN KEMP, GRANT MERRILL,
     NORIYUKI MINEZAWA, JONATHAN MULLIN, TAKESHI NAGATA,
     SEAN NEDD, HEATHER NETZLOFF, BOSILJKA NJEGIC, RYAN OLSON, MIKE PAK,
     JIM SHOEMAKER, LYUDMILA SLIPCHENKO, SAROM SOK, JIE SONG,
     TETSUYA TAKETSUGU, SIMON WEBB, SOOHAENG YOO, FEDERICO ZAHARIEV

  ADDITIONAL CODE HAS BEEN PROVIDED BY COLLABORATORS IN OTHER GROUPS:
     IOWA STATE UNIVERSITY:
          JOE IVANIC, LAIMUTIS BYTAUTAS, KLAUS RUEDENBERG
     UNIVERSITY OF TOKYO: KIMIHIKO HIRAO, TAKAHITO NAKAJIMA,
          TAKAO TSUNEDA, MUNEAKI KAMIYA, SUSUMU YANAGISAWA,
          KIYOSHI YAGI, MAHITO CHIBA, SEIKEN TOKURA, NAOAKI KAWAKAMI
     UNIVERSITY OF AARHUS: FRANK JENSEN
     UNIVERSITY OF IOWA: VISVALDAS KAIRYS, HUI LI
     NATIONAL INST. OF STANDARDS AND TECHNOLOGY: WALT STEVENS, DAVID GARMER
     UNIVERSITY OF PISA: BENEDETTA MENNUCCI, JACOPO TOMASI
     UNIVERSITY OF MEMPHIS: HENRY KURTZ, PRAKASHAN KORAMBATH
     UNIVERSITY OF ALBERTA: TOBY ZENG, MARIUSZ KLOBUKOWSKI
     UNIVERSITY OF NEW ENGLAND: MARK SPACKMAN
     MIE UNIVERSITY: HIROAKI UMEDA
     MICHIGAN STATE UNIVERSITY:
          KAROL KOWALSKI, MARTA WLOCH, JEFFREY GOUR, JESSE LUTZ, PIOTR PIECUCH
     UNIVERSITY OF SILESIA: MONIKA MUSIAL, STANISLAW KUCHARSKI
     FACULTES UNIVERSITAIRES NOTRE-DAME DE LA PAIX:
          OLIVIER QUINET, BENOIT CHAMPAGNE
     UNIVERSITY OF CALIFORNIA - SANTA BARBARA: BERNARD KIRTMAN
     INSTITUTE FOR MOLECULAR SCIENCE:
          KAZUYA ISHIMURA, MICHIO KATOUDA, AND SHIGERU NAGASE
     UNIVERSITY OF NOTRE DAME: DAN CHIPMAN
     KYUSHU UNIVERSITY:
          HARUYUKI NAKANO,
          FENG LONG GU, JACEK KORCHOWIEC, MARCIN MAKOWSKI, AND YURIKO AOKI,
          HIROTOSHI MORI AND EISAKU MIYOSHI
     PENNSYLVANIA STATE UNIVERSITY:
          TZVETELIN IORDANOV, CHET SWALINA, JONATHAN SKONE,
          SHARON HAMMES-SCHIFFER
     WASEDA UNIVERSITY:
          MASATO KOBAYASHI, TOMOKO AKAMA, TSUGUKI TOUMA,
          TAKESHI YOSHIKAWA, YASUHIRO IKABATA, HIROMI NAKAI
     UNIVERSITY OF NEBRASKA:
          PEIFENG SU, DEJUN SI, NANDUN THELLAMUREGE, YALI WANG, HUI LI
     UNIVERSITY OF ZURICH:
          ROBERTO PEVERATI, KIM BALDRIDGE
     N. COPERNICUS UNIVERSITY AND JACKSON STATE UNIVERSITY:
          MARIA BARYSZ

 EXECUTION OF GAMESS BEGUN Thu Feb 26 01:17:23 2015

            ECHO OF THE FIRST FEW INPUT CARDS -
 INPUT CARD>!   File created by the GAMESS Input Deck Generator Plugin for Avogadro         
 INPUT CARD> $BASIS GBASIS=PC1 $END                                                         
 INPUT CARD> $CONTRL COORD=ZMT ISPHER=1 RUNTYP=OPTIMIZE DFTTYP=PBE $END                     
 INPUT CARD>                                                                                
 INPUT CARD> $DATA                                                                          
 INPUT CARD>Title                                                                           
 INPUT CARD>Cnv 2                                                                           
 INPUT CARD>                                                                                
 INPUT CARD>Si                                                                              
 INPUT CARD>O 1 rso                                                                         
 INPUT CARD>O 1 rso 2 ang                                                                   
 INPUT CARD>                                                                                
 INPUT CARD>rso = 1.50                                                                      
 INPUT CARD>ang = 178                                                                       
 INPUT CARD> $END                                                                           
 INPUT CARD>                                                                                
    1000000 WORDS OF MEMORY AVAILABLE

     BASIS OPTIONS
     -------------
     GBASIS=PC1          IGAUSS=       0      POLAR=NONE    
     NDFUNC=       0     NFFUNC=       0     DIFFSP=       F
     NPFUNC=       0      DIFFS=       F     BASNAM=        


     RUN TITLE
     ---------
 Title                                                                           

 THE POINT GROUP OF THE MOLECULE IS CNV     
 THE ORDER OF THE PRINCIPAL AXIS IS     2

 YOUR FULLY SUBSTITUTED Z-MATRIX IS
 SI  
 O      1   1.5000000
 O      1   1.5000000  2  178.0000

 THE MOMENTS OF INERTIA ARE (AMU-ANGSTROM**2)
 IXX=     0.010   IYY=    71.955   IZZ=    71.965

 ATOM      ATOMIC                      COORDINATES (BOHR)
           CHARGE         X                   Y                   Z
 SI         14.0     0.0000000000        0.0000000000       -0.0263904440
 O           8.0    -2.8341572600        0.0000000000        0.0230799550
 O           8.0     2.8341572600        0.0000000000        0.0230799550

          INTERNUCLEAR DISTANCES (ANGS.)
          ------------------------------

                1 SI         2 O          3 O     

   1 SI      0.0000000    1.5000000 *  1.5000000 *
   2 O       1.5000000 *  0.0000000    2.9995431 *
   3 O       1.5000000 *  2.9995431 *  0.0000000  

  * ... LESS THAN  3.000


     ATOMIC BASIS SET
     ----------------
 THE CONTRACTED PRIMITIVE FUNCTIONS HAVE BEEN UNNORMALIZED
 THE CONTRACTED BASIS FUNCTIONS ARE NOW NORMALIZED TO UNITY

  SHELL TYPE  PRIMITIVE        EXPONENT          CONTRACTION COEFFICIENT(S)

 SI        

      1   S       1         41263.0000000    0.000607944026
      1   S       2          6189.6000000    0.004692145266
      1   S       3          1408.7000000    0.024075173927
      1   S       4           398.7700000    0.092528226872
      1   S       5           129.6900000    0.259813579411
      1   S       6            46.4250000    0.440696577415
      1   S       7            17.4550000    0.306774931269
      1   S       8             4.2222000    0.029123419503

      2   S       9          6189.6000000   -0.000021729411
      2   S      10          1408.7000000   -0.000040403412
      2   S      11           398.7700000   -0.001796674694
      2   S      12           129.6900000   -0.009202322036
      2   S      13            46.4250000   -0.063662463594
      2   S      14            17.4550000   -0.075026890605
      2   S      15             4.2222000    0.486688891513
      2   S      16             1.4933000    0.617506546566

      3   S      17          1408.7000000    0.000011808265
      3   S      18           398.7700000    0.000145421346
      3   S      19           129.6900000    0.001449221070
      3   S      20            46.4250000    0.007852141828
      3   S      21            17.4550000    0.015689208608
      3   S      22             4.2222000   -0.145055237280
      3   S      23             1.4933000   -0.418616442419
      3   S      24             0.2717400    1.199406000932

      4   S      25             0.0985020    1.000000000000

      5   P      26           310.7300000    0.004146568386
      5   P      27            72.8230000    0.032188796435
      5   P      28            22.9850000    0.133099228935
      5   P      29             8.3213000    0.329919814372
      5   P      30             3.1353000    0.454000825739
      5   P      31             1.1693000    0.265161765449

      6   P      32            72.8230000    0.000223589163
      6   P      33            22.9850000   -0.001813908441
      6   P      34             8.3213000   -0.003775201366
      6   P      35             3.1353000   -0.033217242562
      6   P      36             1.1693000    0.101785529461
      6   P      37             0.2928100    0.947843241340

      7   P      38             0.0827040    1.000000000000

      8   D      39             0.4500000    1.000000000000

 O         

     15   S      40          2306.7000000    0.005424388755
     15   S      41           347.1500000    0.040474749465
     15   S      42            78.8900000    0.180219634554
     15   S      43            21.8760000    0.462370311787
     15   S      44             6.6646000    0.454888396263

     16   S      45           347.1500000   -0.000655003786
     16   S      46            78.8900000   -0.005362052952
     16   S      47            21.8760000   -0.074902158894
     16   S      48             6.6646000   -0.181442579655
     16   S      49             1.0669000    1.102006874042

     17   S      50             0.3070000    1.000000000000

     18   P      51            17.0220000    0.068979967443
     18   P      52             3.6838000    0.351985516325
     18   P      53             0.9923400    0.724036547822

     19   P      54             0.2448700    1.000000000000

     20   D      55             1.0000000    1.000000000000

 TOTAL NUMBER OF BASIS SET SHELLS             =   20
 NUMBER OF CARTESIAN GAUSSIAN BASIS FUNCTIONS =   49
 NOTE: THIS RUN WILL RESTRICT THE MO VARIATION SPACE TO SPHERICAL HARMONICS.
 THE NUMBER OF ORBITALS KEPT IN THE VARIATIONAL SPACE WILL BE PRINTED LATER.
 NUMBER OF ELECTRONS                          =   30
 CHARGE OF MOLECULE                           =    0
 SPIN MULTIPLICITY                            =    1
 NUMBER OF OCCUPIED ORBITALS (ALPHA)          =   15
 NUMBER OF OCCUPIED ORBITALS (BETA )          =   15
 TOTAL NUMBER OF ATOMS                        =    3
 THE NUCLEAR REPULSION ENERGY IS       90.3146368524

     LEBEDEV GRID-BASED DFT OPTIONS
     ------------------------------
     DFTTYP=PBE     
     NRAD  =      96     NLEB  =     302
     NRAD0 =      24     NLEB0 =     110
     SWOFF =    5.00E-03 (PURE SCF -> DFT)
     SWITCH=    3.00E-04 (COARSE -> TIGHT GRID)
     THRESH=    0.00E+00 GTHRE=    1.00E+00

 GRIMME'S EMPIRICAL DISPERSION CORRECTION= F

     $CONTRL OPTIONS
     ---------------
 SCFTYP=RHF          RUNTYP=OPTIMIZE     EXETYP=RUN     
 MPLEVL=       0     CITYP =NONE         CCTYP =NONE         VBTYP =NONE    
 DFTTYP=PBE          TDDFT =NONE    
 MULT  =       1     ICHARG=       0     NZVAR =       0     COORD =ZMT     
 PP    =NONE         RELWFN=NONE         LOCAL =NONE         NUMGRD=       F
 ISPHER=       1     NOSYM =       0     MAXIT =      30     UNITS =ANGS    
 PLTORB=       F     MOLPLT=       F     AIMPAC=       F     FRIEND=        
 NPRINT=       7     IREST =       0     GEOM  =INPUT   
 NORMF =       0     NORMP =       0     ITOL  =      20     ICUT  =       9
 INTTYP=BEST         GRDTYP=BEST         QMTTOL= 1.0E-06

     $SYSTEM OPTIONS
     ---------------
  REPLICATED MEMORY=     1000000 WORDS (ON EVERY NODE).
 DISTRIBUTED MEMDDI=           0 MILLION WORDS IN AGGREGATE,
 MEMDDI DISTRIBUTED OVER   1 PROCESSORS IS           0 WORDS/PROCESSOR.
 TOTAL MEMORY REQUESTED ON EACH PROCESSOR=     1000000 WORDS.
 TIMLIM=      525600.00 MINUTES, OR     365.0 DAYS.
 PARALL= F  BALTYP=  DLB     KDIAG=    0  COREFL= F
 MXSEQ2=     300 MXSEQ3=     150

          ----------------
          PROPERTIES INPUT
          ----------------

     MOMENTS            FIELD           POTENTIAL          DENSITY
 IEMOM =       1   IEFLD =       0   IEPOT =       0   IEDEN =       0
 WHERE =COMASS     WHERE =NUCLEI     WHERE =NUCLEI     WHERE =NUCLEI  
 OUTPUT=BOTH       OUTPUT=BOTH       OUTPUT=BOTH       OUTPUT=BOTH    
 IEMINT=       0   IEFINT=       0                     IEDINT=       0
                                                       MORB  =       0
          EXTRAPOLATION IN EFFECT
          DIIS IN EFFECT
 ORBITAL PRINTING OPTION: NPREO=     1    49     2     1

     -------------------------------
     INTEGRAL TRANSFORMATION OPTIONS
     -------------------------------
     NWORD  =            0
     CUTOFF = 1.0E-09     MPTRAN =       0
     DIRTRF =       F     AOINTS =DUP     

          ----------------------
          INTEGRAL INPUT OPTIONS
          ----------------------
 NOPK  =       1 NORDER=       0 SCHWRZ=       F

   --- ENCODED Z MATRIX ---
 COORD  TYPE   I   J   K   L   M   N
    1      1    3   1
    2      1    2   1
    3      2    2   1   3

 THE DETERMINANT OF THE G MATRIX IS 10**(    -4)

 THE DETERMINANT OF THE G MATRIX IS 10**(    -4)
 * * * WARNING * * *
 YOUR B MATRIX HAS A SMALL DETERMINANT.
 THIS SUGGESTS YOU MAY HAVE BADLY CHOSEN COORDINATES.

     ------------------------------------------
     THE POINT GROUP IS CNV, NAXIS= 2, ORDER= 4
     ------------------------------------------

 -- VARIATIONAL SPACE WILL BE RESTRICTED TO PURE SPHERICAL HARMONICS ONLY --
 AFTER EXCLUDING CONTAMINANT COMBINATIONS FROM THE CARTESIAN GAUSSIAN BASIS
 SET, THE NUMBER OF SPHERICAL HARMONICS KEPT IN THE VARIATION SPACE IS   46

     DIMENSIONS OF THE SYMMETRY SUBSPACES ARE
 A1  =   19     A2  =    5     B1  =   14     B2  =    8

 ..... DONE SETTING UP THE RUN .....
 STEP CPU TIME =     0.01 TOTAL CPU TIME =        0.0 (    0.0 MIN)
 TOTAL WALL CLOCK TIME=        0.0 SECONDS, CPU UTILIZATION IS  50.00%


          -----------------------------
          STATIONARY POINT LOCATION RUN
          -----------------------------

 OBTAINING INITIAL HESSIAN, HESS=GUESS   
 CARTESIAN COORDINATE OPTIMIZATION USING BADGER'S RULE FORCE CONSTANT GUESS

          PARAMETERS CONTROLLING GEOMETRY SEARCH ARE
          METHOD =QA                  UPHESS =BFGS    
          NNEG   =         0          NFRZ   =         0
          NSTEP  =        50          IFOLOW =         1
          HESS   =GUESS               RESTAR =         F
          IHREP  =         0          HSSEND =         F
          NPRT   =         0          NPUN   =         0
          OPTTOL = 1.000E-04          RMIN   = 1.500E-03
          RMAX   = 1.000E-01          RLIM   = 7.000E-02
          DXMAX  = 3.000E-01          PURIFY =         F
          MOVIE  =         F          TRUPD  =         T
          TRMAX  = 5.000E-01          TRMIN  = 5.000E-02
          ITBMAT =         5          STPT   =         F
          STSTEP = 1.000E-02          PROJCT=          T

 BEGINNING GEOMETRY SEARCH POINT NSERCH=   0 ...

 COORDINATES OF SYMMETRY UNIQUE ATOMS (ANGS)
   ATOM   CHARGE       X              Y              Z
 ------------------------------------------------------------
 SI         14.0   0.0000000000   0.0000000000  -0.0139652226
 O           8.0   1.4997715427   0.0000000000   0.0122133871
 COORDINATES OF ALL ATOMS ARE (ANGS)
   ATOM   CHARGE       X              Y              Z
 ------------------------------------------------------------
 SI         14.0   0.0000000000   0.0000000000  -0.0139652226
 O           8.0  -1.4997715427   0.0000000000   0.0122133871
 O           8.0   1.4997715427   0.0000000000   0.0122133871

 THE CURRENT FULLY SUBSTITUTED Z-MATRIX IS
 SI  
 O      1   1.5000000
 O      1   1.5000000  2   178.0000000

          ********************
          1 ELECTRON INTEGRALS
          ********************
 ...... END OF ONE-ELECTRON INTEGRALS ......
 STEP CPU TIME =     0.01 TOTAL CPU TIME =        0.0 (    0.0 MIN)
 TOTAL WALL CLOCK TIME=        0.0 SECONDS, CPU UTILIZATION IS 100.00%

          -------------
          GUESS OPTIONS
          -------------
          GUESS =HUCKEL            NORB  =       0          NORDER=       0
          MIX   =       F          PRTMO =       F          PUNMO =       F
          TOLZ  = 1.0E-08          TOLE  = 1.0E-05
          SYMDEN=       F          PURIFY=       F

 INITIAL GUESS ORBITALS GENERATED BY HUCKEL   ROUTINE.
 HUCKEL GUESS REQUIRES     21583 WORDS.

 STATISTICS FOR GENERATION OF SYMMETRY ORBITAL -Q- MATRIX
 NUMBER OF CARTESIAN ATOMIC ORBITALS=         49
 NUMBER OF SPHERICAL CONTAMINANTS DROPPED=     3
 NUMBER OF LINEARLY DEPENDENT MOS DROPPED=     0
 TOTAL NUMBER OF MOS IN VARIATION SPACE=      46

 SYMMETRIES FOR INITIAL GUESS ORBITALS FOLLOW.   BOTH SET(S).
    15 ORBITALS ARE OCCUPIED (    7 CORE ORBITALS).
     8=?B1      9=?A1     10=A1      11=B2      12=A1      13=B1      14=A2  
    15=?B1     16=A1      17=B2      18=A1      19=B1      20=A1      21=A1  
    22=A1      23=A1      24=A1      25=A1  
 ...... END OF INITIAL ORBITAL SELECTION ......
 STEP CPU TIME =     0.00 TOTAL CPU TIME =        0.0 (    0.0 MIN)
 TOTAL WALL CLOCK TIME=        0.0 SECONDS, CPU UTILIZATION IS  66.67%

                    ----------------------
                    AO INTEGRAL TECHNOLOGY
                    ----------------------
     S,P,L SHELL ROTATED AXIS INTEGRALS, REPROGRAMMED BY
        KAZUYA ISHIMURA (IMS) AND JOSE SIERRA (SYNSTAR).
     S,P,D,L SHELL ROTATED AXIS INTEGRALS PROGRAMMED BY
        KAZUYA ISHIMURA (INSTITUTE FOR MOLECULAR SCIENCE).
     S,P,D,F,G SHELL TO TOTAL QUARTET ANGULAR MOMENTUM SUM 5,
        ERIC PROGRAM BY GRAHAM FLETCHER (ELORET AND NASA ADVANCED
        SUPERCOMPUTING DIVISION, AMES RESEARCH CENTER).
     S,P,D,F,G,L SHELL GENERAL RYS QUADRATURE PROGRAMMED BY
        MICHEL DUPUIS (PACIFIC NORTHWEST NATIONAL LABORATORY).

          --------------------
          2 ELECTRON INTEGRALS
          --------------------

 THE -PK- OPTION IS OFF, THE INTEGRALS ARE NOT IN SUPERMATRIX FORM.
 STORING   15000 INTEGRALS/RECORD ON DISK, USING 12 BYTES/INTEGRAL.
 TWO ELECTRON INTEGRAL EVALUATION REQUIRES   90606 WORDS OF MEMORY.
 II,JST,KST,LST =  1  1  1  1 NREC =         1 INTLOC =    1
 II,JST,KST,LST =  2  1  1  1 NREC =         1 INTLOC =    2
 II,JST,KST,LST =  3  1  1  1 NREC =         1 INTLOC =    7
 II,JST,KST,LST =  4  1  1  1 NREC =         1 INTLOC =   22
 II,JST,KST,LST =  5  1  1  1 NREC =         1 INTLOC =   56
 II,JST,KST,LST =  6  1  1  1 NREC =         1 INTLOC =  125
 II,JST,KST,LST =  7  1  1  1 NREC =         1 INTLOC =  329
 II,JST,KST,LST =  8  1  1  1 NREC =         1 INTLOC =  776
 II,JST,KST,LST =  9  1  1  1 NREC =         1 INTLOC = 2864
 II,JST,KST,LST = 10  1  1  1 NREC =         1 INTLOC = 2864
 II,JST,KST,LST = 11  1  1  1 NREC =         1 INTLOC = 2864
 II,JST,KST,LST = 12  1  1  1 NREC =         1 INTLOC = 2864
 II,JST,KST,LST = 13  1  1  1 NREC =         1 INTLOC = 2864
 II,JST,KST,LST = 14  1  1  1 NREC =         1 INTLOC = 2864
 II,JST,KST,LST = 15  1  1  1 NREC =         1 INTLOC = 2864
 II,JST,KST,LST = 16  1  1  1 NREC =         1 INTLOC = 5097
 II,JST,KST,LST = 17  1  1  1 NREC =         1 INTLOC = 8230
 II,JST,KST,LST = 18  1  1  1 NREC =         1 INTLOC =12645
 II,JST,KST,LST = 19  1  1  1 NREC =         2 INTLOC =14301
 II,JST,KST,LST = 20  1  1  1 NREC =         4 INTLOC =14904
 TOTAL NUMBER OF NONZERO TWO-ELECTRON INTEGRALS =              165205
         12 INTEGRAL RECORDS WERE STORED ON DISK FILE  8.
  ...... END OF TWO-ELECTRON INTEGRALS .....
 STEP CPU TIME =     0.16 TOTAL CPU TIME =        0.2 (    0.0 MIN)
 TOTAL WALL CLOCK TIME=        0.2 SECONDS, CPU UTILIZATION IS 100.00%

          --------------------------
               R-PBE SCF CALCULATION
          --------------------------

     NUCLEAR ENERGY =        90.3146368524
     MAXIT =   30     NPUNCH=    2
     EXTRAP=T  DAMP=F  SHIFT=F  RSTRCT=F  DIIS=T  DEM=F  SOSCF=F
         DENSITY MATRIX CONVERGENCE THRESHOLD=  1.00E-05
     COARSE -> FINE DFT GRID SWITCH THRESHOLD=  3.00E-04 (SWITCH IN $DFT)
                   HF -> DFT SWITCH THRESHOLD=  5.00E-03 (SWOFF IN $DFT)
     MEMORY REQUIRED FOR RHF ITERS=    183117 WORDS.

 DFT CODE IS SWITCHING FROM THE FINE GRID NRAD= 96,  NLEB=  302
                      TO THE COARSE GRID NRAD0= 24, NLEB0=  110

     EXCHANGE FUNCTIONAL   =PBE       
     CORRELATION FUNCTIONAL=PBE       
     DFT THRESHOLD         =.460E-07
     GRID CHANGE THRESHOLD =.300E-03
 FOR AN EULER-MACLAURIN QUADRATURE USING  96 RADIAL POINTS:
 SMALLEST GAUSSIAN PRIMITIVE EXPONENT=        0.0827040000 OF TYPE -P-
 ON ATOM NUMBER   1 HAS RADIAL NORMALIZATION=  1.000000
  LARGEST GAUSSIAN PRIMITIVE EXPONENT=    41263.0000000000 OF TYPE -S-
 ON ATOM NUMBER   1 HAS RADIAL NORMALIZATION=  0.999999
 DFT IS SWITCHED OFF, PERFORMING PURE SCF UNTIL SWOFF THRESHOLD IS REACHED.

 ITER EX DEM     TOTAL ENERGY        E CHANGE  DENSITY CHANGE    DIIS ERROR
   1  0  0     -437.8934011584  -437.8934011584   0.284224210   0.768939118
          * * *   INITIATING DIIS PROCEDURE   * * *
   2  1  0     -438.4874805401    -0.5940793817   0.164241047   0.220725637
   3  2  0     -438.5273938130    -0.0399132729   0.089389347   0.192842716
   4  3  0     -438.5874801031    -0.0600862901   0.010094417   0.014089038
   5  4  0     -438.5881240719    -0.0006439688   0.002980190   0.002761653
 CONVERGED TO SWOFF, SO DFT CALCULATION IS NOW SWITCHED ON.
          * * *   INITIATING DIIS PROCEDURE   * * *
   6  5  0     -439.5501353836    -0.9620113117   0.156253035   0.090968040
   7  6  0     -439.5396280826     0.0105073011   0.108175265   0.127342559
   8  7  0     -439.5662483119    -0.0266202293   0.044931115   0.094699452
   9  8  0     -439.5829203157    -0.0166720038   0.012446184   0.009199306
  10  9  0     -439.5831706488    -0.0002503332   0.000463236   0.001170929
  11 10  0     -439.5831732008    -0.0000025520   0.000157587   0.000175910
 DFT CODE IS SWITCHING BACK TO THE FINE GRID
          * * *   INITIATING DIIS PROCEDURE   * * *
  12 11  0     -439.6212821180    -0.0381089172   0.020187738   0.028056708
  13 12  0     -439.6213684610    -0.0000863430   0.015891320   0.019327852
  14 13  0     -439.6214294616    -0.0000610006   0.007424676   0.016506579
  15 14  0     -439.6220341902    -0.0006047286   0.001212169   0.001172420
  16 15  0     -439.6220363510    -0.0000021608   0.000263537   0.000152923
  17 16  0     -439.6220364538    -0.0000001029   0.000007893   0.000017347
  18 17  0     -439.6220364544    -0.0000000006   0.000000742   0.000000491
  19 18  0     -439.6220364544     0.0000000000   0.000000125   0.000000169

          -----------------
          DENSITY CONVERGED
          -----------------
     TIME TO FORM FOCK OPERATORS=       4.1 SECONDS (       0.2 SEC/ITER)
     TIME TO SOLVE SCF EQUATIONS=       0.0 SECONDS (       0.0 SEC/ITER)

 FINAL R-PBE ENERGY IS     -439.6220364544 AFTER  19 ITERATIONS
 DFT EXCHANGE + CORRELATION ENERGY =       -37.8119374777
 TOTAL ELECTRON NUMBER             =        29.9999582268

          ------------
          EIGENVECTORS
          ------------

                      1          2          3          4          5
                  -65.4591   -18.7722   -18.7722    -5.1303    -3.5418
                     A1         B1         A1         A1         B2  
    1  SI 1  S    1.002537   0.000000   0.000023  -0.264024   0.000000
    2  SI 1  S   -0.008944   0.000000   0.001011   1.036695   0.000000
    3  SI 1  S    0.002172   0.000000   0.002059   0.044271   0.000000
    4  SI 1  S   -0.000509   0.000000   0.003946  -0.011709   0.000000
    5  SI 1  X    0.000000   0.000098   0.000000   0.000000   0.000000
    6  SI 1  Y    0.000000   0.000000   0.000000   0.000000   0.993311
    7  SI 1  Z   -0.000004   0.000000   0.000001  -0.000487   0.000000
    8  SI 1  X    0.000000  -0.004954   0.000000   0.000000   0.000000
    9  SI 1  Y    0.000000   0.000000   0.000000   0.000000   0.021697
   10  SI 1  Z    0.000017   0.000000   0.000065   0.000056   0.000000
   11  SI 1  X    0.000000  -0.004617   0.000000   0.000000   0.000000
   12  SI 1  Y    0.000000   0.000000   0.000000   0.000000  -0.003242
   13  SI 1  Z   -0.000001   0.000000   0.000071   0.000006   0.000000
   14  SI 1 XX    0.000518   0.000000   0.000232   0.003100   0.000000
   15  SI 1 YY   -0.000259   0.000000  -0.000117  -0.001550   0.000000
   16  SI 1 ZZ   -0.000259   0.000000  -0.000116  -0.001549   0.000000
   17  SI 1 XY    0.000000   0.000000   0.000000   0.000000   0.000000
   18  SI 1 XZ    0.000000  -0.000037   0.000000   0.000000   0.000000
   19  SI 1 YZ    0.000000   0.000000   0.000000   0.000000  -0.000057
   20  O  2  S    0.000022   0.703309   0.703214  -0.000532   0.000000
   21  O  2  S    0.000099   0.026246   0.025222   0.000615   0.000000
   22  O  2  S   -0.000587  -0.013996  -0.010503  -0.002790   0.000000
   23  O  2  X   -0.000117   0.000747   0.001085   0.000671   0.000000
   24  O  2  Y    0.000000   0.000000   0.000000   0.000000   0.000516
   25  O  2  Z    0.000002  -0.000026  -0.000011  -0.000010   0.000000
   26  O  2  X   -0.000481  -0.003001  -0.002580  -0.003348   0.000000
   27  O  2  Y    0.000000   0.000000   0.000000   0.000000  -0.000188
   28  O  2  Z    0.000010   0.000095   0.000003   0.000071   0.000000
   29  O  2 XX   -0.000165  -0.000525  -0.000294   0.000761   0.000000
   30  O  2 YY    0.000082   0.000263   0.000147  -0.000380   0.000000
   31  O  2 ZZ    0.000082   0.000263   0.000147  -0.000380   0.000000
   32  O  2 XY    0.000000   0.000000   0.000000   0.000000   0.000513
   33  O  2 XZ    0.000007   0.000019   0.000001  -0.000011   0.000000
   34  O  2 YZ    0.000000   0.000000   0.000000   0.000000  -0.000007
   35  O  3  S    0.000022  -0.703309   0.703214  -0.000532   0.000000
   36  O  3  S    0.000099  -0.026246   0.025222   0.000615   0.000000
   37  O  3  S   -0.000587   0.013996  -0.010503  -0.002790   0.000000
   38  O  3  X    0.000117   0.000747  -0.001085  -0.000671   0.000000
   39  O  3  Y    0.000000   0.000000   0.000000   0.000000   0.000516
   40  O  3  Z    0.000002   0.000026  -0.000011  -0.000010   0.000000
   41  O  3  X    0.000481  -0.003001   0.002580   0.003348   0.000000
   42  O  3  Y    0.000000   0.000000   0.000000   0.000000  -0.000188
   43  O  3  Z    0.000010  -0.000095   0.000003   0.000071   0.000000
   44  O  3 XX   -0.000165   0.000525  -0.000294   0.000761   0.000000
   45  O  3 YY    0.000082  -0.000263   0.000147  -0.000380   0.000000
   46  O  3 ZZ    0.000082  -0.000263   0.000147  -0.000380   0.000000
   47  O  3 XY    0.000000   0.000000   0.000000   0.000000  -0.000513
   48  O  3 XZ   -0.000007   0.000019  -0.000001   0.000011   0.000000
   49  O  3 YZ    0.000000   0.000000   0.000000   0.000000  -0.000007

                      6          7          8          9         10
                   -3.5418    -3.5363    -0.9182    -0.8920    -0.4194
                     A1         B1         A1         B1         A1  
    1  SI 1  S   -0.000127   0.000000   0.036444   0.000000   0.055549
    2  SI 1  S    0.000493   0.000000  -0.121042   0.000000  -0.169313
    3  SI 1  S   -0.000015   0.000000   0.214515   0.000000   0.398154
    4  SI 1  S    0.000063   0.000000   0.053306   0.000000   0.190047
    5  SI 1  X    0.000000   0.991740   0.000000   0.140033   0.000000
    6  SI 1  Y    0.000000   0.000000   0.000000   0.000000   0.000000
    7  SI 1  Z    0.993310   0.000000  -0.002128   0.000000   0.001265
    8  SI 1  X    0.000000   0.025064   0.000000  -0.192565   0.000000
    9  SI 1  Y    0.000000   0.000000   0.000000   0.000000   0.000000
   10  SI 1  Z    0.021698   0.000000   0.002766   0.000000  -0.003495
   11  SI 1  X    0.000000  -0.003247   0.000000  -0.000077   0.000000
   12  SI 1  Y    0.000000   0.000000   0.000000   0.000000   0.000000
   13  SI 1  Z   -0.003242   0.000000  -0.000305   0.000000  -0.003996
   14  SI 1 XX    0.000093   0.000000   0.091129   0.000000   0.031483
   15  SI 1 YY    0.000003   0.000000  -0.045578   0.000000  -0.015739
   16  SI 1 ZZ   -0.000096   0.000000  -0.045551   0.000000  -0.015743
   17  SI 1 XY    0.000000   0.000000   0.000000   0.000000   0.000000
   18  SI 1 XZ    0.000000   0.000006   0.000000  -0.002416   0.000000
   19  SI 1 YZ    0.000000   0.000000   0.000000   0.000000   0.000000
   20  O  2  S   -0.000037   0.002103  -0.144972  -0.152483   0.072073
   21  O  2  S    0.000054  -0.003095   0.291833   0.305088  -0.142929
   22  O  2  S   -0.000029   0.000323   0.318457   0.355551  -0.300277
   23  O  2  X    0.000088  -0.004965   0.096331   0.094672   0.322124
   24  O  2  Y    0.000000   0.000000   0.000000   0.000000   0.000000
   25  O  2  Z    0.000514   0.000097  -0.001798  -0.001779  -0.008441
   26  O  2  X   -0.000030   0.001220   0.022101   0.023789   0.176859
   27  O  2  Y    0.000000   0.000000   0.000000   0.000000   0.000000
   28  O  2  Z   -0.000187  -0.000030  -0.000116  -0.000701  -0.003923
   29  O  2 XX    0.000056  -0.002544   0.006299   0.012908   0.011781
   30  O  2 YY   -0.000021   0.001273  -0.003149  -0.006461  -0.005894
   31  O  2 ZZ   -0.000034   0.001272  -0.003150  -0.006447  -0.005888
   32  O  2 XY    0.000000   0.000000   0.000000   0.000000   0.000000
   33  O  2 XZ    0.000512   0.000087  -0.000093  -0.000630  -0.000394
   34  O  2 YZ    0.000000   0.000000   0.000000   0.000000   0.000000
   35  O  3  S   -0.000037  -0.002103  -0.144972   0.152483   0.072073
   36  O  3  S    0.000054   0.003095   0.291833  -0.305088  -0.142929
   37  O  3  S   -0.000029  -0.000323   0.318457  -0.355551  -0.300277
   38  O  3  X   -0.000088  -0.004965  -0.096331   0.094672  -0.322124
   39  O  3  Y    0.000000   0.000000   0.000000   0.000000   0.000000
   40  O  3  Z    0.000514  -0.000097  -0.001798   0.001779  -0.008441
   41  O  3  X    0.000030   0.001220  -0.022101   0.023789  -0.176859
   42  O  3  Y    0.000000   0.000000   0.000000   0.000000   0.000000
   43  O  3  Z   -0.000187   0.000030  -0.000116   0.000701  -0.003923
   44  O  3 XX    0.000056   0.002544   0.006299  -0.012908   0.011781
   45  O  3 YY   -0.000021  -0.001273  -0.003149   0.006461  -0.005894
   46  O  3 ZZ   -0.000034  -0.001272  -0.003150   0.006447  -0.005888
   47  O  3 XY    0.000000   0.000000   0.000000   0.000000   0.000000
   48  O  3 XZ   -0.000512   0.000087   0.000093  -0.000630   0.000394
   49  O  3 YZ    0.000000   0.000000   0.000000   0.000000   0.000000

                     11         12         13         14         15
                   -0.3523    -0.3432    -0.3432    -0.3040    -0.3040
                     B1         A1         B2         A2         B1  
    1  SI 1  S    0.000000   0.000083   0.000000   0.000000   0.000000
    2  SI 1  S    0.000000  -0.000320   0.000000   0.000000   0.000000
    3  SI 1  S    0.000000   0.000329   0.000000   0.000000   0.000000
    4  SI 1  S    0.000000  -0.004832   0.000000   0.000000   0.000000
    5  SI 1  X    0.162913   0.000000   0.000000   0.000000   0.000592
    6  SI 1  Y    0.000000   0.000000  -0.149220   0.000000   0.000000
    7  SI 1  Z    0.000000  -0.149213   0.000000   0.000000   0.000000
    8  SI 1  X   -0.338407   0.000000   0.000000   0.000000  -0.002152
    9  SI 1  Y    0.000000   0.000000   0.323774   0.000000   0.000000
   10  SI 1  Z    0.000000   0.323730   0.000000   0.000000   0.000000
   11  SI 1  X    0.079440   0.000000   0.000000   0.000000   0.005225
   12  SI 1  Y    0.000000   0.000000   0.158678   0.000000   0.000000
   13  SI 1  Z    0.000000   0.158622   0.000000   0.000000   0.000000
   14  SI 1 XX    0.000000  -0.002467   0.000000   0.000000   0.000000
   15  SI 1 YY    0.000000   0.000202   0.000000   0.000000   0.000000
   16  SI 1 ZZ    0.000000   0.002265   0.000000   0.000000   0.000000
   17  SI 1 XY    0.000000   0.000000   0.000000  -0.132412   0.000000
   18  SI 1 XZ   -0.001017   0.000000   0.000000   0.000000  -0.132424
   19  SI 1 YZ    0.000000   0.000000   0.001191   0.000000   0.000000
   20  O  2  S    0.045610   0.000639   0.000000   0.000000   0.000262
   21  O  2  S   -0.094520  -0.001375   0.000000   0.000000  -0.000611
   22  O  2  S   -0.190018  -0.002421   0.000000   0.000000  -0.000781
   23  O  2  X    0.432211   0.012310   0.000000   0.000000   0.014516
   24  O  2  Y    0.000000   0.000000   0.380971   0.451497   0.000000
   25  O  2  Z   -0.013241   0.380788   0.000000   0.000000   0.451272
   26  O  2  X    0.227179   0.008266   0.000000   0.000000   0.008383
   27  O  2  Y    0.000000   0.000000   0.244985   0.323877   0.000000
   28  O  2  Z   -0.008600   0.244869   0.000000   0.000000   0.323734
   29  O  2 XX    0.017569   0.001129   0.000000   0.000000   0.000501
   30  O  2 YY   -0.008794  -0.000238   0.000000   0.000000   0.000037
   31  O  2 ZZ   -0.008775  -0.000891   0.000000   0.000000  -0.000537
   32  O  2 XY    0.000000   0.000000   0.021092   0.017363   0.000000
   33  O  2 XZ   -0.000903   0.021063   0.000000   0.000000   0.017355
   34  O  2 YZ    0.000000   0.000000  -0.000375  -0.000329   0.000000
   35  O  3  S   -0.045610   0.000639   0.000000   0.000000  -0.000262
   36  O  3  S    0.094520  -0.001375   0.000000   0.000000   0.000611
   37  O  3  S    0.190018  -0.002421   0.000000   0.000000   0.000781
   38  O  3  X    0.432211  -0.012310   0.000000   0.000000   0.014516
   39  O  3  Y    0.000000   0.000000   0.380971  -0.451497   0.000000
   40  O  3  Z    0.013241   0.380788   0.000000   0.000000  -0.451272
   41  O  3  X    0.227179  -0.008266   0.000000   0.000000   0.008383
   42  O  3  Y    0.000000   0.000000   0.244985  -0.323877   0.000000
   43  O  3  Z    0.008600   0.244869   0.000000   0.000000  -0.323734
   44  O  3 XX   -0.017569   0.001129   0.000000   0.000000  -0.000501
   45  O  3 YY    0.008794  -0.000238   0.000000   0.000000  -0.000037
   46  O  3 ZZ    0.008775  -0.000891   0.000000   0.000000   0.000537
   47  O  3 XY    0.000000   0.000000  -0.021092   0.017363   0.000000
   48  O  3 XZ   -0.000903  -0.021063   0.000000   0.000000   0.017355
   49  O  3 YZ    0.000000   0.000000  -0.000375   0.000329   0.000000

                     16         17         18         19         20
                   -0.1534    -0.0527    -0.0524     0.1298     0.2383
                     A1         B2         A1         B1         A1  
    1  SI 1  S    0.031262   0.000000   0.001436   0.000000  -0.005052
    2  SI 1  S   -0.176037   0.000000  -0.010730   0.000000  -0.014535
    3  SI 1  S    0.110448   0.000000   0.001293   0.000000  -0.087813
    4  SI 1  S    1.009749   0.000000   0.068707   0.000000   0.106241
    5  SI 1  X    0.000000   0.000000   0.000000  -0.034491   0.000000
    6  SI 1  Y    0.000000  -0.193418   0.000000   0.000000   0.000000
    7  SI 1  Z    0.012015   0.000000  -0.193000   0.000000  -0.292627
    8  SI 1  X    0.000000   0.000000   0.000000   0.038722   0.000000
    9  SI 1  Y    0.000000   0.514331   0.000000   0.000000   0.000000
   10  SI 1  Z   -0.030391   0.000000   0.513281   0.000000   1.186832
   11  SI 1  X    0.000000   0.000000   0.000000   1.567775   0.000000
   12  SI 1  Y    0.000000   0.670858   0.000000   0.000000   0.000000
   13  SI 1  Z   -0.022436   0.000000   0.670920   0.000000  -1.156568
   14  SI 1 XX   -0.228183   0.000000  -0.012518   0.000000   0.007730
   15  SI 1 YY    0.113973   0.000000   0.010191   0.000000  -0.002674
   16  SI 1 ZZ    0.114210   0.000000   0.002327   0.000000  -0.005056
   17  SI 1 XY    0.000000   0.000000   0.000000   0.000000   0.000000
   18  SI 1 XZ    0.000000   0.000000   0.000000  -0.006637   0.000000
   19  SI 1 YZ    0.000000  -0.004539   0.000000   0.000000   0.000000
   20  O  2  S    0.036131   0.000000   0.003275  -0.067560   0.000540
   21  O  2  S   -0.074215   0.000000  -0.006621   0.107946   0.000954
   22  O  2  S   -0.241544   0.000000  -0.025238   0.740092  -0.015484
   23  O  2  X   -0.310632   0.000000  -0.021504   0.018291   0.006014
   24  O  2  Y    0.000000  -0.325830   0.000000   0.000000   0.000000
   25  O  2  Z    0.024254   0.000000  -0.324963  -0.008926  -0.027306
   26  O  2  X   -0.213554   0.000000  -0.018188   0.050127  -0.005158
   27  O  2  Y    0.000000  -0.319319   0.000000   0.000000   0.000000
   28  O  2  Z    0.020565   0.000000  -0.318593  -0.007444   0.025442
   29  O  2 XX   -0.001643   0.000000  -0.000288   0.012309  -0.000623
   30  O  2 YY    0.000825   0.000000   0.000168  -0.006155   0.000664
   31  O  2 ZZ    0.000818   0.000000   0.000120  -0.006154  -0.000041
   32  O  2 XY    0.000000  -0.001611   0.000000   0.000000   0.000000
   33  O  2 XZ    0.000291   0.000000  -0.001588  -0.000351   0.021195
   34  O  2 YZ    0.000000  -0.000030   0.000000   0.000000   0.000000
   35  O  3  S    0.036131   0.000000   0.003275   0.067560   0.000540
   36  O  3  S   -0.074215   0.000000  -0.006621  -0.107946   0.000954
   37  O  3  S   -0.241544   0.000000  -0.025238  -0.740092  -0.015484
   38  O  3  X    0.310632   0.000000   0.021504   0.018291  -0.006014
   39  O  3  Y    0.000000  -0.325830   0.000000   0.000000   0.000000
   40  O  3  Z    0.024254   0.000000  -0.324963   0.008926  -0.027306
   41  O  3  X    0.213554   0.000000   0.018188   0.050127   0.005158
   42  O  3  Y    0.000000  -0.319319   0.000000   0.000000   0.000000
   43  O  3  Z    0.020565   0.000000  -0.318593   0.007444   0.025442
   44  O  3 XX   -0.001643   0.000000  -0.000288  -0.012309  -0.000623
   45  O  3 YY    0.000825   0.000000   0.000168   0.006155   0.000664
   46  O  3 ZZ    0.000818   0.000000   0.000120   0.006154  -0.000041
   47  O  3 XY    0.000000   0.001611   0.000000   0.000000   0.000000
   48  O  3 XZ   -0.000291   0.000000   0.001588  -0.000351  -0.021195
   49  O  3 YZ    0.000000  -0.000030   0.000000   0.000000   0.000000

                     21         22         23         24         25
                    0.2384     0.2861     0.4854     0.4854     0.5892
                     B2         A1         B2         A1         B1  
    1  SI 1  S    0.000000  -0.098092   0.000000   0.000018   0.000000
    2  SI 1  S    0.000000  -0.276028   0.000000   0.000045   0.000000
    3  SI 1  S    0.000000  -1.694339   0.000000   0.000313   0.000000
    4  SI 1  S    0.000000   2.004842   0.000000  -0.000018   0.000000
    5  SI 1  X    0.000000   0.000000   0.000000   0.000000   0.087918
    6  SI 1  Y   -0.292995   0.000000  -0.001106   0.000000   0.000000
    7  SI 1  Z    0.000000   0.014984   0.000000  -0.001108   0.000000
    8  SI 1  X    0.000000   0.000000   0.000000   0.000000  -0.434877
    9  SI 1  Y    1.188235   0.000000   0.003265   0.000000   0.000000
   10  SI 1  Z    0.000000  -0.058830   0.000000   0.003275   0.000000
   11  SI 1  X    0.000000   0.000000   0.000000   0.000000   0.157953
   12  SI 1  Y   -1.158240   0.000000   0.002492   0.000000   0.000000
   13  SI 1  Z    0.000000   0.059206   0.000000   0.002488   0.000000
   14  SI 1 XX    0.000000   0.320416   0.000000  -0.000172   0.000000
   15  SI 1 YY    0.000000  -0.160411   0.000000  -0.861394   0.000000
   16  SI 1 ZZ    0.000000  -0.160005   0.000000   0.861565   0.000000
   17  SI 1 XY    0.000000   0.000000   0.000000   0.000000   0.000000
   18  SI 1 XZ    0.000000   0.000000   0.000000   0.000000   0.866276
   19  SI 1 YZ   -0.001379   0.000000   0.994750   0.000000   0.000000
   20  O  2  S    0.000000   0.011383   0.000000   0.000015   0.009925
   21  O  2  S    0.000000   0.037105   0.000000  -0.000050  -0.036092
   22  O  2  S    0.000000  -0.386780   0.000000  -0.000116  -0.070075
   23  O  2  X    0.000000   0.219766   0.000000  -0.000195  -0.076521
   24  O  2  Y   -0.027196   0.000000  -0.008193   0.000000   0.000000
   25  O  2  Z    0.000000  -0.001268   0.000000  -0.008195   0.397704
   26  O  2  X    0.000000  -0.065791   0.000000  -0.000152  -0.118566
   27  O  2  Y    0.025339   0.000000  -0.000847   0.000000   0.000000
   28  O  2  Z    0.000000   0.002581   0.000000  -0.000841  -0.052927
   29  O  2 XX    0.000000  -0.037231   0.000000   0.000029   0.005488
   30  O  2 YY    0.000000   0.018599   0.000000  -0.028487  -0.004097
   31  O  2 ZZ    0.000000   0.018632   0.000000   0.028457  -0.001391
   32  O  2 XY    0.021196   0.000000   0.001452   0.000000   0.000000
   33  O  2 XZ    0.000000  -0.000088   0.000000   0.001452  -0.053082
   34  O  2 YZ   -0.000408   0.000000   0.032879   0.000000   0.000000
   35  O  3  S    0.000000   0.011383   0.000000   0.000015  -0.009925
   36  O  3  S    0.000000   0.037105   0.000000  -0.000050   0.036092
   37  O  3  S    0.000000  -0.386780   0.000000  -0.000116   0.070075
   38  O  3  X    0.000000  -0.219766   0.000000   0.000195  -0.076521
   39  O  3  Y   -0.027196   0.000000  -0.008193   0.000000   0.000000
   40  O  3  Z    0.000000  -0.001268   0.000000  -0.008195  -0.397704
   41  O  3  X    0.000000   0.065791   0.000000   0.000152  -0.118566
   42  O  3  Y    0.025339   0.000000  -0.000847   0.000000   0.000000
   43  O  3  Z    0.000000   0.002581   0.000000  -0.000841   0.052927
   44  O  3 XX    0.000000  -0.037231   0.000000   0.000029  -0.005488
   45  O  3 YY    0.000000   0.018599   0.000000  -0.028487   0.004097
   46  O  3 ZZ    0.000000   0.018632   0.000000   0.028457   0.001391
   47  O  3 XY   -0.021196   0.000000  -0.001452   0.000000   0.000000
   48  O  3 XZ    0.000000   0.000088   0.000000  -0.001452  -0.053082
   49  O  3 YZ   -0.000408   0.000000   0.032879   0.000000   0.000000

                     26         27         28         29         30
                    0.5917     0.6397     0.6659     0.7562     0.7797
                     A2         B1         A1         B1         A2  
    1  SI 1  S    0.000000   0.000000   0.062745   0.000000   0.000000
    2  SI 1  S    0.000000   0.000000   0.409091   0.000000   0.000000
    3  SI 1  S    0.000000   0.000000   1.502632   0.000000   0.000000
    4  SI 1  S    0.000000   0.000000   0.158938   0.000000   0.000000
    5  SI 1  X    0.000000  -0.388067   0.000000   0.037212   0.000000
    6  SI 1  Y    0.000000   0.000000   0.000000   0.000000   0.000000
    7  SI 1  Z    0.000000   0.000000  -0.003412   0.000000   0.000000
    8  SI 1  X    0.000000   2.137407   0.000000   0.605520   0.000000
    9  SI 1  Y    0.000000   0.000000   0.000000   0.000000   0.000000
   10  SI 1  Z    0.000000   0.000000   0.030105   0.000000   0.000000
   11  SI 1  X    0.000000  -0.597320   0.000000  -0.115816   0.000000
   12  SI 1  Y    0.000000   0.000000   0.000000   0.000000   0.000000
   13  SI 1  Z    0.000000   0.000000  -0.005912   0.000000   0.000000
   14  SI 1 XX    0.000000   0.000000   0.738078   0.000000   0.000000
   15  SI 1 YY    0.000000   0.000000  -0.369116   0.000000   0.000000
   16  SI 1 ZZ    0.000000   0.000000  -0.368962   0.000000   0.000000
   17  SI 1 XY    0.887613   0.000000   0.000000   0.000000   0.602070
   18  SI 1 XZ    0.000000   0.187301   0.000000   0.048310   0.000000
   19  SI 1 YZ    0.000000   0.000000   0.000000   0.000000   0.000000
   20  O  2  S    0.000000  -0.057324   0.060943  -0.015057   0.000000
   21  O  2  S    0.000000   0.184788  -0.113619  -0.056555   0.000000
   22  O  2  S    0.000000   0.481876  -0.643554   0.283949   0.000000
   23  O  2  X    0.000000   0.256277   0.296872  -0.620248   0.000000
   24  O  2  Y    0.409594   0.000000   0.000000   0.000000  -0.521887
   25  O  2  Z    0.000000   0.099523  -0.002996  -0.087380   0.000000
   26  O  2  X    0.000000   0.805402  -1.251663   1.044425   0.000000
   27  O  2  Y   -0.061672   0.000000   0.000000   0.000000   0.828265
   28  O  2  Z    0.000000  -0.054627   0.023394   0.109472   0.000000
   29  O  2 XX    0.000000  -0.036878  -0.012177  -0.027863   0.000000
   30  O  2 YY    0.000000   0.018146   0.006085   0.013858   0.000000
   31  O  2 ZZ    0.000000   0.018732   0.006092   0.014005   0.000000
   32  O  2 XY   -0.054325   0.000000   0.000000   0.000000  -0.058479
   33  O  2 XZ    0.000000  -0.010363   0.000351  -0.002633   0.000000
   34  O  2 YZ    0.001607   0.000000   0.000000   0.000000   0.001550
   35  O  3  S    0.000000   0.057324   0.060943   0.015057   0.000000
   36  O  3  S    0.000000  -0.184788  -0.113619   0.056555   0.000000
   37  O  3  S    0.000000  -0.481876  -0.643554  -0.283949   0.000000
   38  O  3  X    0.000000   0.256277  -0.296872  -0.620248   0.000000
   39  O  3  Y   -0.409594   0.000000   0.000000   0.000000   0.521887
   40  O  3  Z    0.000000  -0.099523  -0.002996   0.087380   0.000000
   41  O  3  X    0.000000   0.805402   1.251663   1.044425   0.000000
   42  O  3  Y    0.061672   0.000000   0.000000   0.000000  -0.828265
   43  O  3  Z    0.000000   0.054627   0.023394  -0.109472   0.000000
   44  O  3 XX    0.000000   0.036878  -0.012177   0.027863   0.000000
   45  O  3 YY    0.000000  -0.018146   0.006085  -0.013858   0.000000
   46  O  3 ZZ    0.000000  -0.018732   0.006092  -0.014005   0.000000
   47  O  3 XY   -0.054325   0.000000   0.000000   0.000000  -0.058479
   48  O  3 XZ    0.000000  -0.010363  -0.000351  -0.002633   0.000000
   49  O  3 YZ   -0.001607   0.000000   0.000000   0.000000  -0.001550

                     31         32         33         34         35
                    0.7804     0.8855     0.8857     1.2940     1.5024
                     B1         A1         B2         A1         A1  
    1  SI 1  S    0.000000   0.000255   0.000000   0.025899  -0.013693
    2  SI 1  S    0.000000   0.003829   0.000000  -0.091731  -0.160379
    3  SI 1  S    0.000000   0.009825   0.000000   0.221027  -0.476005
    4  SI 1  S    0.000000  -0.002569   0.000000   0.665270  -0.802941
    5  SI 1  X   -0.018883   0.000000   0.000000   0.000000   0.000000
    6  SI 1  Y    0.000000   0.000000   0.011237   0.000000   0.000000
    7  SI 1  Z    0.000000   0.011248   0.000000  -0.004301   0.000287
    8  SI 1  X   -0.013142   0.000000   0.000000   0.000000   0.000000
    9  SI 1  Y    0.000000   0.000000  -0.150656   0.000000   0.000000
   10  SI 1  Z    0.000000  -0.150532   0.000000   0.019262  -0.014274
   11  SI 1  X   -0.004633   0.000000   0.000000   0.000000   0.000000
   12  SI 1  Y    0.000000   0.000000  -0.520338   0.000000   0.000000
   13  SI 1  Z    0.000000  -0.520203   0.000000  -0.001401  -0.019100
   14  SI 1 XX    0.000000   0.005934   0.000000   1.269195  -0.140146
   15  SI 1 YY    0.000000   0.006633   0.000000  -0.634854   0.070223
   16  SI 1 ZZ    0.000000  -0.012568   0.000000  -0.634341   0.069923
   17  SI 1 XY    0.000000   0.000000   0.000000   0.000000   0.000000
   18  SI 1 XZ    0.602607   0.000000   0.000000   0.000000   0.000000
   19  SI 1 YZ    0.000000   0.000000  -0.011080   0.000000   0.000000
   20  O  2  S    0.000241  -0.000661   0.000000   0.035907   0.019911
   21  O  2  S    0.010353   0.010978   0.000000   0.046301  -1.209073
   22  O  2  S   -0.013809  -0.008893   0.000000  -0.808488   1.631183
   23  O  2  X    0.097198  -0.009249   0.000000  -0.617399  -0.100797
   24  O  2  Y    0.000000   0.000000  -0.644297   0.000000   0.000000
   25  O  2  Z   -0.514165  -0.644187   0.000000   0.013215  -0.004939
   26  O  2  X   -0.110501   0.009042   0.000000  -0.011098   0.548531
   27  O  2  Y    0.000000   0.000000   0.929772   0.000000   0.000000
   28  O  2  Z    0.819859   0.929636   0.000000   0.007518   0.005836
   29  O  2 XX    0.001082  -0.000673   0.000000   0.074951  -0.124406
   30  O  2 YY   -0.001896   0.000422   0.000000  -0.037701   0.062175
   31  O  2 ZZ    0.000814   0.000251   0.000000  -0.037250   0.062231
   32  O  2 XY    0.000000   0.000000  -0.029656   0.000000   0.000000
   33  O  2 XZ   -0.058746  -0.029633   0.000000  -0.011234  -0.001016
   34  O  2 YZ    0.000000   0.000000  -0.000109   0.000000   0.000000
   35  O  3  S   -0.000241  -0.000661   0.000000   0.035907   0.019911
   36  O  3  S   -0.010353   0.010978   0.000000   0.046301  -1.209073
   37  O  3  S    0.013809  -0.008893   0.000000  -0.808488   1.631183
   38  O  3  X    0.097198   0.009249   0.000000   0.617399   0.100797
   39  O  3  Y    0.000000   0.000000  -0.644297   0.000000   0.000000
   40  O  3  Z    0.514165  -0.644187   0.000000   0.013215  -0.004939
   41  O  3  X   -0.110501  -0.009042   0.000000   0.011098  -0.548531
   42  O  3  Y    0.000000   0.000000   0.929772   0.000000   0.000000
   43  O  3  Z   -0.819859   0.929636   0.000000   0.007518   0.005836
   44  O  3 XX   -0.001082  -0.000673   0.000000   0.074951  -0.124406
   45  O  3 YY    0.001896   0.000422   0.000000  -0.037701   0.062175
   46  O  3 ZZ   -0.000814   0.000251   0.000000  -0.037250   0.062231
   47  O  3 XY    0.000000   0.000000   0.029656   0.000000   0.000000
   48  O  3 XZ   -0.058746   0.029633   0.000000   0.011234   0.001016
   49  O  3 YZ    0.000000   0.000000  -0.000109   0.000000   0.000000

                     36         37         38         39         40
                    1.7324     2.0945     2.0947     2.1243     2.1244
                     B1         A2         B1         B2         A1  
    1  SI 1  S    0.000000   0.000000   0.000000   0.000000   0.000050
    2  SI 1  S    0.000000   0.000000   0.000000   0.000000   0.000655
    3  SI 1  S    0.000000   0.000000   0.000000   0.000000   0.001861
    4  SI 1  S    0.000000   0.000000   0.000000   0.000000  -0.000570
    5  SI 1  X   -0.054944   0.000000  -0.000008   0.000000   0.000000
    6  SI 1  Y    0.000000   0.000000   0.000000  -0.005695   0.000000
    7  SI 1  Z    0.000000   0.000000   0.000000   0.000000  -0.005612
    8  SI 1  X    0.720059   0.000000   0.000009   0.000000   0.000000
    9  SI 1  Y    0.000000   0.000000   0.000000   0.026897   0.000000
   10  SI 1  Z    0.000000   0.000000   0.000000   0.000000   0.026538
   11  SI 1  X    0.908534   0.000000   0.000081   0.000000   0.000000
   12  SI 1  Y    0.000000   0.000000   0.000000  -0.003977   0.000000
   13  SI 1  Z    0.000000   0.000000   0.000000   0.000000  -0.003920
   14  SI 1 XX    0.000000   0.000000   0.000000   0.000000  -0.001623
   15  SI 1 YY    0.000000   0.000000   0.000000   0.000000   0.117209
   16  SI 1 ZZ    0.000000   0.000000   0.000000   0.000000  -0.115586
   17  SI 1 XY    0.000000   0.000391   0.000000   0.000000   0.000000
   18  SI 1 XZ    0.009860   0.000000  -0.000388   0.000000   0.000000
   19  SI 1 YZ    0.000000   0.000000   0.000000  -0.134385   0.000000
   20  O  2  S    0.002532   0.000000   0.000000   0.000000  -0.000031
   21  O  2  S   -1.212848   0.000000  -0.000064   0.000000   0.001288
   22  O  2  S    1.954850   0.000000   0.000103   0.000000  -0.001112
   23  O  2  X    0.062978   0.000000   0.000013   0.000000   0.000920
   24  O  2  Y    0.000000  -0.000154   0.000000   0.004537   0.000000
   25  O  2  Z    0.004068   0.000000   0.000144   0.000000   0.004467
   26  O  2  X    0.326760   0.000000  -0.000011   0.000000  -0.001250
   27  O  2  Y    0.000000   0.000166   0.000000  -0.007905   0.000000
   28  O  2  Z   -0.015993   0.000000  -0.000158   0.000000  -0.007789
   29  O  2 XX   -0.244098   0.000000  -0.000407   0.000000  -0.002830
   30  O  2 YY    0.122075   0.000000   0.612402   0.000000  -0.611385
   31  O  2 ZZ    0.122024   0.000000  -0.611995   0.000000   0.614215
   32  O  2 XY    0.000000   0.016871   0.000000  -0.048819   0.000000
   33  O  2 XZ    0.008565   0.000000  -0.016865   0.000000  -0.047892
   34  O  2 YZ    0.000000   0.706906   0.000000   0.707545   0.000000
   35  O  3  S   -0.002532   0.000000   0.000000   0.000000  -0.000031
   36  O  3  S    1.212848   0.000000   0.000064   0.000000   0.001288
   37  O  3  S   -1.954850   0.000000  -0.000103   0.000000  -0.001112
   38  O  3  X    0.062978   0.000000   0.000013   0.000000  -0.000920
   39  O  3  Y    0.000000   0.000154   0.000000   0.004537   0.000000
   40  O  3  Z   -0.004068   0.000000  -0.000144   0.000000   0.004467
   41  O  3  X    0.326760   0.000000  -0.000011   0.000000   0.001250
   42  O  3  Y    0.000000  -0.000166   0.000000  -0.007905   0.000000
   43  O  3  Z    0.015993   0.000000   0.000158   0.000000  -0.007789
   44  O  3 XX    0.244098   0.000000   0.000407   0.000000  -0.002830
   45  O  3 YY   -0.122075   0.000000  -0.612402   0.000000  -0.611385
   46  O  3 ZZ   -0.122024   0.000000   0.611995   0.000000   0.614215
   47  O  3 XY    0.000000   0.016871   0.000000   0.048819   0.000000
   48  O  3 XZ    0.008565   0.000000  -0.016865   0.000000   0.047892
   49  O  3 YZ    0.000000  -0.706906   0.000000   0.707545   0.000000

                     41         42         43         44         45
                    2.1500     2.1505     2.4717     2.4723     2.7993
                     B2         A1         B1         A2         B1  
    1  SI 1  S    0.000000  -0.000588   0.000000   0.000000   0.000000
    2  SI 1  S    0.000000  -0.007375   0.000000   0.000000   0.000000
    3  SI 1  S    0.000000  -0.021244   0.000000   0.000000   0.000000
    4  SI 1  S    0.000000   0.005026   0.000000   0.000000   0.000000
    5  SI 1  X    0.000000   0.000000   0.004293   0.000000  -0.175730
    6  SI 1  Y    0.067738   0.000000   0.000000   0.000000   0.000000
    7  SI 1  Z    0.000000   0.067717   0.000000   0.000000   0.000000
    8  SI 1  X    0.000000   0.000000  -0.059471   0.000000   2.078491
    9  SI 1  Y   -0.321024   0.000000   0.000000   0.000000   0.000000
   10  SI 1  Z    0.000000  -0.321278   0.000000   0.000000   0.000000
   11  SI 1  X    0.000000   0.000000   0.002350   0.000000   0.017107
   12  SI 1  Y    0.033015   0.000000   0.000000   0.000000   0.000000
   13  SI 1  Z    0.000000   0.032877   0.000000   0.000000   0.000000
   14  SI 1 XX    0.000000   0.018090   0.000000   0.000000   0.000000
   15  SI 1 YY    0.000000   0.008482   0.000000   0.000000   0.000000
   16  SI 1 ZZ    0.000000  -0.026572   0.000000   0.000000   0.000000
   17  SI 1 XY    0.000000   0.000000   0.000000   0.619225   0.000000
   18  SI 1 XZ    0.000000   0.000000   0.617798   0.000000   0.054393
   19  SI 1 YZ   -0.020398   0.000000   0.000000   0.000000   0.000000
   20  O  2  S    0.000000   0.000308   0.000328   0.000000  -0.030330
   21  O  2  S    0.000000  -0.015226   0.025563   0.000000  -0.685735
   22  O  2  S    0.000000   0.014274  -0.042729   0.000000   1.579990
   23  O  2  X    0.000000  -0.010194   0.006456   0.000000   0.003830
   24  O  2  Y   -0.056885   0.000000   0.000000  -0.031687   0.000000
   25  O  2  Z    0.000000  -0.056735  -0.031845   0.000000   0.000987
   26  O  2  X    0.000000   0.015000  -0.025458   0.000000   0.975540
   27  O  2  Y    0.112766   0.000000   0.000000   0.231413   0.000000
   28  O  2  Z    0.000000   0.112820   0.231579   0.000000  -0.008161
   29  O  2 XX    0.000000   0.034841  -0.001318   0.000000   0.792248
   30  O  2 YY    0.000000  -0.058118   0.016283   0.000000  -0.395667
   31  O  2 ZZ    0.000000   0.023277  -0.014965   0.000000  -0.396580
   32  O  2 XY    0.721129   0.000000   0.000000   0.768972   0.000000
   33  O  2 XZ    0.000000   0.720314   0.768774   0.000000   0.004882
   34  O  2 YZ    0.047819   0.000000   0.000000  -0.018052   0.000000
   35  O  3  S    0.000000   0.000308  -0.000328   0.000000   0.030330
   36  O  3  S    0.000000  -0.015226  -0.025563   0.000000   0.685735
   37  O  3  S    0.000000   0.014274   0.042729   0.000000  -1.579990
   38  O  3  X    0.000000   0.010194   0.006456   0.000000   0.003830
   39  O  3  Y   -0.056885   0.000000   0.000000   0.031687   0.000000
   40  O  3  Z    0.000000  -0.056735   0.031845   0.000000  -0.000987
   41  O  3  X    0.000000  -0.015000  -0.025458   0.000000   0.975540
   42  O  3  Y    0.112766   0.000000   0.000000  -0.231413   0.000000
   43  O  3  Z    0.000000   0.112820  -0.231579   0.000000   0.008161
   44  O  3 XX    0.000000   0.034841   0.001318   0.000000  -0.792248
   45  O  3 YY    0.000000  -0.058118  -0.016283   0.000000   0.395667
   46  O  3 ZZ    0.000000   0.023277   0.014965   0.000000   0.396580
   47  O  3 XY   -0.721129   0.000000   0.000000   0.768972   0.000000
   48  O  3 XZ    0.000000  -0.720314   0.768774   0.000000   0.004882
   49  O  3 YZ    0.047819   0.000000   0.000000   0.018052   0.000000

                     46
                    2.9580
                     A1  
    1  SI 1  S    0.072598
    2  SI 1  S    0.378423
    3  SI 1  S    1.714671
    4  SI 1  S    0.409416
    5  SI 1  X    0.000000
    6  SI 1  Y    0.000000
    7  SI 1  Z   -0.002292
    8  SI 1  X    0.000000
    9  SI 1  Y    0.000000
   10  SI 1  Z    0.032209
   11  SI 1  X    0.000000
   12  SI 1  Y    0.000000
   13  SI 1  Z   -0.002105
   14  SI 1 XX    1.262688
   15  SI 1 YY   -0.631448
   16  SI 1 ZZ   -0.631241
   17  SI 1 XY    0.000000
   18  SI 1 XZ    0.000000
   19  SI 1 YZ    0.000000
   20  O  2  S    0.042913
   21  O  2  S    0.509696
   22  O  2  S   -1.550342
   23  O  2  X   -0.197060
   24  O  2  Y    0.000000
   25  O  2  Z    0.004253
   26  O  2  X   -0.925127
   27  O  2  Y    0.000000
   28  O  2  Z    0.021694
   29  O  2 XX   -0.904526
   30  O  2 YY    0.452785
   31  O  2 ZZ    0.451741
   32  O  2 XY    0.000000
   33  O  2 XZ    0.042888
   34  O  2 YZ    0.000000
   35  O  3  S    0.042913
   36  O  3  S    0.509696
   37  O  3  S   -1.550342
   38  O  3  X    0.197060
   39  O  3  Y    0.000000
   40  O  3  Z    0.004253
   41  O  3  X    0.925127
   42  O  3  Y    0.000000
   43  O  3  Z    0.021694
   44  O  3 XX   -0.904526
   45  O  3 YY    0.452785
   46  O  3 ZZ    0.451741
   47  O  3 XY    0.000000
   48  O  3 XZ   -0.042888
   49  O  3 YZ    0.000000
 ...... END OF RHF CALCULATION ......
 STEP CPU TIME =     4.10 TOTAL CPU TIME =        4.3 (    0.1 MIN)
 TOTAL WALL CLOCK TIME=        4.3 SECONDS, CPU UTILIZATION IS 100.00%

     ---------------------------------------------------------------------
     PROPERTIES FOR THE PBE      DFT FUNCTIONAL (RHF  TYPE) DENSITY MATRIX
     ---------------------------------------------------------------------

          -----------------
          ENERGY COMPONENTS
          -----------------

         WAVEFUNCTION NORMALIZATION =       1.0000000000

                ONE ELECTRON ENERGY =    -787.7241832594
                TWO ELECTRON ENERGY =     257.7875099526
           NUCLEAR REPULSION ENERGY =      90.3146368524
                                      ------------------
                       TOTAL ENERGY =    -439.6220364544

 ELECTRON-ELECTRON POTENTIAL ENERGY =     257.7875099526
  NUCLEUS-ELECTRON POTENTIAL ENERGY =   -1226.9689489796
   NUCLEUS-NUCLEUS POTENTIAL ENERGY =      90.3146368524
                                      ------------------
             TOTAL POTENTIAL ENERGY =    -878.8668021746
               TOTAL KINETIC ENERGY =     439.2447657202
                 VIRIAL RATIO (V/T) =       2.0008589078

          ---------------------------------------
          MULLIKEN AND LOWDIN POPULATION ANALYSES
          ---------------------------------------

     ATOMIC MULLIKEN POPULATION IN EACH MOLECULAR ORBITAL

                      1          2          3          4          5

                  2.000000   2.000000   2.000000   2.000000   2.000000

    1             2.000074   0.001617   0.000644   2.003733   1.999991
    2            -0.000037   0.999191   0.999678  -0.001866   0.000004
    3            -0.000037   0.999191   0.999678  -0.001866   0.000004

                      6          7          8          9         10

                  2.000000   2.000000   2.000000   2.000000   2.000000

    1             1.999991   1.999003   0.416910   0.274010   0.593565
    2             0.000004   0.000498   0.791545   0.862995   0.703218
    3             0.000004   0.000498   0.791545   0.862995   0.703218

                     11         12         13         14         15

                  2.000000   2.000000   2.000000   2.000000   2.000000

    1             0.290032   0.591664   0.591820   0.129431   0.129524
    2             0.854984   0.704168   0.704090   0.935285   0.935238
    3             0.854984   0.704168   0.704090   0.935285   0.935238

               ----- POPULATIONS IN EACH AO -----
                             MULLIKEN      LOWDIN
              1  SI 1  S      2.00025     1.99678
              2  SI 1  S      2.00767     1.94294
              3  SI 1  S      0.72161     0.35110
              4  SI 1  S      0.19522     0.21847
              5  SI 1  X      1.99311     1.95988
              6  SI 1  Y      1.98971     1.95137
              7  SI 1  Z      1.98971     1.95137
              8  SI 1  X      0.54917     0.50723
              9  SI 1  Y      0.40446     0.39759
             10  SI 1  Z      0.40447     0.39763
             11  SI 1  X      0.02242     0.17741
             12  SI 1  Y      0.19763     0.25284
             13  SI 1  Z      0.19761     0.25286
             14  SI 1 XX      0.02253     0.34236
             15  SI 1 YY      0.06752     0.09552
             16  SI 1 ZZ      0.12943     0.09556
             17  SI 1 XY      0.12949     0.16994
             18  SI 1 XZ      0.00001     0.17000
             19  SI 1 YZ      0.00000     0.00002
             20  O  2  S      1.99785     1.98079
             21  O  2  S      0.82786     0.63460
             22  O  2  S      1.02636     0.53890
             23  O  2  X      0.89886     0.84272
             24  O  2  Y      0.97060     0.92818
             25  O  2  Z      0.97037     0.92796
             26  O  2  X      0.45469     0.56666
             27  O  2  Y      0.66410     0.68122
             28  O  2  Z      0.66393     0.68110
             29  O  2 XX      0.00126     0.20314
             30  O  2 YY      0.00376     0.19492
             31  O  2 ZZ      0.00468     0.19493
             32  O  2 XY      0.00468     0.00472
             33  O  2 XZ      0.00000     0.00473
             34  O  2 YZ      0.00000     0.00000
             35  O  3  S      1.99785     1.98079
             36  O  3  S      0.82786     0.63460
             37  O  3  S      1.02636     0.53890
             38  O  3  X      0.89886     0.84272
             39  O  3  Y      0.97060     0.92818
             40  O  3  Z      0.97037     0.92796
             41  O  3  X      0.45469     0.56666
             42  O  3  Y      0.66410     0.68122
             43  O  3  Z      0.66393     0.68110
             44  O  3 XX      0.00126     0.20314
             45  O  3 YY      0.00376     0.19492
             46  O  3 ZZ      0.00468     0.19493
             47  O  3 XY      0.00468     0.00472
             48  O  3 XZ      0.00000     0.00473
             49  O  3 YZ      0.00000     0.00000

          ----- MULLIKEN ATOMIC OVERLAP POPULATIONS -----
          (OFF-DIAGONAL ELEMENTS NEED TO BE MULTIPLIED BY 2)

             1           2           3

    1   11.8359944
    2    0.5930070   7.9084703
    3    0.5930070  -0.0124814   7.9084703

          TOTAL MULLIKEN AND LOWDIN ATOMIC POPULATIONS
       ATOM         MULL.POP.    CHARGE          LOW.POP.     CHARGE
    1 SI           13.022008    0.977992        13.230875    0.769125
    2 O             8.488996   -0.488996         8.384562   -0.384562
    3 O             8.488996   -0.488996         8.384562   -0.384562

          MULLIKEN SPHERICAL HARMONIC POPULATIONS
       ATOM           S       P       D      F      G      H      I    TOTAL
    1 SI            4.92    7.75    0.35   0.00   0.00   0.00   0.00   13.02
    2 O             3.85    4.62    0.01   0.00   0.00   0.00   0.00    8.49
    3 O             3.85    4.62    0.01   0.00   0.00   0.00   0.00    8.49

          -------------------------------
          BOND ORDER AND VALENCE ANALYSIS     BOND ORDER THRESHOLD=0.050
          -------------------------------

                   BOND                       BOND                       BOND
  ATOM PAIR DIST  ORDER      ATOM PAIR DIST  ORDER      ATOM PAIR DIST  ORDER
    1   2  1.500  2.036        1   3  1.500  2.036        2   3  3.000  0.146

                       TOTAL       BONDED        FREE
      ATOM            VALENCE     VALENCE     VALENCE
    1 SI                4.073       4.073       0.000
    2 O                 2.182       2.182       0.000
    3 O                 2.182       2.182       0.000

          ---------------------
          ELECTROSTATIC MOMENTS
          ---------------------

 POINT   1           X           Y           Z (BOHR)    CHARGE
                 0.000000    0.000000    0.000000        0.00 (A.U.)
         DX          DY          DZ         /D/  (DEBYE)
     0.000000    0.000000   -0.127693    0.127693
 ...... END OF PROPERTY EVALUATION ......
 STEP CPU TIME =     0.01 TOTAL CPU TIME =        4.3 (    0.1 MIN)
 TOTAL WALL CLOCK TIME=        4.3 SECONDS, CPU UTILIZATION IS 100.00%

 BEGINNING ONE ELECTRON GRADIENT...
 ..... END OF 1-ELECTRON GRADIENT ......
 STEP CPU TIME =     0.01 TOTAL CPU TIME =        4.3 (    0.1 MIN)
 TOTAL WALL CLOCK TIME=        4.3 SECONDS, CPU UTILIZATION IS 100.00%

          ----------------------
          GRADIENT OF THE ENERGY
          ----------------------
 MEMORY FOR GRID POINT CONTRIBUTIONS TO THE DFT GRADIENT=    146145 WORDS.
 STEP CPU TIME =     0.65 TOTAL CPU TIME =        5.0 (    0.1 MIN)
 TOTAL WALL CLOCK TIME=        5.0 SECONDS, CPU UTILIZATION IS 100.00%

 THE MINIMUM MEMORY REQUIRED FOR THIS RUN IS     110046 WORDS.
 USING     988014 WORDS FOR 2E- DERIVATIVE INTEGRAL CONTRIBUTIONS.
 THE COARSE/FINE SCHWARZ SCREENINGS SKIPPED            0/           0 BLOCKS.
 THE NUMBER OF GRADIENT INTEGRAL BLOCKS COMPUTED WAS     10605
 ...... END OF 2-ELECTRON GRADIENT ......
 STEP CPU TIME =     0.36 TOTAL CPU TIME =        5.3 (    0.1 MIN)
 TOTAL WALL CLOCK TIME=        5.3 SECONDS, CPU UTILIZATION IS 100.00%

          NSERCH=  0     ENERGY=    -439.6220365

                                 -----------------------
                                 GRADIENT (HARTREE/BOHR)
                                 -----------------------
        ATOM     ZNUC       DE/DX         DE/DY         DE/DZ
 --------------------------------------------------------------
    1  SI          14.0     0.0000000     0.0000000    -0.0007069
    2  O            8.0     0.0437336     0.0000000     0.0003534
    3  O            8.0    -0.0437336     0.0000000     0.0003534

          MAXIMUM GRADIENT = 0.0437336    RMS GRADIENT = 0.0206182

 NSERCH:   0  E=     -439.6220364544  GRAD. MAX=  0.0437336  R.M.S.=  0.0206182

          FORCE CONSTANT MATRIX NOT UPDATED --- TAKING FIRST STEP
          MIN SEARCH, CORRECT HESSIAN, TRYING PURE NR STEP
               NR STEP HAS LENGTH         = 110.232312
          TRIM/QA LAMBDA FOR NON-TS MODES =  -0.00923578
          TRIM/QA STEP HAS LENGTH         =   0.300000
          RADIUS OF STEP TAKEN=   0.30000  CURRENT TRUST RADIUS=   0.30000

 THE DETERMINANT OF THE G MATRIX IS 10**(    -4)
 * * * WARNING * * *
 YOUR B MATRIX HAS A SMALL DETERMINANT.
 THIS SUGGESTS YOU MAY HAVE BADLY CHOSEN COORDINATES.

 BEGINNING GEOMETRY SEARCH POINT NSERCH=   1 ...

 COORDINATES OF SYMMETRY UNIQUE ATOMS (ANGS)
   ATOM   CHARGE       X              Y              Z
 ------------------------------------------------------------
 SI         14.0   0.0000000000   0.0000000000   0.1091266884
 O           8.0   1.5349506755   0.0000000000  -0.0493325684
 COORDINATES OF ALL ATOMS ARE (ANGS)
   ATOM   CHARGE       X              Y              Z
 ------------------------------------------------------------
 SI         14.0   0.0000000000   0.0000000000   0.1091266884
 O           8.0  -1.5349506755   0.0000000000  -0.0493325684
 O           8.0   1.5349506755   0.0000000000  -0.0493325684

 THE CURRENT FULLY SUBSTITUTED Z-MATRIX IS
 SI  
 O      1   1.5431082
 O      1   1.5431082  2   168.2120008

          INTERNUCLEAR DISTANCES (ANGS.)
          ------------------------------

                1 SI         2 O          3 O     

   1 SI      0.0000000    1.5431082 *  1.5431082 *
   2 O       1.5431082 *  0.0000000    3.0699014  
   3 O       1.5431082 *  3.0699014    0.0000000  

  * ... LESS THAN  3.000

 ...... END OF ONE-ELECTRON INTEGRALS ......
 STEP CPU TIME =     0.00 TOTAL CPU TIME =        5.3 (    0.1 MIN)
 TOTAL WALL CLOCK TIME=        5.3 SECONDS, CPU UTILIZATION IS 100.00%
 TOTAL NUMBER OF NONZERO TWO-ELECTRON INTEGRALS =              165147
         12 INTEGRAL RECORDS WERE STORED ON DISK FILE  8.
  ...... END OF TWO-ELECTRON INTEGRALS .....
 STEP CPU TIME =     0.11 TOTAL CPU TIME =        5.4 (    0.1 MIN)
 TOTAL WALL CLOCK TIME=        5.4 SECONDS, CPU UTILIZATION IS  99.82%

          --------------------------
               R-PBE SCF CALCULATION
          --------------------------
         DENSITY MATRIX CONVERGENCE THRESHOLD=  2.00E-04
     COARSE -> FINE DFT GRID SWITCH THRESHOLD=  6.00E-03 (SWITCH IN $DFT)
                   HF -> DFT SWITCH THRESHOLD=  5.00E-03 (SWOFF IN $DFT)

 DFT CODE IS SWITCHING FROM THE FINE GRID NRAD= 96,  NLEB=  302
                      TO THE COARSE GRID NRAD0= 24, NLEB0=  110

 ITER EX DEM     TOTAL ENERGY        E CHANGE  DENSITY CHANGE    DIIS ERROR
          * * *   INITIATING DIIS PROCEDURE   * * *
   1  0  0     -439.5631254697  -439.5631254697   0.062337903   0.062317006
   2  1  0     -439.5678442779    -0.0047188082   0.063609720   0.074863341
   3  2  0     -439.5700009966    -0.0021567187   0.029435242   0.062793213
   4  3  0     -439.5789421126    -0.0089411160   0.003614347   0.004012496
 DFT CODE IS SWITCHING BACK TO THE FINE GRID
          * * *   INITIATING DIIS PROCEDURE   * * *
   5  4  0     -439.6221082465    -0.0431661339   0.027773906   0.024662854
   6  5  0     -439.6227659853    -0.0006577388   0.017622128   0.017805859
   7  6  0     -439.6222396527     0.0005263326   0.010482307   0.022448033
   8  7  0     -439.6233422339    -0.0011025811   0.001553295   0.001470961
   9  8  0     -439.6233456015    -0.0000033676   0.000380030   0.000251394
  10  9  0     -439.6233459196    -0.0000003181   0.000010645   0.000012713
  11 10  0     -439.6233459201    -0.0000000005   0.000003247   0.000003336

          -----------------
          DENSITY CONVERGED
          -----------------
     TIME TO FORM FOCK OPERATORS=       3.5 SECONDS (       0.3 SEC/ITER)
     TIME TO SOLVE SCF EQUATIONS=       0.0 SECONDS (       0.0 SEC/ITER)

 FINAL R-PBE ENERGY IS     -439.6233459201 AFTER  11 ITERATIONS
 DFT EXCHANGE + CORRELATION ENERGY =       -37.7527118307
 TOTAL ELECTRON NUMBER             =        29.9999880969
 ...... END OF RHF CALCULATION ......
 STEP CPU TIME =     3.52 TOTAL CPU TIME =        8.9 (    0.1 MIN)
 TOTAL WALL CLOCK TIME=        8.9 SECONDS, CPU UTILIZATION IS 100.00%
 ..... END OF 1-ELECTRON GRADIENT ......
 STEP CPU TIME =     0.01 TOTAL CPU TIME =        8.9 (    0.1 MIN)
 TOTAL WALL CLOCK TIME=        9.0 SECONDS, CPU UTILIZATION IS 100.00%
 MEMORY FOR GRID POINT CONTRIBUTIONS TO THE DFT GRADIENT=    146145 WORDS.
 STEP CPU TIME =     0.65 TOTAL CPU TIME =        9.6 (    0.2 MIN)
 TOTAL WALL CLOCK TIME=        9.6 SECONDS, CPU UTILIZATION IS 100.10%
 ...... END OF 2-ELECTRON GRADIENT ......
 STEP CPU TIME =     0.35 TOTAL CPU TIME =        9.9 (    0.2 MIN)
 TOTAL WALL CLOCK TIME=       10.0 SECONDS, CPU UTILIZATION IS 100.00%

          NSERCH=  1     ENERGY=    -439.6233459

                                 -----------------------
                                 GRADIENT (HARTREE/BOHR)
                                 -----------------------
        ATOM     ZNUC       DE/DX         DE/DY         DE/DZ
 --------------------------------------------------------------
    1  SI          14.0     0.0000000     0.0000000     0.0123445
    2  O            8.0    -0.0031132     0.0000000    -0.0061723
    3  O            8.0     0.0031132     0.0000000    -0.0061723

          MAXIMUM GRADIENT = 0.0123445    RMS GRADIENT = 0.0052490

 NSERCH:   1  E=     -439.6233459201  GRAD. MAX=  0.0123445  R.M.S.=  0.0052490

          HESSIAN UPDATED USING THE BFGS FORMULA
             ACTUAL ENERGY CHANGE WAS  -0.0013094657
          PREDICTED ENERGY CHANGE WAS  -0.0034462915 RATIO=  0.380
          MIN SEARCH, CORRECT HESSIAN, TRYING PURE NR STEP
               NR STEP HAS LENGTH         = 166.186165
          TRIM/QA LAMBDA FOR NON-TS MODES =  -0.04554260
          TRIM/QA STEP HAS LENGTH         =   0.300000
          RADIUS OF STEP TAKEN=   0.30000  CURRENT TRUST RADIUS=   0.30000

 THE DETERMINANT OF THE G MATRIX IS 10**(    -4)
 * * * WARNING * * *
 YOUR B MATRIX HAS A SMALL DETERMINANT.
 THIS SUGGESTS YOU MAY HAVE BADLY CHOSEN COORDINATES.

 BEGINNING GEOMETRY SEARCH POINT NSERCH=   2 ...

 COORDINATES OF SYMMETRY UNIQUE ATOMS (ANGS)
   ATOM   CHARGE       X              Y              Z
 ------------------------------------------------------------
 SI         14.0   0.0000000000   0.0000000000  -0.0183609305
 O           8.0   1.5552352889   0.0000000000   0.0144112410
 COORDINATES OF ALL ATOMS ARE (ANGS)
   ATOM   CHARGE       X              Y              Z
 ------------------------------------------------------------
 SI         14.0   0.0000000000   0.0000000000  -0.0183609305
 O           8.0  -1.5552352889   0.0000000000   0.0144112410
 O           8.0   1.5552352889   0.0000000000   0.0144112410

 THE CURRENT FULLY SUBSTITUTED Z-MATRIX IS
 SI  
 O      1   1.5555805
 O      1   1.5555805  2   177.5856653

          INTERNUCLEAR DISTANCES (ANGS.)
          ------------------------------

                1 SI         2 O          3 O     

   1 SI      0.0000000    1.5555805 *  1.5555805 *
   2 O       1.5555805 *  0.0000000    3.1104706  
   3 O       1.5555805 *  3.1104706    0.0000000  

  * ... LESS THAN  3.000

 ...... END OF ONE-ELECTRON INTEGRALS ......
 STEP CPU TIME =     0.00 TOTAL CPU TIME =        9.9 (    0.2 MIN)
 TOTAL WALL CLOCK TIME=       10.0 SECONDS, CPU UTILIZATION IS 100.00%
 TOTAL NUMBER OF NONZERO TWO-ELECTRON INTEGRALS =              161496
         11 INTEGRAL RECORDS WERE STORED ON DISK FILE  8.
  ...... END OF TWO-ELECTRON INTEGRALS .....
 STEP CPU TIME =     0.11 TOTAL CPU TIME =       10.1 (    0.2 MIN)
 TOTAL WALL CLOCK TIME=       10.1 SECONDS, CPU UTILIZATION IS  99.90%

          --------------------------
               R-PBE SCF CALCULATION
          --------------------------
         DENSITY MATRIX CONVERGENCE THRESHOLD=  5.00E-05
     COARSE -> FINE DFT GRID SWITCH THRESHOLD=  1.50E-03 (SWITCH IN $DFT)
                   HF -> DFT SWITCH THRESHOLD=  5.00E-03 (SWOFF IN $DFT)

 DFT CODE IS SWITCHING FROM THE FINE GRID NRAD= 96,  NLEB=  302
                      TO THE COARSE GRID NRAD0= 24, NLEB0=  110

 ITER EX DEM     TOTAL ENERGY        E CHANGE  DENSITY CHANGE    DIIS ERROR
          * * *   INITIATING DIIS PROCEDURE   * * *
   1  0  0     -439.5596208717  -439.5596208717   0.062677753   0.072631211
   2  1  0     -439.5705514860    -0.0109306143   0.047851470   0.041932880
   3  2  0     -439.5649038893     0.0056475968   0.030153684   0.064826927
   4  3  0     -439.5740842897    -0.0091804005   0.002386548   0.002931428
   5  4  0     -439.5741054751    -0.0000211854   0.000567358   0.000352561
 DFT CODE IS SWITCHING BACK TO THE FINE GRID
          * * *   INITIATING DIIS PROCEDURE   * * *
   6  5  0     -439.6231526981    -0.0490472230   0.029791766   0.029121529
   7  6  0     -439.6237244119    -0.0005717138   0.019826500   0.020922663
   8  7  0     -439.6231610828     0.0005633291   0.011227153   0.024952873
   9  8  0     -439.6245361168    -0.0013750340   0.001559684   0.001492999
  10  9  0     -439.6245392496    -0.0000031328   0.000425604   0.000279289
  11 10  0     -439.6245396233    -0.0000003737   0.000009161   0.000010962
  12 11  0     -439.6245396236    -0.0000000003   0.000001268   0.000000986

          -----------------
          DENSITY CONVERGED
          -----------------
     TIME TO FORM FOCK OPERATORS=       3.5 SECONDS (       0.3 SEC/ITER)
     TIME TO SOLVE SCF EQUATIONS=       0.0 SECONDS (       0.0 SEC/ITER)

 FINAL R-PBE ENERGY IS     -439.6245396236 AFTER  12 ITERATIONS
 DFT EXCHANGE + CORRELATION ENERGY =       -37.7371234894
 TOTAL ELECTRON NUMBER             =        29.9999838410
 ...... END OF RHF CALCULATION ......
 STEP CPU TIME =     3.54 TOTAL CPU TIME =       13.6 (    0.2 MIN)
 TOTAL WALL CLOCK TIME=       13.6 SECONDS, CPU UTILIZATION IS 100.00%
 ..... END OF 1-ELECTRON GRADIENT ......
 STEP CPU TIME =     0.01 TOTAL CPU TIME =       13.6 (    0.2 MIN)
 TOTAL WALL CLOCK TIME=       13.6 SECONDS, CPU UTILIZATION IS 100.00%
 MEMORY FOR GRID POINT CONTRIBUTIONS TO THE DFT GRADIENT=    146145 WORDS.
 STEP CPU TIME =     0.65 TOTAL CPU TIME =       14.3 (    0.2 MIN)
 TOTAL WALL CLOCK TIME=       14.3 SECONDS, CPU UTILIZATION IS 100.07%
 ...... END OF 2-ELECTRON GRADIENT ......
 STEP CPU TIME =     0.34 TOTAL CPU TIME =       14.6 (    0.2 MIN)
 TOTAL WALL CLOCK TIME=       14.6 SECONDS, CPU UTILIZATION IS 100.00%

          NSERCH=  2     ENERGY=    -439.6245396

                                 -----------------------
                                 GRADIENT (HARTREE/BOHR)
                                 -----------------------
        ATOM     ZNUC       DE/DX         DE/DY         DE/DZ
 --------------------------------------------------------------
    1  SI          14.0     0.0000000     0.0000000    -0.0030937
    2  O            8.0    -0.0164018     0.0000000     0.0015468
    3  O            8.0     0.0164018     0.0000000     0.0015468

          MAXIMUM GRADIENT = 0.0164018    RMS GRADIENT = 0.0078344

 NSERCH:   2  E=     -439.6245396236  GRAD. MAX=  0.0164018  R.M.S.=  0.0078344

          HESSIAN UPDATED USING THE BFGS FORMULA
             ACTUAL ENERGY CHANGE WAS  -0.0011937035
          PREDICTED ENERGY CHANGE WAS  -0.0041605825 RATIO=  0.287
          MIN SEARCH, CORRECT HESSIAN, TRYING PURE NR STEP
               NR STEP HAS LENGTH         =   0.728353
          TRIM/QA LAMBDA FOR NON-TS MODES =  -0.02704150
          TRIM/QA STEP HAS LENGTH         =   0.300000
          RADIUS OF STEP TAKEN=   0.30000  CURRENT TRUST RADIUS=   0.30000

 THE DETERMINANT OF THE G MATRIX IS 10**(    -4)
 * * * WARNING * * *
 YOUR B MATRIX HAS A SMALL DETERMINANT.
 THIS SUGGESTS YOU MAY HAVE BADLY CHOSEN COORDINATES.

 BEGINNING GEOMETRY SEARCH POINT NSERCH=   3 ...

 COORDINATES OF SYMMETRY UNIQUE ATOMS (ANGS)
   ATOM   CHARGE       X              Y              Z
 ------------------------------------------------------------
 SI         14.0   0.0000000000   0.0000000000  -0.0698272418
 O           8.0   1.4522076257   0.0000000000   0.0401443967
 COORDINATES OF ALL ATOMS ARE (ANGS)
   ATOM   CHARGE       X              Y              Z
 ------------------------------------------------------------
 SI         14.0   0.0000000000   0.0000000000  -0.0698272418
 O           8.0  -1.4522076257   0.0000000000   0.0401443967
 O           8.0   1.4522076257   0.0000000000   0.0401443967

 THE CURRENT FULLY SUBSTITUTED Z-MATRIX IS
 SI  
 O      1   1.4563656
 O      1   1.4563656  2   171.3388313

          INTERNUCLEAR DISTANCES (ANGS.)
          ------------------------------

[...]
   42  O  3  Y    0.000000   0.000000   0.000000   0.000000   0.000000
   43  O  3  Z   -0.000154   0.000000   0.000001   0.000002  -0.000011
   44  O  3 XX    0.000000  -0.002319   0.006253   0.012256  -0.011192
   45  O  3 YY    0.000000   0.001159  -0.003127  -0.006128   0.005596
   46  O  3 ZZ    0.000000   0.001159  -0.003127  -0.006128   0.005596
   47  O  3 XY    0.000000   0.000000   0.000000   0.000000   0.000000
   48  O  3 XZ   -0.000409   0.000000   0.000000  -0.000002   0.000001
   49  O  3 YZ    0.000000   0.000000   0.000000   0.000000   0.000000

                     11         12         13         14         15
                   -0.3547    -0.3385    -0.3385    -0.3006    -0.3006
                     B1         A1         B2         B1         A2  
    1  SI 1  S    0.000000   0.000000   0.000000   0.000000   0.000000
    2  SI 1  S    0.000000   0.000000   0.000000   0.000000   0.000000
    3  SI 1  S    0.000000   0.000000   0.000000   0.000000   0.000000
    4  SI 1  S    0.000000  -0.000016   0.000000   0.000000   0.000000
    5  SI 1  X   -0.160245   0.000000   0.000000  -0.000001   0.000000
    6  SI 1  Y    0.000000   0.000000   0.146245   0.000000   0.000000
    7  SI 1  Z    0.000000   0.146245   0.000000   0.000000   0.000000
    8  SI 1  X    0.334982   0.000000   0.000000   0.000005   0.000000
    9  SI 1  Y    0.000000   0.000000  -0.321727   0.000000   0.000000
   10  SI 1  Z    0.000000  -0.321727   0.000000   0.000000   0.000000
   11  SI 1  X   -0.070977   0.000000   0.000000  -0.000016   0.000000
   12  SI 1  Y    0.000000   0.000000  -0.165287   0.000000   0.000000
   13  SI 1  Z    0.000000  -0.165287   0.000000   0.000000   0.000000
   14  SI 1 XX    0.000000  -0.000007   0.000000   0.000000   0.000000
   15  SI 1 YY    0.000000   0.000000   0.000000   0.000000   0.000000
   16  SI 1 ZZ    0.000000   0.000007   0.000000   0.000000   0.000000
   17  SI 1 XY    0.000000   0.000000   0.000000   0.000000  -0.126471
   18  SI 1 XZ   -0.000003   0.000000   0.000000  -0.126471   0.000000
   19  SI 1 YZ    0.000000   0.000000   0.000004   0.000000   0.000000
   20  O  2  S   -0.045364   0.000002   0.000000  -0.000001   0.000000
   21  O  2  S    0.095258  -0.000004   0.000000   0.000002   0.000000
   22  O  2  S    0.181651  -0.000007   0.000000   0.000001   0.000000
   23  O  2  X   -0.429517   0.000037   0.000000  -0.000043   0.000000
   24  O  2  Y    0.000000   0.000000  -0.381633   0.000000   0.452878
   25  O  2  Z   -0.000039  -0.381633   0.000000   0.452878   0.000000
   26  O  2  X   -0.232064   0.000025   0.000000  -0.000026   0.000000
   27  O  2  Y    0.000000   0.000000  -0.247123   0.000000   0.327019
   28  O  2  Z   -0.000025  -0.247123   0.000000   0.327019   0.000000
   29  O  2 XX   -0.016623   0.000003   0.000000  -0.000001   0.000000
   30  O  2 YY    0.008312  -0.000001   0.000000   0.000000   0.000000
   31  O  2 ZZ    0.008312  -0.000003   0.000000   0.000002   0.000000
   32  O  2 XY    0.000000   0.000000  -0.019977   0.000000   0.017072
   33  O  2 XZ   -0.000003  -0.019977   0.000000   0.017072   0.000000
   34  O  2 YZ    0.000000   0.000000  -0.000001   0.000000   0.000001
   35  O  3  S    0.045364   0.000002   0.000000   0.000001   0.000000
   36  O  3  S   -0.095258  -0.000004   0.000000  -0.000002   0.000000
   37  O  3  S   -0.181651  -0.000007   0.000000  -0.000001   0.000000
   38  O  3  X   -0.429517  -0.000037   0.000000  -0.000043   0.000000
   39  O  3  Y    0.000000   0.000000  -0.381633   0.000000  -0.452878
   40  O  3  Z    0.000039  -0.381633   0.000000  -0.452878   0.000000
   41  O  3  X   -0.232064  -0.000025   0.000000  -0.000026   0.000000
   42  O  3  Y    0.000000   0.000000  -0.247123   0.000000  -0.327019
   43  O  3  Z    0.000025  -0.247123   0.000000  -0.327019   0.000000
   44  O  3 XX    0.016623   0.000003   0.000000   0.000001   0.000000
   45  O  3 YY   -0.008312  -0.000001   0.000000   0.000000   0.000000
   46  O  3 ZZ   -0.008312  -0.000003   0.000000  -0.000002   0.000000
   47  O  3 XY    0.000000   0.000000   0.019977   0.000000   0.017072
   48  O  3 XZ   -0.000003   0.019977   0.000000   0.017072   0.000000
   49  O  3 YZ    0.000000   0.000000  -0.000001   0.000000  -0.000001

                     16         17         18         19         20
                   -0.1607    -0.0637    -0.0637     0.1263     0.2363
                     A1         A1         B2         B1         A1  
    1  SI 1  S   -0.032770   0.000005   0.000000   0.000000   0.000017
    2  SI 1  S    0.174845  -0.000033   0.000000   0.000000   0.000051
    3  SI 1  S   -0.130206   0.000010   0.000000   0.000000   0.000302
    4  SI 1  S   -0.972469   0.000203   0.000000   0.000000  -0.000357
    5  SI 1  X    0.000000   0.000000   0.000000   0.041877   0.000000
    6  SI 1  Y    0.000000   0.000000   0.198793   0.000000   0.000000
    7  SI 1  Z    0.000037   0.198793   0.000000   0.000000  -0.290014
    8  SI 1  X    0.000000   0.000000   0.000000  -0.056777   0.000000
    9  SI 1  Y    0.000000   0.000000  -0.526413   0.000000   0.000000
   10  SI 1  Z   -0.000095  -0.526412   0.000000   0.000000   1.181059
   11  SI 1  X    0.000000   0.000000   0.000000  -1.558870   0.000000
   12  SI 1  Y    0.000000   0.000000  -0.641940   0.000000   0.000000
   13  SI 1  Z   -0.000068  -0.641940   0.000000   0.000000  -1.174236
   14  SI 1 XX    0.220801  -0.000039   0.000000   0.000000  -0.000023
   15  SI 1 YY   -0.110400   0.000031   0.000000   0.000000   0.000009
   16  SI 1 ZZ   -0.110400   0.000008   0.000000   0.000000   0.000014
   17  SI 1 XY    0.000000   0.000000   0.000000   0.000000   0.000000
   18  SI 1 XZ    0.000000   0.000000   0.000000  -0.000023   0.000000
   19  SI 1 YZ    0.000000   0.000000  -0.000013   0.000000   0.000000
   20  O  2  S   -0.033743   0.000010   0.000000   0.068165  -0.000002
   21  O  2  S    0.070634  -0.000020   0.000000  -0.109257  -0.000003
   22  O  2  S    0.230072  -0.000074   0.000000  -0.738025   0.000049
   23  O  2  X    0.325253  -0.000070   0.000000  -0.033152  -0.000022
   24  O  2  Y    0.000000   0.000000   0.323565   0.000000   0.000000
   25  O  2  Z    0.000076   0.323565   0.000000  -0.000029  -0.017057
   26  O  2  X    0.228297  -0.000059   0.000000  -0.075926   0.000014
   27  O  2  Y    0.000000   0.000000   0.309643   0.000000   0.000000
   28  O  2  Z    0.000064   0.309643   0.000000  -0.000024   0.039445
   29  O  2 XX    0.001167  -0.000001   0.000000  -0.012504   0.000002
   30  O  2 YY   -0.000583   0.000000   0.000000   0.006252  -0.000002
   31  O  2 ZZ   -0.000583   0.000000   0.000000   0.006252   0.000000
   32  O  2 XY    0.000000   0.000000   0.000832   0.000000   0.000000
   33  O  2 XZ    0.000001   0.000832   0.000000  -0.000001   0.020379
   34  O  2 YZ    0.000000   0.000000   0.000000   0.000000   0.000000
   35  O  3  S   -0.033743   0.000010   0.000000  -0.068165  -0.000002
   36  O  3  S    0.070634  -0.000020   0.000000   0.109257  -0.000003
   37  O  3  S    0.230072  -0.000074   0.000000   0.738025   0.000049
   38  O  3  X   -0.325253   0.000070   0.000000  -0.033152   0.000022
   39  O  3  Y    0.000000   0.000000   0.323565   0.000000   0.000000
   40  O  3  Z    0.000076   0.323565   0.000000   0.000029  -0.017057
   41  O  3  X   -0.228297   0.000059   0.000000  -0.075926  -0.000014
   42  O  3  Y    0.000000   0.000000   0.309643   0.000000   0.000000
   43  O  3  Z    0.000064   0.309643   0.000000   0.000024   0.039445
   44  O  3 XX    0.001167  -0.000001   0.000000   0.012504   0.000002
   45  O  3 YY   -0.000583   0.000000   0.000000  -0.006252  -0.000002
   46  O  3 ZZ   -0.000583   0.000000   0.000000  -0.006252   0.000000
   47  O  3 XY    0.000000   0.000000  -0.000832   0.000000   0.000000
   48  O  3 XZ   -0.000001  -0.000832   0.000000  -0.000001  -0.020379
   49  O  3 YZ    0.000000   0.000000   0.000000   0.000000   0.000000

                     21         22         23         24         25
                    0.2363     0.2761     0.4827     0.4827     0.5689
                     B2         A1         B2         A1         B1  
    1  SI 1  S    0.000000  -0.099683   0.000000   0.000000   0.000000
    2  SI 1  S    0.000000  -0.289822   0.000000   0.000000   0.000000
    3  SI 1  S    0.000000  -1.737707   0.000000   0.000000   0.000000
    4  SI 1  S    0.000000   2.015792   0.000000   0.000000   0.000000
    5  SI 1  X    0.000000   0.000000   0.000000   0.000000   0.000829
    6  SI 1  Y    0.290014   0.000000  -0.000003   0.000000   0.000000
    7  SI 1  Z    0.000000  -0.000050   0.000000   0.000003   0.000000
    8  SI 1  X    0.000000   0.000000   0.000000   0.000000  -0.004068
    9  SI 1  Y   -1.181059   0.000000   0.000007   0.000000   0.000000
   10  SI 1  Z    0.000000   0.000200   0.000000  -0.000007   0.000000
   11  SI 1  X    0.000000   0.000000   0.000000   0.000000   0.001392
   12  SI 1  Y    1.174236   0.000000   0.000007   0.000000   0.000000
   13  SI 1  Z    0.000000  -0.000206   0.000000  -0.000007   0.000000
   14  SI 1 XX    0.000000   0.273322   0.000000   0.000000   0.000000
   15  SI 1 YY    0.000000  -0.136661   0.000000  -0.862273   0.000000
   16  SI 1 ZZ    0.000000  -0.136661   0.000000   0.862273   0.000000
   17  SI 1 XY    0.000000   0.000000   0.000000   0.000000   0.000000
   18  SI 1 XZ    0.000000   0.000000   0.000000   0.000000  -0.878309
   19  SI 1 YZ   -0.000003   0.000000  -0.995666   0.000000   0.000000
   20  O  2  S    0.000000   0.011469   0.000000   0.000000   0.000101
   21  O  2  S    0.000000   0.032600   0.000000   0.000000  -0.000351
   22  O  2  S    0.000000  -0.360722   0.000000   0.000000  -0.000666
   23  O  2  X    0.000000   0.213241   0.000000   0.000000  -0.000720
   24  O  2  Y    0.017057   0.000000  -0.000025   0.000000   0.000000
   25  O  2  Z    0.000000   0.000006   0.000000   0.000025  -0.400584
   26  O  2  X    0.000000  -0.051186   0.000000   0.000000  -0.001194
   27  O  2  Y   -0.039445   0.000000   0.000000   0.000000   0.000000
   28  O  2  Z    0.000000  -0.000003   0.000000   0.000001   0.076286
   29  O  2 XX    0.000000  -0.035470   0.000000   0.000000   0.000062
   30  O  2 YY    0.000000   0.017735   0.000000  -0.026592  -0.000035
   31  O  2 ZZ    0.000000   0.017735   0.000000   0.026592  -0.000027
   32  O  2 XY   -0.020379   0.000000   0.000005   0.000000   0.000000
   33  O  2 XZ    0.000000   0.000001   0.000000  -0.000005   0.054435
   34  O  2 YZ   -0.000001   0.000000  -0.030708   0.000000   0.000000
   35  O  3  S    0.000000   0.011469   0.000000   0.000000  -0.000101
   36  O  3  S    0.000000   0.032600   0.000000   0.000000   0.000351
   37  O  3  S    0.000000  -0.360722   0.000000   0.000000   0.000666
   38  O  3  X    0.000000  -0.213241   0.000000   0.000000  -0.000720
   39  O  3  Y    0.017057   0.000000  -0.000025   0.000000   0.000000
   40  O  3  Z    0.000000   0.000006   0.000000   0.000025   0.400584
   41  O  3  X    0.000000   0.051186   0.000000   0.000000  -0.001194
   42  O  3  Y   -0.039445   0.000000   0.000000   0.000000   0.000000
   43  O  3  Z    0.000000  -0.000003   0.000000   0.000001  -0.076286
   44  O  3 XX    0.000000  -0.035470   0.000000   0.000000  -0.000062
   45  O  3 YY    0.000000   0.017735   0.000000  -0.026592   0.000035
   46  O  3 ZZ    0.000000   0.017735   0.000000   0.026592   0.000027
   47  O  3 XY    0.020379   0.000000  -0.000005   0.000000   0.000000
   48  O  3 XZ    0.000000  -0.000001   0.000000   0.000005   0.054435
   49  O  3 YZ   -0.000001   0.000000  -0.030708   0.000000   0.000000

     ---------------------------------------------------------------------
     PROPERTIES FOR THE PBE      DFT FUNCTIONAL (RHF  TYPE) DENSITY MATRIX
     ---------------------------------------------------------------------

          -----------------
          ENERGY COMPONENTS
          -----------------

         WAVEFUNCTION NORMALIZATION =       1.0000000000

                ONE ELECTRON ENERGY =    -783.1613859903
                TWO ELECTRON ENERGY =     255.4831518872
           NUCLEAR REPULSION ENERGY =      88.0530795600
                                      ------------------
                       TOTAL ENERGY =    -439.6251545430

 ELECTRON-ELECTRON POTENTIAL ENERGY =     255.4831518872
  NUCLEUS-ELECTRON POTENTIAL ENERGY =   -1222.1548390484
   NUCLEUS-NUCLEUS POTENTIAL ENERGY =      88.0530795600
                                      ------------------
             TOTAL POTENTIAL ENERGY =    -878.6186076012
               TOTAL KINETIC ENERGY =     438.9934530582
                 VIRIAL RATIO (V/T) =       2.0014389770

          ---------------------------------------
          MULLIKEN AND LOWDIN POPULATION ANALYSES
          ---------------------------------------

     ATOMIC MULLIKEN POPULATION IN EACH MOLECULAR ORBITAL

                      1          2          3          4          5

                  2.000000   2.000000   2.000000   2.000000   2.000000

    1             2.000063   0.001512   0.000663   2.003262   1.999999
    2            -0.000031   0.999244   0.999668  -0.001631   0.000001
    3            -0.000031   0.999244   0.999668  -0.001631   0.000001

                      6          7          8          9         10

                  2.000000   2.000000   2.000000   2.000000   2.000000

    1             1.999999   1.999209   0.387145   0.252424   0.652704
    2             0.000001   0.000396   0.806428   0.873788   0.673648
    3             0.000001   0.000396   0.806428   0.873788   0.673648

                     11         12         13         14         15

                  2.000000   2.000000   2.000000   2.000000   2.000000

    1             0.295055   0.590300   0.590300   0.116972   0.116972
    2             0.852473   0.704850   0.704850   0.941514   0.941514
    3             0.852473   0.704850   0.704850   0.941514   0.941514

               ----- POPULATIONS IN EACH AO -----
                             MULLIKEN      LOWDIN
              1  SI 1  S      2.00025     1.99677
              2  SI 1  S      2.00711     1.94845
              3  SI 1  S      0.73378     0.35918
              4  SI 1  S      0.22098     0.23420
              5  SI 1  X      1.99297     1.95897
              6  SI 1  Y      1.98977     1.95092
              7  SI 1  Z      1.98977     1.95092
              8  SI 1  X      0.53697     0.50252
              9  SI 1  Y      0.39467     0.38997
             10  SI 1  Z      0.39467     0.38997
             11  SI 1  X      0.01826     0.17529
             12  SI 1  Y      0.20586     0.25916
             13  SI 1  Z      0.20586     0.25916
             14  SI 1 XX      0.02043     0.33223
             15  SI 1 YY      0.06129     0.10222
             16  SI 1 ZZ      0.11697     0.10222
             17  SI 1 XY      0.11697     0.15244
             18  SI 1 XZ      0.00000     0.15244
             19  SI 1 YZ      0.00000     0.00000
             20  O  2  S      1.99787     1.98084
             21  O  2  S      0.83092     0.63946
             22  O  2  S      1.04045     0.54636
             23  O  2  X      0.87157     0.81556
             24  O  2  Y      0.97264     0.93188
             25  O  2  Z      0.97264     0.93188
             26  O  2  X      0.45839     0.56406
             27  O  2  Y      0.66951     0.68761
             28  O  2  Z      0.66951     0.68761
             29  O  2 XX      0.00120     0.20414
             30  O  2 YY      0.00359     0.19678
             31  O  2 ZZ      0.00421     0.19678
             32  O  2 XY      0.00421     0.00426
             33  O  2 XZ      0.00000     0.00426
             34  O  2 YZ      0.00000     0.00000
             35  O  3  S      1.99787     1.98084
             36  O  3  S      0.83092     0.63946
             37  O  3  S      1.04045     0.54636
             38  O  3  X      0.87157     0.81556
             39  O  3  Y      0.97264     0.93188
             40  O  3  Z      0.97264     0.93188
             41  O  3  X      0.45839     0.56406
             42  O  3  Y      0.66951     0.68761
             43  O  3  Z      0.66951     0.68761
             44  O  3 XX      0.00120     0.20414
             45  O  3 YY      0.00359     0.19678
             46  O  3 ZZ      0.00421     0.19678
             47  O  3 XY      0.00421     0.00426
             48  O  3 XZ      0.00000     0.00426
             49  O  3 YZ      0.00000     0.00000

          ----- MULLIKEN ATOMIC OVERLAP POPULATIONS -----
          (OFF-DIAGONAL ELEMENTS NEED TO BE MULTIPLIED BY 2)

             1           2           3

    1   11.8746765
    2    0.5659496   7.9419868
    3    0.5659496  -0.0112243   7.9419868

          TOTAL MULLIKEN AND LOWDIN ATOMIC POPULATIONS
       ATOM         MULL.POP.    CHARGE          LOW.POP.     CHARGE
    1 SI           13.006576    0.993424        13.217031    0.782969
    2 O             8.496712   -0.496712         8.391485   -0.391485
    3 O             8.496712   -0.496712         8.391485   -0.391485

          MULLIKEN SPHERICAL HARMONIC POPULATIONS
       ATOM           S       P       D      F      G      H      I    TOTAL
    1 SI            4.96    7.73    0.32   0.00   0.00   0.00   0.00   13.01
    2 O             3.87    4.61    0.01   0.00   0.00   0.00   0.00    8.50
    3 O             3.87    4.61    0.01   0.00   0.00   0.00   0.00    8.50

          -------------------------------
          BOND ORDER AND VALENCE ANALYSIS     BOND ORDER THRESHOLD=0.050
          -------------------------------

                   BOND                       BOND                       BOND
  ATOM PAIR DIST  ORDER      ATOM PAIR DIST  ORDER      ATOM PAIR DIST  ORDER
    1   2  1.538  2.002        1   3  1.538  2.002        2   3  3.077  0.161

                       TOTAL       BONDED        FREE
      ATOM            VALENCE     VALENCE     VALENCE
    1 SI                4.003       4.003       0.000
    2 O                 2.163       2.163       0.000
    3 O                 2.163       2.163       0.000

          ---------------------
          ELECTROSTATIC MOMENTS
          ---------------------

 POINT   1           X           Y           Z (BOHR)    CHARGE
                 0.000000    0.000000    0.006611        0.00 (A.U.)
         DX          DY          DZ         /D/  (DEBYE)
     0.000000    0.000000    0.000387    0.000387
 ...... END OF PROPERTY EVALUATION ......
 STEP CPU TIME =     0.02 TOTAL CPU TIME =       49.3 (    0.8 MIN)
 TOTAL WALL CLOCK TIME=       49.3 SECONDS, CPU UTILIZATION IS 100.06%
  $VIB   
          IVIB=   0 IATOM=   0 ICOORD=   0 E=     -439.6251545430
  0.000000000E+00 0.000000000E+00 6.387515254E-06 2.496009701E-06 0.000000000E+00
 -3.193757627E-06-2.496009701E-06 0.000000000E+00-3.193757627E-06
  9.030166837E-15-7.146885514E-16 3.867108431E-04
 ......END OF GEOMETRY SEARCH......
 STEP CPU TIME =     0.00 TOTAL CPU TIME =       49.3 (    0.8 MIN)
 TOTAL WALL CLOCK TIME=       49.3 SECONDS, CPU UTILIZATION IS 100.06%
               988086  WORDS OF DYNAMIC MEMORY USED
 EXECUTION OF GAMESS TERMINATED NORMALLY Thu Feb 26 01:18:13 2015
 DDI: 263624 bytes (0.3 MB / 0 MWords) used by master data server.

 ----------------------------------------
 CPU timing information for all processes
 ========================================
 0: 49.180 + 0.120 = 49.301
 ----------------------------------------
 ddikick.x: exited gracefully.
----- accounting info -----
Files used on the master node dftfe.crc.nd.edu were:
-rw-r--r-- 1 pmehta1 campus  192838 Feb 26 01:18 /tmp/SiO2.dat
-rw-r--r-- 1 pmehta1 campus     237 Feb 26 01:17 /tmp/SiO2.F05
-rw-r--r-- 1 pmehta1 campus 1980264 Feb 26 01:18 /tmp/SiO2.F08
-rw-r--r-- 1 pmehta1 campus 1374488 Feb 26 01:18 /tmp/SiO2.F10
-rw-r--r-- 1 pmehta1 campus 1069888 Feb 26 01:18 /tmp/SiO2.F22
Thu Feb 26 01:18:16 EST 2015
0.269u 0.177s 0:52.79 0.8%	0+0k 0+408io 0pf+0w
