----- GAMESS execution script 'rungms' -----
This job is running on host dftfe.crc.nd.edu
under operating system Linux at Thu Feb 26 00:18:28 EST 2015
Available scratch disk space (Kbyte units) at beginning of the job is
Filesystem     1K-blocks     Used Available Use% Mounted on
/dev/sda2      147771864 22814844 117450588  17% /
GAMESS temporary binary files will be written to /tmp
GAMESS supplementary output files will be written to /tmp
Copying input file gamess.inp to your run's scratch directory...

 Distributed Data Interface kickoff program.
 Initiating 1 compute processes on 1 nodes to run the following command:
 /opt/crc/gamess/2012R1/gamess/gamess.00.x gamess 

          ******************************************************
          *         GAMESS VERSION =  1 MAY 2012 (R1)          *
          *             FROM IOWA STATE UNIVERSITY             *
          * M.W.SCHMIDT, K.K.BALDRIDGE, J.A.BOATZ, S.T.ELBERT, *
          *   M.S.GORDON, J.H.JENSEN, S.KOSEKI, N.MATSUNAGA,   *
          *          K.A.NGUYEN, S.J.SU, T.L.WINDUS,           *
          *       TOGETHER WITH M.DUPUIS, J.A.MONTGOMERY       *
          *         J.COMPUT.CHEM.  14, 1347-1363(1993)        *
          **************** 64 BIT LINUX VERSION ****************

  SINCE 1993, STUDENTS AND POSTDOCS WORKING AT IOWA STATE UNIVERSITY
  AND ALSO IN THEIR VARIOUS JOBS AFTER LEAVING ISU HAVE MADE IMPORTANT
  CONTRIBUTIONS TO THE CODE:
     IVANA ADAMOVIC, CHRISTINE AIKENS, YURI ALEXEEV, POOJA ARORA,
     ANDREY ASADCHEV, ROB BELL, PRADIPTA BANDYOPADHYAY, JONATHAN BENTZ,
     BRETT BODE, GALINA CHABAN, WEI CHEN, CHEOL HO CHOI, PAUL DAY,
     ALBERT DEFUSCO, TIM DUDLEY, DMITRI FEDOROV, GRAHAM FLETCHER,
     MARK FREITAG, KURT GLAESEMANN, DAN KEMP, GRANT MERRILL,
     NORIYUKI MINEZAWA, JONATHAN MULLIN, TAKESHI NAGATA,
     SEAN NEDD, HEATHER NETZLOFF, BOSILJKA NJEGIC, RYAN OLSON, MIKE PAK,
     JIM SHOEMAKER, LYUDMILA SLIPCHENKO, SAROM SOK, JIE SONG,
     TETSUYA TAKETSUGU, SIMON WEBB, SOOHAENG YOO, FEDERICO ZAHARIEV

  ADDITIONAL CODE HAS BEEN PROVIDED BY COLLABORATORS IN OTHER GROUPS:
     IOWA STATE UNIVERSITY:
          JOE IVANIC, LAIMUTIS BYTAUTAS, KLAUS RUEDENBERG
     UNIVERSITY OF TOKYO: KIMIHIKO HIRAO, TAKAHITO NAKAJIMA,
          TAKAO TSUNEDA, MUNEAKI KAMIYA, SUSUMU YANAGISAWA,
          KIYOSHI YAGI, MAHITO CHIBA, SEIKEN TOKURA, NAOAKI KAWAKAMI
     UNIVERSITY OF AARHUS: FRANK JENSEN
     UNIVERSITY OF IOWA: VISVALDAS KAIRYS, HUI LI
     NATIONAL INST. OF STANDARDS AND TECHNOLOGY: WALT STEVENS, DAVID GARMER
     UNIVERSITY OF PISA: BENEDETTA MENNUCCI, JACOPO TOMASI
     UNIVERSITY OF MEMPHIS: HENRY KURTZ, PRAKASHAN KORAMBATH
     UNIVERSITY OF ALBERTA: TOBY ZENG, MARIUSZ KLOBUKOWSKI
     UNIVERSITY OF NEW ENGLAND: MARK SPACKMAN
     MIE UNIVERSITY: HIROAKI UMEDA
     MICHIGAN STATE UNIVERSITY:
          KAROL KOWALSKI, MARTA WLOCH, JEFFREY GOUR, JESSE LUTZ, PIOTR PIECUCH
     UNIVERSITY OF SILESIA: MONIKA MUSIAL, STANISLAW KUCHARSKI
     FACULTES UNIVERSITAIRES NOTRE-DAME DE LA PAIX:
          OLIVIER QUINET, BENOIT CHAMPAGNE
     UNIVERSITY OF CALIFORNIA - SANTA BARBARA: BERNARD KIRTMAN
     INSTITUTE FOR MOLECULAR SCIENCE:
          KAZUYA ISHIMURA, MICHIO KATOUDA, AND SHIGERU NAGASE
     UNIVERSITY OF NOTRE DAME: DAN CHIPMAN
     KYUSHU UNIVERSITY:
          HARUYUKI NAKANO,
          FENG LONG GU, JACEK KORCHOWIEC, MARCIN MAKOWSKI, AND YURIKO AOKI,
          HIROTOSHI MORI AND EISAKU MIYOSHI
     PENNSYLVANIA STATE UNIVERSITY:
          TZVETELIN IORDANOV, CHET SWALINA, JONATHAN SKONE,
          SHARON HAMMES-SCHIFFER
     WASEDA UNIVERSITY:
          MASATO KOBAYASHI, TOMOKO AKAMA, TSUGUKI TOUMA,
          TAKESHI YOSHIKAWA, YASUHIRO IKABATA, HIROMI NAKAI
     UNIVERSITY OF NEBRASKA:
          PEIFENG SU, DEJUN SI, NANDUN THELLAMUREGE, YALI WANG, HUI LI
     UNIVERSITY OF ZURICH:
          ROBERTO PEVERATI, KIM BALDRIDGE
     N. COPERNICUS UNIVERSITY AND JACKSON STATE UNIVERSITY:
          MARIA BARYSZ

 EXECUTION OF GAMESS BEGUN Thu Feb 26 00:18:28 2015

            ECHO OF THE FIRST FEW INPUT CARDS -
 INPUT CARD> $BASIS GBASIS=PC1 $END                                                         
 INPUT CARD> $CONTRL COORD=ZMT ISPHER=1 RUNTYP=ENERGY DFTTYP=PBE $END                       
 INPUT CARD>                                                                                
 INPUT CARD> $DATA                                                                          
 INPUT CARD>Title                                                                           
 INPUT CARD>Cnv 2                                                                           
 INPUT CARD>                                                                                
 INPUT CARD>S                                                                               
 INPUT CARD>O 1 1.60                                                                        
 INPUT CARD>O 1 1.60 2 150.0                                                                
 INPUT CARD> $END                                                                           
    1000000 WORDS OF MEMORY AVAILABLE

     BASIS OPTIONS
     -------------
     GBASIS=PC1          IGAUSS=       0      POLAR=NONE    
     NDFUNC=       0     NFFUNC=       0     DIFFSP=       F
     NPFUNC=       0      DIFFS=       F     BASNAM=        


     RUN TITLE
     ---------
 Title                                                                           

 THE POINT GROUP OF THE MOLECULE IS CNV     
 THE ORDER OF THE PRINCIPAL AXIS IS     2

 YOUR FULLY SUBSTITUTED Z-MATRIX IS
 S   
 O      1   1.6000000
 O      1   1.6000000  2  150.0000

 THE MOMENTS OF INERTIA ARE (AMU-ANGSTROM**2)
 IXX=     2.742   IYY=    76.408   IZZ=    79.150

 ATOM      ATOMIC                      COORDINATES (BOHR)
           CHARGE         X                   Y                   Z
 S          16.0     0.0000000000        0.0000000000       -0.3913862436
 O           8.0    -2.9205362178        0.0000000000        0.3911690774
 O           8.0     2.9205362178        0.0000000000        0.3911690774

          INTERNUCLEAR DISTANCES (ANGS.)
          ------------------------------

                1 S          2 O          3 O     

   1 S       0.0000000    1.6000000 *  1.6000000 *
   2 O       1.6000000 *  0.0000000    3.0909626  
   3 O       1.6000000 *  3.0909626    0.0000000  

  * ... LESS THAN  3.000


     ATOMIC BASIS SET
     ----------------
 THE CONTRACTED PRIMITIVE FUNCTIONS HAVE BEEN UNNORMALIZED
 THE CONTRACTED BASIS FUNCTIONS ARE NOW NORMALIZED TO UNITY

  SHELL TYPE  PRIMITIVE        EXPONENT          CONTRACTION COEFFICIENT(S)

 S         

      1   S       1         55510.0000000    0.000587229760
      1   S       2          8326.7000000    0.004532413947
      1   S       3          1895.6000000    0.023265261648
      1   S       4           536.7700000    0.089696133027
      1   S       5           174.6700000    0.254098332277
      1   S       6            62.5780000    0.438665087637
      1   S       7            23.5730000    0.314547135094
      1   S       8             5.8908000    0.032727897102

      2   S       9          8326.7000000   -0.000019755715
      2   S      10          1895.6000000   -0.000043822381
      2   S      11           536.7700000   -0.001730264906
      2   S      12           174.6700000   -0.009381263460
      2   S      13            62.5780000   -0.064050766303
      2   S      14            23.5730000   -0.082478179196
      2   S      15             5.8908000    0.478342956889
      2   S      16             2.1852000    0.626896670208

      3   S      17          1895.6000000    0.000016227260
      3   S      18           536.7700000    0.000191135619
      3   S      19           174.6700000    0.001952069674
      3   S      20            62.5780000    0.010578701087
      3   S      21            23.5730000    0.022164934551
      3   S      22             5.8908000   -0.184968323118
      3   S      23             2.1852000   -0.480920750976
      3   S      24             0.4528200    1.243822243872

      4   S      25             0.1620200    1.000000000000

      5   P      26           395.4500000    0.004642761329
      5   P      27            92.8340000    0.036023396489
      5   P      28            29.2660000    0.149058869978
      5   P      29            10.5950000    0.360033266263
      5   P      30             4.0272000    0.455756476221
      5   P      31             1.5484000    0.206167664178

      6   P      32            92.8340000    0.000169901442
      6   P      33            29.2660000   -0.002541839934
      6   P      34            10.5950000   -0.007867614595
      6   P      35             4.0272000   -0.037231009184
      6   P      36             1.5484000    0.161417246830
      6   P      37             0.4613400    0.902230419976

      7   P      38             0.1313100    1.000000000000

      8   D      39             0.5500000    1.000000000000

 O         

     15   S      40          2306.7000000    0.005424388755
     15   S      41           347.1500000    0.040474749465
     15   S      42            78.8900000    0.180219634554
     15   S      43            21.8760000    0.462370311787
     15   S      44             6.6646000    0.454888396263

     16   S      45           347.1500000   -0.000655003786
     16   S      46            78.8900000   -0.005362052952
     16   S      47            21.8760000   -0.074902158894
     16   S      48             6.6646000   -0.181442579655
     16   S      49             1.0669000    1.102006874042

     17   S      50             0.3070000    1.000000000000

     18   P      51            17.0220000    0.068979967443
     18   P      52             3.6838000    0.351985516325
     18   P      53             0.9923400    0.724036547822

     19   P      54             0.2448700    1.000000000000

     20   D      55             1.0000000    1.000000000000

 TOTAL NUMBER OF BASIS SET SHELLS             =   20
 NUMBER OF CARTESIAN GAUSSIAN BASIS FUNCTIONS =   49
 NOTE: THIS RUN WILL RESTRICT THE MO VARIATION SPACE TO SPHERICAL HARMONICS.
 THE NUMBER OF ORBITALS KEPT IN THE VARIATIONAL SPACE WILL BE PRINTED LATER.
 NUMBER OF ELECTRONS                          =   32
 CHARGE OF MOLECULE                           =    0
 SPIN MULTIPLICITY                            =    1
 NUMBER OF OCCUPIED ORBITALS (ALPHA)          =   16
 NUMBER OF OCCUPIED ORBITALS (BETA )          =   16
 TOTAL NUMBER OF ATOMS                        =    3
 THE NUCLEAR REPULSION ENERGY IS       95.6252519055

     LEBEDEV GRID-BASED DFT OPTIONS
     ------------------------------
     DFTTYP=PBE     
     NRAD  =      96     NLEB  =     302
     NRAD0 =      24     NLEB0 =     110
     SWOFF =    5.00E-03 (PURE SCF -> DFT)
     SWITCH=    3.00E-04 (COARSE -> TIGHT GRID)
     THRESH=    0.00E+00 GTHRE=    1.00E+00

 GRIMME'S EMPIRICAL DISPERSION CORRECTION= F

     $CONTRL OPTIONS
     ---------------
 SCFTYP=RHF          RUNTYP=ENERGY       EXETYP=RUN     
 MPLEVL=       0     CITYP =NONE         CCTYP =NONE         VBTYP =NONE    
 DFTTYP=PBE          TDDFT =NONE    
 MULT  =       1     ICHARG=       0     NZVAR =       0     COORD =ZMT     
 PP    =NONE         RELWFN=NONE         LOCAL =NONE         NUMGRD=       F
 ISPHER=       1     NOSYM =       0     MAXIT =      30     UNITS =ANGS    
 PLTORB=       F     MOLPLT=       F     AIMPAC=       F     FRIEND=        
 NPRINT=       7     IREST =       0     GEOM  =INPUT   
 NORMF =       0     NORMP =       0     ITOL  =      20     ICUT  =       9
 INTTYP=BEST         GRDTYP=BEST         QMTTOL= 1.0E-06

     $SYSTEM OPTIONS
     ---------------
  REPLICATED MEMORY=     1000000 WORDS (ON EVERY NODE).
 DISTRIBUTED MEMDDI=           0 MILLION WORDS IN AGGREGATE,
 MEMDDI DISTRIBUTED OVER   1 PROCESSORS IS           0 WORDS/PROCESSOR.
 TOTAL MEMORY REQUESTED ON EACH PROCESSOR=     1000000 WORDS.
 TIMLIM=      525600.00 MINUTES, OR     365.0 DAYS.
 PARALL= F  BALTYP=  DLB     KDIAG=    0  COREFL= F
 MXSEQ2=     300 MXSEQ3=     150

          ----------------
          PROPERTIES INPUT
          ----------------

     MOMENTS            FIELD           POTENTIAL          DENSITY
 IEMOM =       1   IEFLD =       0   IEPOT =       0   IEDEN =       0
 WHERE =COMASS     WHERE =NUCLEI     WHERE =NUCLEI     WHERE =NUCLEI  
 OUTPUT=BOTH       OUTPUT=BOTH       OUTPUT=BOTH       OUTPUT=BOTH    
 IEMINT=       0   IEFINT=       0                     IEDINT=       0
                                                       MORB  =       0
          EXTRAPOLATION IN EFFECT
          DIIS IN EFFECT
 ORBITAL PRINTING OPTION: NPREO=     1    49     2     1

     -------------------------------
     INTEGRAL TRANSFORMATION OPTIONS
     -------------------------------
     NWORD  =            0
     CUTOFF = 1.0E-09     MPTRAN =       0
     DIRTRF =       F     AOINTS =DUP     

          ----------------------
          INTEGRAL INPUT OPTIONS
          ----------------------
 NOPK  =       1 NORDER=       0 SCHWRZ=       F

   --- ENCODED Z MATRIX ---
 COORD  TYPE   I   J   K   L   M   N
    1      1    3   1
    2      1    2   1
    3      2    2   1   3

 THE DETERMINANT OF THE G MATRIX IS 10**(    -4)

 THE DETERMINANT OF THE G MATRIX IS 10**(    -4)
 * * * WARNING * * *
 YOUR B MATRIX HAS A SMALL DETERMINANT.
 THIS SUGGESTS YOU MAY HAVE BADLY CHOSEN COORDINATES.

     ------------------------------------------
     THE POINT GROUP IS CNV, NAXIS= 2, ORDER= 4
     ------------------------------------------

 -- VARIATIONAL SPACE WILL BE RESTRICTED TO PURE SPHERICAL HARMONICS ONLY --
 AFTER EXCLUDING CONTAMINANT COMBINATIONS FROM THE CARTESIAN GAUSSIAN BASIS
 SET, THE NUMBER OF SPHERICAL HARMONICS KEPT IN THE VARIATION SPACE IS   46

     DIMENSIONS OF THE SYMMETRY SUBSPACES ARE
 A1  =   19     A2  =    5     B1  =   14     B2  =    8

 ..... DONE SETTING UP THE RUN .....
 STEP CPU TIME =     0.01 TOTAL CPU TIME =        0.0 (    0.0 MIN)
 TOTAL WALL CLOCK TIME=        0.0 SECONDS, CPU UTILIZATION IS  50.00%

          ********************
          1 ELECTRON INTEGRALS
          ********************
 ...... END OF ONE-ELECTRON INTEGRALS ......
 STEP CPU TIME =     0.00 TOTAL CPU TIME =        0.0 (    0.0 MIN)
 TOTAL WALL CLOCK TIME=        0.0 SECONDS, CPU UTILIZATION IS  50.00%

          -------------
          GUESS OPTIONS
          -------------
          GUESS =HUCKEL            NORB  =       0          NORDER=       0
          MIX   =       F          PRTMO =       F          PUNMO =       F
          TOLZ  = 1.0E-08          TOLE  = 1.0E-05
          SYMDEN=       F          PURIFY=       F

 INITIAL GUESS ORBITALS GENERATED BY HUCKEL   ROUTINE.
 HUCKEL GUESS REQUIRES     21583 WORDS.

 STATISTICS FOR GENERATION OF SYMMETRY ORBITAL -Q- MATRIX
 NUMBER OF CARTESIAN ATOMIC ORBITALS=         49
 NUMBER OF SPHERICAL CONTAMINANTS DROPPED=     3
 NUMBER OF LINEARLY DEPENDENT MOS DROPPED=     0
 TOTAL NUMBER OF MOS IN VARIATION SPACE=      46

 SYMMETRIES FOR INITIAL GUESS ORBITALS FOLLOW.   BOTH SET(S).
    16 ORBITALS ARE OCCUPIED (    7 CORE ORBITALS).
     8=?A1      9=?B1     10=A1      11=B2      12=A1      13=B1      14=A2  
    15=B1      16=?A1     17=B2      18=A1      19=B1      20=A1      21=A1  
    22=A1      23=A1      24=A1      25=A1      26=A1  
 ...... END OF INITIAL ORBITAL SELECTION ......
 STEP CPU TIME =     0.01 TOTAL CPU TIME =        0.0 (    0.0 MIN)
 TOTAL WALL CLOCK TIME=        0.0 SECONDS, CPU UTILIZATION IS  66.67%

                    ----------------------
                    AO INTEGRAL TECHNOLOGY
                    ----------------------
     S,P,L SHELL ROTATED AXIS INTEGRALS, REPROGRAMMED BY
        KAZUYA ISHIMURA (IMS) AND JOSE SIERRA (SYNSTAR).
     S,P,D,L SHELL ROTATED AXIS INTEGRALS PROGRAMMED BY
        KAZUYA ISHIMURA (INSTITUTE FOR MOLECULAR SCIENCE).
     S,P,D,F,G SHELL TO TOTAL QUARTET ANGULAR MOMENTUM SUM 5,
        ERIC PROGRAM BY GRAHAM FLETCHER (ELORET AND NASA ADVANCED
        SUPERCOMPUTING DIVISION, AMES RESEARCH CENTER).
     S,P,D,F,G,L SHELL GENERAL RYS QUADRATURE PROGRAMMED BY
        MICHEL DUPUIS (PACIFIC NORTHWEST NATIONAL LABORATORY).

          --------------------
          2 ELECTRON INTEGRALS
          --------------------

 THE -PK- OPTION IS OFF, THE INTEGRALS ARE NOT IN SUPERMATRIX FORM.
 STORING   15000 INTEGRALS/RECORD ON DISK, USING 12 BYTES/INTEGRAL.
 TWO ELECTRON INTEGRAL EVALUATION REQUIRES   90606 WORDS OF MEMORY.
 II,JST,KST,LST =  1  1  1  1 NREC =         1 INTLOC =    1
 II,JST,KST,LST =  2  1  1  1 NREC =         1 INTLOC =    2
 II,JST,KST,LST =  3  1  1  1 NREC =         1 INTLOC =    7
 II,JST,KST,LST =  4  1  1  1 NREC =         1 INTLOC =   22
 II,JST,KST,LST =  5  1  1  1 NREC =         1 INTLOC =   56
 II,JST,KST,LST =  6  1  1  1 NREC =         1 INTLOC =  125
 II,JST,KST,LST =  7  1  1  1 NREC =         1 INTLOC =  329
 II,JST,KST,LST =  8  1  1  1 NREC =         1 INTLOC =  776
 II,JST,KST,LST =  9  1  1  1 NREC =         1 INTLOC = 2864
 II,JST,KST,LST = 10  1  1  1 NREC =         1 INTLOC = 2864
 II,JST,KST,LST = 11  1  1  1 NREC =         1 INTLOC = 2864
 II,JST,KST,LST = 12  1  1  1 NREC =         1 INTLOC = 2864
 II,JST,KST,LST = 13  1  1  1 NREC =         1 INTLOC = 2864
 II,JST,KST,LST = 14  1  1  1 NREC =         1 INTLOC = 2864
 II,JST,KST,LST = 15  1  1  1 NREC =         1 INTLOC = 2864
 II,JST,KST,LST = 16  1  1  1 NREC =         1 INTLOC = 5047
 II,JST,KST,LST = 17  1  1  1 NREC =         1 INTLOC = 8171
 II,JST,KST,LST = 18  1  1  1 NREC =         1 INTLOC =12571
 II,JST,KST,LST = 19  1  1  1 NREC =         2 INTLOC =14138
 II,JST,KST,LST = 20  1  1  1 NREC =         4 INTLOC =14731
 TOTAL NUMBER OF NONZERO TWO-ELECTRON INTEGRALS =              164442
         11 INTEGRAL RECORDS WERE STORED ON DISK FILE  8.
  ...... END OF TWO-ELECTRON INTEGRALS .....
 STEP CPU TIME =     0.15 TOTAL CPU TIME =        0.2 (    0.0 MIN)
 TOTAL WALL CLOCK TIME=        0.2 SECONDS, CPU UTILIZATION IS  94.44%

          --------------------------
               R-PBE SCF CALCULATION
          --------------------------

     NUCLEAR ENERGY =        95.6252519055
     MAXIT =   30     NPUNCH=    2
     EXTRAP=T  DAMP=F  SHIFT=F  RSTRCT=F  DIIS=T  DEM=F  SOSCF=F
         DENSITY MATRIX CONVERGENCE THRESHOLD=  1.00E-05
     COARSE -> FINE DFT GRID SWITCH THRESHOLD=  3.00E-04 (SWITCH IN $DFT)
                   HF -> DFT SWITCH THRESHOLD=  5.00E-03 (SWOFF IN $DFT)
     MEMORY REQUIRED FOR RHF ITERS=    183108 WORDS.

 DFT CODE IS SWITCHING FROM THE FINE GRID NRAD= 96,  NLEB=  302
                      TO THE COARSE GRID NRAD0= 24, NLEB0=  110

     EXCHANGE FUNCTIONAL   =PBE       
     CORRELATION FUNCTIONAL=PBE       
     DFT THRESHOLD         =.460E-07
     GRID CHANGE THRESHOLD =.300E-03
 FOR AN EULER-MACLAURIN QUADRATURE USING  96 RADIAL POINTS:
 SMALLEST GAUSSIAN PRIMITIVE EXPONENT=        0.1313100000 OF TYPE -P-
 ON ATOM NUMBER   1 HAS RADIAL NORMALIZATION=  1.000000
  LARGEST GAUSSIAN PRIMITIVE EXPONENT=    55510.0000000000 OF TYPE -S-
 ON ATOM NUMBER   1 HAS RADIAL NORMALIZATION=  0.999999
 DFT IS SWITCHED OFF, PERFORMING PURE SCF UNTIL SWOFF THRESHOLD IS REACHED.

 ITER EX DEM     TOTAL ENERGY        E CHANGE  DENSITY CHANGE    DIIS ERROR
   1  0  0     -545.9659883987  -545.9659883987   0.429896209   1.402163917
          * * *   INITIATING DIIS PROCEDURE   * * *
   2  1  0     -546.5763306543    -0.6103422556   0.556553099   0.358086975
   3  2  0     -546.6331461723    -0.0568155180   0.208498299   0.387029316
   4  3  0     -546.9962020113    -0.3630558390   0.026167775   0.022140757
   5  4  0     -546.9995476337    -0.0033456224   0.028140953   0.011980263
   6  5  0     -547.0008135228    -0.0012658891   0.022084470   0.006979824
   7  6  0     -547.0015003480    -0.0006868252   0.015427037   0.002867510
   8  7  0     -547.0016982545    -0.0001979065   0.002587291   0.000757113
 CONVERGED TO SWOFF, SO DFT CALCULATION IS NOW SWITCHED ON.
          * * *   INITIATING DIIS PROCEDURE   * * *
   9  8  0     -548.1722817773    -1.1705835228   0.301602126   0.106868502
  10  9  0     -548.1629691053     0.0093126721   0.258268928   0.128652302
  11 10  0     -548.1688362266    -0.0058671214   0.092441347   0.152380163
  12 11  0     -548.2177367313    -0.0489005047   0.015336354   0.020531055
  13 12  0     -548.2188964040    -0.0011596727   0.003230891   0.002202513
  14 13  0     -548.2189079632    -0.0000115592   0.001463812   0.000359499
  15 14  0     -548.2189088133    -0.0000008502   0.000141904   0.000046186
 DFT CODE IS SWITCHING BACK TO THE FINE GRID
          * * *   INITIATING DIIS PROCEDURE   * * *
  16 15  0     -548.2111004702     0.0078083432   0.006378365   0.009329613
  17 16  0     -548.2111386251    -0.0000381549   0.013344952   0.007357378
  18 17  0     -548.2109849001     0.0001537250   0.008504851   0.011055340
  19 18  0     -548.2112570110    -0.0002721108   0.000378023   0.000310532
  20 19  0     -548.2112574762    -0.0000004652   0.000049074   0.000083615
  21 20  0     -548.2112574938    -0.0000000176   0.000012743   0.000003961
  22 21  0     -548.2112574938     0.0000000000   0.000003076   0.000001932
  23 22  0     -548.2112574938     0.0000000000   0.000000176   0.000000262

          -----------------
          DENSITY CONVERGED
          -----------------
     TIME TO FORM FOCK OPERATORS=       4.3 SECONDS (       0.2 SEC/ITER)
     TIME TO SOLVE SCF EQUATIONS=       0.0 SECONDS (       0.0 SEC/ITER)

 FINAL R-PBE ENERGY IS     -548.2112574938 AFTER  23 ITERATIONS
 DFT EXCHANGE + CORRELATION ENERGY =       -42.3474971339
 TOTAL ELECTRON NUMBER             =        31.9999874631

          ------------
          EIGENVECTORS
          ------------

                      1          2          3          4          5
                  -88.2212   -18.8238   -18.8237    -7.8385    -5.8602
                     A1         B1         A1         A1         B1  
    1  S  1  S    1.002981   0.000000  -0.000034  -0.274100   0.000000
    2  S  1  S   -0.010301   0.000000  -0.000542   1.039311   0.000000
    3  S  1  S    0.001780   0.000000  -0.000892   0.040335   0.000000
    4  S  1  S   -0.000728   0.000000   0.007396  -0.010483   0.000000
    5  S  1  X    0.000000   0.000119   0.000000   0.000000   0.996831
    6  S  1  Y    0.000000   0.000000   0.000000   0.000000   0.000000
    7  S  1  Z    0.000065   0.000000  -0.000031   0.011640   0.000000
    8  S  1  X    0.000000  -0.001650   0.000000   0.000000   0.008874
    9  S  1  Y    0.000000   0.000000   0.000000   0.000000   0.000000
   10  S  1  Z    0.000024   0.000000   0.000447   0.001092   0.000000
   11  S  1  X    0.000000  -0.007691   0.000000   0.000000  -0.000427
   12  S  1  Y    0.000000   0.000000   0.000000   0.000000   0.000000
   13  S  1  Z    0.000006   0.000000   0.001684  -0.000275   0.000000
   14  S  1 XX    0.000116   0.000000   0.001123   0.001413   0.000000
   15  S  1 YY   -0.000063   0.000000  -0.000684  -0.000699   0.000000
   16  S  1 ZZ   -0.000053   0.000000  -0.000439  -0.000714   0.000000
   17  S  1 XY    0.000000   0.000000   0.000000   0.000000   0.000000
   18  S  1 XZ    0.000000  -0.000795   0.000000   0.000000   0.000808
   19  S  1 YZ    0.000000   0.000000   0.000000   0.000000   0.000000
   20  O  2  S    0.000010   0.703312   0.703243   0.000053   0.000219
   21  O  2  S    0.000051   0.026164   0.025284   0.000211   0.000060
   22  O  2  S   -0.000077  -0.013878  -0.010965  -0.000482  -0.000460
   23  O  2  X   -0.000019   0.000809   0.000902  -0.000359  -0.000327
   24  O  2  Y    0.000000   0.000000   0.000000   0.000000   0.000000
   25  O  2  Z    0.000004  -0.000312  -0.000044   0.000078   0.000077
   26  O  2  X   -0.000137  -0.003087  -0.003112  -0.001299  -0.000251
   27  O  2  Y    0.000000   0.000000   0.000000   0.000000   0.000000
   28  O  2  Z    0.000045   0.001457   0.000258   0.000484   0.000208
   29  O  2 XX   -0.000116  -0.000322  -0.000467  -0.000846  -0.000465
   30  O  2 YY    0.000066   0.000200   0.000263   0.000484   0.000284
   31  O  2 ZZ    0.000050   0.000122   0.000204   0.000361   0.000181
   32  O  2 XY    0.000000   0.000000   0.000000   0.000000   0.000000
   33  O  2 XZ    0.000063   0.000220   0.000180   0.000464   0.000327
   34  O  2 YZ    0.000000   0.000000   0.000000   0.000000   0.000000
   35  O  3  S    0.000010  -0.703312   0.703243   0.000053  -0.000219
   36  O  3  S    0.000051  -0.026164   0.025284   0.000211  -0.000060
   37  O  3  S   -0.000077   0.013878  -0.010965  -0.000482   0.000460
   38  O  3  X    0.000019   0.000809  -0.000902   0.000359  -0.000327
   39  O  3  Y    0.000000   0.000000   0.000000   0.000000   0.000000
   40  O  3  Z    0.000004   0.000312  -0.000044   0.000078  -0.000077
   41  O  3  X    0.000137  -0.003087   0.003112   0.001299  -0.000251
   42  O  3  Y    0.000000   0.000000   0.000000   0.000000   0.000000
   43  O  3  Z    0.000045  -0.001457   0.000258   0.000484  -0.000208
   44  O  3 XX   -0.000116   0.000322  -0.000467  -0.000846   0.000465
   45  O  3 YY    0.000066  -0.000200   0.000263   0.000484  -0.000284
   46  O  3 ZZ    0.000050  -0.000122   0.000204   0.000361  -0.000181
   47  O  3 XY    0.000000   0.000000   0.000000   0.000000   0.000000
   48  O  3 XZ   -0.000063   0.000220  -0.000180  -0.000464   0.000327
   49  O  3 YZ    0.000000   0.000000   0.000000   0.000000   0.000000

                      6          7          8          9         10
                   -5.8581    -5.8546    -0.9892    -0.9382    -0.6155
                     B2         A1         A1         B1         A1  
    1  S  1  S    0.000000   0.003264   0.047495   0.000000   0.068489
    2  S  1  S    0.000000  -0.012337  -0.138796   0.000000  -0.191866
    3  S  1  S    0.000000   0.000194   0.277894   0.000000   0.434797
    4  S  1  S    0.000000  -0.000839   0.170099   0.000000   0.398458
    5  S  1  X    0.000000   0.000000   0.000000   0.111607   0.000000
    6  S  1  Y    0.996971   0.000000   0.000000   0.000000   0.000000
    7  S  1  Z    0.000000   0.996960  -0.031383   0.000000   0.000792
    8  S  1  X    0.000000   0.000000   0.000000  -0.217285   0.000000
    9  S  1  Y    0.008691   0.000000   0.000000   0.000000   0.000000
   10  S  1  Z    0.000000   0.008464   0.064912   0.000000   0.006998
   11  S  1  X    0.000000   0.000000   0.000000  -0.014121   0.000000
   12  S  1  Y   -0.000113   0.000000   0.000000   0.000000   0.000000
   13  S  1  Z    0.000000  -0.000159   0.006332   0.000000  -0.014017
   14  S  1 XX    0.000000  -0.000694   0.056908   0.000000  -0.019922
   15  S  1 YY    0.000000  -0.000270  -0.031662   0.000000   0.013512
   16  S  1 ZZ    0.000000   0.000964  -0.025247   0.000000   0.006410
   17  S  1 XY    0.000000   0.000000   0.000000   0.000000   0.000000
   18  S  1 XZ    0.000000   0.000000   0.000000  -0.035527   0.000000
   19  S  1 YZ    0.000720   0.000000   0.000000   0.000000   0.000000
   20  O  2  S    0.000000  -0.000076  -0.126808  -0.147673   0.103724
   21  O  2  S    0.000000  -0.000123   0.255025   0.295526  -0.214884
   22  O  2  S    0.000000   0.000538   0.295131   0.371616  -0.342040
   23  O  2  X    0.000000   0.000150   0.095954   0.089574   0.147530
   24  O  2  Y    0.000022   0.000000   0.000000   0.000000   0.000000
   25  O  2  Z    0.000000  -0.000020  -0.021149  -0.021135  -0.036596
   26  O  2  X    0.000000   0.000324   0.039892   0.042765   0.069764
   27  O  2  Y   -0.000040   0.000000   0.000000   0.000000   0.000000
   28  O  2  Z    0.000000  -0.000145  -0.006264  -0.012555  -0.013004
   29  O  2 XX    0.000000   0.000251   0.010766   0.009134   0.009303
   30  O  2 YY    0.000000  -0.000121  -0.004396  -0.003875  -0.006065
   31  O  2 ZZ    0.000000  -0.000130  -0.006370  -0.005260  -0.003238
   32  O  2 XY    0.000053   0.000000   0.000000   0.000000   0.000000
   33  O  2 XZ    0.000000  -0.000087  -0.001927  -0.003585  -0.005192
   34  O  2 YZ   -0.000028   0.000000   0.000000   0.000000   0.000000
   35  O  3  S    0.000000  -0.000076  -0.126808   0.147673   0.103724
   36  O  3  S    0.000000  -0.000123   0.255025  -0.295526  -0.214884
   37  O  3  S    0.000000   0.000538   0.295131  -0.371616  -0.342040
   38  O  3  X    0.000000  -0.000150  -0.095954   0.089574  -0.147530
   39  O  3  Y    0.000022   0.000000   0.000000   0.000000   0.000000
   40  O  3  Z    0.000000  -0.000020  -0.021149   0.021135  -0.036596
   41  O  3  X    0.000000  -0.000324  -0.039892   0.042765  -0.069764
   42  O  3  Y   -0.000040   0.000000   0.000000   0.000000   0.000000
   43  O  3  Z    0.000000  -0.000145  -0.006264   0.012555  -0.013004
   44  O  3 XX    0.000000   0.000251   0.010766  -0.009134   0.009303
   45  O  3 YY    0.000000  -0.000121  -0.004396   0.003875  -0.006065
   46  O  3 ZZ    0.000000  -0.000130  -0.006370   0.005260  -0.003238
   47  O  3 XY   -0.000053   0.000000   0.000000   0.000000   0.000000
   48  O  3 XZ    0.000000   0.000087   0.001927  -0.003585   0.005192
   49  O  3 YZ   -0.000028   0.000000   0.000000   0.000000   0.000000

                     11         12         13         14         15
                   -0.4452    -0.4145    -0.4096    -0.3310    -0.3229
                     B1         B2         A1         A2         B1  
    1  S  1  S    0.000000   0.000000  -0.008951   0.000000   0.000000
    2  S  1  S    0.000000   0.000000   0.032703   0.000000   0.000000
    3  S  1  S    0.000000   0.000000  -0.047024   0.000000   0.000000
    4  S  1  S    0.000000   0.000000  -0.122292   0.000000   0.000000
    5  S  1  X   -0.171210   0.000000   0.000000   0.000000  -0.017590
    6  S  1  Y    0.000000  -0.202410   0.000000   0.000000   0.000000
    7  S  1  Z    0.000000   0.000000  -0.200378   0.000000   0.000000
    8  S  1  X    0.404926   0.000000   0.000000   0.000000   0.038617
    9  S  1  Y    0.000000   0.473677   0.000000   0.000000   0.000000
   10  S  1  Z    0.000000   0.000000   0.467490   0.000000   0.000000
   11  S  1  X    0.032868   0.000000   0.000000   0.000000   0.066823
   12  S  1  Y    0.000000   0.279865   0.000000   0.000000   0.000000
   13  S  1  Z    0.000000   0.000000   0.267851   0.000000   0.000000
   14  S  1 XX    0.000000   0.000000  -0.023574   0.000000   0.000000
   15  S  1 YY    0.000000   0.000000  -0.015663   0.000000   0.000000
   16  S  1 ZZ    0.000000   0.000000   0.039238   0.000000   0.000000
   17  S  1 XY    0.000000   0.000000   0.000000  -0.111473   0.000000
   18  S  1 XZ    0.030986   0.000000   0.000000   0.000000  -0.106247
   19  S  1 YZ    0.000000   0.031659   0.000000   0.000000   0.000000
   20  O  2  S   -0.062562   0.000000   0.009375   0.000000  -0.001559
   21  O  2  S    0.133452   0.000000  -0.018742   0.000000   0.001095
   22  O  2  S    0.207431   0.000000  -0.039045   0.000000   0.026844
   23  O  2  X   -0.358360   0.000000   0.156464   0.000000   0.157382
   24  O  2  Y    0.000000   0.305881   0.000000   0.464802   0.000000
   25  O  2  Z    0.106331   0.000000   0.263639   0.000000   0.436703
   26  O  2  X   -0.213793   0.000000   0.101449   0.000000   0.112903
   27  O  2  Y    0.000000   0.186163   0.000000   0.330454   0.000000
   28  O  2  Z    0.070244   0.000000   0.161744   0.000000   0.308244
   29  O  2 XX   -0.012638   0.000000   0.012228   0.000000   0.005970
   30  O  2 YY    0.008089   0.000000  -0.002983   0.000000   0.000700
   31  O  2 ZZ    0.004549   0.000000  -0.009245   0.000000  -0.006670
   32  O  2 XY    0.000000   0.018921   0.000000   0.017103   0.000000
   33  O  2 XZ    0.009023   0.000000   0.014391   0.000000   0.016215
   34  O  2 YZ    0.000000  -0.004315   0.000000  -0.004262   0.000000
   35  O  3  S    0.062562   0.000000   0.009375   0.000000   0.001559
   36  O  3  S   -0.133452   0.000000  -0.018742   0.000000  -0.001095
   37  O  3  S   -0.207431   0.000000  -0.039045   0.000000  -0.026844
   38  O  3  X   -0.358360   0.000000  -0.156464   0.000000   0.157382
   39  O  3  Y    0.000000   0.305881   0.000000  -0.464802   0.000000
   40  O  3  Z   -0.106331   0.000000   0.263639   0.000000  -0.436703
   41  O  3  X   -0.213793   0.000000  -0.101449   0.000000   0.112903
   42  O  3  Y    0.000000   0.186163   0.000000  -0.330454   0.000000
   43  O  3  Z   -0.070244   0.000000   0.161744   0.000000  -0.308244
   44  O  3 XX    0.012638   0.000000   0.012228   0.000000  -0.005970
   45  O  3 YY   -0.008089   0.000000  -0.002983   0.000000  -0.000700
   46  O  3 ZZ   -0.004549   0.000000  -0.009245   0.000000   0.006670
   47  O  3 XY    0.000000  -0.018921   0.000000   0.017103   0.000000
   48  O  3 XZ    0.009023   0.000000  -0.014391   0.000000   0.016215
   49  O  3 YZ    0.000000  -0.004315   0.000000   0.004262   0.000000

                     16         17         18         19         20
                   -0.2611    -0.1947    -0.1491     0.0908     0.3644
                     A1         B2         A1         B1         A1  
    1  S  1  S    0.025874   0.000000   0.018953   0.000000  -0.038540
    2  S  1  S   -0.114107   0.000000  -0.075557   0.000000  -0.163436
    3  S  1  S    0.115751   0.000000   0.099380   0.000000  -0.623394
    4  S  1  S    0.567438   0.000000   0.435209   0.000000   0.947182
    5  S  1  X    0.000000   0.000000   0.000000  -0.194048   0.000000
    6  S  1  Y    0.000000  -0.210833   0.000000   0.000000   0.000000
    7  S  1  Z    0.087312   0.000000  -0.191325   0.000000   0.265898
    8  S  1  X    0.000000   0.000000   0.000000   0.510000   0.000000
    9  S  1  Y    0.000000   0.530664   0.000000   0.000000   0.000000
   10  S  1  Z   -0.212516   0.000000   0.489453   0.000000  -1.028910
   11  S  1  X    0.000000   0.000000   0.000000   1.309104   0.000000
   12  S  1  Y    0.000000   0.427531   0.000000   0.000000   0.000000
   13  S  1  Z   -0.093626   0.000000   0.468733   0.000000   1.241850
   14  S  1 XX   -0.160966   0.000000  -0.114411   0.000000   0.057640
   15  S  1 YY    0.080334   0.000000   0.076073   0.000000   0.103349
   16  S  1 ZZ    0.080632   0.000000   0.038338   0.000000  -0.160989
   17  S  1 XY    0.000000   0.000000   0.000000   0.000000   0.000000
   18  S  1 XZ    0.000000   0.000000   0.000000  -0.154161   0.000000
   19  S  1 YZ    0.000000  -0.014743   0.000000   0.000000   0.000000
   20  O  2  S    0.006252   0.000000   0.023054  -0.069621   0.012442
   21  O  2  S   -0.018047   0.000000  -0.049887   0.120105  -0.006910
   22  O  2  S   -0.064119   0.000000  -0.165777   0.704754  -0.276319
   23  O  2  X   -0.289982   0.000000  -0.330526   0.218298   0.082782
   24  O  2  Y    0.000000  -0.394145   0.000000   0.000000   0.000000
   25  O  2  Z    0.336074   0.000000  -0.234363  -0.194555  -0.110918
   26  O  2  X   -0.212170   0.000000  -0.276768   0.366448  -0.161466
   27  O  2  Y    0.000000  -0.311954   0.000000   0.000000   0.000000
   28  O  2  Z    0.245904   0.000000  -0.190184  -0.197290  -0.059371
   29  O  2 XX   -0.003156   0.000000  -0.000522   0.007614  -0.039311
   30  O  2 YY    0.002674   0.000000   0.001305  -0.000929   0.020378
   31  O  2 ZZ    0.000483   0.000000  -0.000783  -0.006685   0.018933
   32  O  2 XY    0.000000  -0.000428   0.000000   0.000000   0.000000
   33  O  2 XZ    0.006326   0.000000   0.002937   0.006648  -0.002263
   34  O  2 YZ    0.000000  -0.000387   0.000000   0.000000   0.000000
   35  O  3  S    0.006252   0.000000   0.023054   0.069621   0.012442
   36  O  3  S   -0.018047   0.000000  -0.049887  -0.120105  -0.006910
   37  O  3  S   -0.064119   0.000000  -0.165777  -0.704754  -0.276319
   38  O  3  X    0.289982   0.000000   0.330526   0.218298  -0.082782
   39  O  3  Y    0.000000  -0.394145   0.000000   0.000000   0.000000
   40  O  3  Z    0.336074   0.000000  -0.234363   0.194555  -0.110918
   41  O  3  X    0.212170   0.000000   0.276768   0.366448   0.161466
   42  O  3  Y    0.000000  -0.311954   0.000000   0.000000   0.000000
   43  O  3  Z    0.245904   0.000000  -0.190184   0.197290  -0.059371
   44  O  3 XX   -0.003156   0.000000  -0.000522  -0.007614  -0.039311
   45  O  3 YY    0.002674   0.000000   0.001305   0.000929   0.020378
   46  O  3 ZZ    0.000483   0.000000  -0.000783   0.006685   0.018933
   47  O  3 XY    0.000000   0.000428   0.000000   0.000000   0.000000
   48  O  3 XZ   -0.006326   0.000000  -0.002937   0.006648   0.002263
   49  O  3 YZ    0.000000  -0.000387   0.000000   0.000000   0.000000

                     21         22         23         24         25
                    0.3653     0.3699     0.3925     0.5060     0.5070
                     B2         B1         A1         A2         B2  
    1  S  1  S    0.000000   0.000000  -0.109419   0.000000   0.000000
    2  S  1  S    0.000000   0.000000  -0.371852   0.000000   0.000000
    3  S  1  S    0.000000   0.000000  -1.657775   0.000000   0.000000
    4  S  1  S    0.000000   0.000000   1.983294   0.000000   0.000000
    5  S  1  X    0.000000   0.297991   0.000000   0.000000   0.000000
    6  S  1  Y    0.289262   0.000000   0.000000   0.000000   0.048692
    7  S  1  Z    0.000000   0.000000  -0.103132   0.000000   0.000000
    8  S  1  X    0.000000  -1.102668   0.000000   0.000000   0.000000
    9  S  1  Y   -1.123773   0.000000   0.000000   0.000000  -0.186324
   10  S  1  Z    0.000000   0.000000   0.403326   0.000000   0.000000
   11  S  1  X    0.000000   1.572807   0.000000   0.000000   0.000000
   12  S  1  Y    1.255016   0.000000   0.000000   0.000000   0.157942
   13  S  1  Z    0.000000   0.000000  -0.359187   0.000000   0.000000
   14  S  1 XX    0.000000   0.000000  -0.136837   0.000000   0.000000
   15  S  1 YY    0.000000   0.000000   0.031775   0.000000   0.000000
   16  S  1 ZZ    0.000000   0.000000   0.105062   0.000000   0.000000
   17  S  1 XY    0.000000   0.000000   0.000000   0.839056   0.000000
   18  S  1 XZ    0.000000   0.071553   0.000000   0.000000   0.000000
   19  S  1 YZ   -0.154248   0.000000   0.000000   0.000000   0.969039
   20  O  2  S    0.000000  -0.012521   0.009868   0.000000   0.000000
   21  O  2  S    0.000000  -0.038820  -0.023261   0.000000   0.000000
   22  O  2  S    0.000000   0.575080  -0.223802   0.000000   0.000000
   23  O  2  X    0.000000  -0.297568   0.113922   0.000000   0.000000
   24  O  2  Y   -0.080560   0.000000   0.000000   0.378272  -0.135315
   25  O  2  Z    0.000000   0.051123  -0.051529   0.000000   0.000000
   26  O  2  X    0.000000   0.122785  -0.123102   0.000000   0.000000
   27  O  2  Y   -0.106701   0.000000   0.000000  -0.160305   0.049459
   28  O  2  Z    0.000000  -0.060059   0.073729   0.000000   0.000000
   29  O  2 XX    0.000000   0.045137  -0.038027   0.000000   0.000000
   30  O  2 YY    0.000000  -0.026993   0.023791   0.000000   0.000000
   31  O  2 ZZ    0.000000  -0.018144   0.014235   0.000000   0.000000
   32  O  2 XY   -0.021799   0.000000   0.000000  -0.060530   0.021573
   33  O  2 XZ    0.000000  -0.027891   0.032467   0.000000   0.000000
   34  O  2 YZ    0.002170   0.000000   0.000000   0.022129   0.021547
   35  O  3  S    0.000000   0.012521   0.009868   0.000000   0.000000
   36  O  3  S    0.000000   0.038820  -0.023261   0.000000   0.000000
   37  O  3  S    0.000000  -0.575080  -0.223802   0.000000   0.000000
   38  O  3  X    0.000000  -0.297568  -0.113922   0.000000   0.000000
   39  O  3  Y   -0.080560   0.000000   0.000000  -0.378272  -0.135315
   40  O  3  Z    0.000000  -0.051123  -0.051529   0.000000   0.000000
   41  O  3  X    0.000000   0.122785   0.123102   0.000000   0.000000
   42  O  3  Y   -0.106701   0.000000   0.000000   0.160305   0.049459
   43  O  3  Z    0.000000   0.060059   0.073729   0.000000   0.000000
   44  O  3 XX    0.000000  -0.045137  -0.038027   0.000000   0.000000
   45  O  3 YY    0.000000   0.026993   0.023791   0.000000   0.000000
   46  O  3 ZZ    0.000000   0.018144   0.014235   0.000000   0.000000
   47  O  3 XY    0.021799   0.000000   0.000000  -0.060530  -0.021573
   48  O  3 XZ    0.000000  -0.027891  -0.032467   0.000000   0.000000
   49  O  3 YZ    0.002170   0.000000   0.000000  -0.022129   0.021547

                     26         27         28         29         30
                    0.5080     0.5875     0.6864     0.7646     0.7834
                     A1         B1         A1         B1         A2  
    1  S  1  S    0.000935   0.000000   0.005694   0.000000   0.000000
    2  S  1  S   -0.004601   0.000000  -0.056395   0.000000   0.000000
    3  S  1  S    0.004421   0.000000   0.006541   0.000000   0.000000
    4  S  1  S    0.037962   0.000000   1.188734   0.000000   0.000000
    5  S  1  X    0.000000  -0.075307   0.000000  -0.063060   0.000000
    6  S  1  Y    0.000000   0.000000   0.000000   0.000000   0.000000
    7  S  1  Z    0.050506   0.000000  -0.046253   0.000000   0.000000
    8  S  1  X    0.000000   0.312346   0.000000   0.425919   0.000000
    9  S  1  Y    0.000000   0.000000   0.000000   0.000000   0.000000
   10  S  1  Z   -0.193001   0.000000   0.224011   0.000000   0.000000
   11  S  1  X    0.000000   0.549532   0.000000  -0.172794   0.000000
   12  S  1  Y    0.000000   0.000000   0.000000   0.000000   0.000000
   13  S  1  Z    0.176652   0.000000   0.127846   0.000000   0.000000
   14  S  1 XX   -0.028204   0.000000   0.699582   0.000000   0.000000
   15  S  1 YY   -0.822106   0.000000  -0.401469   0.000000   0.000000
   16  S  1 ZZ    0.850310   0.000000  -0.298113   0.000000   0.000000
   17  S  1 XY    0.000000   0.000000   0.000000   0.000000   0.561339
   18  S  1 XZ    0.000000   0.833724   0.000000   0.247709   0.000000
   19  S  1 YZ    0.000000   0.000000   0.000000   0.000000   0.000000
   20  O  2  S    0.002016  -0.047938   0.060832  -0.013691   0.000000
   21  O  2  S   -0.004331   0.172524  -0.231478   0.023422   0.000000
   22  O  2  S   -0.027399   0.307280  -0.315209   0.034432   0.000000
   23  O  2  X   -0.030501   0.059184   0.348437  -0.464149   0.000000
   24  O  2  Y    0.000000   0.000000   0.000000   0.000000  -0.534032
   25  O  2  Z   -0.139451   0.327160  -0.002502  -0.354429   0.000000
   26  O  2  X   -0.006128   0.404604  -1.011162   0.759924   0.000000
   27  O  2  Y    0.000000   0.000000   0.000000   0.000000   0.763340
   28  O  2  Z    0.055029  -0.319137   0.193486   0.411755   0.000000
   29  O  2 XX    0.005517  -0.032391   0.009689  -0.046134   0.000000
   30  O  2 YY   -0.021205  -0.000360  -0.011558   0.020121   0.000000
   31  O  2 ZZ    0.015688   0.032751   0.001869   0.026013   0.000000
   32  O  2 XY    0.000000   0.000000   0.000000   0.000000  -0.064479
   33  O  2 XZ    0.021583  -0.044587  -0.019275  -0.000334   0.000000
   34  O  2 YZ    0.000000   0.000000   0.000000   0.000000   0.022020
   35  O  3  S    0.002016   0.047938   0.060832   0.013691   0.000000
   36  O  3  S   -0.004331  -0.172524  -0.231478  -0.023422   0.000000
   37  O  3  S   -0.027399  -0.307280  -0.315209  -0.034432   0.000000
   38  O  3  X    0.030501   0.059184  -0.348437  -0.464149   0.000000
   39  O  3  Y    0.000000   0.000000   0.000000   0.000000   0.534032
   40  O  3  Z   -0.139451  -0.327160  -0.002502   0.354429   0.000000
   41  O  3  X    0.006128   0.404604   1.011162   0.759924   0.000000
   42  O  3  Y    0.000000   0.000000   0.000000   0.000000  -0.763340
   43  O  3  Z    0.055029   0.319137   0.193486  -0.411755   0.000000
   44  O  3 XX    0.005517   0.032391   0.009689   0.046134   0.000000
   45  O  3 YY   -0.021205   0.000360  -0.011558  -0.020121   0.000000
   46  O  3 ZZ    0.015688  -0.032751   0.001869  -0.026013   0.000000
   47  O  3 XY    0.000000   0.000000   0.000000   0.000000  -0.064479
   48  O  3 XZ   -0.021583  -0.044587   0.019275  -0.000334   0.000000
   49  O  3 YZ    0.000000   0.000000   0.000000   0.000000  -0.022020

                     31         32         33         34         35
                    0.8296     0.8301     0.8362     0.9873     1.5269
                     A1         B1         B2         A1         A1  
    1  S  1  S    0.010122   0.000000   0.000000  -0.031608  -0.017164
    2  S  1  S    0.054479   0.000000   0.000000  -0.219751  -0.195309
    3  S  1  S    0.184488   0.000000   0.000000  -0.636897  -0.414861
    4  S  1  S   -0.115640   0.000000   0.000000   0.761656   1.722688
    5  S  1  X    0.000000   0.030176   0.000000   0.000000   0.000000
    6  S  1  Y    0.000000   0.000000  -0.024570   0.000000   0.000000
    7  S  1  Z   -0.025393   0.000000   0.000000  -0.023027  -0.009150
    8  S  1  X    0.000000  -0.304906   0.000000   0.000000   0.000000
    9  S  1  Y    0.000000   0.000000   0.118975   0.000000   0.000000
   10  S  1  Z    0.136908   0.000000   0.000000   0.042940   0.070234
   11  S  1  X    0.000000   0.122895   0.000000   0.000000   0.000000
   12  S  1  Y    0.000000   0.000000  -0.646133   0.000000   0.000000
   13  S  1  Z   -0.631346   0.000000   0.000000  -0.005772   0.405065
   14  S  1 XX    0.054362   0.000000   0.000000   0.898531   0.372456
   15  S  1 YY    0.141620   0.000000   0.000000  -0.477596  -0.228499
   16  S  1 ZZ   -0.195983   0.000000   0.000000  -0.420935  -0.143957
   17  S  1 XY    0.000000   0.000000   0.000000   0.000000   0.000000
   18  S  1 XZ    0.000000   0.553486   0.000000   0.000000   0.000000
   19  S  1 YZ    0.000000   0.000000  -0.190821   0.000000   0.000000
   20  O  2  S   -0.006203   0.003351   0.000000   0.031078  -0.008516
   21  O  2  S    0.087205  -0.064744   0.000000  -0.094217   1.149508
   22  O  2  S   -0.011582   0.110049   0.000000  -0.250921  -1.676310
   23  O  2  X   -0.059503   0.383108   0.000000  -0.531736   0.072776
   24  O  2  Y    0.000000   0.000000  -0.621450   0.000000   0.000000
   25  O  2  Z   -0.612766  -0.409814   0.000000   0.092448   0.054780
   26  O  2  X    0.096054  -0.425015   0.000000   0.286029  -0.641670
   27  O  2  Y    0.000000   0.000000   0.904927   0.000000   0.000000
   28  O  2  Z    0.882437   0.602235   0.000000   0.079820  -0.000418
   29  O  2 XX    0.002949  -0.003594   0.000000  -0.028373   0.179654
   30  O  2 YY   -0.002503  -0.019467   0.000000  -0.004025  -0.102281
   31  O  2 ZZ   -0.000446   0.023061   0.000000   0.032398  -0.077372
   32  O  2 XY    0.000000   0.000000  -0.032476   0.000000   0.000000
   33  O  2 XZ   -0.035615  -0.072015   0.000000  -0.055149  -0.059963
   34  O  2 YZ    0.000000   0.000000   0.000680   0.000000   0.000000
   35  O  3  S   -0.006203  -0.003351   0.000000   0.031078  -0.008516
   36  O  3  S    0.087205   0.064744   0.000000  -0.094217   1.149508
   37  O  3  S   -0.011582  -0.110049   0.000000  -0.250921  -1.676310
   38  O  3  X    0.059503   0.383108   0.000000   0.531736  -0.072776
   39  O  3  Y    0.000000   0.000000  -0.621450   0.000000   0.000000
   40  O  3  Z   -0.612766   0.409814   0.000000   0.092448   0.054780
   41  O  3  X   -0.096054  -0.425015   0.000000  -0.286029   0.641670
   42  O  3  Y    0.000000   0.000000   0.904927   0.000000   0.000000
   43  O  3  Z    0.882437  -0.602235   0.000000   0.079820  -0.000418
   44  O  3 XX    0.002949   0.003594   0.000000  -0.028373   0.179654
   45  O  3 YY   -0.002503   0.019467   0.000000  -0.004025  -0.102281
   46  O  3 ZZ   -0.000446  -0.023061   0.000000   0.032398  -0.077372
   47  O  3 XY    0.000000   0.000000   0.032476   0.000000   0.000000
   48  O  3 XZ    0.035615  -0.072015   0.000000   0.055149   0.059963
   49  O  3 YZ    0.000000   0.000000   0.000680   0.000000   0.000000

                     36         37         38         39         40
                    1.7424     2.0641     2.0641     2.0730     2.0760
                     B1         B1         A2         B2         A1  
    1  S  1  S    0.000000   0.000000   0.000000   0.000000   0.001536
    2  S  1  S    0.000000   0.000000   0.000000   0.000000   0.004699
    3  S  1  S    0.000000   0.000000   0.000000   0.000000   0.023650
    4  S  1  S    0.000000   0.000000   0.000000   0.000000  -0.012234
    5  S  1  X   -0.025464   0.000318   0.000000   0.000000   0.000000
    6  S  1  Y    0.000000   0.000000   0.000000  -0.016198   0.000000
    7  S  1  Z    0.000000   0.000000   0.000000   0.000000  -0.006115
    8  S  1  X    0.202079  -0.002509   0.000000   0.000000   0.000000
    9  S  1  Y    0.000000   0.000000   0.000000   0.046514   0.000000
   10  S  1  Z    0.000000   0.000000   0.000000   0.000000   0.020912
   11  S  1  X    1.548642   0.019066   0.000000   0.000000   0.000000
   12  S  1  Y    0.000000   0.000000   0.000000   0.039546   0.000000
   13  S  1  Z    0.000000   0.000000   0.000000   0.000000   0.002696
   14  S  1 XX    0.000000   0.000000   0.000000   0.000000  -0.019792
   15  S  1 YY    0.000000   0.000000   0.000000   0.000000   0.072550
   16  S  1 ZZ    0.000000   0.000000   0.000000   0.000000  -0.052758
   17  S  1 XY    0.000000   0.000000   0.021009   0.000000   0.000000
   18  S  1 XZ    0.209020  -0.021115   0.000000   0.000000   0.000000
   19  S  1 YZ    0.000000   0.000000   0.000000  -0.037425   0.000000
   20  O  2  S   -0.000659   0.000378   0.000000   0.000000  -0.000955
   21  O  2  S   -1.247033  -0.011144   0.000000   0.000000   0.010441
   22  O  2  S    2.084502   0.016691   0.000000   0.000000  -0.004274
   23  O  2  X   -0.032420  -0.000325   0.000000   0.000000   0.010814
   24  O  2  Y    0.000000   0.000000  -0.003781   0.018049   0.000000
   25  O  2  Z    0.080403   0.005372   0.000000   0.000000   0.000528
   26  O  2  X    0.510574  -0.000013   0.000000   0.000000  -0.009776
   27  O  2  Y    0.000000   0.000000   0.006510  -0.030785   0.000000
   28  O  2  Z   -0.302340  -0.009289   0.000000   0.000000  -0.001183
   29  O  2 XX   -0.194788  -0.084335   0.000000   0.000000  -0.016276
   30  O  2 YY    0.105075   0.612365   0.000000   0.000000  -0.595524
   31  O  2 ZZ    0.089712  -0.528030   0.000000   0.000000   0.611800
   32  O  2 XY    0.000000   0.000000   0.256174  -0.087957   0.000000
   33  O  2 XZ    0.103734  -0.243947   0.000000   0.000000   0.118263
   34  O  2 YZ    0.000000   0.000000   0.659162   0.702534   0.000000
   35  O  3  S    0.000659  -0.000378   0.000000   0.000000  -0.000955
   36  O  3  S    1.247033   0.011144   0.000000   0.000000   0.010441
   37  O  3  S   -2.084502  -0.016691   0.000000   0.000000  -0.004274
   38  O  3  X   -0.032420  -0.000325   0.000000   0.000000  -0.010814
   39  O  3  Y    0.000000   0.000000   0.003781   0.018049   0.000000
   40  O  3  Z   -0.080403  -0.005372   0.000000   0.000000   0.000528
   41  O  3  X    0.510574  -0.000013   0.000000   0.000000   0.009776
   42  O  3  Y    0.000000   0.000000  -0.006510  -0.030785   0.000000
   43  O  3  Z    0.302340   0.009289   0.000000   0.000000  -0.001183
   44  O  3 XX    0.194788   0.084335   0.000000   0.000000  -0.016276
   45  O  3 YY   -0.105075  -0.612365   0.000000   0.000000  -0.595524
   46  O  3 ZZ   -0.089712   0.528030   0.000000   0.000000   0.611800
   47  O  3 XY    0.000000   0.000000   0.256174   0.087957   0.000000
   48  O  3 XZ    0.103734  -0.243947   0.000000   0.000000  -0.118263
   49  O  3 YZ    0.000000   0.000000  -0.659162   0.702534   0.000000

                     41         42         43         44         45
                    2.0993     2.1444     2.2113     2.2583     2.6125
                     B2         A1         B1         A2         B1  
    1  S  1  S    0.000000  -0.006081   0.000000   0.000000   0.000000
    2  S  1  S    0.000000   0.002594   0.000000   0.000000   0.000000
    3  S  1  S    0.000000  -0.070075   0.000000   0.000000   0.000000
    4  S  1  S    0.000000  -0.157219   0.000000   0.000000   0.000000
    5  S  1  X    0.000000   0.000000   0.044210   0.000000  -0.193325
    6  S  1  Y    0.038647   0.000000   0.000000   0.000000   0.000000
    7  S  1  Z    0.000000   0.046896   0.000000   0.000000   0.000000
    8  S  1  X    0.000000   0.000000  -0.203220   0.000000   0.912276
    9  S  1  Y   -0.107475   0.000000   0.000000   0.000000   0.000000
   10  S  1  Z    0.000000  -0.149261   0.000000   0.000000   0.000000
   11  S  1  X    0.000000   0.000000  -0.065137   0.000000   0.459321
   12  S  1  Y   -0.126812   0.000000   0.000000   0.000000   0.000000
   13  S  1  Z    0.000000  -0.167572   0.000000   0.000000   0.000000
   14  S  1 XX    0.000000   0.099826   0.000000   0.000000   0.000000
   15  S  1 YY    0.000000   0.057956   0.000000   0.000000   0.000000
   16  S  1 ZZ    0.000000  -0.157782   0.000000   0.000000   0.000000
   17  S  1 XY    0.000000   0.000000   0.000000   0.425599   0.000000
   18  S  1 XZ    0.000000   0.000000   0.328727   0.000000   0.406560
   19  S  1 YZ   -0.135905   0.000000   0.000000   0.000000   0.000000
   20  O  2  S    0.000000   0.001711  -0.001031   0.000000  -0.019485
   21  O  2  S    0.000000  -0.153311   0.134627   0.000000  -0.558972
   22  O  2  S    0.000000   0.209811  -0.177904   0.000000   1.038983
   23  O  2  X    0.000000  -0.072225   0.045976   0.000000  -0.047856
   24  O  2  Y   -0.054113   0.000000   0.000000  -0.040872   0.000000
   25  O  2  Z    0.000000  -0.044622  -0.054470   0.000000   0.020081
   26  O  2  X    0.000000   0.157324  -0.081923   0.000000   0.568453
   27  O  2  Y    0.107298   0.000000   0.000000   0.126551   0.000000
   28  O  2  Z    0.000000   0.100631   0.134036   0.000000  -0.140980
   29  O  2 XX    0.000000   0.418054   0.177411   0.000000   0.733922
   30  O  2 YY    0.000000  -0.133103   0.136341   0.000000  -0.350571
   31  O  2 ZZ    0.000000  -0.284951  -0.313752   0.000000  -0.383351
   32  O  2 XY    0.710306   0.000000   0.000000   0.679021   0.000000
   33  O  2 XZ    0.000000   0.572560   0.645173   0.000000  -0.189065
   34  O  2 YZ    0.083929   0.000000   0.000000  -0.260924   0.000000
   35  O  3  S    0.000000   0.001711   0.001031   0.000000   0.019485
   36  O  3  S    0.000000  -0.153311  -0.134627   0.000000   0.558972
   37  O  3  S    0.000000   0.209811   0.177904   0.000000  -1.038983
   38  O  3  X    0.000000   0.072225   0.045976   0.000000  -0.047856
   39  O  3  Y   -0.054113   0.000000   0.000000   0.040872   0.000000
   40  O  3  Z    0.000000  -0.044622   0.054470   0.000000  -0.020081
   41  O  3  X    0.000000  -0.157324  -0.081923   0.000000   0.568453
   42  O  3  Y    0.107298   0.000000   0.000000  -0.126551   0.000000
   43  O  3  Z    0.000000   0.100631  -0.134036   0.000000   0.140980
   44  O  3 XX    0.000000   0.418054  -0.177411   0.000000  -0.733922
   45  O  3 YY    0.000000  -0.133103  -0.136341   0.000000   0.350571
   46  O  3 ZZ    0.000000  -0.284951   0.313752   0.000000   0.383351
   47  O  3 XY   -0.710306   0.000000   0.000000   0.679021   0.000000
   48  O  3 XZ    0.000000  -0.572560   0.645173   0.000000  -0.189065
   49  O  3 YZ    0.083929   0.000000   0.000000   0.260924   0.000000

                     46
                    2.7280
                     A1  
    1  S  1  S    0.028876
    2  S  1  S   -0.099491
    3  S  1  S    0.223496
    4  S  1  S    1.197630
    5  S  1  X    0.000000
    6  S  1  Y    0.000000
    7  S  1  Z   -0.052538
    8  S  1  X    0.000000
    9  S  1  Y    0.000000
   10  S  1  Z    0.258738
   11  S  1  X    0.000000
   12  S  1  Y    0.000000
   13  S  1  Z    0.123321
   14  S  1 XX    0.845105
   15  S  1 YY   -0.451427
   16  S  1 ZZ   -0.393678
   17  S  1 XY    0.000000
   18  S  1 XZ    0.000000
   19  S  1 YZ    0.000000
   20  O  2  S    0.028065
   21  O  2  S    0.549304
   22  O  2  S   -1.117140
   23  O  2  X    0.000216
   24  O  2  Y    0.000000
   25  O  2  Z    0.005870
   26  O  2  X   -0.663089
   27  O  2  Y    0.000000
   28  O  2  Z    0.191085
   29  O  2 XX   -0.647799
   30  O  2 YY    0.403918
   31  O  2 ZZ    0.243881
   32  O  2 XY    0.000000
   33  O  2 XZ    0.467572
   34  O  2 YZ    0.000000
   35  O  3  S    0.028065
   36  O  3  S    0.549304
   37  O  3  S   -1.117140
   38  O  3  X   -0.000216
   39  O  3  Y    0.000000
   40  O  3  Z    0.005870
   41  O  3  X    0.663089
   42  O  3  Y    0.000000
   43  O  3  Z    0.191085
   44  O  3 XX   -0.647799
   45  O  3 YY    0.403918
   46  O  3 ZZ    0.243881
   47  O  3 XY    0.000000
   48  O  3 XZ   -0.467572
   49  O  3 YZ    0.000000
 ...... END OF RHF CALCULATION ......
 STEP CPU TIME =     4.28 TOTAL CPU TIME =        4.4 (    0.1 MIN)
 TOTAL WALL CLOCK TIME=        4.5 SECONDS, CPU UTILIZATION IS  99.78%

     ---------------------------------------------------------------------
     PROPERTIES FOR THE PBE      DFT FUNCTIONAL (RHF  TYPE) DENSITY MATRIX
     ---------------------------------------------------------------------

          -----------------
          ENERGY COMPONENTS
          -----------------

         WAVEFUNCTION NORMALIZATION =       1.0000000000

                ONE ELECTRON ENERGY =    -945.5797520621
                TWO ELECTRON ENERGY =     301.7432426629
           NUCLEAR REPULSION ENERGY =      95.6252519055
                                      ------------------
                       TOTAL ENERGY =    -548.2112574938

 ELECTRON-ELECTRON POTENTIAL ENERGY =     301.7432426629
  NUCLEUS-ELECTRON POTENTIAL ENERGY =   -1492.7032803463
   NUCLEUS-NUCLEUS POTENTIAL ENERGY =      95.6252519055
                                      ------------------
             TOTAL POTENTIAL ENERGY =   -1095.3347857780
               TOTAL KINETIC ENERGY =     547.1235282841
                 VIRIAL RATIO (V/T) =       2.0019880871

          ---------------------------------------
          MULLIKEN AND LOWDIN POPULATION ANALYSES
          ---------------------------------------

     ATOMIC MULLIKEN POPULATION IN EACH MOLECULAR ORBITAL

                      1          2          3          4          5

                  2.000000   2.000000   2.000000   2.000000   2.000000

    1             2.000012   0.001601   0.000773   2.000991   1.999795
    2            -0.000006   0.999199   0.999614  -0.000496   0.000102
    3            -0.000006   0.999199   0.999614  -0.000496   0.000102

                      6          7          8          9         10

                  2.000000   2.000000   2.000000   2.000000   2.000000

    1             2.000003   1.999957   0.636437   0.261992   0.995579
    2            -0.000001   0.000021   0.681781   0.869004   0.502210
    3            -0.000001   0.000021   0.681781   0.869004   0.502210

                     11         12         13         14         15

                  2.000000   2.000000   2.000000   2.000000   2.000000

    1             0.430632   1.061943   1.052305   0.076576   0.092168
    2             0.784684   0.469029   0.473847   0.961712   0.953916
    3             0.784684   0.469029   0.473847   0.961712   0.953916

                     16

                  2.000000

    1             0.607875
    2             0.696063
    3             0.696063

               ----- POPULATIONS IN EACH AO -----
                             MULLIKEN      LOWDIN
              1  S  1  S      2.00022     1.99596
              2  S  1  S      2.01030     1.97215
              3  S  1  S      0.99603     0.62518
              4  S  1  S      0.93237     0.56723
              5  S  1  X      1.99655     1.95282
              6  S  1  Y      1.99621     1.95422
              7  S  1  Z      1.99671     1.95857
              8  S  1  X      0.65454     0.59026
              9  S  1  Y      0.63781     0.60986
             10  S  1  Z      0.74632     0.72095
             11  S  1  X      0.04853     0.25869
             12  S  1  Y      0.42353     0.47520
             13  S  1  Z      0.41313     0.48673
             14  S  1 XX      0.05464     0.30631
             15  S  1 YY      0.14420     0.29753
             16  S  1 ZZ      0.07658     0.29391
             17  S  1 XY      0.08657     0.09130
             18  S  1 XZ      0.00440     0.10548
             19  S  1 YZ      0.00000     0.00415
             20  O  2  S      1.99808     1.98091
             21  O  2  S      0.84875     0.66519
             22  O  2  S      1.08004     0.57694
             23  O  2  X      0.85708     0.81896
             24  O  2  Y      0.85066     0.81484
             25  O  2  Z      1.04903     1.01682
             26  O  2  X      0.45600     0.55135
             27  O  2  Y      0.57561     0.61236
             28  O  2  Z      0.65980     0.69513
             29  O  2 XX      0.00200     0.21155
             30  O  2 YY      0.00496     0.20775
             31  O  2 ZZ      0.00422     0.20363
             32  O  2 XY      0.00420     0.00512
             33  O  2 XZ      0.00026     0.00590
             34  O  2 YZ      0.00000     0.00031
             35  O  3  S      1.99808     1.98091
             36  O  3  S      0.84875     0.66519
             37  O  3  S      1.08004     0.57694
             38  O  3  X      0.85708     0.81896
             39  O  3  Y      0.85066     0.81484
             40  O  3  Z      1.04903     1.01682
             41  O  3  X      0.45600     0.55135
             42  O  3  Y      0.57561     0.61236
             43  O  3  Z      0.65980     0.69513
             44  O  3 XX      0.00200     0.21155
             45  O  3 YY      0.00496     0.20775
             46  O  3 ZZ      0.00422     0.20363
             47  O  3 XY      0.00420     0.00512
             48  O  3 XZ      0.00026     0.00590
             49  O  3 YZ      0.00000     0.00031

          ----- MULLIKEN ATOMIC OVERLAP POPULATIONS -----
          (OFF-DIAGONAL ELEMENTS NEED TO BE MULTIPLIED BY 2)

             1           2           3

    1   14.8143835
    2    0.2021287   8.1880192
    3    0.2021287   0.0005316   8.1880192

          TOTAL MULLIKEN AND LOWDIN ATOMIC POPULATIONS
       ATOM         MULL.POP.    CHARGE          LOW.POP.     CHARGE
    1 S            15.218641    0.781359        15.266494    0.733506
    2 O             8.390680   -0.390680         8.366753   -0.366753
    3 O             8.390680   -0.390680         8.366753   -0.366753

          MULLIKEN SPHERICAL HARMONIC POPULATIONS
       ATOM           S       P       D      F      G      H      I    TOTAL
    1 S             5.94    8.91    0.37   0.00   0.00   0.00   0.00   15.22
    2 O             3.93    4.45    0.02   0.00   0.00   0.00   0.00    8.39
    3 O             3.93    4.45    0.02   0.00   0.00   0.00   0.00    8.39

          -------------------------------
          BOND ORDER AND VALENCE ANALYSIS     BOND ORDER THRESHOLD=0.050
          -------------------------------

                   BOND                       BOND                       BOND
  ATOM PAIR DIST  ORDER      ATOM PAIR DIST  ORDER      ATOM PAIR DIST  ORDER
    1   2  1.600  1.717        1   3  1.600  1.717        2   3  3.091  0.423

                       TOTAL       BONDED        FREE
      ATOM            VALENCE     VALENCE     VALENCE
    1 S                 3.434       3.434       0.000
    2 O                 2.140       2.140       0.000
    3 O                 2.140       2.140       0.000

          ---------------------
          ELECTROSTATIC MOMENTS
          ---------------------

 POINT   1           X           Y           Z (BOHR)    CHARGE
                 0.000000    0.000000    0.000000        0.00 (A.U.)
         DX          DY          DZ         /D/  (DEBYE)
     0.000000    0.000000   -0.643843    0.643843
 ...... END OF PROPERTY EVALUATION ......
 STEP CPU TIME =     0.00 TOTAL CPU TIME =        4.4 (    0.1 MIN)
 TOTAL WALL CLOCK TIME=        4.5 SECONDS, CPU UTILIZATION IS  99.78%
               580000  WORDS OF DYNAMIC MEMORY USED
 EXECUTION OF GAMESS TERMINATED NORMALLY Thu Feb 26 00:18:32 2015
 DDI: 263624 bytes (0.3 MB / 0 MWords) used by master data server.

 ----------------------------------------
 CPU timing information for all processes
 ========================================
 0: 4.439 + 0.27 = 4.467
 ----------------------------------------
 ddikick.x: exited gracefully.
----- accounting info -----
Files used on the master node dftfe.crc.nd.edu were:
-rw-r--r-- 1 pmehta1 campus   37475 Feb 26 00:18 /tmp/gamess.dat
-rw-r--r-- 1 pmehta1 campus     142 Feb 26 00:18 /tmp/gamess.F05
-rw-r--r-- 1 pmehta1 campus 1980264 Feb 26 00:18 /tmp/gamess.F08
-rw-r--r-- 1 pmehta1 campus 1220440 Feb 26 00:18 /tmp/gamess.F10
Thu Feb 26 00:18:35 EST 2015
0.243u 0.175s 0:07.90 5.1%	0+0k 0+104io 0pf+0w
