   1   1   1   0
  0.9000000E+02  0.9000000E-10  0.1000000E-08  0.1000000E-08  0.5000000E-15
  1.000000000000000E-004
  CAR 
 H chain                                 
     49.50121602    -17.37688194  301     -2.83327651      1.00000000
    -17.377  0.0000E+00  0.0000E+00
    -17.154  0.0000E+00  0.0000E+00
    -16.931  0.0000E+00  0.0000E+00
    -16.708  0.0000E+00  0.0000E+00
    -16.485  0.0000E+00  0.0000E+00
    -16.262  0.0000E+00  0.0000E+00
    -16.039  0.0000E+00  0.0000E+00
    -15.816  0.0000E+00  0.0000E+00
    -15.593  0.0000E+00  0.0000E+00
    -15.371  0.0000E+00  0.0000E+00
    -15.148  0.0000E+00  0.0000E+00
    -14.925  0.2490E-16  0.5551E-17
    -14.702  0.5571E-07  0.1242E-07
    -14.479  0.1005E-01  0.2242E-02
    -14.256  0.3821E+00  0.8742E-01
    -14.033  0.6803E-01  0.1026E+00
    -13.810  0.7262E+00  0.2645E+00
    -13.587  0.1593E+00  0.3000E+00
    -13.364  0.2046E-04  0.3000E+00
    -13.141  0.2170E-12  0.3000E+00
    -12.918  0.4789E-09  0.3000E+00
    -12.695  0.1443E-02  0.3003E+00
    -12.472  0.5205E+00  0.4164E+00
    -12.250  0.3749E+00  0.4999E+00
    -12.027  0.3509E-03  0.5000E+00
    -11.804  0.3333E-10  0.5000E+00
    -11.581  0.0000E+00  0.5000E+00
    -11.358  0.0000E+00  0.5000E+00
    -11.135  0.0000E+00  0.5000E+00
    -10.912  0.0000E+00  0.5000E+00
    -10.689  0.1691E-12  0.5000E+00
    -10.466  0.1768E-04  0.5000E+00
    -10.243  0.1516E+00  0.5338E+00
    -10.020  0.7329E+00  0.6972E+00
     -9.797  0.1265E-01  0.7000E+00
     -9.574  0.4009E-07  0.7000E+00
     -9.352  0.0000E+00  0.7000E+00
     -9.129  0.0000E+00  0.7000E+00
     -8.906  0.0000E+00  0.7000E+00
     -8.683  0.0000E+00  0.7000E+00
     -8.460  0.0000E+00  0.7000E+00
     -8.237  0.0000E+00  0.7000E+00
     -8.014  0.0000E+00  0.7000E+00
     -7.791  0.0000E+00  0.7000E+00
     -7.568  0.0000E+00  0.7000E+00
     -7.345  0.2738E-07  0.7000E+00
     -7.122  0.1060E-01  0.7024E+00
     -6.899  0.7189E+00  0.8626E+00
     -6.676  0.1676E+00  0.9000E+00
     -6.453  0.2375E-04  0.9000E+00
     -6.231  0.2803E-12  0.9000E+00
     -6.008  0.0000E+00  0.9000E+00
     -5.785  0.0000E+00  0.9000E+00
     -5.562  0.0000E+00  0.9000E+00
     -5.339  0.0000E+00  0.9000E+00
     -5.116  0.0000E+00  0.9000E+00
     -4.893  0.0000E+00  0.9000E+00
     -4.670  0.0000E+00  0.9000E+00
     -4.447  0.0000E+00  0.9000E+00
     -4.224  0.0000E+00  0.9000E+00
     -4.001  0.0000E+00  0.9000E+00
     -3.778  0.0000E+00  0.9000E+00
     -3.555  0.0000E+00  0.9000E+00
     -3.332  0.7478E-12  0.9000E+00
     -3.110  0.4189E-04  0.9000E+00
     -2.887  0.2021E+00  0.9451E+00
     -2.664  0.6877E+00  0.1098E+01
     -2.441  0.7391E-02  0.1100E+01
     -2.218  0.1275E-07  0.1100E+01
     -1.995  0.0000E+00  0.1100E+01
     -1.772  0.0000E+00  0.1100E+01
     -1.549  0.0000E+00  0.1100E+01
     -1.326  0.0000E+00  0.1100E+01
     -1.103  0.0000E+00  0.1100E+01
     -0.880  0.0000E+00  0.1100E+01
     -0.657  0.1145E-14  0.1100E+01
     -0.434  0.6667E-06  0.1100E+01
     -0.212  0.2916E-01  0.1107E+01
      0.011  0.7699E+00  0.1278E+01
      0.234  0.5793E+00  0.1407E+01
      0.457  0.1359E+01  0.1710E+01
      0.680  0.1293E+01  0.1999E+01
      0.903  0.6614E-02  0.2000E+01
      1.126  0.4904E-08  0.2000E+01
      1.349  0.5064E-08  0.2000E+01
      1.572  0.4739E-02  0.2001E+01
      1.795  0.8334E+00  0.2187E+01
      2.018  0.1807E+01  0.2590E+01
      2.241  0.7012E+00  0.2746E+01
      2.464  0.2426E+00  0.2800E+01
      2.687  0.7502E-04  0.2800E+01
      2.909  0.2075E-11  0.2800E+01
      3.132  0.0000E+00  0.2800E+01
      3.355  0.0000E+00  0.2800E+01
      3.578  0.1153E-11  0.2800E+01
      3.801  0.5369E-04  0.2800E+01
      4.024  0.2282E+00  0.2851E+01
      4.247  0.1963E+01  0.3289E+01
      4.470  0.4999E+00  0.3400E+01
      4.693  0.1587E-03  0.3400E+01
      4.916  0.4583E-11  0.3400E+01
      5.139  0.0000E+00  0.3400E+01
      5.362  0.0000E+00  0.3400E+01
      5.585  0.0000E+00  0.3400E+01
      5.808  0.0000E+00  0.3400E+01
      6.030  0.0000E+00  0.3400E+01
      6.253  0.0000E+00  0.3400E+01
      6.476  0.0000E+00  0.3400E+01
      6.699  0.0000E+00  0.3400E+01
      6.922  0.7126E-08  0.3400E+01
      7.145  0.5597E-02  0.3401E+01
      7.368  0.8589E+00  0.3593E+01
      7.591  0.1778E+01  0.3989E+01
      7.814  0.4852E-01  0.4000E+01
      8.037  0.1125E+00  0.4025E+01
      8.260  0.7645E+00  0.4195E+01
      8.483  0.2021E-01  0.4200E+01
      8.706  0.1127E-06  0.4200E+01
      8.929  0.0000E+00  0.4200E+01
      9.151  0.0000E+00  0.4200E+01
      9.374  0.0000E+00  0.4200E+01
      9.597  0.0000E+00  0.4200E+01
      9.820  0.0000E+00  0.4200E+01
     10.043  0.0000E+00  0.4200E+01
     10.266  0.0000E+00  0.4200E+01
     10.489  0.0000E+00  0.4200E+01
     10.712  0.0000E+00  0.4200E+01
     10.935  0.6474E-15  0.4200E+01
     11.158  0.6088E-06  0.4200E+01
     11.381  0.4215E-01  0.4209E+01
     11.604  0.1402E+01  0.4522E+01
     11.827  0.1242E+01  0.4799E+01
     12.049  0.5513E-02  0.4800E+01
     12.272  0.3408E-08  0.4800E+01
     12.495  0.0000E+00  0.4800E+01
     12.718  0.0000E+00  0.4800E+01
     12.941  0.0000E+00  0.4800E+01
     13.164  0.0000E+00  0.4800E+01
     13.387  0.0000E+00  0.4800E+01
     13.610  0.0000E+00  0.4800E+01
     13.833  0.0000E+00  0.4800E+01
     14.056  0.0000E+00  0.4800E+01
     14.279  0.0000E+00  0.4800E+01
     14.502  0.4637E-07  0.4800E+01
     14.725  0.1353E-01  0.4803E+01
     14.948  0.7379E+00  0.4968E+01
     15.170  0.1457E+00  0.5000E+01
     15.393  0.1576E-04  0.5000E+01
     15.616  0.1390E-12  0.5000E+01
     15.839  0.0000E+00  0.5000E+01
     16.062  0.7470E-14  0.5000E+01
     16.285  0.2754E-05  0.5000E+01
     16.508  0.7766E-01  0.5017E+01
     16.731  0.1594E+01  0.5373E+01
     16.954  0.1017E+01  0.5600E+01
     17.177  0.2207E-02  0.5600E+01
     17.400  0.5718E-09  0.5600E+01
     17.623  0.0000E+00  0.5600E+01
     17.846  0.0000E+00  0.5600E+01
     18.069  0.0000E+00  0.5600E+01
     18.291  0.0000E+00  0.5600E+01
     18.514  0.0000E+00  0.5600E+01
     18.737  0.0000E+00  0.5600E+01
     18.960  0.0000E+00  0.5600E+01
     19.183  0.0000E+00  0.5600E+01
     19.406  0.0000E+00  0.5600E+01
     19.629  0.0000E+00  0.5600E+01
     19.852  0.0000E+00  0.5600E+01
     20.075  0.0000E+00  0.5600E+01
     20.298  0.0000E+00  0.5600E+01
     20.521  0.0000E+00  0.5600E+01
     20.744  0.0000E+00  0.5600E+01
     20.967  0.0000E+00  0.5600E+01
     21.189  0.0000E+00  0.5600E+01
     21.412  0.0000E+00  0.5600E+01
     21.635  0.0000E+00  0.5600E+01
     21.858  0.2235E-07  0.5600E+01
     22.081  0.9640E-02  0.5602E+01
     22.304  0.7110E+00  0.5761E+01
     22.527  0.2320E+00  0.5812E+01
     22.750  0.1439E+01  0.6133E+01
     22.973  0.1192E+01  0.6399E+01
     23.196  0.4670E-02  0.6400E+01
     23.419  0.2453E-08  0.6400E+01
     23.642  0.0000E+00  0.6400E+01
     23.865  0.0000E+00  0.6400E+01
     24.088  0.0000E+00  0.6400E+01
     24.310  0.0000E+00  0.6400E+01
     24.533  0.0000E+00  0.6400E+01
     24.756  0.0000E+00  0.6400E+01
     24.979  0.0000E+00  0.6400E+01
     25.202  0.0000E+00  0.6400E+01
     25.425  0.0000E+00  0.6400E+01
     25.648  0.0000E+00  0.6400E+01
     25.871  0.0000E+00  0.6400E+01
     26.094  0.0000E+00  0.6400E+01
     26.317  0.0000E+00  0.6400E+01
     26.540  0.0000E+00  0.6400E+01
     26.763  0.0000E+00  0.6400E+01
     26.986  0.0000E+00  0.6400E+01
     27.209  0.1899E-07  0.6400E+01
     27.431  0.6170E-02  0.6401E+01
     27.654  0.3655E+00  0.6483E+01
     27.877  0.7690E-01  0.6500E+01
     28.100  0.9221E-05  0.6500E+01
     28.323  0.9089E-13  0.6500E+01
     28.546  0.0000E+00  0.6500E+01
     28.769  0.0000E+00  0.6500E+01
     28.992  0.0000E+00  0.6500E+01
     29.215  0.5416E-07  0.6500E+01
     29.438  0.1454E-01  0.6503E+01
     29.661  0.9812E+00  0.6722E+01
     29.884  0.1659E+01  0.7092E+01
     30.107  0.3720E-01  0.7100E+01
     30.329  0.1870E-06  0.7100E+01
     30.552  0.0000E+00  0.7100E+01
     30.775  0.0000E+00  0.7100E+01
     30.998  0.0000E+00  0.7100E+01
     31.221  0.0000E+00  0.7100E+01
     31.444  0.0000E+00  0.7100E+01
     31.667  0.0000E+00  0.7100E+01
     31.890  0.0000E+00  0.7100E+01
     32.113  0.0000E+00  0.7100E+01
     32.336  0.0000E+00  0.7100E+01
     32.559  0.0000E+00  0.7100E+01
     32.782  0.0000E+00  0.7100E+01
     33.005  0.0000E+00  0.7100E+01
     33.228  0.0000E+00  0.7100E+01
     33.450  0.0000E+00  0.7100E+01
     33.673  0.0000E+00  0.7100E+01
     33.896  0.0000E+00  0.7100E+01
     34.119  0.0000E+00  0.7100E+01
     34.342  0.0000E+00  0.7100E+01
     34.565  0.0000E+00  0.7100E+01
     34.788  0.0000E+00  0.7100E+01
     35.011  0.0000E+00  0.7100E+01
     35.234  0.0000E+00  0.7100E+01
     35.457  0.0000E+00  0.7100E+01
     35.680  0.1087E-09  0.7100E+01
     35.903  0.4779E-03  0.7100E+01
     36.126  0.2383E+00  0.7153E+01
     36.349  0.2095E+00  0.7200E+01
     36.571  0.2738E-03  0.7200E+01
     36.794  0.3804E-10  0.7200E+01
     37.017  0.3713E-07  0.7200E+01
     37.240  0.1221E-01  0.7203E+01
     37.463  0.7455E+00  0.7369E+01
     37.686  0.1536E+01  0.7711E+01
     37.909  0.3976E+00  0.7800E+01
     38.132  0.7965E-04  0.7800E+01
     38.355  0.1370E-11  0.7800E+01
     38.578  0.0000E+00  0.7800E+01
     38.801  0.0000E+00  0.7800E+01
     39.024  0.0000E+00  0.7800E+01
     39.247  0.0000E+00  0.7800E+01
     39.470  0.0000E+00  0.7800E+01
     39.692  0.0000E+00  0.7800E+01
     39.915  0.0000E+00  0.7800E+01
     40.138  0.0000E+00  0.7800E+01
     40.361  0.0000E+00  0.7800E+01
     40.584  0.0000E+00  0.7800E+01
     40.807  0.0000E+00  0.7800E+01
     41.030  0.0000E+00  0.7800E+01
     41.253  0.0000E+00  0.7800E+01
     41.476  0.0000E+00  0.7800E+01
     41.699  0.0000E+00  0.7800E+01
     41.922  0.0000E+00  0.7800E+01
     42.145  0.0000E+00  0.7800E+01
     42.368  0.0000E+00  0.7800E+01
     42.590  0.0000E+00  0.7800E+01
     42.813  0.0000E+00  0.7800E+01
     43.036  0.0000E+00  0.7800E+01
     43.259  0.0000E+00  0.7800E+01
     43.482  0.0000E+00  0.7800E+01
     43.705  0.0000E+00  0.7800E+01
     43.928  0.0000E+00  0.7800E+01
     44.151  0.0000E+00  0.7800E+01
     44.374  0.0000E+00  0.7800E+01
     44.597  0.0000E+00  0.7800E+01
     44.820  0.0000E+00  0.7800E+01
     45.043  0.0000E+00  0.7800E+01
     45.266  0.0000E+00  0.7800E+01
     45.489  0.0000E+00  0.7800E+01
     45.711  0.0000E+00  0.7800E+01
     45.934  0.6073E-10  0.7800E+01
     46.157  0.3552E-03  0.7800E+01
     46.380  0.2787E+00  0.7862E+01
     46.603  0.6077E+00  0.7998E+01
     46.826  0.1043E-01  0.8000E+01
     47.049  0.5578E-07  0.8000E+01
     47.272  0.0000E+00  0.8000E+01
     47.495  0.0000E+00  0.8000E+01
     47.718  0.0000E+00  0.8000E+01
     47.941  0.0000E+00  0.8000E+01
     48.164  0.0000E+00  0.8000E+01
     48.387  0.0000E+00  0.8000E+01
     48.610  0.0000E+00  0.8000E+01
     48.832  0.0000E+00  0.8000E+01
     49.055  0.0000E+00  0.8000E+01
     49.278  0.0000E+00  0.8000E+01
     49.501  0.0000E+00  0.8000E+01
     49.50121602    -17.37688194  301     -2.83327651      1.00000000
    -17.377  0.0000E+00  0.0000E+00  0.0000E+00
    -17.154  0.0000E+00  0.0000E+00  0.0000E+00
    -16.931  0.0000E+00  0.0000E+00  0.0000E+00
    -16.708  0.0000E+00  0.0000E+00  0.0000E+00
    -16.485  0.0000E+00  0.0000E+00  0.0000E+00
    -16.262  0.0000E+00  0.0000E+00  0.0000E+00
    -16.039  0.0000E+00  0.0000E+00  0.0000E+00
    -15.816  0.0000E+00  0.0000E+00  0.0000E+00
    -15.593  0.0000E+00  0.0000E+00  0.0000E+00
    -15.371  0.0000E+00  0.0000E+00  0.0000E+00
    -15.148  0.0000E+00  0.0000E+00  0.0000E+00
    -14.925  0.1593E-16  0.1724E-32  0.0000E+00
    -14.702  0.3564E-07  0.3857E-23  0.0000E+00
    -14.479  0.6432E-02  0.6961E-18  0.0000E+00
    -14.256  0.2444E+00  0.1013E-09  0.0000E+00
    -14.033  0.4347E-01  0.3536E-04  0.0000E+00
    -13.810  0.4612E+00  0.2213E-02  0.0000E+00
    -13.587  0.1012E+00  0.4855E-03  0.0000E+00
    -13.364  0.1299E-04  0.6233E-07  0.0000E+00
    -13.141  0.1378E-12  0.6614E-15  0.0000E+00
    -12.918  0.2977E-09  0.5742E-11  0.0000E+00
    -12.695  0.8968E-03  0.1730E-04  0.0000E+00
    -12.472  0.3236E+00  0.6240E-02  0.0000E+00
    -12.250  0.2330E+00  0.4495E-02  0.0000E+00
    -12.027  0.2181E-03  0.4207E-05  0.0000E+00
    -11.804  0.2072E-10  0.3996E-12  0.0000E+00
    -11.581  0.0000E+00  0.0000E+00  0.0000E+00
    -11.358  0.0000E+00  0.0000E+00  0.0000E+00
    -11.135  0.0000E+00  0.0000E+00  0.0000E+00
    -10.912  0.0000E+00  0.0000E+00  0.0000E+00
    -10.689  0.1015E-12  0.4691E-14  0.0000E+00
    -10.466  0.1061E-04  0.4904E-06  0.0000E+00
    -10.243  0.9097E-01  0.4204E-02  0.0000E+00
    -10.020  0.4399E+00  0.2033E-01  0.0000E+00
     -9.797  0.7593E-02  0.3509E-03  0.0000E+00
     -9.574  0.2406E-07  0.1112E-08  0.0000E+00
     -9.352  0.0000E+00  0.0000E+00  0.0000E+00
     -9.129  0.0000E+00  0.0000E+00  0.0000E+00
     -8.906  0.0000E+00  0.0000E+00  0.0000E+00
     -8.683  0.0000E+00  0.0000E+00  0.0000E+00
     -8.460  0.0000E+00  0.0000E+00  0.0000E+00
     -8.237  0.0000E+00  0.0000E+00  0.0000E+00
     -8.014  0.0000E+00  0.0000E+00  0.0000E+00
     -7.791  0.0000E+00  0.0000E+00  0.0000E+00
     -7.568  0.0000E+00  0.0000E+00  0.0000E+00
     -7.345  0.1567E-07  0.1459E-08  0.0000E+00
     -7.122  0.6067E-02  0.5650E-03  0.0000E+00
     -6.899  0.4114E+00  0.3832E-01  0.0000E+00
     -6.676  0.9591E-01  0.8933E-02  0.0000E+00
     -6.453  0.1359E-04  0.1266E-05  0.0000E+00
     -6.231  0.1604E-12  0.1494E-13  0.0000E+00
     -6.008  0.0000E+00  0.0000E+00  0.0000E+00
     -5.785  0.0000E+00  0.0000E+00  0.0000E+00
     -5.562  0.0000E+00  0.0000E+00  0.0000E+00
     -5.339  0.0000E+00  0.0000E+00  0.0000E+00
     -5.116  0.0000E+00  0.0000E+00  0.0000E+00
     -4.893  0.0000E+00  0.0000E+00  0.0000E+00
     -4.670  0.0000E+00  0.0000E+00  0.0000E+00
     -4.447  0.0000E+00  0.0000E+00  0.0000E+00
     -4.224  0.0000E+00  0.0000E+00  0.0000E+00
     -4.001  0.0000E+00  0.0000E+00  0.0000E+00
     -3.778  0.0000E+00  0.0000E+00  0.0000E+00
     -3.555  0.0000E+00  0.0000E+00  0.0000E+00
     -3.332  0.4037E-12  0.6703E-13  0.0000E+00
     -3.110  0.2261E-04  0.3755E-05  0.0000E+00
     -2.887  0.1091E+00  0.1811E-01  0.0000E+00
     -2.664  0.3712E+00  0.6164E-01  0.0000E+00
     -2.441  0.3990E-02  0.6625E-03  0.0000E+00
     -2.218  0.6884E-08  0.1143E-08  0.0000E+00
     -1.995  0.0000E+00  0.0000E+00  0.0000E+00
     -1.772  0.0000E+00  0.0000E+00  0.0000E+00
     -1.549  0.0000E+00  0.0000E+00  0.0000E+00
     -1.326  0.0000E+00  0.0000E+00  0.0000E+00
     -1.103  0.0000E+00  0.0000E+00  0.0000E+00
     -0.880  0.0000E+00  0.0000E+00  0.0000E+00
     -0.657  0.1593E-16  0.1388E-22  0.0000E+00
     -0.434  0.9270E-08  0.4844E-12  0.0000E+00
     -0.212  0.4008E-03  0.5091E-05  0.0000E+00
      0.011  0.5518E-02  0.5513E-02  0.0000E+00
      0.234  0.7868E-03  0.7722E-02  0.0000E+00
      0.457  0.1088E-01  0.8555E-02  0.0000E+00
      0.680  0.1050E-02  0.1805E-01  0.0000E+00
      0.903  0.3714E-07  0.9806E-04  0.0000E+00
      1.126  0.1104E-15  0.7273E-10  0.0000E+00
      1.349  0.6748E-10  0.1792E-11  0.0000E+00
      1.572  0.6302E-04  0.1814E-05  0.0000E+00
      1.795  0.8593E-02  0.3048E-02  0.0000E+00
      2.018  0.5802E-02  0.2400E-01  0.0000E+00
      2.241  0.3286E+00  0.8679E-01  0.0000E+00
      2.464  0.1227E+00  0.3213E-01  0.0000E+00
      2.687  0.3795E-04  0.9935E-05  0.0000E+00
      2.909  0.1050E-11  0.2748E-12  0.0000E+00
      3.132  0.0000E+00  0.0000E+00  0.0000E+00
      3.355  0.0000E+00  0.0000E+00  0.0000E+00
      3.578  0.1543E-13  0.9754E-15  0.0000E+00
      3.801  0.7187E-06  0.4558E-07  0.0000E+00
      4.024  0.2928E-02  0.3287E-03  0.0000E+00
      4.247  0.9000E-02  0.2006E-01  0.0000E+00
      4.470  0.8379E-04  0.7457E-02  0.0000E+00
      4.693  0.1207E-09  0.2396E-05  0.0000E+00
      4.916  0.7595E-25  0.6919E-13  0.0000E+00
      5.139  0.0000E+00  0.0000E+00  0.0000E+00
      5.362  0.0000E+00  0.0000E+00  0.0000E+00
      5.585  0.0000E+00  0.0000E+00  0.0000E+00
      5.808  0.0000E+00  0.0000E+00  0.0000E+00
      6.030  0.0000E+00  0.0000E+00  0.0000E+00
      6.253  0.0000E+00  0.0000E+00  0.0000E+00
      6.476  0.0000E+00  0.0000E+00  0.0000E+00
      6.699  0.0000E+00  0.0000E+00  0.0000E+00
      6.922  0.9002E-10  0.1126E-10  0.0000E+00
      7.145  0.7056E-04  0.8987E-05  0.0000E+00
      7.368  0.8353E-02  0.4077E-02  0.0000E+00
      7.591  0.2908E-02  0.2413E-01  0.0000E+00
      7.814  0.4420E-05  0.7453E-03  0.0000E+00
      8.037  0.5343E-01  0.2035E-01  0.0000E+00
      8.260  0.3632E+00  0.1383E+00  0.0000E+00
      8.483  0.9602E-02  0.3656E-02  0.0000E+00
      8.706  0.5354E-07  0.2039E-07  0.0000E+00
      8.929  0.0000E+00  0.0000E+00  0.0000E+00
      9.151  0.0000E+00  0.0000E+00  0.0000E+00
      9.374  0.0000E+00  0.0000E+00  0.0000E+00
      9.597  0.0000E+00  0.0000E+00  0.0000E+00
      9.820  0.0000E+00  0.0000E+00  0.0000E+00
     10.043  0.0000E+00  0.0000E+00  0.0000E+00
     10.266  0.0000E+00  0.0000E+00  0.0000E+00
     10.489  0.0000E+00  0.0000E+00  0.0000E+00
     10.712  0.0000E+00  0.0000E+00  0.0000E+00
     10.935  0.7434E-17  0.1615E-17  0.0000E+00
     11.158  0.6990E-08  0.1519E-08  0.0000E+00
     11.381  0.4802E-03  0.1095E-03  0.0000E+00
     11.604  0.9097E-02  0.1170E-01  0.0000E+00
     11.827  0.7234E-03  0.1896E-01  0.0000E+00
     12.049  0.1913E-07  0.8792E-04  0.0000E+00
     12.272  0.3824E-16  0.5437E-10  0.0000E+00
     12.495  0.0000E+00  0.0000E+00  0.0000E+00
     12.718  0.0000E+00  0.0000E+00  0.0000E+00
     12.941  0.0000E+00  0.0000E+00  0.0000E+00
     13.164  0.0000E+00  0.0000E+00  0.0000E+00
     13.387  0.0000E+00  0.0000E+00  0.0000E+00
     13.610  0.0000E+00  0.0000E+00  0.0000E+00
     13.833  0.0000E+00  0.0000E+00  0.0000E+00
     14.056  0.0000E+00  0.0000E+00  0.0000E+00
     14.279  0.0000E+00  0.0000E+00  0.0000E+00
     14.502  0.2117E-07  0.1032E-07  0.0000E+00
     14.725  0.6176E-02  0.3011E-02  0.0000E+00
     14.948  0.3369E+00  0.1642E+00  0.0000E+00
     15.170  0.6651E-01  0.3242E-01  0.0000E+00
     15.393  0.7197E-05  0.3509E-05  0.0000E+00
     15.616  0.6348E-13  0.3095E-13  0.0000E+00
     15.839  0.0000E+00  0.0000E+00  0.0000E+00
     16.062  0.7860E-16  0.2580E-16  0.0000E+00
     16.285  0.2898E-07  0.9513E-08  0.0000E+00
     16.508  0.8073E-03  0.2803E-03  0.0000E+00
     16.731  0.8281E-02  0.1590E-01  0.0000E+00
     16.954  0.3514E-03  0.1617E-01  0.0000E+00
     17.177  0.3755E-08  0.3602E-04  0.0000E+00
     17.400  0.2117E-17  0.9333E-11  0.0000E+00
     17.623  0.0000E+00  0.0000E+00  0.0000E+00
     17.846  0.0000E+00  0.0000E+00  0.0000E+00
     18.069  0.0000E+00  0.0000E+00  0.0000E+00
     18.291  0.0000E+00  0.0000E+00  0.0000E+00
     18.514  0.0000E+00  0.0000E+00  0.0000E+00
     18.737  0.0000E+00  0.0000E+00  0.0000E+00
     18.960  0.0000E+00  0.0000E+00  0.0000E+00
     19.183  0.0000E+00  0.0000E+00  0.0000E+00
     19.406  0.0000E+00  0.0000E+00  0.0000E+00
     19.629  0.0000E+00  0.0000E+00  0.0000E+00
     19.852  0.0000E+00  0.0000E+00  0.0000E+00
     20.075  0.0000E+00  0.0000E+00  0.0000E+00
     20.298  0.0000E+00  0.0000E+00  0.0000E+00
     20.521  0.0000E+00  0.0000E+00  0.0000E+00
     20.744  0.0000E+00  0.0000E+00  0.0000E+00
     20.967  0.0000E+00  0.0000E+00  0.0000E+00
     21.189  0.0000E+00  0.0000E+00  0.0000E+00
     21.412  0.0000E+00  0.0000E+00  0.0000E+00
     21.635  0.0000E+00  0.0000E+00  0.0000E+00
     21.858  0.1076E-07  0.4677E-08  0.0000E+00
     22.081  0.4642E-02  0.2017E-02  0.0000E+00
     22.304  0.3424E+00  0.1488E+00  0.0000E+00
     22.527  0.8552E-01  0.3717E-01  0.0000E+00
     22.750  0.7913E-02  0.1429E-01  0.0000E+00
     22.973  0.4793E-03  0.1938E-01  0.0000E+00
     23.196  0.8525E-08  0.7827E-04  0.0000E+00
     23.419  0.1196E-16  0.4113E-10  0.0000E+00
     23.642  0.0000E+00  0.0000E+00  0.0000E+00
     23.865  0.0000E+00  0.0000E+00  0.0000E+00
     24.088  0.0000E+00  0.0000E+00  0.0000E+00
     24.310  0.0000E+00  0.0000E+00  0.0000E+00
     24.533  0.0000E+00  0.0000E+00  0.0000E+00
     24.756  0.0000E+00  0.0000E+00  0.0000E+00
     24.979  0.0000E+00  0.0000E+00  0.0000E+00
     25.202  0.0000E+00  0.0000E+00  0.0000E+00
     25.425  0.0000E+00  0.0000E+00  0.0000E+00
     25.648  0.0000E+00  0.0000E+00  0.0000E+00
     25.871  0.0000E+00  0.0000E+00  0.0000E+00
     26.094  0.0000E+00  0.0000E+00  0.0000E+00
     26.317  0.0000E+00  0.0000E+00  0.0000E+00
     26.540  0.0000E+00  0.0000E+00  0.0000E+00
     26.763  0.0000E+00  0.0000E+00  0.0000E+00
     26.986  0.0000E+00  0.0000E+00  0.0000E+00
     27.209  0.1217E-07  0.6564E-19  0.0000E+00
     27.431  0.3953E-02  0.2132E-13  0.0000E+00
     27.654  0.2341E+00  0.1263E-11  0.0000E+00
     27.877  0.4926E-01  0.2658E-12  0.0000E+00
     28.100  0.5907E-05  0.3187E-16  0.0000E+00
     28.323  0.5823E-13  0.3141E-24  0.0000E+00
     28.546  0.0000E+00  0.0000E+00  0.0000E+00
     28.769  0.0000E+00  0.0000E+00  0.0000E+00
     28.992  0.0000E+00  0.0000E+00  0.0000E+00
     29.215  0.5532E-09  0.2394E-09  0.0000E+00
     29.438  0.1483E-03  0.6451E-04  0.0000E+00
     29.661  0.7590E-02  0.7383E-02  0.0000E+00
     29.884  0.1425E-02  0.2676E-01  0.0000E+00
     30.107  0.1423E-06  0.6401E-03  0.0000E+00
     30.329  0.1209E-14  0.3218E-08  0.0000E+00
     30.552  0.0000E+00  0.0000E+00  0.0000E+00
     30.775  0.0000E+00  0.0000E+00  0.0000E+00
     30.998  0.0000E+00  0.0000E+00  0.0000E+00
     31.221  0.0000E+00  0.0000E+00  0.0000E+00
     31.444  0.0000E+00  0.0000E+00  0.0000E+00
     31.667  0.0000E+00  0.0000E+00  0.0000E+00
     31.890  0.0000E+00  0.0000E+00  0.0000E+00
     32.113  0.0000E+00  0.0000E+00  0.0000E+00
     32.336  0.0000E+00  0.0000E+00  0.0000E+00
     32.559  0.0000E+00  0.0000E+00  0.0000E+00
     32.782  0.0000E+00  0.0000E+00  0.0000E+00
     33.005  0.0000E+00  0.0000E+00  0.0000E+00
     33.228  0.0000E+00  0.0000E+00  0.0000E+00
     33.450  0.0000E+00  0.0000E+00  0.0000E+00
     33.673  0.0000E+00  0.0000E+00  0.0000E+00
     33.896  0.0000E+00  0.0000E+00  0.0000E+00
     34.119  0.0000E+00  0.0000E+00  0.0000E+00
     34.342  0.0000E+00  0.0000E+00  0.0000E+00
     34.565  0.0000E+00  0.0000E+00  0.0000E+00
     34.788  0.0000E+00  0.0000E+00  0.0000E+00
     35.011  0.0000E+00  0.0000E+00  0.0000E+00
     35.234  0.0000E+00  0.0000E+00  0.0000E+00
     35.457  0.0000E+00  0.0000E+00  0.0000E+00
     35.680  0.1089E-21  0.1010E-09  0.0000E+00
     35.903  0.4791E-15  0.4441E-03  0.0000E+00
     36.126  0.2389E-12  0.2215E+00  0.0000E+00
     36.349  0.2100E-12  0.1947E+00  0.0000E+00
     36.571  0.2745E-15  0.2545E-03  0.0000E+00
     36.794  0.3813E-22  0.3535E-10  0.0000E+00
     37.017  0.7655E-09  0.4842E-11  0.0000E+00
     37.240  0.2518E-03  0.1593E-05  0.0000E+00
     37.463  0.1505E-01  0.3692E-03  0.0000E+00
     37.686  0.3190E-02  0.2479E-01  0.0000E+00
     37.909  0.4179E-06  0.7129E-02  0.0000E+00
     38.132  0.6199E-11  0.1428E-05  0.0000E+00
     38.355  0.1066E-18  0.2456E-13  0.0000E+00
     38.578  0.0000E+00  0.0000E+00  0.0000E+00
     38.801  0.0000E+00  0.0000E+00  0.0000E+00
     39.024  0.0000E+00  0.0000E+00  0.0000E+00
     39.247  0.0000E+00  0.0000E+00  0.0000E+00
     39.470  0.0000E+00  0.0000E+00  0.0000E+00
     39.692  0.0000E+00  0.0000E+00  0.0000E+00
     39.915  0.0000E+00  0.0000E+00  0.0000E+00
     40.138  0.0000E+00  0.0000E+00  0.0000E+00
     40.361  0.0000E+00  0.0000E+00  0.0000E+00
     40.584  0.0000E+00  0.0000E+00  0.0000E+00
     40.807  0.0000E+00  0.0000E+00  0.0000E+00
     41.030  0.0000E+00  0.0000E+00  0.0000E+00
     41.253  0.0000E+00  0.0000E+00  0.0000E+00
     41.476  0.0000E+00  0.0000E+00  0.0000E+00
     41.699  0.0000E+00  0.0000E+00  0.0000E+00
     41.922  0.0000E+00  0.0000E+00  0.0000E+00
     42.145  0.0000E+00  0.0000E+00  0.0000E+00
     42.368  0.0000E+00  0.0000E+00  0.0000E+00
     42.590  0.0000E+00  0.0000E+00  0.0000E+00
     42.813  0.0000E+00  0.0000E+00  0.0000E+00
     43.036  0.0000E+00  0.0000E+00  0.0000E+00
     43.259  0.0000E+00  0.0000E+00  0.0000E+00
     43.482  0.0000E+00  0.0000E+00  0.0000E+00
     43.705  0.0000E+00  0.0000E+00  0.0000E+00
     43.928  0.0000E+00  0.0000E+00  0.0000E+00
     44.151  0.0000E+00  0.0000E+00  0.0000E+00
     44.374  0.0000E+00  0.0000E+00  0.0000E+00
     44.597  0.0000E+00  0.0000E+00  0.0000E+00
     44.820  0.0000E+00  0.0000E+00  0.0000E+00
     45.043  0.0000E+00  0.0000E+00  0.0000E+00
     45.266  0.0000E+00  0.0000E+00  0.0000E+00
     45.489  0.0000E+00  0.0000E+00  0.0000E+00
     45.711  0.0000E+00  0.0000E+00  0.0000E+00
     45.934  0.1258E-12  0.1701E-11  0.0000E+00
     46.157  0.7289E-06  0.9890E-05  0.0000E+00
     46.380  0.4714E-03  0.6883E-02  0.0000E+00
     46.603  0.5406E-03  0.1076E-01  0.0000E+00
     46.826  0.2702E-05  0.1272E-03  0.0000E+00
     47.049  0.1081E-10  0.6488E-09  0.0000E+00
     47.272  0.0000E+00  0.0000E+00  0.0000E+00
     47.495  0.0000E+00  0.0000E+00  0.0000E+00
     47.718  0.0000E+00  0.0000E+00  0.0000E+00
     47.941  0.0000E+00  0.0000E+00  0.0000E+00
     48.164  0.0000E+00  0.0000E+00  0.0000E+00
     48.387  0.0000E+00  0.0000E+00  0.0000E+00
     48.610  0.0000E+00  0.0000E+00  0.0000E+00
     48.832  0.0000E+00  0.0000E+00  0.0000E+00
     49.055  0.0000E+00  0.0000E+00  0.0000E+00
     49.278  0.0000E+00  0.0000E+00  0.0000E+00
     49.501  0.0000E+00  0.0000E+00  0.0000E+00
