    1    1    1    1
  0.9000000E+02  0.9000000E-10  0.1000000E-08  0.1000000E-08  0.5000000E-15
  1.000000000000000E-004
  CAR 
 H chain                                 
    1   11    4
 
  0.3742002E-15  0.1262379E-14  0.1262379E-14  0.5000000E-01
   1      -14.336968
   2       -0.104018
   3        0.026486
   4        0.026256
 
  0.5000000E-01  0.1262379E-14  0.1262379E-14  0.1000000E+00
   1      -13.875418
   2        0.360116
   3        0.490724
   4        0.490723
 
  0.1000000E+00  0.1262379E-14  0.1262379E-14  0.1000000E+00
   1      -12.487081
   2        1.752752
   3        1.883470
   4        1.883470
 
  0.1500000E+00  0.1262379E-14  0.1262379E-14  0.1000000E+00
   1      -10.175460
   2        4.073193
   3        4.204808
   4        4.204808
 
  0.2000000E+00  0.1262379E-14  0.1262379E-14  0.1000000E+00
   1       -6.962219
   2        7.321796
   3        7.454698
   4        7.454698
 
  0.2500000E+00  0.1262379E-14  0.1262379E-14  0.1000000E+00
   1       -2.833277
   2       11.499391
   3       11.632803
   4       11.632803
 
  0.3000000E+00  0.1262379E-14  0.1262379E-14  0.1000000E+00
   1        2.197468
   2       16.604814
   3       16.739746
   4       16.739746
 
  0.3500000E+00  0.1262379E-14  0.1262379E-14  0.1000000E+00
   1        8.118009
   2       22.636124
   3       22.775328
   4       22.775333
 
  0.4000000E+00  0.1262379E-14  0.1262379E-14  0.1000000E+00
   1       14.877909
   2       29.589086
   3       29.739452
   4       29.739468
 
  0.4500000E+00  0.1262379E-14  0.1262379E-14  0.1000000E+00
   1       22.243778
   2       37.396382
   3       37.631860
   4       37.631884
 
  0.5000000E+00  0.1262379E-14  0.1262379E-14  0.5000000E-01
   1       27.587303
   2       36.119848
   3       46.380902
   4       46.461302
