       N       E                     dE             d eps       ncg     rms          rms(c)
DAV:   1    -0.131987214748E+01   -0.13199E+01   -0.20481E+02   128   0.488E+01
DAV:   2    -0.292607436553E+01   -0.16062E+01   -0.11927E+01   128   0.190E+01
DAV:   3    -0.306463787592E+01   -0.13856E+00   -0.13856E+00   144   0.334E+00
DAV:   4    -0.306473810702E+01   -0.10023E-03   -0.10023E-03   120   0.150E-01
DAV:   5    -0.306473899507E+01   -0.88804E-06   -0.88808E-06   120   0.149E-02    0.211E+00
RMM:   6    -0.293846444811E+01    0.12627E+00   -0.29727E-02   120   0.820E-01    0.123E+00
RMM:   7    -0.284939444896E+01    0.89070E-01   -0.10365E-01   114   0.150E+00    0.159E-01
RMM:   8    -0.284476428330E+01    0.46302E-02   -0.29306E-03   110   0.361E-01    0.716E-02
RMM:   9    -0.284344403359E+01    0.13202E-02   -0.16032E-03   110   0.196E-01    0.353E-02
RMM:  10    -0.284459286067E+01   -0.11488E-02   -0.71797E-04    97   0.243E-01    0.122E-02
RMM:  11    -0.284560146118E+01   -0.10086E-02   -0.54638E-04    93   0.113E-01    0.696E-03
RMM:  12    -0.284574239011E+01   -0.14093E-03   -0.17110E-04   100   0.746E-02    0.259E-03
RMM:  13    -0.284584586528E+01   -0.10348E-03   -0.28986E-05    97   0.349E-02    0.256E-03
RMM:  14    -0.284586572639E+01   -0.19861E-04   -0.51406E-06   107   0.140E-02
   1 F= -.28458657E+01 E0= -.28430448E+01  d E =-.564190E-02
