 vasp.5.2.12 11Nov11 complex                                                    
  
 executed on             LinuxIFC date 2012.04.11  11:13:50
 running on    1 nodes
 distr:  one band on    1 nodes,    1 groups


--------------------------------------------------------------------------------------------------------


 INCAR:
 POTCAR:   PAW_GGA H 07Jul1998                    
 POTCAR:   PAW_GGA H 07Jul1998                    
  local pseudopotential read in
  atomic valenz-charges read in
  non local Contribution for L=           0  read in
    real space projection operators read in
  non local Contribution for L=           0  read in
    real space projection operators read in
  non local Contribution for L=           1  read in
    real space projection operators read in
    PAW grid and wavefunctions read in
 
   number of l-projection  operators is LMAX  =           3
   number of lm-projection operators is LMMAX =           5
 
 PAW_GGA H 07Jul1998                    :
 energy of atom  1       EATOM=  -12.5313
 kinetic energy error for atom=    0.0871 (will be added to EATOM!!)
 
 
 POSCAR: H                                       
  positions in direct lattice
  velocities in cartesian coordinates
  No initial velocities read in
 exchange correlation table for  LEXCH =        7
   RHO(1)=    0.500       N(1)  =     2000
   RHO(2)=  100.500       N(2)  =     4000
 


--------------------------------------------------------------------------------------------------------


 ion  position               nearest neighbor table
   1  0.500  0.500  0.500-
 
  LATTYP: Found a simple tetragonal cell.
 ALAT       =    10.0000000000
 C/A-ratio  =     0.0900000000
  
  Lattice vectors:
  
 A1 = (   0.0000000000,  10.0000000000,   0.0000000000)
 A2 = (   0.0000000000,   0.0000000000, -10.0000000000)
 A3 = (  -0.9000000000,   0.0000000000,   0.0000000000)
 Subroutine PRICEL returns:
 Original cell was already a primitive cell.
 

Analysis of symmetry for initial positions (statically):

 Routine SETGRP: Setting up the symmetry group for a 
 simple tetragonal supercell.


 Subroutine GETGRP returns: Found 16 space group operations
 (whereof 16 operations were pure point group operations)
 out of a pool of 16 trial point group operations.


The static configuration has the point symmetry D_4h.

Analysis of symmetry for dynamics (positions and initial velocities):

 Subroutine DYNSYM returns: Found 16 space group operations
 (whereof 16 operations were pure point group operations)
 out of a pool of 16 trial space group operations
 (whereof 16 operations were pure point group operations)
 and found also     1 'primitive' translations


The dynamic configuration has the point symmetry D_4h.

Analysis of constrained symmetry for selective dynamics:

 Subroutine DYNSYM returns: Found 16 space group operations
 (whereof 16 operations were pure point group operations)
 out of a pool of 16 trial space group operations
 (whereof 16 operations were pure point group operations)
 and found also     1 'primitive' translations


The constrained configuration has the point symmetry D_4h.
 
 
 KPOINTS: Auto K mesh                             

Automatic generation of k-mesh.
 
 Subroutine IBZKPT returns following result:
 ===========================================
 
 Found     11 irreducible k-points:
 
 Following reciprocal coordinates:
            Coordinates               Weight
  0.000000  0.000000  0.000000      1.000000
  0.050000  0.000000  0.000000      2.000000
  0.100000  0.000000  0.000000      2.000000
  0.150000  0.000000  0.000000      2.000000
  0.200000  0.000000  0.000000      2.000000
  0.250000  0.000000  0.000000      2.000000
  0.300000  0.000000  0.000000      2.000000
  0.350000  0.000000  0.000000      2.000000
  0.400000  0.000000  0.000000      2.000000
  0.450000  0.000000  0.000000      2.000000
  0.500000  0.000000  0.000000      1.000000
 
 Following cartesian coordinates:
            Coordinates               Weight
  0.000000  0.000000  0.000000      1.000000
  0.055556  0.000000  0.000000      2.000000
  0.111111  0.000000  0.000000      2.000000
  0.166667  0.000000  0.000000      2.000000
  0.222222  0.000000  0.000000      2.000000
  0.277778  0.000000  0.000000      2.000000
  0.333333  0.000000  0.000000      2.000000
  0.388889  0.000000  0.000000      2.000000
  0.444444  0.000000  0.000000      2.000000
  0.500000  0.000000  0.000000      2.000000
  0.555556  0.000000  0.000000      1.000000
 


--------------------------------------------------------------------------------------------------------




 Dimension of arrays:
   k-points           NKPTS =     11   k-points in BZ     NKDIM =     11   number of bands    NBANDS=      4
   number of dos      NEDOS =    301   number of ions     NIONS =      1
   non local maximal  LDIM  =      3   non local SUM 2l+1 LMDIM =      5
   total plane-waves  NPLWV =  17496
   max r-space proj   IRMAX =      1   max aug-charges    IRDMAX=   1144
   dimension x,y,z NGX =     6 NGY =   54 NGZ =   54
   dimension x,y,z NGXF=    12 NGYF=  108 NGZF=  108
   support grid    NGXF=    12 NGYF=  108 NGZF=  108
   ions per type =               1
 NGX,Y,Z   is equivalent  to a cutoff of  11.08,  8.98,  8.98 a.u.
 NGXF,Y,Z  is equivalent  to a cutoff of  22.17, 17.95, 17.95 a.u.


 I would recommend the setting:
   dimension x,y,z NGX =     5 NGY =   52 NGZ =   52
 SYSTEM =  H chain                                 
 POSCAR =  H                                       

 Startparameter for this run:
   NWRITE =      1    write-flag & timer
   PREC   = accura    normal or accurate (medium, high low for compatibility)
   ISTART =      0    job   : 0-new  1-cont  2-samecut
   ICHARG =      2    charge: 1-file 2-atom 10-const
   ISPIN  =      1    spin polarized calculation?
   LNONCOLLINEAR =      F non collinear calculations
   LSORBIT =      F    spin-orbit coupling
   INIWAV =      1    electr: 0-lowe 1-rand  2-diag
   LASPH  =      F    aspherical Exc in radial PAW
   METAGGA=      F    non-selfconsistent MetaGGA calc.

 Electronic Relaxation 1
   ENCUT  =  250.0 eV  18.37 Ry    4.29 a.u.   1.16 12.89 12.89*2*pi/ulx,y,z
   ENINI  =  250.0     initial cutoff
   ENAUG  =  400.0 eV  augmentation charge cutoff
   NELM   =     60;   NELMIN=  2; NELMDL= -5     # of ELM steps 
   EDIFF  = 0.1E-03   stopping-criterion for ELM
   LREAL  =      F    real-space projection
   NLSPLINE    = F    spline interpolate recip. space projectors
   LCOMPAT=      F    compatible to vasp.4.4
   GGA_COMPAT  = T    GGA compatible to vasp.4.4-vasp.4.6
   LMAXPAW     = -100 max onsite density
   LMAXMIX     =    2 max onsite mixed and CHGCAR
   VOSKOWN=      0    Vosko Wilk Nusair interpolation
   ROPT   =    0.00000
 Ionic relaxation
   EDIFFG = 0.1E-02   stopping-criterion for IOM
   NSW    =      0    number of steps for IOM
   NBLOCK =      1;   KBLOCK =      1    inner block; outer block 
   IBRION =     -1    ionic relax: 0-MD 1-quasi-New 2-CG
   NFREE  =      0    steps in history (QN), initial steepest desc. (CG)
   ISIF   =      2    stress and relaxation
   IWAVPR =     10    prediction:  0-non 1-charg 2-wave 3-comb
   ISYM   =      2    0-nonsym 1-usesym 2-fastsym
   LCORR  =      T    Harris-Foulkes like correction to forces

   POTIM  = 0.5000    time-step for ionic-motion
   TEIN   =    0.0    initial temperature
   TEBEG  =    0.0;   TEEND  =   0.0 temperature during run
   SMASS  =  -3.00    Nose mass-parameter (am)
   estimated Nose-frequenzy (Omega)   =  0.10E-29 period in steps =****** mass=  -0.185E-28a.u.
   SCALEE = 1.0000    scale energy and forces
   NPACO  =    256;   APACO  = 16.0  distance and # of slots for P.C.
   PSTRESS=    0.0 pullay stress

  Mass of Ions in am
   POMASS =   1.00
  Ionic Valenz
   ZVAL   =   1.00
  Atomic Wigner-Seitz radii
   RWIGS  =  -1.00
  virtual crystal weights 
   VCA    =   1.00
   NELECT =       1.0000    total number of electrons
   NUPDOWN=      -1.0000    fix difference up-down

 DOS related values:
   EMIN   =  10.00;   EMAX   =-10.00  energy-range for DOS
   EFERMI =   0.00
   ISMEAR =     0;   SIGMA  =   0.10  broadening in eV -4-tet -1-fermi 0-gaus

 Electronic relaxation 2 (details)
   IALGO  =     68    algorithm
   LDIAG  =      T    sub-space diagonalisation (order eigenvalues)
   LSUBROT=      T    optimize rotation matrix (better conditioning)
   TURBO    =      0    0=normal 1=particle mesh
   IRESTART =      0    0=no restart 2=restart with 2 vectors
   NREBOOT  =      0    no. of reboots
   NMIN     =      0    reboot dimension
   EREF     =   0.00    reference energy to select bands
   IMIX   =      4    mixing-type and parameters
     AMIX     =   0.40;   BMIX     =  1.00
     AMIX_MAG =   1.60;   BMIX_MAG =  1.00
     AMIN     =   0.10
     WC   =   100.;   INIMIX=   1;  MIXPRE=   1

 Intra band minimization:
   WEIMIN = 0.0000     energy-eigenvalue tresh-hold
   EBREAK =  0.63E-05  absolut break condition
   DEPER  =   0.30     relativ break condition  

   TIME   =   0.40     timestep for ELM

  volume/ion in A,a.u.               =      90.00       607.35
  Fermi-wavevector in a.u.,A,eV,Ry     =   0.365309  0.690334  1.815709  0.133451
  Thomas-Fermi vector in A             =   1.288796
 
 Write flags
   LWAVE  =      F    write WAVECAR
   LCHARG =      T    write CHGCAR
   LVTOT  =      F    write LOCPOT, total local potential
   LVHAR  =      F    write LOCPOT, Hartree potential only
   LELF   =      F    write electronic localiz. function (ELF)
   LORBIT =     10    0 simple, 1 ext, 2 COOP (PROOUT)


 Dipole corrections
   LMONO  =      F    monopole corrections only (constant potential shift)
   LDIPOL =      F    correct potential (dipole corrections)
   IDIPOL =      0    1-x, 2-y, 3-z, 4-all directions 
   EPSILON=  1.0000000 bulk dielectric constant

 Exchange correlation treatment:
   GGA     =    --    GGA type
   LEXCH   =     7    internal setting for exchange type
   VOSKOWN=      0    Vosko Wilk Nusair interpolation
   LHFCALC =     F    Hartree Fock is set to
   LHFONE  =     F    Hartree Fock one center treatment
   AEXX    =    0.0000 exact exchange contribution

 Linear response parameters
   LEPSILON=     F    determine dielectric tensor
   LRPA    =     F    only Hartree local field effects (RPA)
   LNABLA  =     F    use nabla operator in PAW spheres
   LVEL    =     F    velocity operator in full k-point grid
   LINTERFAST=   F  fast interpolation
   KINTER  =     0    interpolate to denser k-point grid
   CSHIFT  =0.1000    complex shift for real part using Kramers Kronig
   OMEGAMAX=  -1.0    maximum frequency
   RTIME   =    0.100 relaxation time in fs

 Orbital magnetization related:
   ORBITALMAG=     F  switch on orbital magnetization
   LCHIMAG   =     F  perturbation theory with respect to B field
   DQ        =  0.001000  dq finite difference perturbation B field



--------------------------------------------------------------------------------------------------------


 Static calculation
 charge density and potential will be updated during run
 non-spin polarized calculation
 RMM-DIIS sequential band-by-band and
  variant of blocked Davidson during initial phase
 perform sub-space diagonalisation
    before iterative eigenvector-optimisation
 modified Broyden-mixing scheme, WC =      100.0
 initial mixing is a Kerker type mixing with AMIX =  0.4000 and BMIX =      1.0000
 Hartree-type preconditioning will be used
 using additional bands            3
 reciprocal scheme for non local part
 calculate Harris-corrections to forces 
   (improved forces if not selfconsistent)
 use gradient corrections 
 use of overlap-Matrix (Vanderbilt PP)
 Gauss-broadening in eV      SIGMA  =   0.10


--------------------------------------------------------------------------------------------------------


  energy-cutoff  :      250.00
  volume of cell :       90.00
      direct lattice vectors                 reciprocal lattice vectors
     0.900000000  0.000000000  0.000000000     1.111111111  0.000000000  0.000000000
     0.000000000 10.000000000  0.000000000     0.000000000  0.100000000  0.000000000
     0.000000000  0.000000000 10.000000000     0.000000000  0.000000000  0.100000000

  length of vectors
     0.900000000 10.000000000 10.000000000     1.111111111  0.100000000  0.100000000


 
 k-points in units of 2pi/SCALE and weight: Auto K mesh                             
   0.00000000  0.00000000  0.00000000       0.050
   0.05555556  0.00000000  0.00000000       0.100
   0.11111111  0.00000000  0.00000000       0.100
   0.16666667  0.00000000  0.00000000       0.100
   0.22222222  0.00000000  0.00000000       0.100
   0.27777778  0.00000000  0.00000000       0.100
   0.33333333  0.00000000  0.00000000       0.100
   0.38888889  0.00000000  0.00000000       0.100
   0.44444444  0.00000000  0.00000000       0.100
   0.50000000  0.00000000  0.00000000       0.100
   0.55555556  0.00000000  0.00000000       0.050
 
 k-points in reciprocal lattice and weights: Auto K mesh                             
   0.00000000  0.00000000  0.00000000       0.050
   0.05000000  0.00000000  0.00000000       0.100
   0.10000000  0.00000000  0.00000000       0.100
   0.15000000  0.00000000  0.00000000       0.100
   0.20000000  0.00000000  0.00000000       0.100
   0.25000000  0.00000000  0.00000000       0.100
   0.30000000  0.00000000  0.00000000       0.100
   0.35000000  0.00000000  0.00000000       0.100
   0.40000000  0.00000000  0.00000000       0.100
   0.45000000  0.00000000  0.00000000       0.100
   0.50000000  0.00000000  0.00000000       0.050
 
 position of ions in fractional coordinates (direct lattice) 
   0.50000000  0.50000000  0.50000000
 
 position of ions in cartesian coordinates  (Angst):
   0.45000000  5.00000000  5.00000000
 


--------------------------------------------------------------------------------------------------------


 k-point  1 :  0.00000.00000.0000  plane waves:     791
 k-point  2 :  0.05000.00000.0000  plane waves:     791
 k-point  3 :  0.10000.00000.0000  plane waves:     779
 k-point  4 :  0.15000.00000.0000  plane waves:     759
 k-point  5 :  0.20000.00000.0000  plane waves:     782
 k-point  6 :  0.25000.00000.0000  plane waves:     790
 k-point  7 :  0.30000.00000.0000  plane waves:     822
 k-point  8 :  0.35000.00000.0000  plane waves:     838
 k-point  9 :  0.40000.00000.0000  plane waves:     842
 k-point 10 :  0.45000.00000.0000  plane waves:     842
 k-point 11 :  0.50000.00000.0000  plane waves:     842

 maximum and minimum number of plane-waves per node :       842      759

 maximum number of plane-waves:       842
 maximum index in each direction: 
   IXMAX=    1   IYMAX=   12   IZMAX=   12
   IXMIN=   -1   IYMIN=  -12   IZMIN=  -12

 NGX is ok and might be reduce to   6
 NGY is ok and might be reduce to  50
 NGZ is ok and might be reduce to  50

 serial   3D FFT for wavefunctions
 parallel 3D FFT for charge:
    minimum data exchange during FFTs selected (reduces bandwidth)


 total amount of memory used by VASP on root node    43334. kBytes
========================================================================

   base      :      30000. kBytes
   nonl-proj :        383. kBytes
   fftplans  :       4848. kBytes
   grid      :       7506. kBytes
   one-center:          1. kBytes
   wavefun   :        596. kBytes
 
 Broyden mixing: mesh for mixing (old mesh)
   NGX =  3   NGY = 25   NGZ = 25
  (NGX  = 12   NGY  =108   NGZ  =108)
  gives a total of   1875 points

 initial charge density was supplied:
 charge density of overlapping atoms calculated
 number of electron       1.0000000 magnetization 
 keeping initial charge density in first step


--------------------------------------------------------------------------------------------------------


 Maximum index for augmentation-charges          901 (set IRDMAX)


--------------------------------------------------------------------------------------------------------


 First call to EWALD:  gamma=   0.396
 Maximum number of real-space cells12x 2x 2
 Maximum number of reciprocal cells 1x 6x 6

    FEWALD:  cpu time    0.00: real time    0.00


----------------------------------------- Iteration    1(   1)  ---------------------------------------


    POTLOK:  cpu time    0.16: real time    0.24
    SETDIJ:  cpu time    0.00: real time    0.00
     EDDAV:  cpu time    0.20: real time    0.20
       DOS:  cpu time    0.00: real time    0.00
    --------------------------------------------
      LOOP:  cpu time    0.37: real time    0.44

 eigenvalue-minimisations  :   128
 total energy-change (2. order) :-0.1319872E+01  (-0.2048060E+02)
 number of electron       1.0000000 magnetization 
 augmentation part        1.0000000 magnetization 

 Free energy of the ion-electron system (eV)
  ---------------------------------------------------
  alpha Z        PSCENC =         0.02716370
  Ewald energy   TEWEN  =        15.70346634
  -1/2 Hartree   DENC   =       -19.63717815
  -exchange  EXHF       =         0.00000000
  -V(xc)+E(xc)   XCENC  =         2.42960351
  PAW double counting   =         0.79175790       -0.80028893
  entropy T*S    EENTRO =        -0.00051567
  eigenvalues    EBANDS =       -12.27808736
  atomic energy  EATOM  =        12.44420649
  ---------------------------------------------------
  free energy    TOTEN  =        -1.31987215 eV

  energy without entropy =       -1.31935648  energy(sigma->0) =       -1.31961431


--------------------------------------------------------------------------------------------------------




----------------------------------------- Iteration    1(   2)  ---------------------------------------


     EDDAV:  cpu time    0.20: real time    0.20
       DOS:  cpu time    0.00: real time    0.00
    --------------------------------------------
      LOOP:  cpu time    0.20: real time    0.21

 eigenvalue-minimisations  :   128
 total energy-change (2. order) :-0.1606202E+01  (-0.1192653E+01)
 number of electron       1.0000000 magnetization 
 augmentation part        1.0000000 magnetization 

 Free energy of the ion-electron system (eV)
  ---------------------------------------------------
  alpha Z        PSCENC =         0.02716370
  Ewald energy   TEWEN  =        15.70346634
  -1/2 Hartree   DENC   =       -19.63717815
  -exchange  EXHF       =         0.00000000
  -V(xc)+E(xc)   XCENC  =         2.42960351
  PAW double counting   =         0.79175790       -0.80028893
  entropy T*S    EENTRO =        -0.00564190
  eigenvalues    EBANDS =       -13.87916335
  atomic energy  EATOM  =        12.44420649
  ---------------------------------------------------
  free energy    TOTEN  =        -2.92607437 eV

  energy without entropy =       -2.92043247  energy(sigma->0) =       -2.92325342


--------------------------------------------------------------------------------------------------------




----------------------------------------- Iteration    1(   3)  ---------------------------------------


     EDDAV:  cpu time    0.22: real time    0.22
       DOS:  cpu time    0.00: real time    0.00
    --------------------------------------------
      LOOP:  cpu time    0.22: real time    0.22

 eigenvalue-minimisations  :   144
 total energy-change (2. order) :-0.1385635E+00  (-0.1385635E+00)
 number of electron       1.0000000 magnetization 
 augmentation part        1.0000000 magnetization 

 Free energy of the ion-electron system (eV)
  ---------------------------------------------------
  alpha Z        PSCENC =         0.02716370
  Ewald energy   TEWEN  =        15.70346634
  -1/2 Hartree   DENC   =       -19.63717815
  -exchange  EXHF       =         0.00000000
  -V(xc)+E(xc)   XCENC  =         2.42960351
  PAW double counting   =         0.79175790       -0.80028893
  entropy T*S    EENTRO =        -0.00564190
  eigenvalues    EBANDS =       -14.01772686
  atomic energy  EATOM  =        12.44420649
  ---------------------------------------------------
  free energy    TOTEN  =        -3.06463788 eV

  energy without entropy =       -3.05899598  energy(sigma->0) =       -3.06181693


--------------------------------------------------------------------------------------------------------




----------------------------------------- Iteration    1(   4)  ---------------------------------------


     EDDAV:  cpu time    0.19: real time    0.19
       DOS:  cpu time    0.00: real time    0.00
    --------------------------------------------
      LOOP:  cpu time    0.19: real time    0.19

 eigenvalue-minimisations  :   120
 total energy-change (2. order) :-0.1002311E-03  (-0.1002318E-03)
 number of electron       1.0000000 magnetization 
 augmentation part        1.0000000 magnetization 

 Free energy of the ion-electron system (eV)
  ---------------------------------------------------
  alpha Z        PSCENC =         0.02716370
  Ewald energy   TEWEN  =        15.70346634
  -1/2 Hartree   DENC   =       -19.63717815
  -exchange  EXHF       =         0.00000000
  -V(xc)+E(xc)   XCENC  =         2.42960351
  PAW double counting   =         0.79175790       -0.80028893
  entropy T*S    EENTRO =        -0.00564190
  eigenvalues    EBANDS =       -14.01782709
  atomic energy  EATOM  =        12.44420649
  ---------------------------------------------------
  free energy    TOTEN  =        -3.06473811 eV

  energy without entropy =       -3.05909621  energy(sigma->0) =       -3.06191716


--------------------------------------------------------------------------------------------------------




----------------------------------------- Iteration    1(   5)  ---------------------------------------


     EDDAV:  cpu time    0.19: real time    0.19
       DOS:  cpu time    0.00: real time    0.00
    CHARGE:  cpu time    0.01: real time    0.01
    MIXING:  cpu time    0.00: real time    0.00
    --------------------------------------------
      LOOP:  cpu time    0.21: real time    0.21

 eigenvalue-minimisations  :   120
 total energy-change (2. order) :-0.8880434E-06  (-0.8880792E-06)
 number of electron       0.9999995 magnetization 
 augmentation part        0.0196715 magnetization 

 Broyden mixing:
  rms(total) = 0.21146E+00    rms(broyden)= 0.21124E+00
  rms(prec ) = 0.28957E+00
  weight for this iteration     100.00

 Free energy of the ion-electron system (eV)
  ---------------------------------------------------
  alpha Z        PSCENC =         0.02716370
  Ewald energy   TEWEN  =        15.70346634
  -1/2 Hartree   DENC   =       -19.63717815
  -exchange  EXHF       =         0.00000000
  -V(xc)+E(xc)   XCENC  =         2.42960351
  PAW double counting   =         0.79175790       -0.80028893
  entropy T*S    EENTRO =        -0.00564190
  eigenvalues    EBANDS =       -14.01782798
  atomic energy  EATOM  =        12.44420649
  ---------------------------------------------------
  free energy    TOTEN  =        -3.06473900 eV

  energy without entropy =       -3.05909710  energy(sigma->0) =       -3.06191805


--------------------------------------------------------------------------------------------------------




----------------------------------------- Iteration    1(   6)  ---------------------------------------


    POTLOK:  cpu time    0.16: real time    0.16
    SETDIJ:  cpu time    0.00: real time    0.00
    EDDIAG:  cpu time    0.05: real time    0.05
  RMM-DIIS:  cpu time    0.20: real time    0.20
    ORTHCH:  cpu time    0.00: real time    0.00
       DOS:  cpu time    0.00: real time    0.00
    CHARGE:  cpu time    0.01: real time    0.01
    MIXING:  cpu time    0.00: real time    0.00
    --------------------------------------------
      LOOP:  cpu time    0.43: real time    0.43

 eigenvalue-minimisations  :   120
 total energy-change (2. order) : 0.1262745E+00  (-0.2972730E-02)
 number of electron       0.9999995 magnetization 
 augmentation part        0.0192123 magnetization 

 Broyden mixing:
  rms(total) = 0.12320E+00    rms(broyden)= 0.12320E+00
  rms(prec ) = 0.17457E+00
  weight for this iteration     100.00

 eigenvalues of (default mixing * dielectric matrix)
  average eigenvalue GAMMA=   2.3583
  2.3583

 Free energy of the ion-electron system (eV)
  ---------------------------------------------------
  alpha Z        PSCENC =         0.02716370
  Ewald energy   TEWEN  =        15.70346634
  -1/2 Hartree   DENC   =       -20.77677402
  -exchange  EXHF       =         0.00000000
  -V(xc)+E(xc)   XCENC  =         2.55245804
  PAW double counting   =         1.94058936       -1.95439499
  entropy T*S    EENTRO =        -0.00564190
  eigenvalues    EBANDS =       -12.86953748
  atomic energy  EATOM  =        12.44420649
  ---------------------------------------------------
  free energy    TOTEN  =        -2.93846445 eV

  energy without entropy =       -2.93282255  energy(sigma->0) =       -2.93564350


--------------------------------------------------------------------------------------------------------




----------------------------------------- Iteration    1(   7)  ---------------------------------------


    POTLOK:  cpu time    0.16: real time    0.17
    SETDIJ:  cpu time    0.00: real time    0.00
    EDDIAG:  cpu time    0.05: real time    0.05
  RMM-DIIS:  cpu time    0.19: real time    0.19
    ORTHCH:  cpu time    0.00: real time    0.00
       DOS:  cpu time    0.00: real time    0.00
    CHARGE:  cpu time    0.01: real time    0.01
    MIXING:  cpu time    0.00: real time    0.00
    --------------------------------------------
      LOOP:  cpu time    0.42: real time    0.43

 eigenvalue-minimisations  :   114
 total energy-change (2. order) : 0.8907000E-01  (-0.1036475E-01)
 number of electron       0.9999995 magnetization 
 augmentation part        0.0183875 magnetization 

 Broyden mixing:
  rms(total) = 0.15943E-01    rms(broyden)= 0.15755E-01
  rms(prec ) = 0.29214E-01
  weight for this iteration     100.00

 eigenvalues of (default mixing * dielectric matrix)
  average eigenvalue GAMMA=   2.6706
  2.6706  2.6706

 Free energy of the ion-electron system (eV)
  ---------------------------------------------------
  alpha Z        PSCENC =         0.02716370
  Ewald energy   TEWEN  =        15.70346634
  -1/2 Hartree   DENC   =       -22.79774750
  -exchange  EXHF       =         0.00000000
  -V(xc)+E(xc)   XCENC  =         2.77478728
  PAW double counting   =         4.26749829       -4.29024187
  entropy T*S    EENTRO =        -0.00564190
  eigenvalues    EBANDS =       -10.97288530
  atomic energy  EATOM  =        12.44420649
  ---------------------------------------------------
  free energy    TOTEN  =        -2.84939445 eV

  energy without entropy =       -2.84375255  energy(sigma->0) =       -2.84657350


--------------------------------------------------------------------------------------------------------




----------------------------------------- Iteration    1(   8)  ---------------------------------------


    POTLOK:  cpu time    0.16: real time    0.16
    SETDIJ:  cpu time    0.00: real time    0.00
    EDDIAG:  cpu time    0.05: real time    0.05
  RMM-DIIS:  cpu time    0.19: real time    0.19
    ORTHCH:  cpu time    0.00: real time    0.00
       DOS:  cpu time    0.00: real time    0.00
    CHARGE:  cpu time    0.01: real time    0.01
    MIXING:  cpu time    0.00: real time    0.00
    --------------------------------------------
      LOOP:  cpu time    0.41: real time    0.42

 eigenvalue-minimisations  :   110
 total energy-change (2. order) : 0.4630166E-02  (-0.2930650E-03)
 number of electron       0.9999995 magnetization 
 augmentation part        0.0183055 magnetization 

 Broyden mixing:
  rms(total) = 0.71581E-02    rms(broyden)= 0.71285E-02
  rms(prec ) = 0.13916E-01
  weight for this iteration     100.00

 eigenvalues of (default mixing * dielectric matrix)
  average eigenvalue GAMMA=   2.2165
  1.1762  3.0436  2.4297

 Free energy of the ion-electron system (eV)
  ---------------------------------------------------
  alpha Z        PSCENC =         0.02716370
  Ewald energy   TEWEN  =        15.70346634
  -1/2 Hartree   DENC   =       -23.05008337
  -exchange  EXHF       =         0.00000000
  -V(xc)+E(xc)   XCENC  =         2.78901761
  PAW double counting   =         3.83992614       -3.86037728
  entropy T*S    EENTRO =        -0.00564190
  eigenvalues    EBANDS =       -10.73244202
  atomic energy  EATOM  =        12.44420649
  ---------------------------------------------------
  free energy    TOTEN  =        -2.84476428 eV

  energy without entropy =       -2.83912239  energy(sigma->0) =       -2.84194334


--------------------------------------------------------------------------------------------------------




----------------------------------------- Iteration    1(   9)  ---------------------------------------


    POTLOK:  cpu time    0.15: real time    0.15
    SETDIJ:  cpu time    0.00: real time    0.00
    EDDIAG:  cpu time    0.05: real time    0.05
  RMM-DIIS:  cpu time    0.19: real time    0.19
    ORTHCH:  cpu time    0.00: real time    0.00
       DOS:  cpu time    0.00: real time    0.00
    CHARGE:  cpu time    0.01: real time    0.01
    MIXING:  cpu time    0.00: real time    0.00
    --------------------------------------------
      LOOP:  cpu time    0.40: real time    0.41

 eigenvalue-minimisations  :   110
 total energy-change (2. order) : 0.1320250E-02  (-0.1603173E-03)
 number of electron       0.9999995 magnetization 
 augmentation part        0.0182312 magnetization 

 Broyden mixing:
  rms(total) = 0.35298E-02    rms(broyden)= 0.35146E-02
  rms(prec ) = 0.84842E-02
  weight for this iteration     100.00

 eigenvalues of (default mixing * dielectric matrix)
  average eigenvalue GAMMA=   2.7625
  4.8089  0.9770  2.6321  2.6321

 Free energy of the ion-electron system (eV)
  ---------------------------------------------------
  alpha Z        PSCENC =         0.02716370
  Ewald energy   TEWEN  =        15.70346634
  -1/2 Hartree   DENC   =       -23.29117992
  -exchange  EXHF       =         0.00000000
  -V(xc)+E(xc)   XCENC  =         2.81031624
  PAW double counting   =         4.01896114       -4.04003371
  entropy T*S    EENTRO =        -0.00564190
  eigenvalues    EBANDS =       -10.51070244
  atomic energy  EATOM  =        12.44420649
  ---------------------------------------------------
  free energy    TOTEN  =        -2.84344403 eV

  energy without entropy =       -2.83780214  energy(sigma->0) =       -2.84062309


--------------------------------------------------------------------------------------------------------




----------------------------------------- Iteration    1(  10)  ---------------------------------------


    POTLOK:  cpu time    0.14: real time    0.14
    SETDIJ:  cpu time    0.00: real time    0.00
    EDDIAG:  cpu time    0.05: real time    0.05
  RMM-DIIS:  cpu time    0.17: real time    0.17
    ORTHCH:  cpu time    0.00: real time    0.00
       DOS:  cpu time    0.00: real time    0.00
    CHARGE:  cpu time    0.01: real time    0.01
    MIXING:  cpu time    0.00: real time    0.00
    --------------------------------------------
      LOOP:  cpu time    0.37: real time    0.37

 eigenvalue-minimisations  :    97
 total energy-change (2. order) :-0.1148827E-02  (-0.7179659E-04)
 number of electron       0.9999995 magnetization 
 augmentation part        0.0182392 magnetization 

 Broyden mixing:
  rms(total) = 0.12152E-02    rms(broyden)= 0.12136E-02
  rms(prec ) = 0.29056E-02
  weight for this iteration     100.00

 eigenvalues of (default mixing * dielectric matrix)
  average eigenvalue GAMMA=   2.9891
  0.9953  4.2865  4.2865  2.6887  2.6887

 Free energy of the ion-electron system (eV)
  ---------------------------------------------------
  alpha Z        PSCENC =         0.02716370
  Ewald energy   TEWEN  =        15.70346634
  -1/2 Hartree   DENC   =       -23.36544525
  -exchange  EXHF       =         0.00000000
  -V(xc)+E(xc)   XCENC  =         2.80532989
  PAW double counting   =         4.02292982       -4.04418058
  entropy T*S    EENTRO =        -0.00564190
  eigenvalues    EBANDS =       -10.43242138
  atomic energy  EATOM  =        12.44420649
  ---------------------------------------------------
  free energy    TOTEN  =        -2.84459286 eV

  energy without entropy =       -2.83895096  energy(sigma->0) =       -2.84177191


--------------------------------------------------------------------------------------------------------




----------------------------------------- Iteration    1(  11)  ---------------------------------------


    POTLOK:  cpu time    0.13: real time    0.13
    SETDIJ:  cpu time    0.00: real time    0.00
    EDDIAG:  cpu time    0.05: real time    0.05
  RMM-DIIS:  cpu time    0.16: real time    0.16
    ORTHCH:  cpu time    0.00: real time    0.00
       DOS:  cpu time    0.00: real time    0.00
    CHARGE:  cpu time    0.01: real time    0.01
    MIXING:  cpu time    0.00: real time    0.00
    --------------------------------------------
      LOOP:  cpu time    0.36: real time    0.36

 eigenvalue-minimisations  :    93
 total energy-change (2. order) :-0.1008601E-02  (-0.5463774E-04)
 number of electron       0.9999995 magnetization 
 augmentation part        0.0182285 magnetization 

 Broyden mixing:
  rms(total) = 0.69556E-03    rms(broyden)= 0.69355E-03
  rms(prec ) = 0.15226E-02
  weight for this iteration     100.00

 eigenvalues of (default mixing * dielectric matrix)
  average eigenvalue GAMMA=   2.9745
  6.6934  4.0968  2.5761  2.5761  0.9912  0.9136

 Free energy of the ion-electron system (eV)
  ---------------------------------------------------
  alpha Z        PSCENC =         0.02716370
  Ewald energy   TEWEN  =        15.70346634
  -1/2 Hartree   DENC   =       -23.38020681
  -exchange  EXHF       =         0.00000000
  -V(xc)+E(xc)   XCENC  =         2.80636637
  PAW double counting   =         3.99810790       -4.01919292
  entropy T*S    EENTRO =        -0.00564190
  eigenvalues    EBANDS =       -10.41987064
  atomic energy  EATOM  =        12.44420649
  ---------------------------------------------------
  free energy    TOTEN  =        -2.84560146 eV

  energy without entropy =       -2.83995957  energy(sigma->0) =       -2.84278051


--------------------------------------------------------------------------------------------------------




----------------------------------------- Iteration    1(  12)  ---------------------------------------


    POTLOK:  cpu time    0.13: real time    0.13
    SETDIJ:  cpu time    0.00: real time    0.00
    EDDIAG:  cpu time    0.05: real time    0.05
  RMM-DIIS:  cpu time    0.17: real time    0.17
    ORTHCH:  cpu time    0.00: real time    0.00
       DOS:  cpu time    0.00: real time    0.00
    CHARGE:  cpu time    0.01: real time    0.01
    MIXING:  cpu time    0.00: real time    0.00
    --------------------------------------------
      LOOP:  cpu time    0.36: real time    0.37

 eigenvalue-minimisations  :   100
 total energy-change (2. order) :-0.1409289E-03  (-0.1710953E-04)
 number of electron       0.9999995 magnetization 
 augmentation part        0.0182289 magnetization 

 Broyden mixing:
  rms(total) = 0.25857E-03    rms(broyden)= 0.25824E-03
  rms(prec ) = 0.66113E-03
  weight for this iteration     100.00

 eigenvalues of (default mixing * dielectric matrix)
  average eigenvalue GAMMA=   3.2837
  7.6833  4.9209  3.3136  2.5336  2.5336  1.0004  1.0004

 Free energy of the ion-electron system (eV)
  ---------------------------------------------------
  alpha Z        PSCENC =         0.02716370
  Ewald energy   TEWEN  =        15.70346634
  -1/2 Hartree   DENC   =       -23.37631565
  -exchange  EXHF       =         0.00000000
  -V(xc)+E(xc)   XCENC  =         2.80491792
  PAW double counting   =         3.98481212       -4.00585181
  entropy T*S    EENTRO =        -0.00564190
  eigenvalues    EBANDS =       -10.42249962
  atomic energy  EATOM  =        12.44420649
  ---------------------------------------------------
  free energy    TOTEN  =        -2.84574239 eV

  energy without entropy =       -2.84010049  energy(sigma->0) =       -2.84292144


--------------------------------------------------------------------------------------------------------




----------------------------------------- Iteration    1(  13)  ---------------------------------------


    POTLOK:  cpu time    0.14: real time    0.14
    SETDIJ:  cpu time    0.00: real time    0.00
    EDDIAG:  cpu time    0.05: real time    0.05
  RMM-DIIS:  cpu time    0.17: real time    0.17
    ORTHCH:  cpu time    0.00: real time    0.00
       DOS:  cpu time    0.00: real time    0.00
    CHARGE:  cpu time    0.01: real time    0.01
    MIXING:  cpu time    0.00: real time    0.00
    --------------------------------------------
      LOOP:  cpu time    0.37: real time    1.55

 eigenvalue-minimisations  :    97
 total energy-change (2. order) :-0.1034752E-03  (-0.2898595E-05)
 number of electron       0.9999995 magnetization 
 augmentation part        0.0182309 magnetization 

 Broyden mixing:
  rms(total) = 0.25599E-03    rms(broyden)= 0.25593E-03
  rms(prec ) = 0.35315E-03
  weight for this iteration     100.00

 eigenvalues of (default mixing * dielectric matrix)
  average eigenvalue GAMMA=   2.9947
  7.8480  4.6547  3.4680  2.5570  2.5570  1.0183  0.9502  0.9044

 Free energy of the ion-electron system (eV)
  ---------------------------------------------------
  alpha Z        PSCENC =         0.02716370
  Ewald energy   TEWEN  =        15.70346634
  -1/2 Hartree   DENC   =       -23.37434849
  -exchange  EXHF       =         0.00000000
  -V(xc)+E(xc)   XCENC  =         2.80419747
  PAW double counting   =         3.99783250       -4.01892696
  entropy T*S    EENTRO =        -0.00564190
  eigenvalues    EBANDS =       -10.42379504
  atomic energy  EATOM  =        12.44420649
  ---------------------------------------------------
  free energy    TOTEN  =        -2.84584587 eV

  energy without entropy =       -2.84020397  energy(sigma->0) =       -2.84302492


--------------------------------------------------------------------------------------------------------




----------------------------------------- Iteration    1(  14)  ---------------------------------------


    POTLOK:  cpu time    0.13: real time    0.13
    SETDIJ:  cpu time    0.00: real time    0.00
    EDDIAG:  cpu time    0.04: real time    0.04
  RMM-DIIS:  cpu time    0.16: real time    0.16
    ORTHCH:  cpu time    0.00: real time    0.00
       DOS:  cpu time    0.00: real time    0.00
    --------------------------------------------
      LOOP:  cpu time    0.33: real time    0.33

 eigenvalue-minimisations  :   107
 total energy-change (2. order) :-0.1986111E-04  (-0.5140636E-06)
 number of electron       0.9999995 magnetization 
 augmentation part        0.0182309 magnetization 

 Free energy of the ion-electron system (eV)
  ---------------------------------------------------
  alpha Z        PSCENC =         0.02716370
  Ewald energy   TEWEN  =        15.70346634
  -1/2 Hartree   DENC   =       -23.38163587
  -exchange  EXHF       =         0.00000000
  -V(xc)+E(xc)   XCENC  =         2.80475562
  PAW double counting   =         4.00338530       -4.02450545
  entropy T*S    EENTRO =        -0.00564190
  eigenvalues    EBANDS =       -10.41705997
  atomic energy  EATOM  =        12.44420649
  ---------------------------------------------------
  free energy    TOTEN  =        -2.84586573 eV

  energy without entropy =       -2.84022383  energy(sigma->0) =       -2.84304478


--------------------------------------------------------------------------------------------------------




 average (electrostatic) potential at core
  the test charge radii are     0.5201
  (the norm of the test charge is              1.0000)
       1 -41.5699
 
 
 
 E-fermi :  -2.8333     XC(G=0):  -0.9524     alpha+bet : -0.3068


 k-point   1 :       0.0000    0.0000    0.0000
  band No.  band energies     occupation 
      1     -14.3370      2.00000
      2      -0.1040      0.00000
      3       0.0265      0.00000
      4       0.0263      0.00000

 k-point   2 :       0.0500    0.0000    0.0000
  band No.  band energies     occupation 
      1     -13.8754      2.00000
      2       0.3601      0.00000
      3       0.4907      0.00000
      4       0.4907      0.00000

 k-point   3 :       0.1000    0.0000    0.0000
  band No.  band energies     occupation 
      1     -12.4871      2.00000
      2       1.7528      0.00000
      3       1.8835      0.00000
      4       1.8835      0.00000

 k-point   4 :       0.1500    0.0000    0.0000
  band No.  band energies     occupation 
      1     -10.1755      2.00000
      2       4.0732      0.00000
      3       4.2048      0.00000
      4       4.2048      0.00000

 k-point   5 :       0.2000    0.0000    0.0000
  band No.  band energies     occupation 
      1      -6.9622      2.00000
      2       7.3218      0.00000
      3       7.4547      0.00000
      4       7.4547      0.00000

 k-point   6 :       0.2500    0.0000    0.0000
  band No.  band energies     occupation 
      1      -2.8333      1.00000
      2      11.4994      0.00000
      3      11.6328      0.00000
      4      11.6328      0.00000

 k-point   7 :       0.3000    0.0000    0.0000
  band No.  band energies     occupation 
      1       2.1975      0.00000
      2      16.6048      0.00000
      3      16.7397      0.00000
      4      16.7397      0.00000

 k-point   8 :       0.3500    0.0000    0.0000
  band No.  band energies     occupation 
      1       8.1180      0.00000
      2      22.6361      0.00000
      3      22.7753      0.00000
      4      22.7753      0.00000

 k-point   9 :       0.4000    0.0000    0.0000
  band No.  band energies     occupation 
      1      14.8779      0.00000
      2      29.5891      0.00000
      3      29.7395      0.00000
      4      29.7395      0.00000

 k-point  10 :       0.4500    0.0000    0.0000
  band No.  band energies     occupation 
      1      22.2438      0.00000
      2      37.3964      0.00000
      3      37.6319      0.00000
      4      37.6319      0.00000

 k-point  11 :       0.5000    0.0000    0.0000
  band No.  band energies     occupation 
      1      27.5873      0.00000
      2      36.1198      0.00000
      3      46.3809      0.00000
      4      46.4613      0.00000


--------------------------------------------------------------------------------------------------------


 soft charge-density along one line, spin component           1
         0         1         2         3         4         5         6         7         8         9
 total charge-density along one line
 
 pseudopotential strength for first ion, spin component:           1
 -2.362  -0.011   0.000   0.000   0.000
 -0.011   0.050   0.000   0.000   0.000
  0.000   0.000  -0.342   0.000   0.000
  0.000   0.000   0.000  -0.342   0.000
  0.000   0.000   0.000   0.000  -0.336
 total augmentation occupancy for first ion, spin component:           1
  1.563  -0.830   0.000   0.000   0.000
 -0.830   0.505   0.000   0.000   0.000
  0.000   0.000   0.000   0.000   0.000
  0.000   0.000   0.000   0.000   0.000
  0.000   0.000   0.000   0.000   0.047


------------------------ aborting loop because EDIFF is reached ----------------------------------------


 


 total charge     
 
# of ion     s       p       d       tot
----------------------------------------
  1        0.604   0.028   0.000   0.632
 
    CHARGE:  cpu time    0.01: real time    0.01
    FORLOC:  cpu time    0.01: real time    0.01
    FORNL :  cpu time    0.00: real time    0.00
    STRESS:  cpu time    0.06: real time    0.06
    FORHAR:  cpu time    0.03: real time    0.03
    MIXING:  cpu time    0.00: real time    0.00

  FORCE on cell =-STRESS in cart. coord.  units (eV):
  Direction    XX          YY          ZZ          XY          YZ          ZX
  --------------------------------------------------------------------------------------
  Alpha Z     0.02716     0.02716     0.02716
  Ewald      31.70323    -7.99988    -7.99988     0.00000     0.00000     0.00000
  Hartree    23.36998     0.00522     0.00522     0.00000     0.00000     0.00000
  E(xc)      -2.81491    -3.15575    -3.15575     0.00000     0.00000     0.00000
  Local     -55.89147     2.67176     2.67176     0.00000     0.00000     0.00000
  n-local    -3.12601    -2.71095    -2.71095     0.00000     0.00000     0.00000
  augment     0.08430     0.11585     0.11585     0.00000     0.00000     0.00000
  Kinetic     7.99566    10.76846    10.76846     0.00000     0.00000     0.00000
  Fock        0.00000     0.00000     0.00000     0.00000     0.00000     0.00000
  -------------------------------------------------------------------------------------
  Total       1.34795    -0.27813    -0.27813     0.00000     0.00000     0.00000
  in kB      23.99608    -4.95122    -4.95122     0.00000     0.00000     0.00000
  external pressure =        4.70 kB  Pullay stress =        0.00 kB


 VOLUME and BASIS-vectors are now :
 -----------------------------------------------------------------------------
  energy-cutoff  :      250.00
  volume of cell :       90.00
      direct lattice vectors                 reciprocal lattice vectors
     0.900000000  0.000000000  0.000000000     1.111111111  0.000000000  0.000000000
     0.000000000 10.000000000  0.000000000     0.000000000  0.100000000  0.000000000
     0.000000000  0.000000000 10.000000000     0.000000000  0.000000000  0.100000000

  length of vectors
     0.900000000 10.000000000 10.000000000     1.111111111  0.100000000  0.100000000


 FORCES acting on ions
    electron-ion (+dipol)            ewald-force                    non-local-force                 convergence-correction
 -----------------------------------------------------------------------------------------------
   0.242E-15 0.217E-13 0.202E-13   0.145E-14 0.000E+00 0.000E+00   0.000E+00 0.000E+00 0.000E+00   0.199E-16 0.217E-14 -.492E-14
 -----------------------------------------------------------------------------------------------
   0.242E-15 0.217E-13 0.202E-13   0.145E-14 0.000E+00 0.000E+00   0.000E+00 0.000E+00 0.000E+00   0.199E-16 0.217E-14 -.492E-14
 
 
 POSITION                                       TOTAL-FORCE (eV/Angst)
 -----------------------------------------------------------------------------------
      0.45000      5.00000      5.00000         0.000000      0.000000      0.000000
 -----------------------------------------------------------------------------------
    total drift:                                0.000000      0.000000      0.000000


--------------------------------------------------------------------------------------------------------



  FREE ENERGIE OF THE ION-ELECTRON SYSTEM (eV)
  ---------------------------------------------------
  free  energy   TOTEN  =        -2.845866 eV

  energy  without entropy=       -2.840224  energy(sigma->0) =       -2.843045
 


--------------------------------------------------------------------------------------------------------


    POTLOK:  cpu time    0.15: real time    0.15


--------------------------------------------------------------------------------------------------------


     LOOP+:  cpu time    5.20: real time    6.50
    4ORBIT:  cpu time    0.00: real time    0.00
 


 total charge     
 
# of ion     s       p       d       tot
----------------------------------------
  1        0.604   0.028   0.000   0.632
 

 total amount of memory used by VASP on root node    43334. kBytes
========================================================================

   base      :      30000. kBytes
   nonl-proj :        383. kBytes
   fftplans  :       4848. kBytes
   grid      :       7506. kBytes
   one-center:          1. kBytes
   wavefun   :        596. kBytes
 
  
  
 General timing and accounting informations for this job:
 ========================================================
  
                  Total CPU time used (sec):        5.852
                            User time (sec):        5.569
                          System time (sec):        0.283
                         Elapsed time (sec):        7.372
  
                   Maximum memory used (kb):       33024.
                   Average memory used (kb):           0.
  
                          Minor page faults:        24669
                          Major page faults:          147
                 Voluntary context switches:         1055
