PROCAR new format
# of k-points:   11         # of bands:   4         # of ions:   1

 k-point    1 :    0.00000000 0.00000000 0.00000000     weight = 0.05000000

band   1 # energy  -14.33696840 # occ.  2.00000000
 
ion      s      p      d    tot
  1  0.640  0.000  0.000  0.640
 
band   2 # energy   -0.10401832 # occ.  0.00000000
 
ion      s      p      d    tot
  1  0.014  0.000  0.000  0.014
 
band   3 # energy    0.02648614 # occ.  0.00000000
 
ion      s      p      d    tot
  1  0.000  0.015  0.000  0.015
 
band   4 # energy    0.02625563 # occ.  0.00000000
 
ion      s      p      d    tot
  1  0.000  0.015  0.000  0.015
 

 k-point    2 :    0.05000000 0.00000000 0.00000000     weight = 0.10000000

band   1 # energy  -13.87541752 # occ.  2.00000000
 
ion      s      p      d    tot
  1  0.635  0.003  0.000  0.638
 
band   2 # energy    0.36011600 # occ.  0.00000000
 
ion      s      p      d    tot
  1  0.014  0.000  0.000  0.014
 
band   3 # energy    0.49072421 # occ.  0.00000000
 
ion      s      p      d    tot
  1  0.000  0.015  0.000  0.015
 
band   4 # energy    0.49072252 # occ.  0.00000000
 
ion      s      p      d    tot
  1  0.000  0.015  0.000  0.015
 

 k-point    3 :    0.10000000 0.00000000 0.00000000     weight = 0.10000000

band   1 # energy  -12.48708092 # occ.  2.00000000
 
ion      s      p      d    tot
  1  0.622  0.012  0.000  0.634
 
band   2 # energy    1.75275153 # occ.  0.00000000
 
ion      s      p      d    tot
  1  0.013  0.000  0.000  0.014
 
band   3 # energy    1.88347001 # occ.  0.00000000
 
ion      s      p      d    tot
  1  0.000  0.015  0.000  0.015
 
band   4 # energy    1.88347001 # occ.  0.00000000
 
ion      s      p      d    tot
  1  0.000  0.015  0.000  0.015
 

 k-point    4 :    0.15000000 0.00000000 0.00000000     weight = 0.10000000

band   1 # energy  -10.17546045 # occ.  2.00000000
 
ion      s      p      d    tot
  1  0.600  0.028  0.000  0.628
 
band   2 # energy    4.07319282 # occ.  0.00000000
 
ion      s      p      d    tot
  1  0.013  0.001  0.000  0.014
 
band   3 # energy    4.20480844 # occ.  0.00000000
 
ion      s      p      d    tot
  1  0.000  0.015  0.000  0.015
 
band   4 # energy    4.20480844 # occ.  0.00000000
 
ion      s      p      d    tot
  1  0.000  0.015  0.000  0.015
 

 k-point    5 :    0.20000000 0.00000000 0.00000000     weight = 0.10000000

band   1 # energy   -6.96221852 # occ.  2.00000000
 
ion      s      p      d    tot
  1  0.572  0.053  0.000  0.626
 
band   2 # energy    7.32179640 # occ.  0.00000000
 
ion      s      p      d    tot
  1  0.013  0.002  0.000  0.014
 
band   3 # energy    7.45469811 # occ.  0.00000000
 
ion      s      p      d    tot
  1  0.000  0.015  0.000  0.015
 
band   4 # energy    7.45469819 # occ.  0.00000000
 
ion      s      p      d    tot
  1  0.000  0.015  0.000  0.015
 

 k-point    6 :    0.25000000 0.00000000 0.00000000     weight = 0.10000000

band   1 # energy   -2.83327651 # occ.  1.00000000
 
ion      s      p      d    tot
  1  0.540  0.090  0.000  0.629
 
band   2 # energy   11.49939079 # occ.  0.00000000
 
ion      s      p      d    tot
  1  0.011  0.002  0.000  0.014
 
band   3 # energy   11.63280294 # occ.  0.00000000
 
ion      s      p      d    tot
  1  0.000  0.016  0.000  0.016
 
band   4 # energy   11.63280291 # occ.  0.00000000
 
ion      s      p      d    tot
  1  0.000  0.016  0.000  0.016
 

 k-point    7 :    0.30000000 0.00000000 0.00000000     weight = 0.10000000

band   1 # energy    2.19746804 # occ.  0.00000000
 
ion      s      p      d    tot
  1  0.506  0.132  0.000  0.638
 
band   2 # energy   16.60481401 # occ.  0.00000000
 
ion      s      p      d    tot
  1  0.011  0.003  0.000  0.014
 
band   3 # energy   16.73974551 # occ.  0.00000000
 
ion      s      p      d    tot
  1  0.000  0.016  0.000  0.016
 
band   4 # energy   16.73974557 # occ.  0.00000000
 
ion      s      p      d    tot
  1  0.000  0.016  0.000  0.016
 

 k-point    8 :    0.35000000 0.00000000 0.00000000     weight = 0.10000000

band   1 # energy    8.11800901 # occ.  0.00000000
 
ion      s      p      d    tot
  1  0.475  0.181  0.000  0.656
 
band   2 # energy   22.63612366 # occ.  0.00000000
 
ion      s      p      d    tot
  1  0.010  0.004  0.000  0.014
 
band   3 # energy   22.77532759 # occ.  0.00000000
 
ion      s      p      d    tot
  1  0.000  0.017  0.000  0.017
 
band   4 # energy   22.77533270 # occ.  0.00000000
 
ion      s      p      d    tot
  1  0.000  0.017  0.000  0.017
 

 k-point    9 :    0.40000000 0.00000000 0.00000000     weight = 0.10000000

band   1 # energy   14.87790857 # occ.  0.00000000
 
ion      s      p      d    tot
  1  0.457  0.223  0.000  0.679
 
band   2 # energy   29.58908642 # occ.  0.00000000
 
ion      s      p      d    tot
  1  0.010  0.004  0.000  0.015
 
band   3 # energy   29.73945193 # occ.  0.00000000
 
ion      s      p      d    tot
  1  0.000  0.017  0.000  0.017
 
band   4 # energy   29.73946772 # occ.  0.00000000
 
ion      s      p      d    tot
  1  0.000  0.017  0.000  0.017
 

 k-point   10 :    0.45000000 0.00000000 0.00000000     weight = 0.10000000

band   1 # energy   22.24377767 # occ.  0.00000000
 
ion      s      p      d    tot
  1  0.482  0.209  0.000  0.691
 
band   2 # energy   37.39638212 # occ.  0.00000000
 
ion      s      p      d    tot
  1  0.021  0.000  0.000  0.021
 
band   3 # energy   37.63185996 # occ.  0.00000000
 
ion      s      p      d    tot
  1  0.000  0.018  0.000  0.018
 
band   4 # energy   37.63188417 # occ.  0.00000000
 
ion      s      p      d    tot
  1  0.000  0.018  0.000  0.018
 

 k-point   11 :    0.50000000 0.00000000 0.00000000     weight = 0.05000000

band   1 # energy   27.58730322 # occ.  0.00000000
 
ion      s      p      d    tot
  1  0.641  0.000  0.000  0.641
 
band   2 # energy   36.11984788 # occ.  0.00000000
 
ion      s      p      d    tot
  1  0.000  0.929  0.000  0.929
 
band   3 # energy   46.38090217 # occ.  0.00000000
 
ion      s      p      d    tot
  1  0.002  0.028  0.000  0.030
 
band   4 # energy   46.46130247 # occ.  0.00000000
 
ion      s      p      d    tot
  1  0.000  0.012  0.000  0.012
 
