----- GAMESS execution script 'rungms' -----
This job is running on host dftfe.crc.nd.edu
under operating system Linux at Thu Feb 26 00:18:04 EST 2015
Available scratch disk space (Kbyte units) at beginning of the job is
Filesystem     1K-blocks     Used Available Use% Mounted on
/dev/sda2      147771864 22814524 117450908  17% /
GAMESS temporary binary files will be written to /tmp
GAMESS supplementary output files will be written to /tmp
Copying input file gamess.inp to your run's scratch directory...

 Distributed Data Interface kickoff program.
 Initiating 1 compute processes on 1 nodes to run the following command:
 /opt/crc/gamess/2012R1/gamess/gamess.00.x gamess 

          ******************************************************
          *         GAMESS VERSION =  1 MAY 2012 (R1)          *
          *             FROM IOWA STATE UNIVERSITY             *
          * M.W.SCHMIDT, K.K.BALDRIDGE, J.A.BOATZ, S.T.ELBERT, *
          *   M.S.GORDON, J.H.JENSEN, S.KOSEKI, N.MATSUNAGA,   *
          *          K.A.NGUYEN, S.J.SU, T.L.WINDUS,           *
          *       TOGETHER WITH M.DUPUIS, J.A.MONTGOMERY       *
          *         J.COMPUT.CHEM.  14, 1347-1363(1993)        *
          **************** 64 BIT LINUX VERSION ****************

  SINCE 1993, STUDENTS AND POSTDOCS WORKING AT IOWA STATE UNIVERSITY
  AND ALSO IN THEIR VARIOUS JOBS AFTER LEAVING ISU HAVE MADE IMPORTANT
  CONTRIBUTIONS TO THE CODE:
     IVANA ADAMOVIC, CHRISTINE AIKENS, YURI ALEXEEV, POOJA ARORA,
     ANDREY ASADCHEV, ROB BELL, PRADIPTA BANDYOPADHYAY, JONATHAN BENTZ,
     BRETT BODE, GALINA CHABAN, WEI CHEN, CHEOL HO CHOI, PAUL DAY,
     ALBERT DEFUSCO, TIM DUDLEY, DMITRI FEDOROV, GRAHAM FLETCHER,
     MARK FREITAG, KURT GLAESEMANN, DAN KEMP, GRANT MERRILL,
     NORIYUKI MINEZAWA, JONATHAN MULLIN, TAKESHI NAGATA,
     SEAN NEDD, HEATHER NETZLOFF, BOSILJKA NJEGIC, RYAN OLSON, MIKE PAK,
     JIM SHOEMAKER, LYUDMILA SLIPCHENKO, SAROM SOK, JIE SONG,
     TETSUYA TAKETSUGU, SIMON WEBB, SOOHAENG YOO, FEDERICO ZAHARIEV

  ADDITIONAL CODE HAS BEEN PROVIDED BY COLLABORATORS IN OTHER GROUPS:
     IOWA STATE UNIVERSITY:
          JOE IVANIC, LAIMUTIS BYTAUTAS, KLAUS RUEDENBERG
     UNIVERSITY OF TOKYO: KIMIHIKO HIRAO, TAKAHITO NAKAJIMA,
          TAKAO TSUNEDA, MUNEAKI KAMIYA, SUSUMU YANAGISAWA,
          KIYOSHI YAGI, MAHITO CHIBA, SEIKEN TOKURA, NAOAKI KAWAKAMI
     UNIVERSITY OF AARHUS: FRANK JENSEN
     UNIVERSITY OF IOWA: VISVALDAS KAIRYS, HUI LI
     NATIONAL INST. OF STANDARDS AND TECHNOLOGY: WALT STEVENS, DAVID GARMER
     UNIVERSITY OF PISA: BENEDETTA MENNUCCI, JACOPO TOMASI
     UNIVERSITY OF MEMPHIS: HENRY KURTZ, PRAKASHAN KORAMBATH
     UNIVERSITY OF ALBERTA: TOBY ZENG, MARIUSZ KLOBUKOWSKI
     UNIVERSITY OF NEW ENGLAND: MARK SPACKMAN
     MIE UNIVERSITY: HIROAKI UMEDA
     MICHIGAN STATE UNIVERSITY:
          KAROL KOWALSKI, MARTA WLOCH, JEFFREY GOUR, JESSE LUTZ, PIOTR PIECUCH
     UNIVERSITY OF SILESIA: MONIKA MUSIAL, STANISLAW KUCHARSKI
     FACULTES UNIVERSITAIRES NOTRE-DAME DE LA PAIX:
          OLIVIER QUINET, BENOIT CHAMPAGNE
     UNIVERSITY OF CALIFORNIA - SANTA BARBARA: BERNARD KIRTMAN
     INSTITUTE FOR MOLECULAR SCIENCE:
          KAZUYA ISHIMURA, MICHIO KATOUDA, AND SHIGERU NAGASE
     UNIVERSITY OF NOTRE DAME: DAN CHIPMAN
     KYUSHU UNIVERSITY:
          HARUYUKI NAKANO,
          FENG LONG GU, JACEK KORCHOWIEC, MARCIN MAKOWSKI, AND YURIKO AOKI,
          HIROTOSHI MORI AND EISAKU MIYOSHI
     PENNSYLVANIA STATE UNIVERSITY:
          TZVETELIN IORDANOV, CHET SWALINA, JONATHAN SKONE,
          SHARON HAMMES-SCHIFFER
     WASEDA UNIVERSITY:
          MASATO KOBAYASHI, TOMOKO AKAMA, TSUGUKI TOUMA,
          TAKESHI YOSHIKAWA, YASUHIRO IKABATA, HIROMI NAKAI
     UNIVERSITY OF NEBRASKA:
          PEIFENG SU, DEJUN SI, NANDUN THELLAMUREGE, YALI WANG, HUI LI
     UNIVERSITY OF ZURICH:
          ROBERTO PEVERATI, KIM BALDRIDGE
     N. COPERNICUS UNIVERSITY AND JACKSON STATE UNIVERSITY:
          MARIA BARYSZ

 EXECUTION OF GAMESS BEGUN Thu Feb 26 00:18:04 2015

            ECHO OF THE FIRST FEW INPUT CARDS -
 INPUT CARD> $BASIS GBASIS=PC1 $END                                                         
 INPUT CARD> $CONTRL COORD=ZMT ISPHER=1 RUNTYP=ENERGY DFTTYP=PBE $END                       
 INPUT CARD>                                                                                
 INPUT CARD> $DATA                                                                          
 INPUT CARD>Title                                                                           
 INPUT CARD>Cnv 2                                                                           
 INPUT CARD>                                                                                
 INPUT CARD>S                                                                               
 INPUT CARD>O 1 1.60                                                                        
 INPUT CARD>O 1 1.60 2 120.0                                                                
 INPUT CARD> $END                                                                           
    1000000 WORDS OF MEMORY AVAILABLE

     BASIS OPTIONS
     -------------
     GBASIS=PC1          IGAUSS=       0      POLAR=NONE    
     NDFUNC=       0     NFFUNC=       0     DIFFSP=       F
     NPFUNC=       0      DIFFS=       F     BASNAM=        


     RUN TITLE
     ---------
 Title                                                                           

 THE POINT GROUP OF THE MOLECULE IS CNV     
 THE ORDER OF THE PRINCIPAL AXIS IS     2

 YOUR FULLY SUBSTITUTED Z-MATRIX IS
 S   
 O      1   1.6000000
 O      1   1.6000000  2  120.0000

 THE MOMENTS OF INERTIA ARE (AMU-ANGSTROM**2)
 IXX=    10.234   IYY=    61.420   IZZ=    71.654

 ATOM      ATOMIC                      COORDINATES (BOHR)
           CHARGE         X                   Y                   Z
 S          16.0     0.0000000000        0.0000000000       -0.7561001615
 O           8.0    -2.6184811385        0.0000000000        0.7556806287
 O           8.0     2.6184811385        0.0000000000        0.7556806287

          INTERNUCLEAR DISTANCES (ANGS.)
          ------------------------------

                1 S          2 O          3 O     

   1 S       0.0000000    1.6000000 *  1.6000000 *
   2 O       1.6000000 *  0.0000000    2.7712813 *
   3 O       1.6000000 *  2.7712813 *  0.0000000  

  * ... LESS THAN  3.000


     ATOMIC BASIS SET
     ----------------
 THE CONTRACTED PRIMITIVE FUNCTIONS HAVE BEEN UNNORMALIZED
 THE CONTRACTED BASIS FUNCTIONS ARE NOW NORMALIZED TO UNITY

  SHELL TYPE  PRIMITIVE        EXPONENT          CONTRACTION COEFFICIENT(S)

 S         

      1   S       1         55510.0000000    0.000587229760
      1   S       2          8326.7000000    0.004532413947
      1   S       3          1895.6000000    0.023265261648
      1   S       4           536.7700000    0.089696133027
      1   S       5           174.6700000    0.254098332277
      1   S       6            62.5780000    0.438665087637
      1   S       7            23.5730000    0.314547135094
      1   S       8             5.8908000    0.032727897102

      2   S       9          8326.7000000   -0.000019755715
      2   S      10          1895.6000000   -0.000043822381
      2   S      11           536.7700000   -0.001730264906
      2   S      12           174.6700000   -0.009381263460
      2   S      13            62.5780000   -0.064050766303
      2   S      14            23.5730000   -0.082478179196
      2   S      15             5.8908000    0.478342956889
      2   S      16             2.1852000    0.626896670208

      3   S      17          1895.6000000    0.000016227260
      3   S      18           536.7700000    0.000191135619
      3   S      19           174.6700000    0.001952069674
      3   S      20            62.5780000    0.010578701087
      3   S      21            23.5730000    0.022164934551
      3   S      22             5.8908000   -0.184968323118
      3   S      23             2.1852000   -0.480920750976
      3   S      24             0.4528200    1.243822243872

      4   S      25             0.1620200    1.000000000000

      5   P      26           395.4500000    0.004642761329
      5   P      27            92.8340000    0.036023396489
      5   P      28            29.2660000    0.149058869978
      5   P      29            10.5950000    0.360033266263
      5   P      30             4.0272000    0.455756476221
      5   P      31             1.5484000    0.206167664178

      6   P      32            92.8340000    0.000169901442
      6   P      33            29.2660000   -0.002541839934
      6   P      34            10.5950000   -0.007867614595
      6   P      35             4.0272000   -0.037231009184
      6   P      36             1.5484000    0.161417246830
      6   P      37             0.4613400    0.902230419976

      7   P      38             0.1313100    1.000000000000

      8   D      39             0.5500000    1.000000000000

 O         

     15   S      40          2306.7000000    0.005424388755
     15   S      41           347.1500000    0.040474749465
     15   S      42            78.8900000    0.180219634554
     15   S      43            21.8760000    0.462370311787
     15   S      44             6.6646000    0.454888396263

     16   S      45           347.1500000   -0.000655003786
     16   S      46            78.8900000   -0.005362052952
     16   S      47            21.8760000   -0.074902158894
     16   S      48             6.6646000   -0.181442579655
     16   S      49             1.0669000    1.102006874042

     17   S      50             0.3070000    1.000000000000

     18   P      51            17.0220000    0.068979967443
     18   P      52             3.6838000    0.351985516325
     18   P      53             0.9923400    0.724036547822

     19   P      54             0.2448700    1.000000000000

     20   D      55             1.0000000    1.000000000000

 TOTAL NUMBER OF BASIS SET SHELLS             =   20
 NUMBER OF CARTESIAN GAUSSIAN BASIS FUNCTIONS =   49
 NOTE: THIS RUN WILL RESTRICT THE MO VARIATION SPACE TO SPHERICAL HARMONICS.
 THE NUMBER OF ORBITALS KEPT IN THE VARIATIONAL SPACE WILL BE PRINTED LATER.
 NUMBER OF ELECTRONS                          =   32
 CHARGE OF MOLECULE                           =    0
 SPIN MULTIPLICITY                            =    1
 NUMBER OF OCCUPIED ORBITALS (ALPHA)          =   16
 NUMBER OF OCCUPIED ORBITALS (BETA )          =   16
 TOTAL NUMBER OF ATOMS                        =    3
 THE NUCLEAR REPULSION ENERGY IS       96.8891849703

     LEBEDEV GRID-BASED DFT OPTIONS
     ------------------------------
     DFTTYP=PBE     
     NRAD  =      96     NLEB  =     302
     NRAD0 =      24     NLEB0 =     110
     SWOFF =    5.00E-03 (PURE SCF -> DFT)
     SWITCH=    3.00E-04 (COARSE -> TIGHT GRID)
     THRESH=    0.00E+00 GTHRE=    1.00E+00

 GRIMME'S EMPIRICAL DISPERSION CORRECTION= F

     $CONTRL OPTIONS
     ---------------
 SCFTYP=RHF          RUNTYP=ENERGY       EXETYP=RUN     
 MPLEVL=       0     CITYP =NONE         CCTYP =NONE         VBTYP =NONE    
 DFTTYP=PBE          TDDFT =NONE    
 MULT  =       1     ICHARG=       0     NZVAR =       0     COORD =ZMT     
 PP    =NONE         RELWFN=NONE         LOCAL =NONE         NUMGRD=       F
 ISPHER=       1     NOSYM =       0     MAXIT =      30     UNITS =ANGS    
 PLTORB=       F     MOLPLT=       F     AIMPAC=       F     FRIEND=        
 NPRINT=       7     IREST =       0     GEOM  =INPUT   
 NORMF =       0     NORMP =       0     ITOL  =      20     ICUT  =       9
 INTTYP=BEST         GRDTYP=BEST         QMTTOL= 1.0E-06

     $SYSTEM OPTIONS
     ---------------
  REPLICATED MEMORY=     1000000 WORDS (ON EVERY NODE).
 DISTRIBUTED MEMDDI=           0 MILLION WORDS IN AGGREGATE,
 MEMDDI DISTRIBUTED OVER   1 PROCESSORS IS           0 WORDS/PROCESSOR.
 TOTAL MEMORY REQUESTED ON EACH PROCESSOR=     1000000 WORDS.
 TIMLIM=      525600.00 MINUTES, OR     365.0 DAYS.
 PARALL= F  BALTYP=  DLB     KDIAG=    0  COREFL= F
 MXSEQ2=     300 MXSEQ3=     150

          ----------------
          PROPERTIES INPUT
          ----------------

     MOMENTS            FIELD           POTENTIAL          DENSITY
 IEMOM =       1   IEFLD =       0   IEPOT =       0   IEDEN =       0
 WHERE =COMASS     WHERE =NUCLEI     WHERE =NUCLEI     WHERE =NUCLEI  
 OUTPUT=BOTH       OUTPUT=BOTH       OUTPUT=BOTH       OUTPUT=BOTH    
 IEMINT=       0   IEFINT=       0                     IEDINT=       0
                                                       MORB  =       0
          EXTRAPOLATION IN EFFECT
          DIIS IN EFFECT
 ORBITAL PRINTING OPTION: NPREO=     1    49     2     1

     -------------------------------
     INTEGRAL TRANSFORMATION OPTIONS
     -------------------------------
     NWORD  =            0
     CUTOFF = 1.0E-09     MPTRAN =       0
     DIRTRF =       F     AOINTS =DUP     

          ----------------------
          INTEGRAL INPUT OPTIONS
          ----------------------
 NOPK  =       1 NORDER=       0 SCHWRZ=       F

   --- ENCODED Z MATRIX ---
 COORD  TYPE   I   J   K   L   M   N
    1      1    3   1
    2      1    2   1
    3      2    2   1   3

 THE DETERMINANT OF THE G MATRIX IS 10**(    -4)

 THE DETERMINANT OF THE G MATRIX IS 10**(    -4)
 * * * WARNING * * *
 YOUR B MATRIX HAS A SMALL DETERMINANT.
 THIS SUGGESTS YOU MAY HAVE BADLY CHOSEN COORDINATES.

     ------------------------------------------
     THE POINT GROUP IS CNV, NAXIS= 2, ORDER= 4
     ------------------------------------------

 -- VARIATIONAL SPACE WILL BE RESTRICTED TO PURE SPHERICAL HARMONICS ONLY --
 AFTER EXCLUDING CONTAMINANT COMBINATIONS FROM THE CARTESIAN GAUSSIAN BASIS
 SET, THE NUMBER OF SPHERICAL HARMONICS KEPT IN THE VARIATION SPACE IS   46

     DIMENSIONS OF THE SYMMETRY SUBSPACES ARE
 A1  =   19     A2  =    5     B1  =   14     B2  =    8

 ..... DONE SETTING UP THE RUN .....
 STEP CPU TIME =     0.01 TOTAL CPU TIME =        0.0 (    0.0 MIN)
 TOTAL WALL CLOCK TIME=        0.0 SECONDS, CPU UTILIZATION IS  50.00%

          ********************
          1 ELECTRON INTEGRALS
          ********************
 ...... END OF ONE-ELECTRON INTEGRALS ......
 STEP CPU TIME =     0.00 TOTAL CPU TIME =        0.0 (    0.0 MIN)
 TOTAL WALL CLOCK TIME=        0.0 SECONDS, CPU UTILIZATION IS  50.00%

          -------------
          GUESS OPTIONS
          -------------
          GUESS =HUCKEL            NORB  =       0          NORDER=       0
          MIX   =       F          PRTMO =       F          PUNMO =       F
          TOLZ  = 1.0E-08          TOLE  = 1.0E-05
          SYMDEN=       F          PURIFY=       F

 INITIAL GUESS ORBITALS GENERATED BY HUCKEL   ROUTINE.
 HUCKEL GUESS REQUIRES     21583 WORDS.

 STATISTICS FOR GENERATION OF SYMMETRY ORBITAL -Q- MATRIX
 NUMBER OF CARTESIAN ATOMIC ORBITALS=         49
 NUMBER OF SPHERICAL CONTAMINANTS DROPPED=     3
 NUMBER OF LINEARLY DEPENDENT MOS DROPPED=     0
 TOTAL NUMBER OF MOS IN VARIATION SPACE=      46

 SYMMETRIES FOR INITIAL GUESS ORBITALS FOLLOW.   BOTH SET(S).
    16 ORBITALS ARE OCCUPIED (    7 CORE ORBITALS).
     8=?A1      9=?B1     10=?A1     11=B2      12=A1      13=?B1     14=A2  
    15=B1      16=?A1     17=B2      18=?A1     19=?B1     20=A1      21=A1  
    22=A1      23=A1      24=A1      25=A1      26=A1  
 ...... END OF INITIAL ORBITAL SELECTION ......
 STEP CPU TIME =     0.01 TOTAL CPU TIME =        0.0 (    0.0 MIN)
 TOTAL WALL CLOCK TIME=        0.0 SECONDS, CPU UTILIZATION IS  66.67%

                    ----------------------
                    AO INTEGRAL TECHNOLOGY
                    ----------------------
     S,P,L SHELL ROTATED AXIS INTEGRALS, REPROGRAMMED BY
        KAZUYA ISHIMURA (IMS) AND JOSE SIERRA (SYNSTAR).
     S,P,D,L SHELL ROTATED AXIS INTEGRALS PROGRAMMED BY
        KAZUYA ISHIMURA (INSTITUTE FOR MOLECULAR SCIENCE).
     S,P,D,F,G SHELL TO TOTAL QUARTET ANGULAR MOMENTUM SUM 5,
        ERIC PROGRAM BY GRAHAM FLETCHER (ELORET AND NASA ADVANCED
        SUPERCOMPUTING DIVISION, AMES RESEARCH CENTER).
     S,P,D,F,G,L SHELL GENERAL RYS QUADRATURE PROGRAMMED BY
        MICHEL DUPUIS (PACIFIC NORTHWEST NATIONAL LABORATORY).

          --------------------
          2 ELECTRON INTEGRALS
          --------------------

 THE -PK- OPTION IS OFF, THE INTEGRALS ARE NOT IN SUPERMATRIX FORM.
 STORING   15000 INTEGRALS/RECORD ON DISK, USING 12 BYTES/INTEGRAL.
 TWO ELECTRON INTEGRAL EVALUATION REQUIRES   90606 WORDS OF MEMORY.
 II,JST,KST,LST =  1  1  1  1 NREC =         1 INTLOC =    1
 II,JST,KST,LST =  2  1  1  1 NREC =         1 INTLOC =    2
 II,JST,KST,LST =  3  1  1  1 NREC =         1 INTLOC =    7
 II,JST,KST,LST =  4  1  1  1 NREC =         1 INTLOC =   22
 II,JST,KST,LST =  5  1  1  1 NREC =         1 INTLOC =   56
 II,JST,KST,LST =  6  1  1  1 NREC =         1 INTLOC =  125
 II,JST,KST,LST =  7  1  1  1 NREC =         1 INTLOC =  329
 II,JST,KST,LST =  8  1  1  1 NREC =         1 INTLOC =  776
 II,JST,KST,LST =  9  1  1  1 NREC =         1 INTLOC = 2864
 II,JST,KST,LST = 10  1  1  1 NREC =         1 INTLOC = 2864
 II,JST,KST,LST = 11  1  1  1 NREC =         1 INTLOC = 2864
 II,JST,KST,LST = 12  1  1  1 NREC =         1 INTLOC = 2864
 II,JST,KST,LST = 13  1  1  1 NREC =         1 INTLOC = 2864
 II,JST,KST,LST = 14  1  1  1 NREC =         1 INTLOC = 2864
 II,JST,KST,LST = 15  1  1  1 NREC =         1 INTLOC = 2864
 II,JST,KST,LST = 16  1  1  1 NREC =         1 INTLOC = 5057
 II,JST,KST,LST = 17  1  1  1 NREC =         1 INTLOC = 8216
 II,JST,KST,LST = 18  1  1  1 NREC =         1 INTLOC =12630
 II,JST,KST,LST = 19  1  1  1 NREC =         3 INTLOC =   34
 II,JST,KST,LST = 20  1  1  1 NREC =         5 INTLOC = 1023
 TOTAL NUMBER OF NONZERO TWO-ELECTRON INTEGRALS =              174116
         12 INTEGRAL RECORDS WERE STORED ON DISK FILE  8.
  ...... END OF TWO-ELECTRON INTEGRALS .....
 STEP CPU TIME =     0.15 TOTAL CPU TIME =        0.2 (    0.0 MIN)
 TOTAL WALL CLOCK TIME=        0.2 SECONDS, CPU UTILIZATION IS  94.44%

          --------------------------
               R-PBE SCF CALCULATION
          --------------------------

     NUCLEAR ENERGY =        96.8891849703
     MAXIT =   30     NPUNCH=    2
     EXTRAP=T  DAMP=F  SHIFT=F  RSTRCT=F  DIIS=T  DEM=F  SOSCF=F
         DENSITY MATRIX CONVERGENCE THRESHOLD=  1.00E-05
     COARSE -> FINE DFT GRID SWITCH THRESHOLD=  3.00E-04 (SWITCH IN $DFT)
                   HF -> DFT SWITCH THRESHOLD=  5.00E-03 (SWOFF IN $DFT)
     MEMORY REQUIRED FOR RHF ITERS=    183108 WORDS.

 DFT CODE IS SWITCHING FROM THE FINE GRID NRAD= 96,  NLEB=  302
                      TO THE COARSE GRID NRAD0= 24, NLEB0=  110

     EXCHANGE FUNCTIONAL   =PBE       
     CORRELATION FUNCTIONAL=PBE       
     DFT THRESHOLD         =.460E-07
     GRID CHANGE THRESHOLD =.300E-03
 FOR AN EULER-MACLAURIN QUADRATURE USING  96 RADIAL POINTS:
 SMALLEST GAUSSIAN PRIMITIVE EXPONENT=        0.1313100000 OF TYPE -P-
 ON ATOM NUMBER   1 HAS RADIAL NORMALIZATION=  1.000000
  LARGEST GAUSSIAN PRIMITIVE EXPONENT=    55510.0000000000 OF TYPE -S-
 ON ATOM NUMBER   1 HAS RADIAL NORMALIZATION=  0.999999
 DFT IS SWITCHED OFF, PERFORMING PURE SCF UNTIL SWOFF THRESHOLD IS REACHED.

 ITER EX DEM     TOTAL ENERGY        E CHANGE  DENSITY CHANGE    DIIS ERROR
   1  0  0     -546.0563417190  -546.0563417190   0.431871252   1.386648582
          * * *   INITIATING DIIS PROCEDURE   * * *
   2  1  0     -546.6791618974    -0.6228201784   0.453320180   0.346380499
   3  2  0     -546.7342388958    -0.0550769984   0.200328666   0.367465038
   4  3  0     -547.0546892365    -0.3204503407   0.017649360   0.011953092
   5  4  0     -547.0553615054    -0.0006722689   0.005689076   0.004422914
   6  5  0     -547.0554384567    -0.0000769513   0.001008653   0.000926038
 CONVERGED TO SWOFF, SO DFT CALCULATION IS NOW SWITCHED ON.
          * * *   INITIATING DIIS PROCEDURE   * * *
   7  6  0     -548.2048405238    -1.1494020670   0.308019260   0.114640756
   8  7  0     -548.1953236101     0.0095169136   0.266459558   0.133137438
   9  8  0     -548.2043111165    -0.0089875063   0.085746913   0.144433225
  10  9  0     -548.2468393226    -0.0425282061   0.016479324   0.014763361
  11 10  0     -548.2474688667    -0.0006295441   0.000863187   0.001265532
  12 11  0     -548.2474724603    -0.0000035936   0.000562443   0.000417287
  13 12  0     -548.2474729164    -0.0000004562   0.000047940   0.000042082
 DFT CODE IS SWITCHING BACK TO THE FINE GRID
          * * *   INITIATING DIIS PROCEDURE   * * *
  14 13  0     -548.2464164667     0.0010564498   0.008186245   0.010080770
  15 14  0     -548.2464814796    -0.0000650129   0.015645719   0.007929992
  16 15  0     -548.2463057386     0.0001757409   0.009280153   0.011856981
  17 16  0     -548.2466110356    -0.0003052970   0.000113589   0.000322816
  18 17  0     -548.2466112140    -0.0000001784   0.000024057   0.000026421
  19 18  0     -548.2466112155    -0.0000000015   0.000011318   0.000007975
  20 19  0     -548.2466112157    -0.0000000002   0.000001243   0.000001091
  21 20  0     -548.2466112157     0.0000000000   0.000000181   0.000000072

          -----------------
          DENSITY CONVERGED
          -----------------
     TIME TO FORM FOCK OPERATORS=       4.3 SECONDS (       0.2 SEC/ITER)
     TIME TO SOLVE SCF EQUATIONS=       0.0 SECONDS (       0.0 SEC/ITER)

 FINAL R-PBE ENERGY IS     -548.2466112157 AFTER  21 ITERATIONS
 DFT EXCHANGE + CORRELATION ENERGY =       -42.3575944188
 TOTAL ELECTRON NUMBER             =        31.9999992127

          ------------
          EIGENVECTORS
          ------------

                      1          2          3          4          5
                  -88.2217   -18.8158   -18.8158    -7.8430    -5.8641
                     A1         A1         B1         A1         B1  
    1  S  1  S    1.002980  -0.000064   0.000000  -0.274086   0.000000
    2  S  1  S   -0.010284  -0.000913   0.000000   1.039454   0.000000
    3  S  1  S    0.001795  -0.001668   0.000000   0.040711   0.000000
    4  S  1  S   -0.000824   0.009943   0.000000  -0.011541   0.000000
    5  S  1  X    0.000000   0.000000   0.000064   0.000000   0.996767
    6  S  1  Y    0.000000   0.000000   0.000000   0.000000   0.000000
    7  S  1  Z    0.000059  -0.000098   0.000000   0.010360   0.000000
    8  S  1  X    0.000000   0.000000  -0.001319   0.000000   0.009156
    9  S  1  Y    0.000000   0.000000   0.000000   0.000000   0.000000
   10  S  1  Z    0.000058   0.001045   0.000000   0.001194   0.000000
   11  S  1  X    0.000000   0.000000  -0.005110   0.000000  -0.000226
   12  S  1  Y    0.000000   0.000000   0.000000   0.000000   0.000000
   13  S  1  Z   -0.000030   0.004006   0.000000  -0.000538   0.000000
   14  S  1 XX    0.000060   0.001066   0.000000   0.000812   0.000000
   15  S  1 YY   -0.000042  -0.001108   0.000000  -0.000472   0.000000
   16  S  1 ZZ   -0.000018   0.000042   0.000000  -0.000340   0.000000
   17  S  1 XY    0.000000   0.000000   0.000000   0.000000   0.000000
   18  S  1 XZ    0.000000   0.000000  -0.000938   0.000000   0.000736
   19  S  1 YZ    0.000000   0.000000   0.000000   0.000000   0.000000
   20  O  2  S    0.000007   0.703298   0.703257   0.000029   0.000186
   21  O  2  S    0.000027   0.025875   0.025442   0.000008  -0.000019
   22  O  2  S   -0.000009  -0.012864  -0.011661   0.000189  -0.000154
   23  O  2  X   -0.000016   0.000914   0.000776  -0.000299  -0.000231
   24  O  2  Y    0.000000   0.000000   0.000000   0.000000   0.000000
   25  O  2  Z    0.000005  -0.000341  -0.000568   0.000129   0.000141
   26  O  2  X   -0.000082  -0.003700  -0.002095  -0.000772  -0.000088
   27  O  2  Y    0.000000   0.000000   0.000000   0.000000   0.000000
   28  O  2  Z    0.000068   0.001134   0.001975   0.000694   0.000109
   29  O  2 XX   -0.000069  -0.000432  -0.000173  -0.000484  -0.000222
   30  O  2 YY    0.000060   0.000282   0.000211   0.000427   0.000225
   31  O  2 ZZ    0.000010   0.000150  -0.000038   0.000057  -0.000004
   32  O  2 XY    0.000000   0.000000   0.000000   0.000000   0.000000
   33  O  2 XZ    0.000092   0.000333   0.000327   0.000664   0.000366
   34  O  2 YZ    0.000000   0.000000   0.000000   0.000000   0.000000
   35  O  3  S    0.000007   0.703298  -0.703257   0.000029  -0.000186
   36  O  3  S    0.000027   0.025875  -0.025442   0.000008   0.000019
   37  O  3  S   -0.000009  -0.012864   0.011661   0.000189   0.000154
   38  O  3  X    0.000016  -0.000914   0.000776   0.000299  -0.000231
   39  O  3  Y    0.000000   0.000000   0.000000   0.000000   0.000000
   40  O  3  Z    0.000005  -0.000341   0.000568   0.000129  -0.000141
   41  O  3  X    0.000082   0.003700  -0.002095   0.000772  -0.000088
   42  O  3  Y    0.000000   0.000000   0.000000   0.000000   0.000000
   43  O  3  Z    0.000068   0.001134  -0.001975   0.000694  -0.000109
   44  O  3 XX   -0.000069  -0.000432   0.000173  -0.000484   0.000222
   45  O  3 YY    0.000060   0.000282  -0.000211   0.000427  -0.000225
   46  O  3 ZZ    0.000010   0.000150   0.000038   0.000057   0.000004
   47  O  3 XY    0.000000   0.000000   0.000000   0.000000   0.000000
   48  O  3 XZ   -0.000092  -0.000333   0.000327  -0.000664   0.000366
   49  O  3 YZ    0.000000   0.000000   0.000000   0.000000   0.000000

                      6          7          8          9         10
                   -5.8627    -5.8585    -0.9930    -0.9258    -0.6166
                     B2         A1         A1         B1         A1  
    1  S  1  S    0.000000   0.002876   0.047961   0.000000   0.069633
    2  S  1  S    0.000000  -0.011039  -0.136858   0.000000  -0.194146
    3  S  1  S    0.000000  -0.000175   0.285054   0.000000   0.443421
    4  S  1  S    0.000000  -0.000569   0.153573   0.000000   0.408141
    5  S  1  X    0.000000   0.000000   0.000000   0.106043   0.000000
    6  S  1  Y    0.996890   0.000000   0.000000   0.000000   0.000000
    7  S  1  Z    0.000000   0.996893  -0.051442   0.000000   0.033051
    8  S  1  X    0.000000   0.000000   0.000000  -0.210492   0.000000
    9  S  1  Y    0.008941   0.000000   0.000000   0.000000   0.000000
   10  S  1  Z    0.000000   0.008656   0.101480   0.000000  -0.064280
   11  S  1  X    0.000000   0.000000   0.000000  -0.027238   0.000000
   12  S  1  Y   -0.000180   0.000000   0.000000   0.000000   0.000000
   13  S  1  Z    0.000000  -0.000278   0.001921   0.000000  -0.055427
   14  S  1 XX    0.000000  -0.000463   0.036699   0.000000  -0.013731
   15  S  1 YY    0.000000  -0.000238  -0.028740   0.000000   0.016726
   16  S  1 ZZ    0.000000   0.000701  -0.007959   0.000000  -0.002995
   17  S  1 XY    0.000000   0.000000   0.000000   0.000000   0.000000
   18  S  1 XZ    0.000000   0.000000   0.000000  -0.059858   0.000000
   19  S  1 YZ    0.000562   0.000000   0.000000   0.000000   0.000000
   20  O  2  S    0.000000  -0.000124  -0.124783  -0.148126   0.101661
   21  O  2  S    0.000000  -0.000105   0.247224   0.300383  -0.210771
   22  O  2  S    0.000000   0.000507   0.296954   0.362981  -0.327641
   23  O  2  X    0.000000   0.000192   0.091985   0.079532   0.110191
   24  O  2  Y    0.000024   0.000000   0.000000   0.000000   0.000000
   25  O  2  Z    0.000000  -0.000086  -0.049033  -0.050066  -0.074352
   26  O  2  X    0.000000   0.000256   0.042819   0.032639   0.052151
   27  O  2  Y   -0.000061   0.000000   0.000000   0.000000   0.000000
   28  O  2  Z    0.000000  -0.000238  -0.020685  -0.023044  -0.030302
   29  O  2 XX    0.000000   0.000232   0.009768   0.004160   0.004821
   30  O  2 YY    0.000000  -0.000177  -0.005578  -0.002523  -0.005573
   31  O  2 ZZ    0.000000  -0.000056  -0.004191  -0.001638   0.000752
   32  O  2 XY    0.000028   0.000000   0.000000   0.000000   0.000000
   33  O  2 XZ    0.000000  -0.000278  -0.010018  -0.007780  -0.007021
   34  O  2 YZ   -0.000028   0.000000   0.000000   0.000000   0.000000
   35  O  3  S    0.000000  -0.000124  -0.124783   0.148126   0.101661
   36  O  3  S    0.000000  -0.000105   0.247224  -0.300383  -0.210771
   37  O  3  S    0.000000   0.000507   0.296954  -0.362981  -0.327641
   38  O  3  X    0.000000  -0.000192  -0.091985   0.079532  -0.110191
   39  O  3  Y    0.000024   0.000000   0.000000   0.000000   0.000000
   40  O  3  Z    0.000000  -0.000086  -0.049033   0.050066  -0.074352
   41  O  3  X    0.000000  -0.000256  -0.042819   0.032639  -0.052151
   42  O  3  Y   -0.000061   0.000000   0.000000   0.000000   0.000000
   43  O  3  Z    0.000000  -0.000238  -0.020685   0.023044  -0.030302
   44  O  3 XX    0.000000   0.000232   0.009768  -0.004160   0.004821
   45  O  3 YY    0.000000  -0.000177  -0.005578   0.002523  -0.005573
   46  O  3 ZZ    0.000000  -0.000056  -0.004191   0.001638   0.000752
   47  O  3 XY   -0.000028   0.000000   0.000000   0.000000   0.000000
   48  O  3 XZ    0.000000   0.000278   0.010018  -0.007780   0.007021
   49  O  3 YZ   -0.000028   0.000000   0.000000   0.000000   0.000000

                     11         12         13         14         15
                   -0.4365    -0.4167    -0.4153    -0.3192    -0.2995
                     B1         B2         A1         A2         B1  
    1  S  1  S    0.000000   0.000000  -0.009108   0.000000   0.000000
    2  S  1  S    0.000000   0.000000   0.047207   0.000000   0.000000
    3  S  1  S    0.000000   0.000000  -0.029201   0.000000   0.000000
    4  S  1  S    0.000000   0.000000  -0.224880   0.000000   0.000000
    5  S  1  X   -0.175863   0.000000   0.000000   0.000000  -0.015592
    6  S  1  Y    0.000000  -0.207451   0.000000   0.000000   0.000000
    7  S  1  Z    0.000000   0.000000  -0.203426   0.000000   0.000000
    8  S  1  X    0.418265   0.000000   0.000000   0.000000   0.030340
    9  S  1  Y    0.000000   0.487083   0.000000   0.000000   0.000000
   10  S  1  Z    0.000000   0.000000   0.476455   0.000000   0.000000
   11  S  1  X    0.090740   0.000000   0.000000   0.000000   0.126646
   12  S  1  Y    0.000000   0.286113   0.000000   0.000000   0.000000
   13  S  1  Z    0.000000   0.000000   0.227473   0.000000   0.000000
   14  S  1 XX    0.000000   0.000000  -0.027420   0.000000   0.000000
   15  S  1 YY    0.000000   0.000000  -0.019442   0.000000   0.000000
   16  S  1 ZZ    0.000000   0.000000   0.046862   0.000000   0.000000
   17  S  1 XY    0.000000   0.000000   0.000000  -0.105889   0.000000
   18  S  1 XZ    0.041345   0.000000   0.000000   0.000000  -0.095365
   19  S  1 YZ    0.000000   0.042092   0.000000   0.000000   0.000000
   20  O  2  S   -0.062964   0.000000   0.027164   0.000000  -0.001305
   21  O  2  S    0.126679   0.000000  -0.055216   0.000000   0.000939
   22  O  2  S    0.234156   0.000000  -0.100474   0.000000   0.038770
   23  O  2  X   -0.280643   0.000000   0.286948   0.000000   0.332535
   24  O  2  Y    0.000000   0.295628   0.000000   0.467879   0.000000
   25  O  2  Z    0.233172   0.000000   0.111545   0.000000   0.335527
   26  O  2  X   -0.159196   0.000000   0.184467   0.000000   0.230191
   27  O  2  Y    0.000000   0.178585   0.000000   0.333229   0.000000
   28  O  2  Z    0.140736   0.000000   0.068848   0.000000   0.230108
   29  O  2 XX   -0.003936   0.000000   0.018474   0.000000   0.013786
   30  O  2 YY    0.007606   0.000000  -0.005416   0.000000   0.000238
   31  O  2 ZZ   -0.003670   0.000000  -0.013058   0.000000  -0.014024
   32  O  2 XY    0.000000   0.017408   0.000000   0.015722   0.000000
   33  O  2 XZ    0.013064   0.000000   0.001607   0.000000   0.007306
   34  O  2 YZ    0.000000  -0.009579   0.000000  -0.010042   0.000000
   35  O  3  S    0.062964   0.000000   0.027164   0.000000   0.001305
   36  O  3  S   -0.126679   0.000000  -0.055216   0.000000  -0.000939
   37  O  3  S   -0.234156   0.000000  -0.100474   0.000000  -0.038770
   38  O  3  X   -0.280643   0.000000  -0.286948   0.000000   0.332535
   39  O  3  Y    0.000000   0.295628   0.000000  -0.467879   0.000000
   40  O  3  Z   -0.233172   0.000000   0.111545   0.000000  -0.335527
   41  O  3  X   -0.159196   0.000000  -0.184467   0.000000   0.230191
   42  O  3  Y    0.000000   0.178585   0.000000  -0.333229   0.000000
   43  O  3  Z   -0.140736   0.000000   0.068848   0.000000  -0.230108
   44  O  3 XX    0.003936   0.000000   0.018474   0.000000  -0.013786
   45  O  3 YY   -0.007606   0.000000  -0.005416   0.000000  -0.000238
   46  O  3 ZZ    0.003670   0.000000  -0.013058   0.000000   0.014024
   47  O  3 XY    0.000000  -0.017408   0.000000   0.015722   0.000000
   48  O  3 XZ    0.013064   0.000000  -0.001607   0.000000   0.007306
   49  O  3 YZ    0.000000  -0.009579   0.000000   0.010042   0.000000

                     16         17         18         19         20
                   -0.2871    -0.1983    -0.0584    -0.0067     0.3536
                     A1         B2         A1         B1         A1  
    1  S  1  S    0.017579   0.000000   0.028431   0.000000  -0.002621
    2  S  1  S   -0.083539   0.000000  -0.104835   0.000000  -0.054265
    3  S  1  S    0.070425   0.000000   0.163093   0.000000  -0.093818
    4  S  1  S    0.421909   0.000000   0.643109   0.000000   0.420000
    5  S  1  X    0.000000   0.000000   0.000000  -0.193714   0.000000
    6  S  1  Y    0.000000  -0.206342   0.000000   0.000000   0.000000
    7  S  1  Z    0.085322   0.000000  -0.178783   0.000000   0.277135
    8  S  1  X    0.000000   0.000000   0.000000   0.497029   0.000000
    9  S  1  Y    0.000000   0.519255   0.000000   0.000000   0.000000
   10  S  1  Z   -0.206962   0.000000   0.466951   0.000000  -1.059158
   11  S  1  X    0.000000   0.000000   0.000000   0.981205   0.000000
   12  S  1  Y    0.000000   0.423874   0.000000   0.000000   0.000000
   13  S  1  Z   -0.061629   0.000000   0.655560   0.000000   1.362428
   14  S  1 XX   -0.130388   0.000000  -0.124542   0.000000   0.177882
   15  S  1 YY    0.050984   0.000000   0.150299   0.000000   0.079520
   16  S  1 ZZ    0.079404   0.000000  -0.025756   0.000000  -0.257402
   17  S  1 XY    0.000000   0.000000   0.000000   0.000000   0.000000
   18  S  1 XZ    0.000000   0.000000   0.000000  -0.197467   0.000000
   19  S  1 YZ    0.000000  -0.053251   0.000000   0.000000   0.000000
   20  O  2  S   -0.001437   0.000000   0.042784  -0.049009   0.012693
   21  O  2  S    0.003180   0.000000  -0.082245   0.081840   0.015305
   22  O  2  S   -0.029796   0.000000  -0.343619   0.478461  -0.353343
   23  O  2  X   -0.058961   0.000000  -0.385314   0.128709   0.123515
   24  O  2  Y    0.000000  -0.391755   0.000000   0.000000   0.000000
   25  O  2  Z    0.443713   0.000000  -0.019548  -0.288241  -0.069109
   26  O  2  X   -0.044952   0.000000  -0.383379   0.176052  -0.185822
   27  O  2  Y    0.000000  -0.316013   0.000000   0.000000   0.000000
   28  O  2  Z    0.325323   0.000000  -0.012176  -0.288561  -0.038047
   29  O  2 XX    0.003563   0.000000   0.002230   0.004795  -0.038989
   30  O  2 YY    0.003858   0.000000   0.003257   0.001689   0.018122
   31  O  2 ZZ   -0.007421   0.000000  -0.005487  -0.006484   0.020867
   32  O  2 XY    0.000000  -0.002377   0.000000   0.000000   0.000000
   33  O  2 XZ    0.011358   0.000000   0.003913   0.002485   0.005516
   34  O  2 YZ    0.000000   0.000416   0.000000   0.000000   0.000000
   35  O  3  S   -0.001437   0.000000   0.042784   0.049009   0.012693
   36  O  3  S    0.003180   0.000000  -0.082245  -0.081840   0.015305
   37  O  3  S   -0.029796   0.000000  -0.343619  -0.478461  -0.353343
   38  O  3  X    0.058961   0.000000   0.385314   0.128709  -0.123515
   39  O  3  Y    0.000000  -0.391755   0.000000   0.000000   0.000000
   40  O  3  Z    0.443713   0.000000  -0.019548   0.288241  -0.069109
   41  O  3  X    0.044952   0.000000   0.383379   0.176052   0.185822
   42  O  3  Y    0.000000  -0.316013   0.000000   0.000000   0.000000
   43  O  3  Z    0.325323   0.000000  -0.012176   0.288561  -0.038047
   44  O  3 XX    0.003563   0.000000   0.002230  -0.004795  -0.038989
   45  O  3 YY    0.003858   0.000000   0.003257  -0.001689   0.018122
   46  O  3 ZZ   -0.007421   0.000000  -0.005487   0.006484   0.020867
   47  O  3 XY    0.000000   0.002377   0.000000   0.000000   0.000000
   48  O  3 XZ   -0.011358   0.000000  -0.003913   0.002485  -0.005516
   49  O  3 YZ    0.000000   0.000416   0.000000   0.000000   0.000000

                     21         22         23         24         25
                    0.3555     0.3653     0.3940     0.5006     0.5054
                     B2         B1         A1         A2         B2  
    1  S  1  S    0.000000   0.000000  -0.113681   0.000000   0.000000
    2  S  1  S    0.000000   0.000000  -0.406575   0.000000   0.000000
    3  S  1  S    0.000000   0.000000  -1.748075   0.000000   0.000000
    4  S  1  S    0.000000   0.000000   2.193480   0.000000   0.000000
    5  S  1  X    0.000000   0.292709   0.000000   0.000000   0.000000
    6  S  1  Y    0.285909   0.000000   0.000000   0.000000   0.065249
    7  S  1  Z    0.000000   0.000000  -0.025439   0.000000   0.000000
    8  S  1  X    0.000000  -1.094779   0.000000   0.000000   0.000000
    9  S  1  Y   -1.108920   0.000000   0.000000   0.000000  -0.257579
   10  S  1  Z    0.000000   0.000000   0.100732   0.000000   0.000000
   11  S  1  X    0.000000   1.523145   0.000000   0.000000   0.000000
   12  S  1  Y    1.240257   0.000000   0.000000   0.000000   0.235087
   13  S  1  Z    0.000000   0.000000   0.148526   0.000000   0.000000
   14  S  1 XX    0.000000   0.000000  -0.165160   0.000000   0.000000
   15  S  1 YY    0.000000   0.000000   0.193057   0.000000   0.000000
   16  S  1 ZZ    0.000000   0.000000  -0.027897   0.000000   0.000000
   17  S  1 XY    0.000000   0.000000   0.000000   0.878643   0.000000
   18  S  1 XZ    0.000000   0.111567   0.000000   0.000000   0.000000
   19  S  1 YZ   -0.220096   0.000000   0.000000   0.000000   0.914113
   20  O  2  S    0.000000  -0.012080   0.016604   0.000000   0.000000
   21  O  2  S    0.000000  -0.038674  -0.038247   0.000000   0.000000
   22  O  2  S    0.000000   0.517997  -0.322515   0.000000   0.000000
   23  O  2  X    0.000000  -0.248136   0.091779   0.000000   0.000000
   24  O  2  Y   -0.044361   0.000000   0.000000   0.335944  -0.247312
   25  O  2  Z    0.000000   0.083558  -0.122135   0.000000   0.000000
   26  O  2  X    0.000000   0.078703  -0.163078   0.000000   0.000000
   27  O  2  Y   -0.116538   0.000000   0.000000  -0.126638   0.091155
   28  O  2  Z    0.000000  -0.122212   0.088031   0.000000   0.000000
   29  O  2 XX    0.000000   0.022248  -0.028072   0.000000   0.000000
   30  O  2 YY    0.000000  -0.024803   0.031041   0.000000   0.000000
   31  O  2 ZZ    0.000000   0.002555  -0.002969   0.000000   0.000000
   32  O  2 XY   -0.024421   0.000000   0.000000  -0.044435   0.037108
   33  O  2 XZ    0.000000  -0.041353   0.042489   0.000000   0.000000
   34  O  2 YZ    0.008695   0.000000   0.000000   0.039978   0.004345
   35  O  3  S    0.000000   0.012080   0.016604   0.000000   0.000000
   36  O  3  S    0.000000   0.038674  -0.038247   0.000000   0.000000
   37  O  3  S    0.000000  -0.517997  -0.322515   0.000000   0.000000
   38  O  3  X    0.000000  -0.248136  -0.091779   0.000000   0.000000
   39  O  3  Y   -0.044361   0.000000   0.000000  -0.335944  -0.247312
   40  O  3  Z    0.000000  -0.083558  -0.122135   0.000000   0.000000
   41  O  3  X    0.000000   0.078703   0.163078   0.000000   0.000000
   42  O  3  Y   -0.116538   0.000000   0.000000   0.126638   0.091155
   43  O  3  Z    0.000000   0.122212   0.088031   0.000000   0.000000
   44  O  3 XX    0.000000  -0.022248  -0.028072   0.000000   0.000000
   45  O  3 YY    0.000000   0.024803   0.031041   0.000000   0.000000
   46  O  3 ZZ    0.000000  -0.002555  -0.002969   0.000000   0.000000
   47  O  3 XY    0.024421   0.000000   0.000000  -0.044435  -0.037108
   48  O  3 XZ    0.000000  -0.041353  -0.042489   0.000000   0.000000
   49  O  3 YZ    0.008695   0.000000   0.000000  -0.039978   0.004345

                     26         27         28         29         30
                    0.5133     0.6606     0.6700     0.7929     0.8153
                     A1         A1         B1         A2         A1  
    1  S  1  S   -0.003688  -0.008904   0.000000   0.000000   0.008136
    2  S  1  S   -0.026421  -0.129573   0.000000   0.000000   0.039797
    3  S  1  S   -0.073435  -0.249739   0.000000   0.000000   0.143476
    4  S  1  S    0.156144   1.405785   0.000000   0.000000  -0.024083
    5  S  1  X    0.000000   0.000000  -0.106730   0.000000   0.000000
    6  S  1  Y    0.000000   0.000000   0.000000   0.000000   0.000000
    7  S  1  Z    0.071725  -0.077340   0.000000   0.000000  -0.037018
    8  S  1  X    0.000000   0.000000   0.518584   0.000000   0.000000
    9  S  1  Y    0.000000   0.000000   0.000000   0.000000   0.000000
   10  S  1  Z   -0.283802   0.356249   0.000000   0.000000   0.189776
   11  S  1  X    0.000000   0.000000   0.497381   0.000000   0.000000
   12  S  1  Y    0.000000   0.000000   0.000000   0.000000   0.000000
   13  S  1  Z    0.307411   0.338516   0.000000   0.000000  -0.573374
   14  S  1 XX   -0.253924   0.707790   0.000000   0.000000   0.392624
   15  S  1 YY   -0.587696  -0.674079   0.000000   0.000000   0.084136
   16  S  1 ZZ    0.841620  -0.033712   0.000000   0.000000  -0.476760
   17  S  1 XY    0.000000   0.000000   0.000000   0.495094   0.000000
   18  S  1 XZ    0.000000   0.000000   0.794995   0.000000   0.000000
   19  S  1 YZ    0.000000   0.000000   0.000000   0.000000   0.000000
   20  O  2  S    0.004333   0.063377  -0.061591   0.000000   0.000964
   21  O  2  S   -0.017667  -0.237968   0.224013   0.000000   0.039683
   22  O  2  S   -0.068279  -0.384801   0.329037   0.000000   0.015510
   23  O  2  X   -0.132551   0.271913  -0.119190   0.000000  -0.217084
   24  O  2  Y    0.000000   0.000000   0.000000  -0.561077   0.000000
   25  O  2  Z   -0.286974   0.028002   0.217217   0.000000  -0.495654
   26  O  2  X    0.033162  -0.847546   0.693461   0.000000   0.264105
   27  O  2  Y    0.000000   0.000000   0.000000   0.772151   0.000000
   28  O  2  Z    0.119728   0.306606  -0.525763   0.000000   0.807951
   29  O  2 XX    0.026361  -0.008744  -0.035113   0.000000  -0.029978
   30  O  2 YY   -0.010795  -0.013972   0.007814   0.000000  -0.010534
   31  O  2 ZZ   -0.015566   0.022716   0.027299   0.000000   0.040512
   32  O  2 XY    0.000000   0.000000   0.000000  -0.046520   0.000000
   33  O  2 XZ    0.036516  -0.010965   0.010795   0.000000  -0.051375
   34  O  2 YZ    0.000000   0.000000   0.000000   0.033968   0.000000
   35  O  3  S    0.004333   0.063377   0.061591   0.000000   0.000964
   36  O  3  S   -0.017667  -0.237968  -0.224013   0.000000   0.039683
   37  O  3  S   -0.068279  -0.384801  -0.329037   0.000000   0.015510
   38  O  3  X    0.132551  -0.271913  -0.119190   0.000000   0.217084
   39  O  3  Y    0.000000   0.000000   0.000000   0.561077   0.000000
   40  O  3  Z   -0.286974   0.028002  -0.217217   0.000000  -0.495654
   41  O  3  X   -0.033162   0.847546   0.693461   0.000000  -0.264105
   42  O  3  Y    0.000000   0.000000   0.000000  -0.772151   0.000000
   43  O  3  Z    0.119728   0.306606   0.525763   0.000000   0.807951
   44  O  3 XX    0.026361  -0.008744   0.035113   0.000000  -0.029978
   45  O  3 YY   -0.010795  -0.013972  -0.007814   0.000000  -0.010534
   46  O  3 ZZ   -0.015566   0.022716  -0.027299   0.000000   0.040512
   47  O  3 XY    0.000000   0.000000   0.000000  -0.046520   0.000000
   48  O  3 XZ   -0.036516   0.010965   0.010795   0.000000   0.051375
   49  O  3 YZ    0.000000   0.000000   0.000000  -0.033968   0.000000

                     31         32         33         34         35
                    0.8373     0.8398     0.8549     0.9203     1.5731
                     B1         B2         A1         B1         B1  
    1  S  1  S    0.000000   0.000000   0.034852   0.000000   0.000000
    2  S  1  S    0.000000   0.000000   0.204138   0.000000   0.000000
    3  S  1  S    0.000000   0.000000   0.656426   0.000000   0.000000
    4  S  1  S    0.000000   0.000000  -0.430709   0.000000   0.000000
    5  S  1  X   -0.023409   0.000000   0.000000   0.013761  -0.027409
    6  S  1  Y    0.000000  -0.026652   0.000000   0.000000   0.000000
    7  S  1  Z    0.000000   0.000000   0.002992   0.000000   0.000000
    8  S  1  X    0.117182   0.000000   0.000000  -0.267458   0.212381
    9  S  1  Y    0.000000   0.126609   0.000000   0.000000   0.000000
   10  S  1  Z    0.000000   0.000000   0.107555   0.000000   0.000000
   11  S  1  X   -0.341808   0.000000   0.000000   0.478270   1.145266
   12  S  1  Y    0.000000  -0.646869   0.000000   0.000000   0.000000
   13  S  1  Z    0.000000   0.000000  -0.131402   0.000000   0.000000
   14  S  1 XX    0.000000   0.000000  -0.610812   0.000000   0.000000
   15  S  1 YY    0.000000   0.000000   0.483279   0.000000   0.000000
   16  S  1 ZZ    0.000000   0.000000   0.127533   0.000000   0.000000
   17  S  1 XY    0.000000   0.000000   0.000000   0.000000   0.000000
   18  S  1 XZ    0.276528   0.000000   0.000000   0.692644   0.335092
   19  S  1 YZ    0.000000  -0.354949   0.000000   0.000000   0.000000
   20  O  2  S   -0.000432   0.000000  -0.013687  -0.019022   0.007454
   21  O  2  S   -0.038525   0.000000   0.067935   0.046928  -1.189257
   22  O  2  S   -0.017983   0.000000   0.110804   0.238420   1.813564
   23  O  2  X   -0.281769   0.000000   0.489492   0.560644  -0.003236
   24  O  2  Y    0.000000  -0.593566   0.000000   0.000000   0.000000
   25  O  2  Z   -0.549487   0.000000  -0.298749  -0.215140   0.080366
   26  O  2  X    0.466776   0.000000  -0.487086  -0.492729   0.362313
   27  O  2  Y    0.000000   0.895642   0.000000   0.000000   0.000000
   28  O  2  Z    0.685540   0.000000   0.231885   0.180039  -0.429581
   29  O  2 XX   -0.039119   0.000000   0.054435  -0.015555  -0.092672
   30  O  2 YY    0.011392   0.000000  -0.005578  -0.025118   0.092409
   31  O  2 ZZ    0.027727   0.000000  -0.048857   0.040673   0.000263
   32  O  2 XY    0.000000  -0.044452   0.000000   0.000000   0.000000
   33  O  2 XZ   -0.005084   0.000000  -0.015766  -0.027198   0.156838
   34  O  2 YZ    0.000000   0.014670   0.000000   0.000000   0.000000
   35  O  3  S    0.000432   0.000000  -0.013687   0.019022  -0.007454
   36  O  3  S    0.038525   0.000000   0.067935  -0.046928   1.189257
   37  O  3  S    0.017983   0.000000   0.110804  -0.238420  -1.813564
   38  O  3  X   -0.281769   0.000000  -0.489492   0.560644  -0.003236
   39  O  3  Y    0.000000  -0.593566   0.000000   0.000000   0.000000
   40  O  3  Z    0.549487   0.000000  -0.298749   0.215140  -0.080366
   41  O  3  X    0.466776   0.000000   0.487086  -0.492729   0.362313
   42  O  3  Y    0.000000   0.895642   0.000000   0.000000   0.000000
   43  O  3  Z   -0.685540   0.000000   0.231885  -0.180039   0.429581
   44  O  3 XX    0.039119   0.000000   0.054435   0.015555   0.092672
   45  O  3 YY   -0.011392   0.000000  -0.005578   0.025118  -0.092409
   46  O  3 ZZ   -0.027727   0.000000  -0.048857  -0.040673  -0.000263
   47  O  3 XY    0.000000   0.044452   0.000000   0.000000   0.000000
   48  O  3 XZ   -0.005084   0.000000   0.015766  -0.027198   0.156838
   49  O  3 YZ    0.000000   0.014670   0.000000   0.000000   0.000000

                     36         37         38         39         40
                    1.6763     2.0750     2.0758     2.0788     2.0869
                     A1         A2         B1         B2         A1  
    1  S  1  S   -0.026676   0.000000   0.000000   0.000000  -0.001823
    2  S  1  S   -0.263372   0.000000   0.000000   0.000000  -0.006782
    3  S  1  S   -0.606633   0.000000   0.000000   0.000000  -0.029693
    4  S  1  S    2.078396   0.000000   0.000000   0.000000   0.015313
    5  S  1  X    0.000000   0.000000  -0.003199   0.000000   0.000000
    6  S  1  Y    0.000000   0.000000   0.000000  -0.012738   0.000000
    7  S  1  Z   -0.015845   0.000000   0.000000   0.000000   0.004121
    8  S  1  X    0.000000   0.000000   0.001742   0.000000   0.000000
    9  S  1  Y    0.000000   0.000000   0.000000   0.036110   0.000000
   10  S  1  Z    0.121799   0.000000   0.000000   0.000000  -0.018749
   11  S  1  X    0.000000   0.000000   0.058059   0.000000   0.000000
   12  S  1  Y    0.000000   0.000000   0.000000   0.035731   0.000000
   13  S  1  Z    0.831458   0.000000   0.000000   0.000000   0.003833
   14  S  1 XX    0.311963   0.000000   0.000000   0.000000   0.034322
   15  S  1 YY   -0.306659   0.000000   0.000000   0.000000  -0.074983
   16  S  1 ZZ   -0.005304   0.000000   0.000000   0.000000   0.040662
   17  S  1 XY    0.000000   0.028013   0.000000   0.000000   0.000000
   18  S  1 XZ    0.000000   0.000000  -0.031288   0.000000   0.000000
   19  S  1 YZ    0.000000   0.000000   0.000000  -0.007314   0.000000
   20  O  2  S    0.000387   0.000000   0.000366   0.000000   0.001567
   21  O  2  S    1.167682   0.000000  -0.020108   0.000000  -0.015491
   22  O  2  S   -1.888949   0.000000   0.037331   0.000000   0.004329
   23  O  2  X    0.057581   0.000000   0.015368   0.000000  -0.017996
   24  O  2  Y    0.000000  -0.008813   0.000000   0.017185   0.000000
   25  O  2  Z    0.035747   0.000000   0.018897   0.000000   0.004179
   26  O  2  X   -0.661389   0.000000  -0.023544   0.000000   0.016817
   27  O  2  Y    0.000000   0.013570   0.000000  -0.029335   0.000000
   28  O  2  Z    0.143285   0.000000  -0.032065   0.000000  -0.001705
   29  O  2 XX    0.194279   0.000000  -0.330599   0.000000  -0.112684
   30  O  2 YY   -0.124111   0.000000   0.587275   0.000000   0.598307
   31  O  2 ZZ   -0.070167   0.000000  -0.256676   0.000000  -0.485623
   32  O  2 XY    0.000000   0.468313   0.000000   0.152300   0.000000
   33  O  2 XZ   -0.133485   0.000000  -0.392349   0.000000  -0.309094
   34  O  2 YZ    0.000000   0.530044   0.000000   0.691145   0.000000
   35  O  3  S    0.000387   0.000000  -0.000366   0.000000   0.001567
   36  O  3  S    1.167682   0.000000   0.020108   0.000000  -0.015491
   37  O  3  S   -1.888949   0.000000  -0.037331   0.000000   0.004329
   38  O  3  X   -0.057581   0.000000   0.015368   0.000000   0.017996
   39  O  3  Y    0.000000   0.008813   0.000000   0.017185   0.000000
   40  O  3  Z    0.035747   0.000000  -0.018897   0.000000   0.004179
   41  O  3  X    0.661389   0.000000  -0.023544   0.000000  -0.016817
   42  O  3  Y    0.000000  -0.013570   0.000000  -0.029335   0.000000
   43  O  3  Z    0.143285   0.000000   0.032065   0.000000  -0.001705
   44  O  3 XX    0.194279   0.000000   0.330599   0.000000  -0.112684
   45  O  3 YY   -0.124111   0.000000  -0.587275   0.000000   0.598307
   46  O  3 ZZ   -0.070167   0.000000   0.256676   0.000000  -0.485623
   47  O  3 XY    0.000000   0.468313   0.000000  -0.152300   0.000000
   48  O  3 XZ    0.133485   0.000000  -0.392349   0.000000   0.309094
   49  O  3 YZ    0.000000  -0.530044   0.000000   0.691145   0.000000

                     41         42         43         44         45
                    2.1117     2.1605     2.2114     2.2958     2.6171
                     B1         B2         A2         A1         A1  
    1  S  1  S    0.000000   0.000000   0.000000   0.000633   0.027179
    2  S  1  S    0.000000   0.000000   0.000000   0.042742  -0.100446
    3  S  1  S    0.000000   0.000000   0.000000   0.054984   0.204084
    4  S  1  S    0.000000   0.000000   0.000000  -0.388785   1.220988
    5  S  1  X   -0.034032   0.000000   0.000000   0.000000   0.000000
    6  S  1  Y    0.000000   0.038611   0.000000   0.000000   0.000000
    7  S  1  Z    0.000000   0.000000   0.000000   0.045185  -0.105092
    8  S  1  X    0.135680   0.000000   0.000000   0.000000   0.000000
    9  S  1  Y    0.000000  -0.104384   0.000000   0.000000   0.000000
   10  S  1  Z    0.000000   0.000000   0.000000  -0.150159   0.503400
   11  S  1  X    0.121404   0.000000   0.000000   0.000000   0.000000
   12  S  1  Y    0.000000  -0.155830   0.000000   0.000000   0.000000
   13  S  1  Z    0.000000   0.000000   0.000000  -0.309231   0.313106
   14  S  1 XX    0.000000   0.000000   0.000000   0.258233   0.561012
   15  S  1 YY    0.000000   0.000000   0.000000   0.080638  -0.433472
   16  S  1 ZZ    0.000000   0.000000   0.000000  -0.338871  -0.127540
   17  S  1 XY    0.000000   0.000000   0.373203   0.000000   0.000000
   18  S  1 XZ   -0.165866   0.000000   0.000000   0.000000   0.000000
   19  S  1 YZ    0.000000  -0.237399   0.000000   0.000000   0.000000
   20  O  2  S    0.001253   0.000000   0.000000  -0.001193   0.022294
   21  O  2  S   -0.124932   0.000000   0.000000  -0.220315   0.627031
   22  O  2  S    0.176062   0.000000   0.000000   0.374843  -1.190563
   23  O  2  X   -0.013448   0.000000   0.000000  -0.066003   0.050705
   24  O  2  Y    0.000000  -0.059289  -0.040922   0.000000   0.000000
   25  O  2  Z    0.061445   0.000000   0.000000  -0.031012  -0.020420
   26  O  2  X    0.026359   0.000000   0.000000   0.230446  -0.609943
   27  O  2  Y    0.000000   0.137203   0.107044   0.000000   0.000000
   28  O  2  Z   -0.112343   0.000000   0.000000   0.092759   0.323214
   29  O  2 XX   -0.419983   0.000000   0.000000   0.580981  -0.410152
   30  O  2 YY   -0.225200   0.000000   0.000000  -0.055830   0.397988
   31  O  2 ZZ    0.645183   0.000000   0.000000  -0.525151   0.012164
   32  O  2 XY    0.000000   0.701793   0.544276   0.000000   0.000000
   33  O  2 XZ   -0.275560   0.000000   0.000000   0.337638   0.599356
   34  O  2 YZ    0.000000  -0.160130  -0.475933   0.000000   0.000000
   35  O  3  S   -0.001253   0.000000   0.000000  -0.001193   0.022294
   36  O  3  S    0.124932   0.000000   0.000000  -0.220315   0.627031
   37  O  3  S   -0.176062   0.000000   0.000000   0.374843  -1.190563
   38  O  3  X   -0.013448   0.000000   0.000000   0.066003  -0.050705
   39  O  3  Y    0.000000  -0.059289   0.040922   0.000000   0.000000
   40  O  3  Z   -0.061445   0.000000   0.000000  -0.031012  -0.020420
   41  O  3  X    0.026359   0.000000   0.000000  -0.230446   0.609943
   42  O  3  Y    0.000000   0.137203  -0.107044   0.000000   0.000000
   43  O  3  Z    0.112343   0.000000   0.000000   0.092759   0.323214
   44  O  3 XX    0.419983   0.000000   0.000000   0.580981  -0.410152
   45  O  3 YY    0.225200   0.000000   0.000000  -0.055830   0.397988
   46  O  3 ZZ   -0.645183   0.000000   0.000000  -0.525151   0.012164
   47  O  3 XY    0.000000  -0.701793   0.544276   0.000000   0.000000
   48  O  3 XZ   -0.275560   0.000000   0.000000  -0.337638  -0.599356
   49  O  3 YZ    0.000000  -0.160130   0.475933   0.000000   0.000000

                     46
                    2.6916
                     B1  
    1  S  1  S    0.000000
    2  S  1  S    0.000000
    3  S  1  S    0.000000
    4  S  1  S    0.000000
    5  S  1  X   -0.184968
    6  S  1  Y    0.000000
    7  S  1  Z    0.000000
    8  S  1  X    0.861674
    9  S  1  Y    0.000000
   10  S  1  Z    0.000000
   11  S  1  X    0.405923
   12  S  1  Y    0.000000
   13  S  1  Z    0.000000
   14  S  1 XX    0.000000
   15  S  1 YY    0.000000
   16  S  1 ZZ    0.000000
   17  S  1 XY    0.000000
   18  S  1 XZ    0.625768
   19  S  1 YZ    0.000000
   20  O  2  S   -0.023673
   21  O  2  S   -0.516701
   22  O  2  S    1.007578
   23  O  2  X   -0.009538
   24  O  2  Y    0.000000
   25  O  2  Z    0.012204
   26  O  2  X    0.512767
   27  O  2  Y    0.000000
   28  O  2  Z   -0.313716
   29  O  2 XX    0.534086
   30  O  2 YY   -0.362733
   31  O  2 ZZ   -0.171354
   32  O  2 XY    0.000000
   33  O  2 XZ   -0.572955
   34  O  2 YZ    0.000000
   35  O  3  S    0.023673
   36  O  3  S    0.516701
   37  O  3  S   -1.007578
   38  O  3  X   -0.009538
   39  O  3  Y    0.000000
   40  O  3  Z   -0.012204
   41  O  3  X    0.512767
   42  O  3  Y    0.000000
   43  O  3  Z    0.313716
   44  O  3 XX   -0.534086
   45  O  3 YY    0.362733
   46  O  3 ZZ    0.171354
   47  O  3 XY    0.000000
   48  O  3 XZ   -0.572955
   49  O  3 YZ    0.000000
 ...... END OF RHF CALCULATION ......
 STEP CPU TIME =     4.31 TOTAL CPU TIME =        4.5 (    0.1 MIN)
 TOTAL WALL CLOCK TIME=        4.5 SECONDS, CPU UTILIZATION IS  99.78%

     ---------------------------------------------------------------------
     PROPERTIES FOR THE PBE      DFT FUNCTIONAL (RHF  TYPE) DENSITY MATRIX
     ---------------------------------------------------------------------

          -----------------
          ENERGY COMPONENTS
          -----------------

         WAVEFUNCTION NORMALIZATION =       1.0000000000

                ONE ELECTRON ENERGY =    -948.2036163292
                TWO ELECTRON ENERGY =     303.0678201432
           NUCLEAR REPULSION ENERGY =      96.8891849703
                                      ------------------
                       TOTAL ENERGY =    -548.2466112157

 ELECTRON-ELECTRON POTENTIAL ENERGY =     303.0678201432
  NUCLEUS-ELECTRON POTENTIAL ENERGY =   -1495.3097690558
   NUCLEUS-NUCLEUS POTENTIAL ENERGY =      96.8891849703
                                      ------------------
             TOTAL POTENTIAL ENERGY =   -1095.3527639422
               TOTAL KINETIC ENERGY =     547.1061527265
                 VIRIAL RATIO (V/T) =       2.0020845287

          ---------------------------------------
          MULLIKEN AND LOWDIN POPULATION ANALYSES
          ---------------------------------------

     ATOMIC MULLIKEN POPULATION IN EACH MOLECULAR ORBITAL

                      1          2          3          4          5

                  2.000000   2.000000   2.000000   2.000000   2.000000

    1             2.000008   0.001290   0.001002   2.000650   1.999902
    2            -0.000004   0.999355   0.999499  -0.000325   0.000049
    3            -0.000004   0.999355   0.999499  -0.000325   0.000049

                      6          7          8          9         10

                  2.000000   2.000000   2.000000   2.000000   2.000000

    1             2.000005   1.999909   0.633781   0.279608   1.086877
    2            -0.000002   0.000046   0.683110   0.860196   0.456562
    3            -0.000002   0.000046   0.683110   0.860196   0.456562

                     11         12         13         14         15

                  2.000000   2.000000   2.000000   2.000000   2.000000

    1             0.485323   1.109405   0.998355   0.066887   0.113962
    2             0.757339   0.445297   0.500823   0.966556   0.943019
    3             0.757339   0.445297   0.500823   0.966556   0.943019

                     16

                  2.000000

    1             0.385212
    2             0.807394
    3             0.807394

               ----- POPULATIONS IN EACH AO -----
                             MULLIKEN      LOWDIN
              1  S  1  S      2.00022     1.99591
              2  S  1  S      2.01006     1.97051
              3  S  1  S      0.99130     0.61368
              4  S  1  S      0.85185     0.54421
              5  S  1  X      1.99637     1.95295
              6  S  1  Y      1.99619     1.95519
              7  S  1  Z      1.99692     1.96020
              8  S  1  X      0.65635     0.59372
              9  S  1  Y      0.66742     0.63574
             10  S  1  Z      0.79738     0.76816
             11  S  1  X      0.13017     0.27708
             12  S  1  Y      0.43633     0.48647
             13  S  1  Z      0.32103     0.44381
             14  S  1 XX      0.05117     0.27474
             15  S  1 YY      0.08616     0.25942
             16  S  1 ZZ      0.06689     0.26570
             17  S  1 XY      0.09691     0.07898
             18  S  1 XZ      0.00947     0.12014
             19  S  1 YZ      0.00000     0.00909
             20  O  2  S      1.99804     1.98091
             21  O  2  S      0.84438     0.66081
             22  O  2  S      1.08777     0.58012
             23  O  2  X      0.86344     0.82157
             24  O  2  Y      0.84124     0.80669
             25  O  2  Z      1.05765     1.02666
             26  O  2  X      0.49769     0.58283
             27  O  2  Y      0.56590     0.60469
             28  O  2  Z      0.64658     0.69875
             29  O  2 XX      0.00253     0.20887
             30  O  2 YY      0.00405     0.20819
             31  O  2 ZZ      0.00352     0.20345
             32  O  2 XY      0.00493     0.00442
             33  O  2 XZ      0.00120     0.00772
             34  O  2 YZ      0.00000     0.00146
             35  O  3  S      1.99804     1.98091
             36  O  3  S      0.84438     0.66081
             37  O  3  S      1.08777     0.58012
             38  O  3  X      0.86344     0.82157
             39  O  3  Y      0.84124     0.80669
             40  O  3  Z      1.05765     1.02666
             41  O  3  X      0.49769     0.58283
             42  O  3  Y      0.56590     0.60469
             43  O  3  Z      0.64658     0.69875
             44  O  3 XX      0.00253     0.20887
             45  O  3 YY      0.00405     0.20819
             46  O  3 ZZ      0.00352     0.20345
             47  O  3 XY      0.00493     0.00442
             48  O  3 XZ      0.00120     0.00772
             49  O  3 YZ      0.00000     0.00146

          ----- MULLIKEN ATOMIC OVERLAP POPULATIONS -----
          (OFF-DIAGONAL ELEMENTS NEED TO BE MULTIPLIED BY 2)

             1           2           3

    1   14.6044409
    2    0.2788674   8.1643621
    3    0.2788674  -0.0243173   8.1643621

          TOTAL MULLIKEN AND LOWDIN ATOMIC POPULATIONS
       ATOM         MULL.POP.    CHARGE          LOW.POP.     CHARGE
    1 S            15.162176    0.837824        15.205687    0.794313
    2 O             8.418912   -0.418912         8.397157   -0.397157
    3 O             8.418912   -0.418912         8.397157   -0.397157

          MULLIKEN SPHERICAL HARMONIC POPULATIONS
       ATOM           S       P       D      F      G      H      I    TOTAL
    1 S             5.85    9.00    0.31   0.00   0.00   0.00   0.00   15.16
    2 O             3.93    4.47    0.02   0.00   0.00   0.00   0.00    8.42
    3 O             3.93    4.47    0.02   0.00   0.00   0.00   0.00    8.42

          -------------------------------
          BOND ORDER AND VALENCE ANALYSIS     BOND ORDER THRESHOLD=0.050
          -------------------------------

                   BOND                       BOND                       BOND
  ATOM PAIR DIST  ORDER      ATOM PAIR DIST  ORDER      ATOM PAIR DIST  ORDER
    1   2  1.600  1.714        1   3  1.600  1.714        2   3  2.771  0.377

                       TOTAL       BONDED        FREE
      ATOM            VALENCE     VALENCE     VALENCE
    1 S                 3.427       3.427       0.000
    2 O                 2.091       2.091       0.000
    3 O                 2.091       2.091       0.000

          ---------------------
          ELECTROSTATIC MOMENTS
          ---------------------

 POINT   1           X           Y           Z (BOHR)    CHARGE
                 0.000000    0.000000    0.000000        0.00 (A.U.)
         DX          DY          DZ         /D/  (DEBYE)
     0.000000    0.000000   -2.010273    2.010273
 ...... END OF PROPERTY EVALUATION ......
 STEP CPU TIME =     0.01 TOTAL CPU TIME =        4.5 (    0.1 MIN)
 TOTAL WALL CLOCK TIME=        4.5 SECONDS, CPU UTILIZATION IS 100.00%
               580000  WORDS OF DYNAMIC MEMORY USED
 EXECUTION OF GAMESS TERMINATED NORMALLY Thu Feb 26 00:18:08 2015
 DDI: 263624 bytes (0.3 MB / 0 MWords) used by master data server.

 ----------------------------------------
 CPU timing information for all processes
 ========================================
 0: 4.474 + 0.24 = 4.499
 ----------------------------------------
 ddikick.x: exited gracefully.
----- accounting info -----
Files used on the master node dftfe.crc.nd.edu were:
-rw-r--r-- 1 pmehta1 campus   37475 Feb 26 00:18 /tmp/gamess.dat
-rw-r--r-- 1 pmehta1 campus     142 Feb 26 00:18 /tmp/gamess.F05
-rw-r--r-- 1 pmehta1 campus 2160288 Feb 26 00:18 /tmp/gamess.F08
-rw-r--r-- 1 pmehta1 campus 1220440 Feb 26 00:18 /tmp/gamess.F10
Thu Feb 26 00:18:11 EST 2015
0.251u 0.173s 0:07.93 5.2%	0+0k 0+104io 0pf+0w
