----- GAMESS execution script 'rungms' -----
This job is running on host dftfe.crc.nd.edu
under operating system Linux at Thu Feb 26 00:15:23 EST 2015
Available scratch disk space (Kbyte units) at beginning of the job is
Filesystem     1K-blocks     Used Available Use% Mounted on
/dev/sda2      147771864 22812316 117453116  17% /
GAMESS temporary binary files will be written to /tmp
GAMESS supplementary output files will be written to /tmp
Copying input file gamess.inp to your run's scratch directory...

 Distributed Data Interface kickoff program.
 Initiating 1 compute processes on 1 nodes to run the following command:
 /opt/crc/gamess/2012R1/gamess/gamess.00.x gamess 

          ******************************************************
          *         GAMESS VERSION =  1 MAY 2012 (R1)          *
          *             FROM IOWA STATE UNIVERSITY             *
          * M.W.SCHMIDT, K.K.BALDRIDGE, J.A.BOATZ, S.T.ELBERT, *
          *   M.S.GORDON, J.H.JENSEN, S.KOSEKI, N.MATSUNAGA,   *
          *          K.A.NGUYEN, S.J.SU, T.L.WINDUS,           *
          *       TOGETHER WITH M.DUPUIS, J.A.MONTGOMERY       *
          *         J.COMPUT.CHEM.  14, 1347-1363(1993)        *
          **************** 64 BIT LINUX VERSION ****************

  SINCE 1993, STUDENTS AND POSTDOCS WORKING AT IOWA STATE UNIVERSITY
  AND ALSO IN THEIR VARIOUS JOBS AFTER LEAVING ISU HAVE MADE IMPORTANT
  CONTRIBUTIONS TO THE CODE:
     IVANA ADAMOVIC, CHRISTINE AIKENS, YURI ALEXEEV, POOJA ARORA,
     ANDREY ASADCHEV, ROB BELL, PRADIPTA BANDYOPADHYAY, JONATHAN BENTZ,
     BRETT BODE, GALINA CHABAN, WEI CHEN, CHEOL HO CHOI, PAUL DAY,
     ALBERT DEFUSCO, TIM DUDLEY, DMITRI FEDOROV, GRAHAM FLETCHER,
     MARK FREITAG, KURT GLAESEMANN, DAN KEMP, GRANT MERRILL,
     NORIYUKI MINEZAWA, JONATHAN MULLIN, TAKESHI NAGATA,
     SEAN NEDD, HEATHER NETZLOFF, BOSILJKA NJEGIC, RYAN OLSON, MIKE PAK,
     JIM SHOEMAKER, LYUDMILA SLIPCHENKO, SAROM SOK, JIE SONG,
     TETSUYA TAKETSUGU, SIMON WEBB, SOOHAENG YOO, FEDERICO ZAHARIEV

  ADDITIONAL CODE HAS BEEN PROVIDED BY COLLABORATORS IN OTHER GROUPS:
     IOWA STATE UNIVERSITY:
          JOE IVANIC, LAIMUTIS BYTAUTAS, KLAUS RUEDENBERG
     UNIVERSITY OF TOKYO: KIMIHIKO HIRAO, TAKAHITO NAKAJIMA,
          TAKAO TSUNEDA, MUNEAKI KAMIYA, SUSUMU YANAGISAWA,
          KIYOSHI YAGI, MAHITO CHIBA, SEIKEN TOKURA, NAOAKI KAWAKAMI
     UNIVERSITY OF AARHUS: FRANK JENSEN
     UNIVERSITY OF IOWA: VISVALDAS KAIRYS, HUI LI
     NATIONAL INST. OF STANDARDS AND TECHNOLOGY: WALT STEVENS, DAVID GARMER
     UNIVERSITY OF PISA: BENEDETTA MENNUCCI, JACOPO TOMASI
     UNIVERSITY OF MEMPHIS: HENRY KURTZ, PRAKASHAN KORAMBATH
     UNIVERSITY OF ALBERTA: TOBY ZENG, MARIUSZ KLOBUKOWSKI
     UNIVERSITY OF NEW ENGLAND: MARK SPACKMAN
     MIE UNIVERSITY: HIROAKI UMEDA
     MICHIGAN STATE UNIVERSITY:
          KAROL KOWALSKI, MARTA WLOCH, JEFFREY GOUR, JESSE LUTZ, PIOTR PIECUCH
     UNIVERSITY OF SILESIA: MONIKA MUSIAL, STANISLAW KUCHARSKI
     FACULTES UNIVERSITAIRES NOTRE-DAME DE LA PAIX:
          OLIVIER QUINET, BENOIT CHAMPAGNE
     UNIVERSITY OF CALIFORNIA - SANTA BARBARA: BERNARD KIRTMAN
     INSTITUTE FOR MOLECULAR SCIENCE:
          KAZUYA ISHIMURA, MICHIO KATOUDA, AND SHIGERU NAGASE
     UNIVERSITY OF NOTRE DAME: DAN CHIPMAN
     KYUSHU UNIVERSITY:
          HARUYUKI NAKANO,
          FENG LONG GU, JACEK KORCHOWIEC, MARCIN MAKOWSKI, AND YURIKO AOKI,
          HIROTOSHI MORI AND EISAKU MIYOSHI
     PENNSYLVANIA STATE UNIVERSITY:
          TZVETELIN IORDANOV, CHET SWALINA, JONATHAN SKONE,
          SHARON HAMMES-SCHIFFER
     WASEDA UNIVERSITY:
          MASATO KOBAYASHI, TOMOKO AKAMA, TSUGUKI TOUMA,
          TAKESHI YOSHIKAWA, YASUHIRO IKABATA, HIROMI NAKAI
     UNIVERSITY OF NEBRASKA:
          PEIFENG SU, DEJUN SI, NANDUN THELLAMUREGE, YALI WANG, HUI LI
     UNIVERSITY OF ZURICH:
          ROBERTO PEVERATI, KIM BALDRIDGE
     N. COPERNICUS UNIVERSITY AND JACKSON STATE UNIVERSITY:
          MARIA BARYSZ

 EXECUTION OF GAMESS BEGUN Thu Feb 26 00:15:23 2015

            ECHO OF THE FIRST FEW INPUT CARDS -
 INPUT CARD> $BASIS GBASIS=PC1 $END                                                         
 INPUT CARD> $CONTRL COORD=ZMT ISPHER=1 RUNTYP=ENERGY DFTTYP=PBE $END                       
 INPUT CARD>                                                                                
 INPUT CARD> $DATA                                                                          
 INPUT CARD>Title                                                                           
 INPUT CARD>Cnv 2                                                                           
 INPUT CARD>                                                                                
 INPUT CARD>S                                                                               
 INPUT CARD>O 1 1.40                                                                        
 INPUT CARD>O 1 1.40 2 110.0                                                                
 INPUT CARD> $END                                                                           
    1000000 WORDS OF MEMORY AVAILABLE

     BASIS OPTIONS
     -------------
     GBASIS=PC1          IGAUSS=       0      POLAR=NONE    
     NDFUNC=       0     NFFUNC=       0     DIFFSP=       F
     NPFUNC=       0      DIFFS=       F     BASNAM=        


     RUN TITLE
     ---------
 Title                                                                           

 THE POINT GROUP OF THE MOLECULE IS CNV     
 THE ORDER OF THE PRINCIPAL AXIS IS     2

 YOUR FULLY SUBSTITUTED Z-MATRIX IS
 S   
 O      1   1.4000000
 O      1   1.4000000  2  110.0000

 THE MOMENTS OF INERTIA ARE (AMU-ANGSTROM**2)
 IXX=    10.311   IYY=    42.072   IZZ=    52.383

 ATOM      ATOMIC                      COORDINATES (BOHR)
           CHARGE         X                   Y                   Z
 S          16.0     0.0000000000        0.0000000000       -0.7589421633
 O           8.0    -2.1671620684        0.0000000000        0.7585210536
 O           8.0     2.1671620684        0.0000000000        0.7585210536

          INTERNUCLEAR DISTANCES (ANGS.)
          ------------------------------

                1 S          2 O          3 O     

   1 S       0.0000000    1.4000000 *  1.4000000 *
   2 O       1.4000000 *  0.0000000    2.2936257 *
   3 O       1.4000000 *  2.2936257 *  0.0000000  

  * ... LESS THAN  3.000


     ATOMIC BASIS SET
     ----------------
 THE CONTRACTED PRIMITIVE FUNCTIONS HAVE BEEN UNNORMALIZED
 THE CONTRACTED BASIS FUNCTIONS ARE NOW NORMALIZED TO UNITY

  SHELL TYPE  PRIMITIVE        EXPONENT          CONTRACTION COEFFICIENT(S)

 S         

      1   S       1         55510.0000000    0.000587229760
      1   S       2          8326.7000000    0.004532413947
      1   S       3          1895.6000000    0.023265261648
      1   S       4           536.7700000    0.089696133027
      1   S       5           174.6700000    0.254098332277
      1   S       6            62.5780000    0.438665087637
      1   S       7            23.5730000    0.314547135094
      1   S       8             5.8908000    0.032727897102

      2   S       9          8326.7000000   -0.000019755715
      2   S      10          1895.6000000   -0.000043822381
      2   S      11           536.7700000   -0.001730264906
      2   S      12           174.6700000   -0.009381263460
      2   S      13            62.5780000   -0.064050766303
      2   S      14            23.5730000   -0.082478179196
      2   S      15             5.8908000    0.478342956889
      2   S      16             2.1852000    0.626896670208

      3   S      17          1895.6000000    0.000016227260
      3   S      18           536.7700000    0.000191135619
      3   S      19           174.6700000    0.001952069674
      3   S      20            62.5780000    0.010578701087
      3   S      21            23.5730000    0.022164934551
      3   S      22             5.8908000   -0.184968323118
      3   S      23             2.1852000   -0.480920750976
      3   S      24             0.4528200    1.243822243872

      4   S      25             0.1620200    1.000000000000

      5   P      26           395.4500000    0.004642761329
      5   P      27            92.8340000    0.036023396489
      5   P      28            29.2660000    0.149058869978
      5   P      29            10.5950000    0.360033266263
      5   P      30             4.0272000    0.455756476221
      5   P      31             1.5484000    0.206167664178

      6   P      32            92.8340000    0.000169901442
      6   P      33            29.2660000   -0.002541839934
      6   P      34            10.5950000   -0.007867614595
      6   P      35             4.0272000   -0.037231009184
      6   P      36             1.5484000    0.161417246830
      6   P      37             0.4613400    0.902230419976

      7   P      38             0.1313100    1.000000000000

      8   D      39             0.5500000    1.000000000000

 O         

     15   S      40          2306.7000000    0.005424388755
     15   S      41           347.1500000    0.040474749465
     15   S      42            78.8900000    0.180219634554
     15   S      43            21.8760000    0.462370311787
     15   S      44             6.6646000    0.454888396263

     16   S      45           347.1500000   -0.000655003786
     16   S      46            78.8900000   -0.005362052952
     16   S      47            21.8760000   -0.074902158894
     16   S      48             6.6646000   -0.181442579655
     16   S      49             1.0669000    1.102006874042

     17   S      50             0.3070000    1.000000000000

     18   P      51            17.0220000    0.068979967443
     18   P      52             3.6838000    0.351985516325
     18   P      53             0.9923400    0.724036547822

     19   P      54             0.2448700    1.000000000000

     20   D      55             1.0000000    1.000000000000

 TOTAL NUMBER OF BASIS SET SHELLS             =   20
 NUMBER OF CARTESIAN GAUSSIAN BASIS FUNCTIONS =   49
 NOTE: THIS RUN WILL RESTRICT THE MO VARIATION SPACE TO SPHERICAL HARMONICS.
 THE NUMBER OF ORBITALS KEPT IN THE VARIATIONAL SPACE WILL BE PRINTED LATER.
 NUMBER OF ELECTRONS                          =   32
 CHARGE OF MOLECULE                           =    0
 SPIN MULTIPLICITY                            =    1
 NUMBER OF OCCUPIED ORBITALS (ALPHA)          =   16
 NUMBER OF OCCUPIED ORBITALS (BETA )          =   16
 TOTAL NUMBER OF ATOMS                        =    3
 THE NUCLEAR REPULSION ENERGY IS      111.5296944627

     LEBEDEV GRID-BASED DFT OPTIONS
     ------------------------------
     DFTTYP=PBE     
     NRAD  =      96     NLEB  =     302
     NRAD0 =      24     NLEB0 =     110
     SWOFF =    5.00E-03 (PURE SCF -> DFT)
     SWITCH=    3.00E-04 (COARSE -> TIGHT GRID)
     THRESH=    0.00E+00 GTHRE=    1.00E+00

 GRIMME'S EMPIRICAL DISPERSION CORRECTION= F

     $CONTRL OPTIONS
     ---------------
 SCFTYP=RHF          RUNTYP=ENERGY       EXETYP=RUN     
 MPLEVL=       0     CITYP =NONE         CCTYP =NONE         VBTYP =NONE    
 DFTTYP=PBE          TDDFT =NONE    
 MULT  =       1     ICHARG=       0     NZVAR =       0     COORD =ZMT     
 PP    =NONE         RELWFN=NONE         LOCAL =NONE         NUMGRD=       F
 ISPHER=       1     NOSYM =       0     MAXIT =      30     UNITS =ANGS    
 PLTORB=       F     MOLPLT=       F     AIMPAC=       F     FRIEND=        
 NPRINT=       7     IREST =       0     GEOM  =INPUT   
 NORMF =       0     NORMP =       0     ITOL  =      20     ICUT  =       9
 INTTYP=BEST         GRDTYP=BEST         QMTTOL= 1.0E-06

     $SYSTEM OPTIONS
     ---------------
  REPLICATED MEMORY=     1000000 WORDS (ON EVERY NODE).
 DISTRIBUTED MEMDDI=           0 MILLION WORDS IN AGGREGATE,
 MEMDDI DISTRIBUTED OVER   1 PROCESSORS IS           0 WORDS/PROCESSOR.
 TOTAL MEMORY REQUESTED ON EACH PROCESSOR=     1000000 WORDS.
 TIMLIM=      525600.00 MINUTES, OR     365.0 DAYS.
 PARALL= F  BALTYP=  DLB     KDIAG=    0  COREFL= F
 MXSEQ2=     300 MXSEQ3=     150

          ----------------
          PROPERTIES INPUT
          ----------------

     MOMENTS            FIELD           POTENTIAL          DENSITY
 IEMOM =       1   IEFLD =       0   IEPOT =       0   IEDEN =       0
 WHERE =COMASS     WHERE =NUCLEI     WHERE =NUCLEI     WHERE =NUCLEI  
 OUTPUT=BOTH       OUTPUT=BOTH       OUTPUT=BOTH       OUTPUT=BOTH    
 IEMINT=       0   IEFINT=       0                     IEDINT=       0
                                                       MORB  =       0
          EXTRAPOLATION IN EFFECT
          DIIS IN EFFECT
 ORBITAL PRINTING OPTION: NPREO=     1    49     2     1

     -------------------------------
     INTEGRAL TRANSFORMATION OPTIONS
     -------------------------------
     NWORD  =            0
     CUTOFF = 1.0E-09     MPTRAN =       0
     DIRTRF =       F     AOINTS =DUP     

          ----------------------
          INTEGRAL INPUT OPTIONS
          ----------------------
 NOPK  =       1 NORDER=       0 SCHWRZ=       F

   --- ENCODED Z MATRIX ---
 COORD  TYPE   I   J   K   L   M   N
    1      1    3   1
    2      1    2   1
    3      2    2   1   3

 THE DETERMINANT OF THE G MATRIX IS 10**(    -4)

 THE DETERMINANT OF THE G MATRIX IS 10**(    -4)
 * * * WARNING * * *
 YOUR B MATRIX HAS A SMALL DETERMINANT.
 THIS SUGGESTS YOU MAY HAVE BADLY CHOSEN COORDINATES.

     ------------------------------------------
     THE POINT GROUP IS CNV, NAXIS= 2, ORDER= 4
     ------------------------------------------

 -- VARIATIONAL SPACE WILL BE RESTRICTED TO PURE SPHERICAL HARMONICS ONLY --
 AFTER EXCLUDING CONTAMINANT COMBINATIONS FROM THE CARTESIAN GAUSSIAN BASIS
 SET, THE NUMBER OF SPHERICAL HARMONICS KEPT IN THE VARIATION SPACE IS   46

     DIMENSIONS OF THE SYMMETRY SUBSPACES ARE
 A1  =   19     A2  =    5     B1  =   14     B2  =    8

 ..... DONE SETTING UP THE RUN .....
 STEP CPU TIME =     0.01 TOTAL CPU TIME =        0.0 (    0.0 MIN)
 TOTAL WALL CLOCK TIME=        0.0 SECONDS, CPU UTILIZATION IS  50.00%

          ********************
          1 ELECTRON INTEGRALS
          ********************
 ...... END OF ONE-ELECTRON INTEGRALS ......
 STEP CPU TIME =     0.00 TOTAL CPU TIME =        0.0 (    0.0 MIN)
 TOTAL WALL CLOCK TIME=        0.0 SECONDS, CPU UTILIZATION IS  33.33%

          -------------
          GUESS OPTIONS
          -------------
          GUESS =HUCKEL            NORB  =       0          NORDER=       0
          MIX   =       F          PRTMO =       F          PUNMO =       F
          TOLZ  = 1.0E-08          TOLE  = 1.0E-05
          SYMDEN=       F          PURIFY=       F

 INITIAL GUESS ORBITALS GENERATED BY HUCKEL   ROUTINE.
 HUCKEL GUESS REQUIRES     21583 WORDS.

 STATISTICS FOR GENERATION OF SYMMETRY ORBITAL -Q- MATRIX
 NUMBER OF CARTESIAN ATOMIC ORBITALS=         49
 NUMBER OF SPHERICAL CONTAMINANTS DROPPED=     3
 NUMBER OF LINEARLY DEPENDENT MOS DROPPED=     0
 TOTAL NUMBER OF MOS IN VARIATION SPACE=      46

 SYMMETRIES FOR INITIAL GUESS ORBITALS FOLLOW.   BOTH SET(S).
    16 ORBITALS ARE OCCUPIED (    7 CORE ORBITALS).
     8=?A1      9=?B1     10=A1      11=B2      12=A1      13=B1      14=A2  
    15=B1      16=A1      17=B2      18=B1      19=A1      20=A1      21=A1  
    22=A1      23=A1      24=A1      25=A1      26=A1  
 ...... END OF INITIAL ORBITAL SELECTION ......
 STEP CPU TIME =     0.01 TOTAL CPU TIME =        0.0 (    0.0 MIN)
 TOTAL WALL CLOCK TIME=        0.0 SECONDS, CPU UTILIZATION IS  66.67%

                    ----------------------
                    AO INTEGRAL TECHNOLOGY
                    ----------------------
     S,P,L SHELL ROTATED AXIS INTEGRALS, REPROGRAMMED BY
        KAZUYA ISHIMURA (IMS) AND JOSE SIERRA (SYNSTAR).
     S,P,D,L SHELL ROTATED AXIS INTEGRALS PROGRAMMED BY
        KAZUYA ISHIMURA (INSTITUTE FOR MOLECULAR SCIENCE).
     S,P,D,F,G SHELL TO TOTAL QUARTET ANGULAR MOMENTUM SUM 5,
        ERIC PROGRAM BY GRAHAM FLETCHER (ELORET AND NASA ADVANCED
        SUPERCOMPUTING DIVISION, AMES RESEARCH CENTER).
     S,P,D,F,G,L SHELL GENERAL RYS QUADRATURE PROGRAMMED BY
        MICHEL DUPUIS (PACIFIC NORTHWEST NATIONAL LABORATORY).

          --------------------
          2 ELECTRON INTEGRALS
          --------------------

 THE -PK- OPTION IS OFF, THE INTEGRALS ARE NOT IN SUPERMATRIX FORM.
 STORING   15000 INTEGRALS/RECORD ON DISK, USING 12 BYTES/INTEGRAL.
 TWO ELECTRON INTEGRAL EVALUATION REQUIRES   90606 WORDS OF MEMORY.
 II,JST,KST,LST =  1  1  1  1 NREC =         1 INTLOC =    1
 II,JST,KST,LST =  2  1  1  1 NREC =         1 INTLOC =    2
 II,JST,KST,LST =  3  1  1  1 NREC =         1 INTLOC =    7
 II,JST,KST,LST =  4  1  1  1 NREC =         1 INTLOC =   22
 II,JST,KST,LST =  5  1  1  1 NREC =         1 INTLOC =   56
 II,JST,KST,LST =  6  1  1  1 NREC =         1 INTLOC =  125
 II,JST,KST,LST =  7  1  1  1 NREC =         1 INTLOC =  329
 II,JST,KST,LST =  8  1  1  1 NREC =         1 INTLOC =  776
 II,JST,KST,LST =  9  1  1  1 NREC =         1 INTLOC = 2864
 II,JST,KST,LST = 10  1  1  1 NREC =         1 INTLOC = 2864
 II,JST,KST,LST = 11  1  1  1 NREC =         1 INTLOC = 2864
 II,JST,KST,LST = 12  1  1  1 NREC =         1 INTLOC = 2864
 II,JST,KST,LST = 13  1  1  1 NREC =         1 INTLOC = 2864
 II,JST,KST,LST = 14  1  1  1 NREC =         1 INTLOC = 2864
 II,JST,KST,LST = 15  1  1  1 NREC =         1 INTLOC = 2864
 II,JST,KST,LST = 16  1  1  1 NREC =         1 INTLOC = 5120
 II,JST,KST,LST = 17  1  1  1 NREC =         1 INTLOC = 8398
 II,JST,KST,LST = 18  1  1  1 NREC =         1 INTLOC =12858
 II,JST,KST,LST = 19  1  1  1 NREC =         3 INTLOC =  983
 II,JST,KST,LST = 20  1  1  1 NREC =         5 INTLOC = 2312
 TOTAL NUMBER OF NONZERO TWO-ELECTRON INTEGRALS =              180251
         13 INTEGRAL RECORDS WERE STORED ON DISK FILE  8.
  ...... END OF TWO-ELECTRON INTEGRALS .....
 STEP CPU TIME =     0.17 TOTAL CPU TIME =        0.2 (    0.0 MIN)
 TOTAL WALL CLOCK TIME=        0.2 SECONDS, CPU UTILIZATION IS  95.00%

          --------------------------
               R-PBE SCF CALCULATION
          --------------------------

     NUCLEAR ENERGY =       111.5296944627
     MAXIT =   30     NPUNCH=    2
     EXTRAP=T  DAMP=F  SHIFT=F  RSTRCT=F  DIIS=T  DEM=F  SOSCF=F
         DENSITY MATRIX CONVERGENCE THRESHOLD=  1.00E-05
     COARSE -> FINE DFT GRID SWITCH THRESHOLD=  3.00E-04 (SWITCH IN $DFT)
                   HF -> DFT SWITCH THRESHOLD=  5.00E-03 (SWOFF IN $DFT)
     MEMORY REQUIRED FOR RHF ITERS=    183108 WORDS.

 DFT CODE IS SWITCHING FROM THE FINE GRID NRAD= 96,  NLEB=  302
                      TO THE COARSE GRID NRAD0= 24, NLEB0=  110

     EXCHANGE FUNCTIONAL   =PBE       
     CORRELATION FUNCTIONAL=PBE       
     DFT THRESHOLD         =.460E-07
     GRID CHANGE THRESHOLD =.300E-03
 FOR AN EULER-MACLAURIN QUADRATURE USING  96 RADIAL POINTS:
 SMALLEST GAUSSIAN PRIMITIVE EXPONENT=        0.1313100000 OF TYPE -P-
 ON ATOM NUMBER   1 HAS RADIAL NORMALIZATION=  1.000000
  LARGEST GAUSSIAN PRIMITIVE EXPONENT=    55510.0000000000 OF TYPE -S-
 ON ATOM NUMBER   1 HAS RADIAL NORMALIZATION=  0.999999
 DFT IS SWITCHED OFF, PERFORMING PURE SCF UNTIL SWOFF THRESHOLD IS REACHED.

 ITER EX DEM     TOTAL ENERGY        E CHANGE  DENSITY CHANGE    DIIS ERROR
   1  0  0     -546.0779292215  -546.0779292215   0.329849281   1.382335740
          * * *   INITIATING DIIS PROCEDURE   * * *
   2  1  0     -546.9505295143    -0.8726002928   0.375367192   0.202736360
   3  2  0     -547.0401633005    -0.0896337862   0.098980530   0.197457737
   4  3  0     -547.1174632906    -0.0772999901   0.018154947   0.012475950
   5  4  0     -547.1181355911    -0.0006723005   0.012319308   0.004012362
   6  5  0     -547.1182117548    -0.0000761637   0.002764491   0.001258172
 CONVERGED TO SWOFF, SO DFT CALCULATION IS NOW SWITCHED ON.
          * * *   INITIATING DIIS PROCEDURE   * * *
   7  6  0     -548.2273365754    -1.1091248206   0.205492715   0.109936650
   8  7  0     -548.2412755017    -0.0139389263   0.167282270   0.073549520
   9  8  0     -548.2376792022     0.0035962994   0.065399397   0.096802325
  10  9  0     -548.2583431782    -0.0206639760   0.015173118   0.012462568
  11 10  0     -548.2586758891    -0.0003327109   0.000527577   0.000988998
  12 11  0     -548.2586774329    -0.0000015438   0.000417909   0.000194439
  13 12  0     -548.2586775412    -0.0000001083   0.000024893   0.000023635
 DFT CODE IS SWITCHING BACK TO THE FINE GRID
          * * *   INITIATING DIIS PROCEDURE   * * *
  14 13  0     -548.2397580094     0.0189195318   0.005655879   0.007580828
  15 14  0     -548.2398822130    -0.0001242035   0.002756500   0.002569380
  16 15  0     -548.2398708372     0.0000113758   0.002479409   0.003456992
  17 16  0     -548.2398922760    -0.0000214388   0.000588871   0.000520561
  18 17  0     -548.2398930308    -0.0000007548   0.000089818   0.000065609
  19 18  0     -548.2398930436    -0.0000000129   0.000004050   0.000002594
  20 19  0     -548.2398930437     0.0000000000   0.000000399   0.000000307
  21 20  0     -548.2398930437     0.0000000000   0.000000095   0.000000041

          -----------------
          DENSITY CONVERGED
          -----------------
     TIME TO FORM FOCK OPERATORS=       4.4 SECONDS (       0.2 SEC/ITER)
     TIME TO SOLVE SCF EQUATIONS=       0.0 SECONDS (       0.0 SEC/ITER)

 FINAL R-PBE ENERGY IS     -548.2398930437 AFTER  21 ITERATIONS
 DFT EXCHANGE + CORRELATION ENERGY =       -42.6418714426
 TOTAL ELECTRON NUMBER             =        31.9999686921

          ------------
          EIGENVECTORS
          ------------

                      1          2          3          4          5
                  -88.2016   -18.7830   -18.7830    -7.8315    -5.8520
                     A1         B1         A1         A1         B1  
    1  S  1  S    1.002984   0.000000  -0.000072  -0.273991   0.000000
    2  S  1  S   -0.010250   0.000000  -0.000302   1.039537   0.000000
    3  S  1  S    0.001912   0.000000  -0.001046   0.041883   0.000000
    4  S  1  S   -0.000646   0.000000   0.012370  -0.010838   0.000000
    5  S  1  X    0.000000  -0.000163   0.000000   0.000000   0.996285
    6  S  1  Y    0.000000   0.000000   0.000000   0.000000   0.000000
    7  S  1  Z    0.000046   0.000000  -0.000034   0.011239   0.000000
    8  S  1  X    0.000000  -0.001010   0.000000   0.000000   0.010323
    9  S  1  Y    0.000000   0.000000   0.000000   0.000000   0.000000
   10  S  1  Z    0.000186   0.000000   0.001499   0.002115   0.000000
   11  S  1  X    0.000000  -0.004516   0.000000   0.000000  -0.000217
   12  S  1  Y    0.000000   0.000000   0.000000   0.000000   0.000000
   13  S  1  Z    0.000000   0.000000   0.005199  -0.000523   0.000000
   14  S  1 XX    0.000118   0.000000   0.000335   0.001121   0.000000
   15  S  1 YY   -0.000101   0.000000  -0.000723  -0.000786   0.000000
   16  S  1 ZZ   -0.000017   0.000000   0.000388  -0.000335   0.000000
   17  S  1 XY    0.000000   0.000000   0.000000   0.000000   0.000000
   18  S  1 XZ    0.000000   0.000321   0.000000   0.000000   0.001408
   19  S  1 YZ    0.000000   0.000000   0.000000   0.000000   0.000000
   20  O  2  S    0.000015   0.703225   0.703297  -0.000192   0.000588
   21  O  2  S    0.000028   0.025922   0.026371  -0.000164  -0.000573
   22  O  2  S   -0.000168  -0.012014  -0.014998  -0.000373   0.000150
   23  O  2  X   -0.000067   0.001093   0.000828  -0.000308  -0.000802
   24  O  2  Y    0.000000   0.000000   0.000000   0.000000   0.000000
   25  O  2  Z    0.000043  -0.000805  -0.000545   0.000188   0.000681
   26  O  2  X   -0.000167  -0.002108  -0.003712  -0.001221   0.000117
   27  O  2  Y    0.000000   0.000000   0.000000   0.000000   0.000000
   28  O  2  Z    0.000145   0.002065   0.001660   0.001180  -0.000028
   29  O  2 XX   -0.000069  -0.000108  -0.000264  -0.000057  -0.000227
   30  O  2 YY    0.000078   0.000199   0.000141   0.000134   0.000399
   31  O  2 ZZ   -0.000009  -0.000091   0.000123  -0.000077  -0.000172
   32  O  2 XY    0.000000   0.000000   0.000000   0.000000   0.000000
   33  O  2 XZ    0.000126   0.000136   0.000338   0.000209   0.000671
   34  O  2 YZ    0.000000   0.000000   0.000000   0.000000   0.000000
   35  O  3  S    0.000015  -0.703225   0.703297  -0.000192  -0.000588
   36  O  3  S    0.000028  -0.025922   0.026371  -0.000164   0.000573
   37  O  3  S   -0.000168   0.012014  -0.014998  -0.000373  -0.000150
   38  O  3  X    0.000067   0.001093  -0.000828   0.000308  -0.000802
   39  O  3  Y    0.000000   0.000000   0.000000   0.000000   0.000000
   40  O  3  Z    0.000043   0.000805  -0.000545   0.000188  -0.000681
   41  O  3  X    0.000167  -0.002108   0.003712   0.001221   0.000117
   42  O  3  Y    0.000000   0.000000   0.000000   0.000000   0.000000
   43  O  3  Z    0.000145  -0.002065   0.001660   0.001180   0.000028
   44  O  3 XX   -0.000069   0.000108  -0.000264  -0.000057   0.000227
   45  O  3 YY    0.000078  -0.000199   0.000141   0.000134  -0.000399
   46  O  3 ZZ   -0.000009   0.000091   0.000123  -0.000077   0.000172
   47  O  3 XY    0.000000   0.000000   0.000000   0.000000   0.000000
   48  O  3 XZ   -0.000126   0.000136  -0.000338  -0.000209   0.000671
   49  O  3 YZ    0.000000   0.000000   0.000000   0.000000   0.000000

                      6          7          8          9         10
                   -5.8513    -5.8452    -1.0883    -0.9751    -0.5693
                     B2         A1         A1         B1         A1  
    1  S  1  S    0.000000   0.003236   0.053231   0.000000   0.063935
    2  S  1  S    0.000000  -0.012358  -0.152371   0.000000  -0.175010
    3  S  1  S    0.000000   0.000088   0.309444   0.000000   0.412551
    4  S  1  S    0.000000  -0.000569   0.111562   0.000000   0.377585
    5  S  1  X    0.000000   0.000000   0.000000   0.143808   0.000000
    6  S  1  Y    0.996701   0.000000   0.000000   0.000000   0.000000
    7  S  1  Z    0.000000   0.996584  -0.078020   0.000000   0.074361
    8  S  1  X    0.000000   0.000000   0.000000  -0.277179   0.000000
    9  S  1  Y    0.009507   0.000000   0.000000   0.000000   0.000000
   10  S  1  Z    0.000000   0.009298   0.142092   0.000000  -0.155145
   11  S  1  X    0.000000   0.000000   0.000000  -0.025731   0.000000
   12  S  1  Y   -0.000332   0.000000   0.000000   0.000000   0.000000
   13  S  1  Z    0.000000  -0.000362  -0.006839   0.000000  -0.101885
   14  S  1 XX    0.000000  -0.000485   0.036512   0.000000  -0.004186
   15  S  1 YY    0.000000  -0.000457  -0.036495   0.000000   0.024481
   16  S  1 ZZ    0.000000   0.000942  -0.000017   0.000000  -0.020295
   17  S  1 XY    0.000000   0.000000   0.000000   0.000000   0.000000
   18  S  1 XZ    0.000000   0.000000   0.000000  -0.093319   0.000000
   19  S  1 YZ    0.000731   0.000000   0.000000   0.000000   0.000000
   20  O  2  S    0.000000  -0.000424  -0.120589  -0.144969   0.096912
   21  O  2  S    0.000000   0.000370   0.236340   0.289834  -0.197903
   22  O  2  S    0.000000   0.000513   0.255433   0.314526  -0.326702
   23  O  2  X    0.000000   0.000801   0.113123   0.091021   0.101788
   24  O  2  Y    0.000138   0.000000   0.000000   0.000000   0.000000
   25  O  2  Z    0.000000  -0.000438  -0.069880  -0.079106  -0.136208
   26  O  2  X    0.000000   0.000106   0.038156   0.023115   0.047478
   27  O  2  Y   -0.000091   0.000000   0.000000   0.000000   0.000000
   28  O  2  Z    0.000000  -0.000267  -0.021800  -0.022974  -0.061386
   29  O  2 XX    0.000000   0.000386   0.008904   0.001846   0.001192
   30  O  2 YY    0.000000  -0.000306  -0.006570  -0.003192  -0.005631
   31  O  2 ZZ    0.000000  -0.000081  -0.002333   0.001345   0.004440
   32  O  2 XY    0.000134   0.000000   0.000000   0.000000   0.000000
   33  O  2 XZ    0.000000  -0.000526  -0.013311  -0.009117  -0.009813
   34  O  2 YZ   -0.000126   0.000000   0.000000   0.000000   0.000000
   35  O  3  S    0.000000  -0.000424  -0.120589   0.144969   0.096912
   36  O  3  S    0.000000   0.000370   0.236340  -0.289834  -0.197903
   37  O  3  S    0.000000   0.000513   0.255433  -0.314526  -0.326702
   38  O  3  X    0.000000  -0.000801  -0.113123   0.091021  -0.101788
   39  O  3  Y    0.000138   0.000000   0.000000   0.000000   0.000000
   40  O  3  Z    0.000000  -0.000438  -0.069880   0.079106  -0.136208
   41  O  3  X    0.000000  -0.000106  -0.038156   0.023115  -0.047478
   42  O  3  Y   -0.000091   0.000000   0.000000   0.000000   0.000000
   43  O  3  Z    0.000000  -0.000267  -0.021800   0.022974  -0.061386
   44  O  3 XX    0.000000   0.000386   0.008904  -0.001846   0.001192
   45  O  3 YY    0.000000  -0.000306  -0.006570   0.003192  -0.005631
   46  O  3 ZZ    0.000000  -0.000081  -0.002333  -0.001345   0.004440
   47  O  3 XY   -0.000134   0.000000   0.000000   0.000000   0.000000
   48  O  3 XZ    0.000000   0.000526   0.013311  -0.009117   0.009813
   49  O  3 YZ   -0.000126   0.000000   0.000000   0.000000   0.000000

                     11         12         13         14         15
                   -0.4634    -0.4469    -0.4328    -0.3312    -0.2941
                     B2         A1         B1         A2         B1  
    1  S  1  S    0.000000  -0.001321   0.000000   0.000000   0.000000
    2  S  1  S    0.000000   0.030108   0.000000   0.000000   0.000000
    3  S  1  S    0.000000   0.026497   0.000000   0.000000   0.000000
    4  S  1  S    0.000000  -0.216219   0.000000   0.000000   0.000000
    5  S  1  X    0.000000   0.000000  -0.166179   0.000000  -0.009008
    6  S  1  Y   -0.205388   0.000000   0.000000   0.000000   0.000000
    7  S  1  Z    0.000000  -0.180663   0.000000   0.000000   0.000000
    8  S  1  X    0.000000   0.000000   0.393186   0.000000   0.013558
    9  S  1  Y    0.475981   0.000000   0.000000   0.000000   0.000000
   10  S  1  Z    0.000000   0.417064   0.000000   0.000000   0.000000
   11  S  1  X    0.000000   0.000000   0.056316   0.000000   0.144336
   12  S  1  Y    0.226081   0.000000   0.000000   0.000000   0.000000
   13  S  1  Z    0.000000   0.133936   0.000000   0.000000   0.000000
   14  S  1 XX    0.000000  -0.067088   0.000000   0.000000   0.000000
   15  S  1 YY    0.000000  -0.011765   0.000000   0.000000   0.000000
   16  S  1 ZZ    0.000000   0.078853   0.000000   0.000000   0.000000
   17  S  1 XY    0.000000   0.000000   0.000000  -0.139384   0.000000
   18  S  1 XZ    0.000000   0.000000   0.038928   0.000000  -0.125170
   19  S  1 YZ    0.063481   0.000000   0.000000   0.000000   0.000000
   20  O  2  S    0.000000   0.043725  -0.069501   0.000000  -0.003135
   21  O  2  S    0.000000  -0.088521   0.138729   0.000000   0.006444
   22  O  2  S    0.000000  -0.154270   0.277339   0.000000   0.037745
   23  O  2  X    0.000000   0.322831  -0.234851   0.000000   0.393742
   24  O  2  Y    0.308847   0.000000   0.000000   0.464274   0.000000
   25  O  2  Z    0.000000   0.104794   0.291770   0.000000   0.271636
   26  O  2  X    0.000000   0.194898  -0.123808   0.000000   0.257806
   27  O  2  Y    0.174852   0.000000   0.000000   0.325701   0.000000
   28  O  2  Z    0.000000   0.061400   0.164075   0.000000   0.192358
   29  O  2 XX    0.000000   0.020613  -0.000608   0.000000   0.021378
   30  O  2 YY    0.000000  -0.006075   0.009125   0.000000  -0.000496
   31  O  2 ZZ    0.000000  -0.014538  -0.008517   0.000000  -0.020882
   32  O  2 XY    0.020712   0.000000   0.000000   0.018357   0.000000
   33  O  2 XZ    0.000000  -0.001997   0.014721   0.000000   0.003518
   34  O  2 YZ   -0.013826   0.000000   0.000000  -0.014859   0.000000
   35  O  3  S    0.000000   0.043725   0.069501   0.000000   0.003135
   36  O  3  S    0.000000  -0.088521  -0.138729   0.000000  -0.006444
   37  O  3  S    0.000000  -0.154270  -0.277339   0.000000  -0.037745
   38  O  3  X    0.000000  -0.322831  -0.234851   0.000000   0.393742
   39  O  3  Y    0.308847   0.000000   0.000000  -0.464274   0.000000
   40  O  3  Z    0.000000   0.104794  -0.291770   0.000000  -0.271636
   41  O  3  X    0.000000  -0.194898  -0.123808   0.000000   0.257806
   42  O  3  Y    0.174852   0.000000   0.000000  -0.325701   0.000000
   43  O  3  Z    0.000000   0.061400  -0.164075   0.000000  -0.192358
   44  O  3 XX    0.000000   0.020613   0.000608   0.000000  -0.021378
   45  O  3 YY    0.000000  -0.006075  -0.009125   0.000000   0.000496
   46  O  3 ZZ    0.000000  -0.014538   0.008517   0.000000   0.020882
   47  O  3 XY   -0.020712   0.000000   0.000000   0.018357   0.000000
   48  O  3 XZ    0.000000   0.001997   0.014721   0.000000   0.003518
   49  O  3 YZ   -0.013826   0.000000   0.000000   0.014859   0.000000

                     16         17         18         19         20
                   -0.2912    -0.1473     0.0403     0.0689     0.3390
                     A1         B2         B1         A1         B2  
    1  S  1  S    0.018041   0.000000   0.000000   0.020449   0.000000
    2  S  1  S   -0.096603   0.000000   0.000000  -0.150078   0.000000
    3  S  1  S    0.059809   0.000000   0.000000   0.028880   0.000000
    4  S  1  S    0.554527   0.000000   0.000000   1.261664   0.000000
    5  S  1  X    0.000000   0.000000  -0.146484   0.000000   0.000000
    6  S  1  Y    0.000000  -0.208662   0.000000   0.000000   0.285141
    7  S  1  Z    0.119563   0.000000   0.000000  -0.115541   0.000000
    8  S  1  X    0.000000   0.000000   0.373143   0.000000   0.000000
    9  S  1  Y    0.000000   0.532832   0.000000   0.000000  -1.096339
   10  S  1  Z   -0.280738   0.000000   0.000000   0.313182   0.000000
   11  S  1  X    0.000000   0.000000   1.166690   0.000000   0.000000
   12  S  1  Y    0.000000   0.542004   0.000000   0.000000   1.232901
   13  S  1  Z   -0.106764   0.000000   0.000000   1.125453   0.000000
   14  S  1 XX   -0.152508   0.000000   0.000000  -0.138401   0.000000
   15  S  1 YY    0.058405   0.000000   0.000000   0.266923   0.000000
   16  S  1 ZZ    0.094103   0.000000   0.000000  -0.128522   0.000000
   17  S  1 XY    0.000000   0.000000   0.000000   0.000000   0.000000
   18  S  1 XZ    0.000000   0.000000  -0.238244   0.000000   0.000000
   19  S  1 YZ    0.000000  -0.099062   0.000000   0.000000  -0.208980
   20  O  2  S    0.001498   0.000000  -0.049602   0.062521   0.000000
   21  O  2  S   -0.005045   0.000000   0.075051  -0.094259   0.000000
   22  O  2  S   -0.041993   0.000000   0.563997  -0.714781   0.000000
   23  O  2  X   -0.021429   0.000000   0.007103  -0.267507   0.000000
   24  O  2  Y    0.000000  -0.371932   0.000000   0.000000   0.002355
   25  O  2  Z    0.414161   0.000000  -0.282371   0.010595   0.000000
   26  O  2  X   -0.011476   0.000000   0.024424  -0.439579   0.000000
   27  O  2  Y    0.000000  -0.349162   0.000000   0.000000  -0.098822
   28  O  2  Z    0.307887   0.000000  -0.316238   0.009714   0.000000
   29  O  2 XX    0.003695   0.000000   0.000503  -0.004286   0.000000
   30  O  2 YY    0.004983   0.000000   0.002647   0.012083   0.000000
   31  O  2 ZZ   -0.008678   0.000000  -0.003150  -0.007797   0.000000
   32  O  2 XY    0.000000  -0.004407   0.000000   0.000000  -0.032860
   33  O  2 XZ    0.012924   0.000000  -0.000814   0.002209   0.000000
   34  O  2 YZ    0.000000  -0.000107   0.000000   0.000000   0.014955
   35  O  3  S    0.001498   0.000000   0.049602   0.062521   0.000000
   36  O  3  S   -0.005045   0.000000  -0.075051  -0.094259   0.000000
   37  O  3  S   -0.041993   0.000000  -0.563997  -0.714781   0.000000
   38  O  3  X    0.021429   0.000000   0.007103   0.267507   0.000000
   39  O  3  Y    0.000000  -0.371932   0.000000   0.000000   0.002355
   40  O  3  Z    0.414161   0.000000   0.282371   0.010595   0.000000
   41  O  3  X    0.011476   0.000000   0.024424   0.439579   0.000000
   42  O  3  Y    0.000000  -0.349162   0.000000   0.000000  -0.098822
   43  O  3  Z    0.307887   0.000000   0.316238   0.009714   0.000000
   44  O  3 XX    0.003695   0.000000  -0.000503  -0.004286   0.000000
   45  O  3 YY    0.004983   0.000000  -0.002647   0.012083   0.000000
   46  O  3 ZZ   -0.008678   0.000000   0.003150  -0.007797   0.000000
   47  O  3 XY    0.000000   0.004407   0.000000   0.000000   0.032860
   48  O  3 XZ   -0.012924   0.000000  -0.000814  -0.002209   0.000000
   49  O  3 YZ    0.000000  -0.000107   0.000000   0.000000   0.014955

                     21         22         23         24         25
                    0.3687     0.4201     0.4259     0.5514     0.5705
                     A1         B1         A1         B2         A2  
    1  S  1  S    0.035776   0.000000  -0.111559   0.000000   0.000000
    2  S  1  S    0.113729   0.000000  -0.378640   0.000000   0.000000
    3  S  1  S    0.536087   0.000000  -1.682456   0.000000   0.000000
    4  S  1  S   -0.465170   0.000000   2.424441   0.000000   0.000000
    5  S  1  X    0.000000   0.270140   0.000000   0.000000   0.000000
    6  S  1  Y    0.000000   0.000000   0.000000   0.056469   0.000000
    7  S  1  Z    0.279224   0.000000   0.067214   0.000000   0.000000
    8  S  1  X    0.000000  -0.950369   0.000000   0.000000   0.000000
    9  S  1  Y    0.000000   0.000000   0.000000  -0.244122   0.000000
   10  S  1  Z   -1.037602   0.000000  -0.191899   0.000000   0.000000
   11  S  1  X    0.000000   1.447077   0.000000   0.000000   0.000000
   12  S  1  Y    0.000000   0.000000   0.000000   0.305722   0.000000
   13  S  1  Z    1.107630   0.000000   0.610969   0.000000   0.000000
   14  S  1 XX    0.308385   0.000000   0.221870   0.000000   0.000000
   15  S  1 YY   -0.194571   0.000000  -0.100566   0.000000   0.000000
   16  S  1 ZZ   -0.113814   0.000000  -0.121304   0.000000   0.000000
   17  S  1 XY    0.000000   0.000000   0.000000   0.000000   0.942925
   18  S  1 XZ    0.000000   0.442077   0.000000   0.000000   0.000000
   19  S  1 YZ    0.000000   0.000000   0.000000   0.909844   0.000000
   20  O  2  S   -0.001720  -0.014982   0.018710   0.000000   0.000000
   21  O  2  S    0.066839  -0.044775   0.000057   0.000000   0.000000
   22  O  2  S   -0.221209   0.599362  -0.617822   0.000000   0.000000
   23  O  2  X    0.139018  -0.226103   0.237361   0.000000   0.000000
   24  O  2  Y    0.000000   0.000000   0.000000  -0.309598   0.323558
   25  O  2  Z   -0.016987   0.139251  -0.145648   0.000000   0.000000
   26  O  2  X   -0.030599   0.121707  -0.215091   0.000000   0.000000
   27  O  2  Y    0.000000   0.000000   0.000000   0.039934   0.001748
   28  O  2  Z   -0.030134  -0.127609   0.132443   0.000000   0.000000
   29  O  2 XX   -0.034713   0.008208  -0.047794   0.000000   0.000000
   30  O  2 YY    0.003972  -0.031979   0.036905   0.000000   0.000000
   31  O  2 ZZ    0.030741   0.023771   0.010889   0.000000   0.000000
   32  O  2 XY    0.000000   0.000000   0.000000   0.041028  -0.027896
   33  O  2 XZ   -0.001775  -0.053195   0.047625   0.000000   0.000000
   34  O  2 YZ    0.000000   0.000000   0.000000   0.013678   0.050594
   35  O  3  S   -0.001720   0.014982   0.018710   0.000000   0.000000
   36  O  3  S    0.066839   0.044775   0.000057   0.000000   0.000000
   37  O  3  S   -0.221209  -0.599362  -0.617822   0.000000   0.000000
   38  O  3  X   -0.139018  -0.226103  -0.237361   0.000000   0.000000
   39  O  3  Y    0.000000   0.000000   0.000000  -0.309598  -0.323558
   40  O  3  Z   -0.016987  -0.139251  -0.145648   0.000000   0.000000
   41  O  3  X    0.030599   0.121707   0.215091   0.000000   0.000000
   42  O  3  Y    0.000000   0.000000   0.000000   0.039934  -0.001748
   43  O  3  Z   -0.030134   0.127609   0.132443   0.000000   0.000000
   44  O  3 XX   -0.034713  -0.008208  -0.047794   0.000000   0.000000
   45  O  3 YY    0.003972   0.031979   0.036905   0.000000   0.000000
   46  O  3 ZZ    0.030741  -0.023771   0.010889   0.000000   0.000000
   47  O  3 XY    0.000000   0.000000   0.000000  -0.041028  -0.027896
   48  O  3 XZ    0.001775  -0.053195  -0.047625   0.000000   0.000000
   49  O  3 YZ    0.000000   0.000000   0.000000   0.013678  -0.050594

                     26         27         28         29         30
                    0.5904     0.6510     0.6606     0.7700     0.7844
                     A1         A1         B1         A1         A2  
    1  S  1  S    0.008303   0.031147   0.000000   0.014228   0.000000
    2  S  1  S   -0.012030   0.104548   0.000000   0.074195   0.000000
    3  S  1  S    0.082818   0.486891   0.000000   0.251244   0.000000
    4  S  1  S    0.816760   0.976278   0.000000  -0.134873   0.000000
    5  S  1  X    0.000000   0.000000  -0.178053   0.000000   0.000000
    6  S  1  Y    0.000000   0.000000   0.000000   0.000000   0.000000
    7  S  1  Z   -0.024803  -0.128024   0.000000  -0.050405   0.000000
    8  S  1  X    0.000000   0.000000   0.961903   0.000000   0.000000
    9  S  1  Y    0.000000   0.000000   0.000000   0.000000   0.000000
   10  S  1  Z    0.142894   0.676243   0.000000   0.214749   0.000000
   11  S  1  X    0.000000   0.000000   0.141801   0.000000   0.000000
   12  S  1  Y    0.000000   0.000000   0.000000   0.000000   0.000000
   13  S  1  Z    0.409340   0.078531   0.000000  -0.706388   0.000000
   14  S  1 XX   -0.121981   0.541473   0.000000   0.454838   0.000000
   15  S  1 YY   -0.684607  -0.294657   0.000000   0.094238   0.000000
   16  S  1 ZZ    0.806588  -0.246816   0.000000  -0.549075   0.000000
   17  S  1 XY    0.000000   0.000000   0.000000   0.000000   0.390678
   18  S  1 XZ    0.000000   0.000000   0.488024   0.000000   0.000000
   19  S  1 YZ    0.000000   0.000000   0.000000   0.000000   0.000000
   20  O  2  S    0.036726   0.050136  -0.060675   0.003603   0.000000
   21  O  2  S   -0.104540  -0.083071   0.141746   0.003188   0.000000
   22  O  2  S   -0.395989  -0.547451   0.507401   0.077000   0.000000
   23  O  2  X   -0.105037   0.355562  -0.165614  -0.282365   0.000000
   24  O  2  Y    0.000000   0.000000   0.000000   0.000000  -0.574763
   25  O  2  Z   -0.320810   0.114833   0.212089  -0.396164   0.000000
   26  O  2  X   -0.383235  -0.890435   0.901763   0.347102   0.000000
   27  O  2  Y    0.000000   0.000000   0.000000   0.000000   0.831707
   28  O  2  Z    0.309867   0.431220  -0.690158   0.804426   0.000000
   29  O  2 XX    0.036439  -0.010354  -0.005058  -0.027630   0.000000
   30  O  2 YY   -0.018742  -0.007977   0.005679  -0.014167   0.000000
   31  O  2 ZZ   -0.017697   0.018331  -0.000621   0.041797   0.000000
   32  O  2 XY    0.000000   0.000000   0.000000   0.000000  -0.042190
   33  O  2 XZ    0.037159  -0.025607   0.010382  -0.028502   0.000000
   34  O  2 YZ    0.000000   0.000000   0.000000   0.000000   0.029596
   35  O  3  S    0.036726   0.050136   0.060675   0.003603   0.000000
   36  O  3  S   -0.104540  -0.083071  -0.141746   0.003188   0.000000
   37  O  3  S   -0.395989  -0.547451  -0.507401   0.077000   0.000000
   38  O  3  X    0.105037  -0.355562  -0.165614   0.282365   0.000000
   39  O  3  Y    0.000000   0.000000   0.000000   0.000000   0.574763
   40  O  3  Z   -0.320810   0.114833  -0.212089  -0.396164   0.000000
   41  O  3  X    0.383235   0.890435   0.901763  -0.347102   0.000000
   42  O  3  Y    0.000000   0.000000   0.000000   0.000000  -0.831707
   43  O  3  Z    0.309867   0.431220   0.690158   0.804426   0.000000
   44  O  3 XX    0.036439  -0.010354   0.005058  -0.027630   0.000000
   45  O  3 YY   -0.018742  -0.007977  -0.005679  -0.014167   0.000000
   46  O  3 ZZ   -0.017697   0.018331   0.000621   0.041797   0.000000
   47  O  3 XY    0.000000   0.000000   0.000000   0.000000  -0.042190
   48  O  3 XZ   -0.037159   0.025607   0.010382   0.028502   0.000000
   49  O  3 YZ    0.000000   0.000000   0.000000   0.000000  -0.029596

                     31         32         33         34         35
                    0.8351     0.8999     0.9607     1.2105     1.6017
                     B2         B1         A1         B1         B1  
    1  S  1  S    0.000000   0.000000  -0.008528   0.000000   0.000000
    2  S  1  S    0.000000   0.000000  -0.226459   0.000000   0.000000
    3  S  1  S    0.000000   0.000000  -0.384341   0.000000   0.000000
    4  S  1  S    0.000000   0.000000   0.578978   0.000000   0.000000
    5  S  1  X    0.000000  -0.048028   0.000000  -0.130770  -0.006493
    6  S  1  Y   -0.028840   0.000000   0.000000   0.000000   0.000000
    7  S  1  Z    0.000000   0.000000  -0.094008   0.000000   0.000000
    8  S  1  X    0.000000   0.200464   0.000000   0.396515   0.272184
    9  S  1  Y    0.095427   0.000000   0.000000   0.000000   0.000000
   10  S  1  Z    0.000000   0.000000   0.242196   0.000000   0.000000
   11  S  1  X    0.000000  -0.605041   0.000000   0.667688   0.973176
   12  S  1  Y   -0.794903   0.000000   0.000000   0.000000   0.000000
   13  S  1  Z    0.000000   0.000000   0.179966   0.000000   0.000000
   14  S  1 XX    0.000000   0.000000   0.756405   0.000000   0.000000
   15  S  1 YY    0.000000   0.000000  -0.737988   0.000000   0.000000
   16  S  1 ZZ    0.000000   0.000000  -0.018418   0.000000   0.000000
   17  S  1 XY    0.000000   0.000000   0.000000   0.000000   0.000000
   18  S  1 XZ    0.000000   0.174382   0.000000   1.062066   0.083053
   19  S  1 YZ   -0.404061   0.000000   0.000000   0.000000   0.000000
   20  O  2  S    0.000000  -0.002287   0.031361  -0.035372   0.010793
   21  O  2  S    0.000000  -0.001153  -0.242504   0.025518  -1.233919
   22  O  2  S    0.000000  -0.091957  -0.193983   0.708569   1.857589
   23  O  2  X    0.000000  -0.306445  -0.423073   0.581899  -0.045790
   24  O  2  Y   -0.571783   0.000000   0.000000   0.000000   0.000000
   25  O  2  Z    0.000000  -0.541845   0.408743  -0.274407   0.065498
   26  O  2  X    0.000000   0.632923   0.241053  -0.204290   0.358634
   27  O  2  Y    0.968305   0.000000   0.000000   0.000000   0.000000
   28  O  2  Z    0.000000   0.729599  -0.223881  -0.060019  -0.425680
   29  O  2 XX    0.000000  -0.060771  -0.021293  -0.015460  -0.099654
   30  O  2 YY    0.000000   0.024192  -0.026637  -0.033219   0.144154
   31  O  2 ZZ    0.000000   0.036579   0.047930   0.048678  -0.044501
   32  O  2 XY   -0.042611   0.000000   0.000000   0.000000   0.000000
   33  O  2 XZ    0.000000  -0.014895   0.038916   0.053133   0.107145
   34  O  2 YZ    0.022784   0.000000   0.000000   0.000000   0.000000
   35  O  3  S    0.000000   0.002287   0.031361   0.035372  -0.010793
   36  O  3  S    0.000000   0.001153  -0.242504  -0.025518   1.233919
   37  O  3  S    0.000000   0.091957  -0.193983  -0.708569  -1.857589
   38  O  3  X    0.000000  -0.306445   0.423073   0.581899  -0.045790
   39  O  3  Y   -0.571783   0.000000   0.000000   0.000000   0.000000
   40  O  3  Z    0.000000   0.541845   0.408743   0.274407  -0.065498
   41  O  3  X    0.000000   0.632923  -0.241053  -0.204290   0.358634
   42  O  3  Y    0.968305   0.000000   0.000000   0.000000   0.000000
   43  O  3  Z    0.000000  -0.729599  -0.223881   0.060019   0.425680
   44  O  3 XX    0.000000   0.060771  -0.021293   0.015460   0.099654
   45  O  3 YY    0.000000  -0.024192  -0.026637   0.033219  -0.144154
   46  O  3 ZZ    0.000000  -0.036579   0.047930  -0.048678   0.044501
   47  O  3 XY    0.042611   0.000000   0.000000   0.000000   0.000000
   48  O  3 XZ    0.000000  -0.014895  -0.038916   0.053133   0.107145
   49  O  3 YZ    0.022784   0.000000   0.000000   0.000000   0.000000

                     36         37         38         39         40
                    1.7240     2.0629     2.0673     2.0941     2.0956
                     A1         A2         B2         B1         A1  
    1  S  1  S   -0.021170   0.000000   0.000000   0.000000   0.001434
    2  S  1  S   -0.215164   0.000000   0.000000   0.000000   0.000794
    3  S  1  S   -0.482549   0.000000   0.000000   0.000000   0.014530
    4  S  1  S    2.667240   0.000000   0.000000   0.000000  -0.187255
    5  S  1  X    0.000000   0.000000   0.000000  -0.000132   0.000000
    6  S  1  Y    0.000000   0.000000  -0.020758   0.000000   0.000000
    7  S  1  Z   -0.040166   0.000000   0.000000   0.000000  -0.003471
    8  S  1  X    0.000000   0.000000   0.000000  -0.052670   0.000000
    9  S  1  Y    0.000000   0.000000   0.077351   0.000000   0.000000
   10  S  1  Z    0.322334   0.000000   0.000000   0.000000  -0.010860
   11  S  1  X    0.000000   0.000000   0.000000  -0.001861   0.000000
   12  S  1  Y    0.000000   0.000000   0.030008   0.000000   0.000000
   13  S  1  Z    1.110338   0.000000   0.000000   0.000000  -0.092024
   14  S  1 XX    0.259244   0.000000   0.000000   0.000000   0.061215
   15  S  1 YY   -0.368354   0.000000   0.000000   0.000000  -0.144255
   16  S  1 ZZ    0.109110   0.000000   0.000000   0.000000   0.083040
   17  S  1 XY    0.000000   0.033563   0.000000   0.000000   0.000000
   18  S  1 XZ    0.000000   0.000000   0.000000   0.142000   0.000000
   19  S  1 YZ    0.000000   0.000000  -0.035339   0.000000   0.000000
   20  O  2  S    0.010386   0.000000   0.000000  -0.002987   0.001972
   21  O  2  S    1.243229   0.000000   0.000000   0.157492  -0.139770
   22  O  2  S   -2.411192   0.000000   0.000000  -0.152811   0.194267
   23  O  2  X   -0.061032   0.000000   0.000000   0.079425  -0.048843
   24  O  2  Y    0.000000  -0.026814   0.030005   0.000000   0.000000
   25  O  2  Z    0.065851   0.000000   0.000000  -0.021191   0.010876
   26  O  2  X   -0.633933   0.000000   0.000000  -0.108315   0.089086
   27  O  2  Y    0.000000   0.042988  -0.048887   0.000000   0.000000
   28  O  2  Z    0.220176   0.000000   0.000000   0.025939  -0.015943
   29  O  2 XX    0.105418   0.000000   0.000000  -0.160901  -0.221646
   30  O  2 YY   -0.049136   0.000000   0.000000   0.609837   0.618825
   31  O  2 ZZ   -0.056281   0.000000   0.000000  -0.448936  -0.397178
   32  O  2 XY    0.000000   0.542144   0.233201   0.000000   0.000000
   33  O  2 XZ   -0.171372   0.000000   0.000000  -0.306385  -0.324162
   34  O  2 YZ    0.000000   0.455202   0.668718   0.000000   0.000000
   35  O  3  S    0.010386   0.000000   0.000000   0.002987   0.001972
   36  O  3  S    1.243229   0.000000   0.000000  -0.157492  -0.139770
   37  O  3  S   -2.411192   0.000000   0.000000   0.152811   0.194267
   38  O  3  X    0.061032   0.000000   0.000000   0.079425   0.048843
   39  O  3  Y    0.000000   0.026814   0.030005   0.000000   0.000000
   40  O  3  Z    0.065851   0.000000   0.000000   0.021191   0.010876
   41  O  3  X    0.633933   0.000000   0.000000  -0.108315  -0.089086
   42  O  3  Y    0.000000  -0.042988  -0.048887   0.000000   0.000000
   43  O  3  Z    0.220176   0.000000   0.000000  -0.025939  -0.015943
   44  O  3 XX    0.105418   0.000000   0.000000   0.160901  -0.221646
   45  O  3 YY   -0.049136   0.000000   0.000000  -0.609837   0.618825
   46  O  3 ZZ   -0.056281   0.000000   0.000000   0.448936  -0.397178
   47  O  3 XY    0.000000   0.542144  -0.233201   0.000000   0.000000
   48  O  3 XZ    0.171372   0.000000   0.000000  -0.306385   0.324162
   49  O  3 YZ    0.000000  -0.455202   0.668718   0.000000   0.000000

                     41         42         43         44         45
                    2.1367     2.3120     2.3195     2.5387     2.8345
                     B1         B2         A2         A1         A1  
    1  S  1  S    0.000000   0.000000   0.000000  -0.003370  -0.052638
    2  S  1  S    0.000000   0.000000   0.000000  -0.025381  -0.108818
    3  S  1  S    0.000000   0.000000   0.000000  -0.067880  -0.811839
    4  S  1  S    0.000000   0.000000   0.000000   0.214180  -1.373681
    5  S  1  X    0.037757   0.000000   0.000000   0.000000   0.000000
    6  S  1  Y    0.000000   0.074474   0.000000   0.000000   0.000000
    7  S  1  Z    0.000000   0.000000   0.000000  -0.063767   0.138665
    8  S  1  X   -0.132727   0.000000   0.000000   0.000000   0.000000
    9  S  1  Y    0.000000  -0.273203   0.000000   0.000000   0.000000
   10  S  1  Z    0.000000   0.000000   0.000000   0.238624  -0.912045
   11  S  1  X   -0.092197   0.000000   0.000000   0.000000   0.000000
   12  S  1  Y    0.000000  -0.171045   0.000000   0.000000   0.000000
   13  S  1  Z    0.000000   0.000000   0.000000   0.267916  -0.348854
   14  S  1 XX    0.000000   0.000000   0.000000  -0.541250  -0.467737
   15  S  1 YY    0.000000   0.000000   0.000000  -0.025326   0.461842
   16  S  1 ZZ    0.000000   0.000000   0.000000   0.566577   0.005895
   17  S  1 XY    0.000000   0.000000  -0.525005   0.000000   0.000000
   18  S  1 XZ    0.212755   0.000000   0.000000   0.000000   0.000000
   19  S  1 YZ    0.000000  -0.396504   0.000000   0.000000   0.000000
   20  O  2  S   -0.000028   0.000000   0.000000   0.002436  -0.037258
   21  O  2  S    0.019701   0.000000   0.000000   0.096462  -0.633332
   22  O  2  S   -0.016020   0.000000   0.000000  -0.196162   1.561174
   23  O  2  X   -0.049642   0.000000   0.000000   0.007626   0.064181
   24  O  2  Y    0.000000  -0.053008   0.035666   0.000000   0.000000
   25  O  2  Z   -0.090871   0.000000   0.000000  -0.004619  -0.042531
   26  O  2  X    0.134757   0.000000   0.000000  -0.157557   0.694450
   27  O  2  Y    0.000000   0.215890  -0.179056   0.000000   0.000000
   28  O  2  Z    0.146264   0.000000   0.000000  -0.184788  -0.472268
   29  O  2 XX    0.602733   0.000000   0.000000  -0.634404   0.416575
   30  O  2 YY   -0.044342   0.000000   0.000000  -0.014283  -0.428423
   31  O  2 ZZ   -0.558391   0.000000   0.000000   0.648687   0.011849
   32  O  2 XY    0.000000   0.706592  -0.494745   0.000000   0.000000
   33  O  2 XZ    0.268230   0.000000   0.000000  -0.272963  -0.685521
   34  O  2 YZ    0.000000  -0.257788   0.571369   0.000000   0.000000
   35  O  3  S    0.000028   0.000000   0.000000   0.002436  -0.037258
   36  O  3  S   -0.019701   0.000000   0.000000   0.096462  -0.633332
   37  O  3  S    0.016020   0.000000   0.000000  -0.196162   1.561174
   38  O  3  X   -0.049642   0.000000   0.000000  -0.007626  -0.064181
   39  O  3  Y    0.000000  -0.053008  -0.035666   0.000000   0.000000
   40  O  3  Z    0.090871   0.000000   0.000000  -0.004619  -0.042531
   41  O  3  X    0.134757   0.000000   0.000000   0.157557  -0.694450
   42  O  3  Y    0.000000   0.215890   0.179056   0.000000   0.000000
   43  O  3  Z   -0.146264   0.000000   0.000000  -0.184788  -0.472268
   44  O  3 XX   -0.602733   0.000000   0.000000  -0.634404   0.416575
   45  O  3 YY    0.044342   0.000000   0.000000  -0.014283  -0.428423
   46  O  3 ZZ    0.558391   0.000000   0.000000   0.648687   0.011849
   47  O  3 XY    0.000000  -0.706592  -0.494745   0.000000   0.000000
   48  O  3 XZ    0.268230   0.000000   0.000000   0.272963   0.685521
   49  O  3 YZ    0.000000  -0.257788  -0.571369   0.000000   0.000000

                     46
                    2.9194
                     B1  
    1  S  1  S    0.000000
    2  S  1  S    0.000000
    3  S  1  S    0.000000
    4  S  1  S    0.000000
    5  S  1  X   -0.220297
    6  S  1  Y    0.000000
    7  S  1  Z    0.000000
    8  S  1  X    1.396713
    9  S  1  Y    0.000000
   10  S  1  Z    0.000000
   11  S  1  X    0.421943
   12  S  1  Y    0.000000
   13  S  1  Z    0.000000
   14  S  1 XX    0.000000
   15  S  1 YY    0.000000
   16  S  1 ZZ    0.000000
   17  S  1 XY    0.000000
   18  S  1 XZ    0.819703
   19  S  1 YZ    0.000000
   20  O  2  S   -0.041077
   21  O  2  S   -0.544943
   22  O  2  S    1.481132
   23  O  2  X    0.130491
   24  O  2  Y    0.000000
   25  O  2  Z   -0.095390
   26  O  2  X    0.694453
   27  O  2  Y    0.000000
   28  O  2  Z   -0.485830
   29  O  2 XX    0.457514
   30  O  2 YY   -0.424135
   31  O  2 ZZ   -0.033379
   32  O  2 XY    0.000000
   33  O  2 XZ   -0.733648
   34  O  2 YZ    0.000000
   35  O  3  S    0.041077
   36  O  3  S    0.544943
   37  O  3  S   -1.481132
   38  O  3  X    0.130491
   39  O  3  Y    0.000000
   40  O  3  Z    0.095390
   41  O  3  X    0.694453
   42  O  3  Y    0.000000
   43  O  3  Z    0.485830
   44  O  3 XX   -0.457514
   45  O  3 YY    0.424135
   46  O  3 ZZ    0.033379
   47  O  3 XY    0.000000
   48  O  3 XZ   -0.733648
   49  O  3 YZ    0.000000
 ...... END OF RHF CALCULATION ......
 STEP CPU TIME =     4.47 TOTAL CPU TIME =        4.7 (    0.1 MIN)
 TOTAL WALL CLOCK TIME=        4.7 SECONDS, CPU UTILIZATION IS  99.79%

     ---------------------------------------------------------------------
     PROPERTIES FOR THE PBE      DFT FUNCTIONAL (RHF  TYPE) DENSITY MATRIX
     ---------------------------------------------------------------------

          -----------------
          ENERGY COMPONENTS
          -----------------

         WAVEFUNCTION NORMALIZATION =       1.0000000000

                ONE ELECTRON ENERGY =    -977.1850151581
                TWO ELECTRON ENERGY =     317.4154276518
           NUCLEAR REPULSION ENERGY =     111.5296944627
                                      ------------------
                       TOTAL ENERGY =    -548.2398930437

 ELECTRON-ELECTRON POTENTIAL ENERGY =     317.4154276518
  NUCLEUS-ELECTRON POTENTIAL ENERGY =   -1525.3575794087
   NUCLEUS-NUCLEUS POTENTIAL ENERGY =     111.5296944627
                                      ------------------
             TOTAL POTENTIAL ENERGY =   -1096.4124572942
               TOTAL KINETIC ENERGY =     548.1725642506
                 VIRIAL RATIO (V/T) =       2.0001228241

          ---------------------------------------
          MULLIKEN AND LOWDIN POPULATION ANALYSES
          ---------------------------------------

     ATOMIC MULLIKEN POPULATION IN EACH MOLECULAR ORBITAL

                      1          2          3          4          5

                  2.000000   2.000000   2.000000   2.000000   2.000000

    1             2.000032   0.000903   0.002249   2.001626   1.999765
    2            -0.000016   0.999548   0.998876  -0.000813   0.000118
    3            -0.000016   0.999548   0.998876  -0.000813   0.000118

                      6          7          8          9         10

                  2.000000   2.000000   2.000000   2.000000   2.000000

    1             2.000001   1.999755   0.698084   0.448210   1.022131
    2             0.000000   0.000123   0.650958   0.775895   0.488934
    3             0.000000   0.000123   0.650958   0.775895   0.488934

                     11         12         13         14         15

                  2.000000   2.000000   2.000000   2.000000   2.000000

    1             1.013623   0.708914   0.360401   0.119612   0.178029
    2             0.493189   0.645543   0.819800   0.940194   0.910985
    3             0.493189   0.645543   0.819800   0.940194   0.910985

                     16

                  2.000000

    1             0.675736
    2             0.662132
    3             0.662132

               ----- POPULATIONS IN EACH AO -----
                             MULLIKEN      LOWDIN
              1  S  1  S      2.00024     1.99577
              2  S  1  S      2.01013     1.95742
              3  S  1  S      0.94615     0.56606
              4  S  1  S      0.85539     0.54539
              5  S  1  X      1.99654     1.95524
              6  S  1  Y      1.99599     1.95448
              7  S  1  Z      1.99720     1.96288
              8  S  1  X      0.69515     0.61207
              9  S  1  Y      0.65867     0.60924
             10  S  1  Z      0.85208     0.81871
             11  S  1  X      0.12985     0.26246
             12  S  1  Y      0.33524     0.39400
             13  S  1  Z      0.23308     0.38983
             14  S  1 XX      0.09608     0.30591
             15  S  1 YY      0.11817     0.24275
             16  S  1 ZZ      0.11961     0.28750
             17  S  1 XY      0.16577     0.14573
             18  S  1 XZ      0.02373     0.19899
             19  S  1 YZ      0.00000     0.02311
             20  O  2  S      1.99790     1.98051
             21  O  2  S      0.82387     0.63498
             22  O  2  S      1.01595     0.54168
             23  O  2  X      0.99629     0.95621
             24  O  2  Y      0.86826     0.82808
             25  O  2  Z      1.03755     1.00794
             26  O  2  X      0.48861     0.57241
             27  O  2  Y      0.55652     0.59728
             28  O  2  Z      0.57534     0.64526
             29  O  2 XX      0.00475     0.20331
             30  O  2 YY      0.00468     0.19749
             31  O  2 ZZ      0.00564     0.19645
             32  O  2 XY      0.00715     0.00766
             33  O  2 XZ      0.00296     0.01327
             34  O  2 YZ      0.00000     0.00371
             35  O  3  S      1.99790     1.98051
             36  O  3  S      0.82387     0.63498
             37  O  3  S      1.01595     0.54168
             38  O  3  X      0.99629     0.95621
             39  O  3  Y      0.86826     0.82808
             40  O  3  Z      1.03755     1.00794
             41  O  3  X      0.48861     0.57241
             42  O  3  Y      0.55652     0.59728
             43  O  3  Z      0.57534     0.64526
             44  O  3 XX      0.00475     0.20331
             45  O  3 YY      0.00468     0.19749
             46  O  3 ZZ      0.00564     0.19645
             47  O  3 XY      0.00715     0.00766
             48  O  3 XZ      0.00296     0.01327
             49  O  3 YZ      0.00000     0.00371

          ----- MULLIKEN ATOMIC OVERLAP POPULATIONS -----
          (OFF-DIAGONAL ELEMENTS NEED TO BE MULTIPLIED BY 2)

             1           2           3

    1   14.4544077
    2    0.3873311   8.0698871
    3    0.3873311  -0.0717531   8.0698871

          TOTAL MULLIKEN AND LOWDIN ATOMIC POPULATIONS
       ATOM         MULL.POP.    CHARGE          LOW.POP.     CHARGE
    1 S            15.229070    0.770930        15.227543    0.772457
    2 O             8.385465   -0.385465         8.386228   -0.386228
    3 O             8.385465   -0.385465         8.386228   -0.386228

          MULLIKEN SPHERICAL HARMONIC POPULATIONS
       ATOM           S       P       D      F      G      H      I    TOTAL
    1 S             5.81    8.89    0.52   0.00   0.00   0.00   0.00   15.23
    2 O             3.84    4.52    0.03   0.00   0.00   0.00   0.00    8.39
    3 O             3.84    4.52    0.03   0.00   0.00   0.00   0.00    8.39

          -------------------------------
          BOND ORDER AND VALENCE ANALYSIS     BOND ORDER THRESHOLD=0.050
          -------------------------------

                   BOND                       BOND                       BOND
  ATOM PAIR DIST  ORDER      ATOM PAIR DIST  ORDER      ATOM PAIR DIST  ORDER
    1   2  1.400  1.885        1   3  1.400  1.885        2   3  2.294  0.214

                       TOTAL       BONDED        FREE
      ATOM            VALENCE     VALENCE     VALENCE
    1 S                 3.770       3.770       0.000
    2 O                 2.099       2.099       0.000
    3 O                 2.099       2.099       0.000

          ---------------------
          ELECTROSTATIC MOMENTS
          ---------------------

 POINT   1           X           Y           Z (BOHR)    CHARGE
                 0.000000    0.000000    0.000000        0.00 (A.U.)
         DX          DY          DZ         /D/  (DEBYE)
     0.000000    0.000000   -2.061335    2.061335
 ...... END OF PROPERTY EVALUATION ......
 STEP CPU TIME =     0.01 TOTAL CPU TIME =        4.7 (    0.1 MIN)
 TOTAL WALL CLOCK TIME=        4.7 SECONDS, CPU UTILIZATION IS  99.79%
               580000  WORDS OF DYNAMIC MEMORY USED
 EXECUTION OF GAMESS TERMINATED NORMALLY Thu Feb 26 00:15:28 2015
 DDI: 263624 bytes (0.3 MB / 0 MWords) used by master data server.

 ----------------------------------------
 CPU timing information for all processes
 ========================================
 0: 4.640 + 0.35 = 4.676
 ----------------------------------------
 ddikick.x: exited gracefully.
----- accounting info -----
Files used on the master node dftfe.crc.nd.edu were:
-rw-r--r-- 1 pmehta1 campus   37475 Feb 26 00:15 /tmp/gamess.dat
-rw-r--r-- 1 pmehta1 campus     142 Feb 26 00:15 /tmp/gamess.F05
-rw-r--r-- 1 pmehta1 campus 2340312 Feb 26 00:15 /tmp/gamess.F08
-rw-r--r-- 1 pmehta1 campus 1220440 Feb 26 00:15 /tmp/gamess.F10
Thu Feb 26 00:15:31 EST 2015
0.246u 0.174s 0:08.09 5.0%	0+0k 0+104io 0pf+0w
