----- GAMESS execution script 'rungms' -----
This job is running on host d12chas540.crc.nd.edu
under operating system Linux at Thu Oct 3 22:19:48 EDT 2019
SGE has assigned the following compute nodes to this run:
Available scratch disk space (Kbyte units) at beginning of the job is
Filesystem      1K-blocks     Used  Available Use% Mounted on
/dev/sda2      1949705068 49604448 1900100620   3% /
GAMESS temporary binary files will be written to /tmp/471344.1.debug
GAMESS supplementary output files will be written to /afs/crc.nd.edu/user/w/wschnei1/scr
Copying input file opt-zmat.inp to your run's scratch directory...
reading your own /afs/crc.nd.edu/user/w/wschnei1/.gmsrc

 Distributed Data Interface kickoff program.
 Initiating 1 compute processes on 1 nodes to run the following command:
 /afs/crc.nd.edu/x86_64_linux/g/gamess/nov-2017/gamess/gamess.00.x opt-zmat 

          ******************************************************
          *         GAMESS VERSION = 11 NOV 2017 (R3)         *
          *             FROM IOWA STATE UNIVERSITY             *
          * M.W.SCHMIDT, K.K.BALDRIDGE, J.A.BOATZ, S.T.ELBERT, *
          *   M.S.GORDON, J.H.JENSEN, S.KOSEKI, N.MATSUNAGA,   *
          *          K.A.NGUYEN, S.J.SU, T.L.WINDUS,           *
          *       TOGETHER WITH M.DUPUIS, J.A.MONTGOMERY       *
          *         J.COMPUT.CHEM.  14, 1347-1363(1993)        *
          **************** 64 BIT INTEL VERSION ****************

  SINCE 1993, STUDENTS AND POSTDOCS WORKING AT IOWA STATE UNIVERSITY
  AND ALSO IN THEIR VARIOUS JOBS AFTER LEAVING ISU HAVE MADE IMPORTANT
  CONTRIBUTIONS TO THE CODE:
     IVANA ADAMOVIC, CHRISTINE AIKENS, YURI ALEXEEV, POOJA ARORA,
     ANDREY ASADCHEV, ROB BELL, PRADIPTA BANDYOPADHYAY, JONATHAN BENTZ,
     BRETT BODE, KURT BRORSEN, CALEB CARLIN, GALINA CHABAN, WEI CHEN,
     CHEOL HO CHOI, PAUL DAY, ALBERT DEFUSCO, NUWAN DESILVA, TIM DUDLEY,
     DMITRI FEDOROV, ALEX FINDLATER, GRAHAM FLETCHER, MARK FREITAG,
     KURT GLAESEMANN, ANASTASIA GUININA,
     DAN KEMP, GRANT MERRILL, NORIYUKI MINEZAWA, JONATHAN MULLIN,
     TAKESHI NAGATA, SEAN NEDD, HEATHER NETZLOFF, BOSILJKA NJEGIC, RYAN OLSON,
     MIKE PAK, BUU PHAM,
     SPENCER PRUITT, LUKE ROSKOP, JIM SHOEMAKER, LYUDMILA SLIPCHENKO,
     TONY SMITH, SAROM SOK LEANG, JIE SONG, TETSUYA TAKETSUGU, SIMON WEBB,
     PENG XU, SOOHAENG YOO, FEDERICO ZAHARIEV

  ADDITIONAL CODE HAS BEEN PROVIDED BY COLLABORATORS IN OTHER GROUPS:
     IOWA STATE UNIVERSITY:
          JOE IVANIC, AARON WEST, LAIMUTIS BYTAUTAS, KLAUS RUEDENBERG
     UNIVERSITY OF TOKYO: KIMIHIKO HIRAO, TAKAHITO NAKAJIMA,
          TAKAO TSUNEDA, MUNEAKI KAMIYA, SUSUMU YANAGISAWA,
          KIYOSHI YAGI, MAHITO CHIBA, SEIKEN TOKURA, NAOAKI KAWAKAMI
     UNIVERSITY OF AARHUS: FRANK JENSEN
     UNIVERSITY OF IOWA: VISVALDAS KAIRYS, HUI LI
     NATIONAL INST. OF STANDARDS AND TECHNOLOGY: WALT STEVENS, DAVID GARMER
     UNIVERSITY OF PISA: BENEDETTA MENNUCCI, JACOPO TOMASI
     UNIVERSITY OF MEMPHIS: HENRY KURTZ, PRAKASHAN KORAMBATH
     UNIVERSITY OF ALBERTA: TOBY ZENG, MARIUSZ KLOBUKOWSKI
     UNIVERSITY OF NEW ENGLAND: MARK SPACKMAN
     MIE UNIVERSITY: HIROAKI UMEDA
     NAT. INST. OF ADVANCED INDUSTRIAL SCIENCE AND TECHNOLOGY: KAZUO KITAURA
     MICHIGAN STATE UNIVERSITY:
          KAROL KOWALSKI, MARTA WLOCH, JEFFREY GOUR, JESSE LUTZ,
          WEI LI, PIOTR PIECUCH
     UNIVERSITY OF SILESIA: MONIKA MUSIAL, STANISLAW KUCHARSKI
     FACULTES UNIVERSITAIRES NOTRE-DAME DE LA PAIX:
          OLIVIER QUINET, BENOIT CHAMPAGNE
     UNIVERSITY OF CALIFORNIA - SANTA BARBARA: BERNARD KIRTMAN
     INSTITUTE FOR MOLECULAR SCIENCE:
          KAZUYA ISHIMURA, MICHIO KATOUDA, AND SHIGERU NAGASE
     UNIVERSITY OF NOTRE DAME: ANNA POMOGAEVA, DAN CHIPMAN
     KYUSHU UNIVERSITY:
          HARUYUKI NAKANO,
          FENG LONG GU, JACEK KORCHOWIEC, MARCIN MAKOWSKI, AND YURIKO AOKI,
          HIROTOSHI MORI AND EISAKU MIYOSHI
     PENNSYLVANIA STATE UNIVERSITY:
          TZVETELIN IORDANOV, CHET SWALINA, JONATHAN SKONE,
          SHARON HAMMES-SCHIFFER
     WASEDA UNIVERSITY:
          MASATO KOBAYASHI, TOMOKO AKAMA, TSUGUKI TOUMA,
          TAKESHI YOSHIKAWA, YASUHIRO IKABATA, JUNJI SEINO,
          YUYA NAKAJIMA, HIROMI NAKAI
     NANJING UNIVERSITY: SHUHUA LI
     UNIVERSITY OF NEBRASKA:
          PEIFENG SU, DEJUN SI, NANDUN THELLAMUREGE, YALI WANG, HUI LI
     UNIVERSITY OF ZURICH: ROBERTO PEVERATI, KIM BALDRIDGE
     N. COPERNICUS UNIVERSITY AND JACKSON STATE UNIVERSITY:
          MARIA BARYSZ
     UNIVERSITY OF COPENHAGEN: Jimmy Kromann, CASPER STEINMANN
     TOKYO INSTITUTE OF TECHNOLOGY: HIROYA NAKATA
     NAGOYA UNIVERSITY: YOSHIO NISHIMOTO, STEPHAN IRLE
     MOSCOW STATE UNIVERSITY: VLADIMIR MIRONOV

 EXECUTION OF GAMESS BEGUN Thu Oct  3 22:19:48 2019

            ECHO OF THE FIRST FEW INPUT CARDS -
 INPUT CARD> $CONTRL SCFTYP=RHF DFTTYP=PBE RUNTYP=OPTIMIZE COORD=ZMT NZVAR=18 ISPHER=1 $END 
 INPUT CARD> $BASIS GBASIS=PCseg-0 $END                                                     
 INPUT CARD> $DATA                                                                          
 INPUT CARD>FCH2CH2F cartesian optimization calculation                                     
 INPUT CARD>C1                                                                              
 INPUT CARD>C                                                                               
 INPUT CARD>C   1   r1                                                                      
 INPUT CARD>F   2   r2   1   A1                                                             
 INPUT CARD>H   2   r3   1   A2   3   D1                                                    
 INPUT CARD>H   2   r4   1   A3   3   D2                                                    
 INPUT CARD>F   1   r5   2   A4   3   D3                                                    
 INPUT CARD>H   1   r6   2   A5   6   D4                                                    
 INPUT CARD>H   1   r7   2   A6   6   D5                                                    
 INPUT CARD>                                                                                
 INPUT CARD>r1=1.5                                                                          
 INPUT CARD>r2=1.4                                                                          
 INPUT CARD>r3=1.1                                                                          
 INPUT CARD>r4=1.12                                                                         
 INPUT CARD>r5=1.4                                                                          
 INPUT CARD>r6=1.1                                                                          
 INPUT CARD>r7=1.1                                                                          
 INPUT CARD>A1=109.54214                                                                    
 INPUT CARD>A2=109.54214                                                                    
 INPUT CARD>A3=109.54214                                                                    
 INPUT CARD>A4=109.54214                                                                    
 INPUT CARD>A5=109.54214                                                                    
 INPUT CARD>A6=109.54214                                                                    
 INPUT CARD>D1=120.                                                                         
 INPUT CARD>D2=-120.5                                                                       
 INPUT CARD>D3=50.                                                                          
 INPUT CARD>D4=120.                                                                         
 INPUT CARD>D5=-120.5                                                                       
 INPUT CARD> $END                                                                           
 INPUT CARD>                                                                                
    1000000 WORDS OF MEMORY AVAILABLE

     BASIS OPTIONS
     -------------
     GBASIS=PCSEG-0      IGAUSS=       0      POLAR=NONE    
     NDFUNC=       0     NFFUNC=       0     DIFFSP=       F
     NPFUNC=       0      DIFFS=       F     BASNAM=        


     RUN TITLE
     ---------
 FCH2CH2F cartesian optimization calculation                                     

 THE POINT GROUP OF THE MOLECULE IS C1      
 THE ORDER OF THE PRINCIPAL AXIS IS     0

 YOUR FULLY SUBSTITUTED Z-MATRIX IS
 C   
 C      1   1.5000000
 F      2   1.4000000  1  109.5421
 H      2   1.1000000  1  109.5421  3  120.0000  0
 H      2   1.1200000  1  109.5421  3 -120.5000  0
 F      1   1.4000000  2  109.5421  3   50.0000  0
 H      1   1.1000000  2  109.5421  6  120.0000  0
 H      1   1.1000000  2  109.5421  6 -120.5000  0

 THE MOMENTS OF INERTIA ARE (AMU-ANGSTROM**2)
 IXX=    32.932   IYY=    89.662   IZZ=   110.961

 ATOM      ATOMIC                      COORDINATES (BOHR)
           CHARGE         X                   Y                   Z
 C           6.0    -1.3340411366       -1.2451918714        0.4801307488
 C           6.0     1.3340983067       -1.2459290315       -0.4769095125
 F           9.0     2.5227947782        1.0142954225        0.2142287958
 H           1.0     2.3679927083       -2.8499045072        0.3472948633
 H           1.0     1.3301706696       -1.4388538710       -2.5845877728
 F           9.0    -2.5228374343        1.0138271165       -0.2147668122
 H           1.0    -2.3678646461       -2.8505820002       -0.3414039731
 H           1.0    -1.3301753411       -1.4312273399        2.5504842629

          INTERNUCLEAR DISTANCES (ANGS.)
          ------------------------------

                1 C          2 C          3 F          4 H          5 H     

   1 C       0.0000000    1.5000000 *  2.3695781 *  2.1363170 *  2.1513531 *
   2 C       1.5000000 *  0.0000000    1.4000000 *  1.1000000 *  1.1200000 *
   3 F       2.3695781 *  1.4000000 *  0.0000000    2.0476979 *  2.0681062 *
   4 H       2.1363170 *  1.1000000 *  2.0476979 *  0.0000000    1.8072836 *
   5 H       2.1513531 *  1.1200000 *  2.0681062 *  1.8072836 *  0.0000000  
   6 F       1.4000000 *  2.3695781 *  2.6796672 *  3.3116754    2.7229431 *
   7 H       1.1000000 *  2.1363170 *  3.3116754    2.5324685 *  2.4076294 *
   8 H       1.1000000 *  2.1363170 *  2.7129845 *  2.3984713 *  3.0603864  

                6 F          7 H          8 H     

   1 C       1.4000000 *  1.1000000 *  1.1000000 *
   2 C       2.3695781 *  2.1363170 *  2.1363170 *
   3 F       2.6796672 *  3.3116754    2.7129845 *
   4 H       3.3116754    2.5324685 *  2.3984713 *
   5 H       2.7229431 *  2.4076294 *  3.0603864  
   6 F       0.0000000    2.0476979 *  2.0527268 *
   7 H       2.0476979 *  0.0000000    1.7909648 *
   8 H       2.0527268 *  1.7909648 *  0.0000000  

  * ... LESS THAN  3.000


     ATOMIC BASIS SET
     ----------------
 THE CONTRACTED PRIMITIVE FUNCTIONS HAVE BEEN UNNORMALIZED
 THE CONTRACTED BASIS FUNCTIONS ARE NOW NORMALIZED TO UNITY

  SHELL TYPE  PRIMITIVE        EXPONENT          CONTRACTION COEFFICIENT(S)

 C         

      1   S       1           471.5250000    0.018365741272
      1   S       2            71.1900000    0.127245821015
      1   S       3            15.8860000    0.440412776421
      1   S       4             4.1646900    0.553280001111

      2   S       5             0.4425810    1.000000000000

      3   S       6             0.1428360    1.000000000000

      4   P       7             4.4121100    0.213746653399
      4   P       8             0.8798600    0.879956252208

      5   P       9             0.1929920    1.000000000000

 C         

      6   S      10           471.5250000    0.018365741272
      6   S      11            71.1900000    0.127245821015
      6   S      12            15.8860000    0.440412776421
      6   S      13             4.1646900    0.553280001111

      7   S      14             0.4425810    1.000000000000

      8   S      15             0.1428360    1.000000000000

      9   P      16             4.4121100    0.213746653399
      9   P      17             0.8798600    0.879956252208

     10   P      18             0.1929920    1.000000000000

 F         

     11   S      19          1106.0400000    0.017695356391
     11   S      20           166.9030000    0.123797950743
     11   S      21            37.4603000    0.437934495315
     11   S      22             9.9899200    0.556305561791

     12   S      23             1.1379200    1.000000000000

     13   S      24             0.3490830    1.000000000000

     14   P      25            10.7104000    0.232618932285
     14   P      26             2.1985200    0.865223996240

     15   P      27             0.4576870    1.000000000000

 H         

     16   S      28             4.3447300    0.167654352461
     16   S      29             0.6604870    0.896889788192

     17   S      30             0.1366870    1.000000000000

 H         

     18   S      31             4.3447300    0.167654352461
     18   S      32             0.6604870    0.896889788192

     19   S      33             0.1366870    1.000000000000

 F         

     20   S      34          1106.0400000    0.017695356391
     20   S      35           166.9030000    0.123797950743
     20   S      36            37.4603000    0.437934495315
     20   S      37             9.9899200    0.556305561791

     21   S      38             1.1379200    1.000000000000

     22   S      39             0.3490830    1.000000000000

     23   P      40            10.7104000    0.232618932285
     23   P      41             2.1985200    0.865223996240

     24   P      42             0.4576870    1.000000000000

 H         

     25   S      43             4.3447300    0.167654352461
     25   S      44             0.6604870    0.896889788192

     26   S      45             0.1366870    1.000000000000

 H         

     27   S      46             4.3447300    0.167654352461
     27   S      47             0.6604870    0.896889788192

     28   S      48             0.1366870    1.000000000000

 TOTAL NUMBER OF BASIS SET SHELLS             =   28
 NUMBER OF CARTESIAN GAUSSIAN BASIS FUNCTIONS =   44
 NOTE: THIS RUN WILL RESTRICT THE MO VARIATION SPACE TO SPHERICAL HARMONICS.
 THE NUMBER OF ORBITALS KEPT IN THE VARIATIONAL SPACE WILL BE PRINTED LATER.
 NUMBER OF ELECTRONS                          =   34
 CHARGE OF MOLECULE                           =    0
 SPIN MULTIPLICITY                            =    1
 NUMBER OF OCCUPIED ORBITALS (ALPHA)          =   17
 NUMBER OF OCCUPIED ORBITALS (BETA )          =   17
 TOTAL NUMBER OF ATOMS                        =    8
 THE NUCLEAR REPULSION ENERGY IS      128.1316801484

     LEBEDEV GRID-BASED DFT OPTIONS
     ------------------------------
     DFTTYP=PBE     
     NRAD  =      96     NLEB  =     302
     NRAD0 =      24     NLEB0 =     110
     SWOFF =    5.00E-03 (PURE SCF -> DFT)
     SWITCH=    3.00E-04 (COARSE -> TIGHT GRID)
     THRESH=    0.00E+00 GTHRE=    1.00E+00

 GRIMME'S EMPIRICAL DISPERSION CORRECTION= F

     $CONTRL OPTIONS
     ---------------
 SCFTYP=RHF          RUNTYP=OPTIMIZE     EXETYP=RUN     
 MPLEVL=       0     CITYP =NONE         CCTYP =NONE         VBTYP =NONE    
 DFTTYP=PBE          TDDFT =NONE    
 MULT  =       1     ICHARG=       0     NZVAR =      18     COORD =ZMT     
 PP    =NONE         RELWFN=NONE         LOCAL =NONE         NUMGRD=       F
 ISPHER=       1     NOSYM =       0     MAXIT =      30     UNITS =ANGS    
 PLTORB=       F     MOLPLT=       F     AIMPAC=       F     FRIEND=        
 NPRINT=       7     IREST =       0     GEOM  =INPUT   
 NORMF =       0     NORMP =       0     ITOL  =      20     ICUT  =       9
 INTTYP=BEST         GRDTYP=BEST         QMTTOL= 1.0E-06

     $SYSTEM OPTIONS
     ---------------
  REPLICATED MEMORY=     1000000 WORDS (ON EVERY NODE).
 DISTRIBUTED MEMDDI=           0 MILLION WORDS IN AGGREGATE,
 MEMDDI DISTRIBUTED OVER   1 PROCESSORS IS           0 WORDS/PROCESSOR.
 TOTAL MEMORY REQUESTED ON EACH PROCESSOR=     1000000 WORDS.
 TIMLIM=      525600.00 MINUTES, OR     365.0 DAYS.
 PARALL= F  BALTYP=  DLB     KDIAG=    0  COREFL= F
 MXSEQ2=     300 MXSEQ3=     150  mem10=         0

          ----------------
          PROPERTIES INPUT
          ----------------

     MOMENTS            FIELD           POTENTIAL          DENSITY
 IEMOM =       1   IEFLD =       0   IEPOT =       0   IEDEN =       0
 WHERE =COMASS     WHERE =NUCLEI     WHERE =NUCLEI     WHERE =NUCLEI  
 OUTPUT=BOTH       OUTPUT=BOTH       OUTPUT=BOTH       OUTPUT=BOTH    
 IEMINT=       0   IEFINT=       0                     IEDINT=       0
                                                       MORB  =       0
          EXTRAPOLATION IN EFFECT
          DIIS IN EFFECT
 ORBITAL PRINTING OPTION: NPREO=     1    44     2     1

     -------------------------------
     INTEGRAL TRANSFORMATION OPTIONS
     -------------------------------
     NWORD  =            0
     CUTOFF = 1.0E-09     MPTRAN =       0
     DIRTRF =       F     AOINTS =DUP     

          ----------------------
          INTEGRAL INPUT OPTIONS
          ----------------------
 NOPK  =       1 NORDER=       0 SCHWRZ=       T

   --- ENCODED Z MATRIX ---
 COORD  TYPE   I   J   K   L   M   N
    1      1    2   1
    2      1    3   2
    3      2    3   2   1
    4      1    4   2
    5      2    4   2   1
    6      3    4   2   1   3
    7      1    5   2
    8      2    5   2   1
    9      3    5   2   1   3
   10      1    6   1
   11      2    6   1   2
   12      3    6   1   2   3
   13      1    7   1
   14      2    7   1   2
   15      3    7   1   2   6
   16      1    8   1
   17      2    8   1   2
   18      3    8   1   2   6

 THE DETERMINANT OF THE G MATRIX IS 10**(   -12)


                     --------------------
                     INTERNAL COORDINATES
                     --------------------

                 - - ATOMS - -         COORDINATE      COORDINATE
 NO.   TYPE    I  J  K  L  M  N        (BOHR,RAD)       (ANG,DEG)
 ----------------------------------------------------------------
   1 STRETCH   2  1                     2.8345890       1.5000000
   2 STRETCH   3  2                     2.6456164       1.4000000
   3 BEND      3  2  1                  1.9118710     109.5421400
   4 STRETCH   4  2                     2.0786986       1.1000000
   5 BEND      4  2  1                  1.9118710     109.5421400
   6 TORSION   4  2  1  3               2.0943951     120.0000000
   7 STRETCH   5  2                     2.1164931       1.1200000
   8 BEND      5  2  1                  1.9118710     109.5421400
   9 TORSION   5  2  1  3              -2.1031217    -120.5000000
  10 STRETCH   6  1                     2.6456164       1.4000000
  11 BEND      6  1  2                  1.9118710     109.5421400
  12 TORSION   6  1  2  3               0.8726646      50.0000000
  13 STRETCH   7  1                     2.0786986       1.1000000
  14 BEND      7  1  2                  1.9118710     109.5421400
  15 TORSION   7  1  2  6               2.0943951     120.0000000
  16 STRETCH   8  1                     2.0786986       1.1000000
  17 BEND      8  1  2                  1.9118710     109.5421400
  18 TORSION   8  1  2  6              -2.1031217    -120.5000000

     ------------------------------------------
     THE POINT GROUP IS C1 , NAXIS= 0, ORDER= 1
     ------------------------------------------

 -- VARIATIONAL SPACE WILL BE RESTRICTED TO PURE SPHERICAL HARMONICS ONLY --
 AFTER EXCLUDING CONTAMINANT COMBINATIONS FROM THE CARTESIAN GAUSSIAN BASIS
 SET, THE NUMBER OF SPHERICAL HARMONICS KEPT IN THE VARIATION SPACE IS   44

     DIMENSIONS OF THE SYMMETRY SUBSPACES ARE
 A   =   44

 ..... DONE SETTING UP THE RUN .....
 STEP CPU TIME =     0.03 TOTAL CPU TIME =          0.0 (      0.0 MIN)
 TOTAL WALL CLOCK TIME=          0.0 SECONDS, CPU UTILIZATION IS    75.00%


          -----------------------------
          STATIONARY POINT LOCATION RUN
          -----------------------------

 OBTAINING INITIAL HESSIAN, HESS=GUESS   
 DIAGONAL GUESS HESSIAN IN INTERNAL COORDS IS
     1  0.3892     2  0.3267     3  0.2379     4  0.3397     5  0.2253
     6  0.2500     7  0.3267     8  0.2241     9  0.2500    10  0.3267
    11  0.2379    12  0.2500    13  0.3397    14  0.2253    15  0.2500
    16  0.3397    17  0.2253    18  0.2500

          PARAMETERS CONTROLLING GEOMETRY SEARCH ARE
          METHOD =QA                  UPHESS =BFGS    
          NNEG   =         0          NFRZ   =         0
          NSTEP  =        50          IFOLOW =         1
          HESS   =GUESS               RESTAR =         F
          IHREP  =         0          HSSEND =         F
          NPRT   =         0          NPUN   =         0
          OPTTOL = 1.000E-04          RMIN   = 1.500E-03
          RMAX   = 1.000E-01          RLIM   = 7.000E-02
          DXMAX  = 3.000E-01          PURIFY =         F
          MOVIE  =         F          TRUPD  =         T
          TRMAX  = 5.000E-01          TRMIN  = 5.000E-02
          ITBMAT =         5          STPT   =         F
          STSTEP = 1.000E-02          PROJCT=          T

 BEGINNING GEOMETRY SEARCH POINT NSERCH=   0 ...

 COORDINATES OF ALL ATOMS ARE (ANGS)
   ATOM   CHARGE       X              Y              Z
 ------------------------------------------------------------
 C           6.0  -0.7059442191  -0.6589272093   0.2540742689
 C           6.0   0.7059744722  -0.6593172976  -0.2523696640
 F           9.0   1.3350056011   0.5367420616   0.1133650049
 H           1.0   1.2530878676  -1.5081046277   0.1837805404
 H           1.0   0.7038960560  -0.7614087335  -1.3677050480
 F           9.0  -1.3350281738   0.5364942447  -0.1136497109
 H           1.0  -1.2530201000  -1.5084631416  -0.1806632154
 H           1.0  -0.7038985280  -0.7573729468   1.3496582465


                     --------------------
                     INTERNAL COORDINATES
                     --------------------

                 - - ATOMS - -         COORDINATE      COORDINATE
 NO.   TYPE    I  J  K  L  M  N        (BOHR,RAD)       (ANG,DEG)
 ----------------------------------------------------------------
   1 STRETCH   2  1                     2.8345890       1.5000000
   2 STRETCH   3  2                     2.6456164       1.4000000
   3 BEND      3  2  1                  1.9118710     109.5421400
   4 STRETCH   4  2                     2.0786986       1.1000000
   5 BEND      4  2  1                  1.9118710     109.5421400
   6 TORSION   4  2  1  3               2.0943951     120.0000000
   7 STRETCH   5  2                     2.1164931       1.1200000
   8 BEND      5  2  1                  1.9118710     109.5421400
   9 TORSION   5  2  1  3              -2.1031217    -120.5000000
  10 STRETCH   6  1                     2.6456164       1.4000000
  11 BEND      6  1  2                  1.9118710     109.5421400
  12 TORSION   6  1  2  3               0.8726646      50.0000000
  13 STRETCH   7  1                     2.0786986       1.1000000
  14 BEND      7  1  2                  1.9118710     109.5421400
  15 TORSION   7  1  2  6               2.0943951     120.0000000
  16 STRETCH   8  1                     2.0786986       1.1000000
  17 BEND      8  1  2                  1.9118710     109.5421400
  18 TORSION   8  1  2  6              -2.1031217    -120.5000000

 THE CURRENT FULLY SUBSTITUTED Z-MATRIX IS
 C   
 C      1   1.5000000
 F      2   1.4000000  1   109.5421400
 H      2   1.1000000  1   109.5421400  3   120.0000000  0
 H      2   1.1200000  1   109.5421400  3  -120.5000000  0
 F      1   1.4000000  2   109.5421400  3    50.0000000  0
 H      1   1.1000000  2   109.5421400  6   120.0000000  0
 H      1   1.1000000  2   109.5421400  6  -120.5000000  0

          ********************
          1 ELECTRON INTEGRALS
          ********************
 ...... END OF ONE-ELECTRON INTEGRALS ......
 STEP CPU TIME =     0.00 TOTAL CPU TIME =          0.0 (      0.0 MIN)
 TOTAL WALL CLOCK TIME=          0.0 SECONDS, CPU UTILIZATION IS    75.00%

          -------------
          GUESS OPTIONS
          -------------
          GUESS =HUCKEL            NORB  =       0          NORDER=       0
          MIX   =       F          PRTMO =       F          PUNMO =       F
          TOLZ  = 1.0E-08          TOLE  = 1.0E-05
          SYMDEN=       F          PURIFY=       F

 INITIAL GUESS ORBITALS GENERATED BY HUCKEL   ROUTINE.
 HUCKEL GUESS REQUIRES     22304 WORDS.

 SYMMETRIES FOR INITIAL GUESS ORBITALS FOLLOW.   BOTH SET(S).
    17 ORBITALS ARE OCCUPIED (    4 CORE ORBITALS).
     5=A        6=A        7=A        8=A        9=A       10=A       11=A   
    12=A       13=A       14=A       15=A       16=A       17=A       18=A   
    19=A       20=A       21=A       22=A       23=A       24=A       25=A   
    26=A       27=A   
 ...... END OF INITIAL ORBITAL SELECTION ......
 STEP CPU TIME =     0.00 TOTAL CPU TIME =          0.0 (      0.0 MIN)
 TOTAL WALL CLOCK TIME=          0.1 SECONDS, CPU UTILIZATION IS    60.00%

                    ----------------------
                    AO INTEGRAL TECHNOLOGY
                    ----------------------
     S,P,L SHELL ROTATED AXIS INTEGRALS, REPROGRAMMED BY
        KAZUYA ISHIMURA (IMS) AND JOSE SIERRA (SYNSTAR).
     S,P,D,L SHELL ROTATED AXIS INTEGRALS PROGRAMMED BY
        KAZUYA ISHIMURA (INSTITUTE FOR MOLECULAR SCIENCE).
     S,P,D,F,G SHELL TO TOTAL QUARTET ANGULAR MOMENTUM SUM 5,
        ERIC PROGRAM BY GRAHAM FLETCHER (ELORET AND NASA ADVANCED
        SUPERCOMPUTING DIVISION, AMES RESEARCH CENTER).
     S,P,D,F,G,L SHELL GENERAL RYS QUADRATURE PROGRAMMED BY
        MICHEL DUPUIS (PACIFIC NORTHWEST NATIONAL LABORATORY).

          --------------------
          2 ELECTRON INTEGRALS
          --------------------

 THE -PK- OPTION IS OFF, THE INTEGRALS ARE NOT IN SUPERMATRIX FORM.
 STORING   15000 INTEGRALS/RECORD ON DISK, USING 12 BYTES/INTEGRAL.
 TWO ELECTRON INTEGRAL EVALUATION REQUIRES   89762 WORDS OF MEMORY.
 SCHWARZ INEQUALITY OVERHEAD:       981 INTEGRALS, T=        0.00
 II,JST,KST,LST =  1  1  1  1 NREC =         1 INTLOC =    1
 II,JST,KST,LST =  2  1  1  1 NREC =         1 INTLOC =    2
 II,JST,KST,LST =  3  1  1  1 NREC =         1 INTLOC =    7
 II,JST,KST,LST =  4  1  1  1 NREC =         1 INTLOC =   22
 II,JST,KST,LST =  5  1  1  1 NREC =         1 INTLOC =   67
 II,JST,KST,LST =  6  1  1  1 NREC =         1 INTLOC =  214
 II,JST,KST,LST =  7  1  1  1 NREC =         1 INTLOC =  686
 II,JST,KST,LST =  8  1  1  1 NREC =         1 INTLOC = 1353
 II,JST,KST,LST =  9  1  1  1 NREC =         1 INTLOC = 2220
 II,JST,KST,LST = 10  1  1  1 NREC =         1 INTLOC = 6202
 II,JST,KST,LST = 11  1  1  1 NREC =         1 INTLOC =12958
 II,JST,KST,LST = 12  1  1  1 NREC =         2 INTLOC =  723
 II,JST,KST,LST = 13  1  1  1 NREC =         2 INTLOC = 4492
 II,JST,KST,LST = 14  1  1  1 NREC =         2 INTLOC = 9039
 II,JST,KST,LST = 15  1  1  1 NREC =         3 INTLOC =10795
 II,JST,KST,LST = 16  1  1  1 NREC =         5 INTLOC = 5942
 II,JST,KST,LST = 17  1  1  1 NREC =         6 INTLOC = 1612
 II,JST,KST,LST = 18  1  1  1 NREC =         6 INTLOC =13603
 II,JST,KST,LST = 19  1  1  1 NREC =         7 INTLOC =11761
 II,JST,KST,LST = 20  1  1  1 NREC =         8 INTLOC =11443
 II,JST,KST,LST = 21  1  1  1 NREC =         9 INTLOC = 6395
 II,JST,KST,LST = 22  1  1  1 NREC =        10 INTLOC = 5657
 II,JST,KST,LST = 23  1  1  1 NREC =        11 INTLOC = 9275
 II,JST,KST,LST = 24  1  1  1 NREC =        15 INTLOC =  137
 II,JST,KST,LST = 25  1  1  1 NREC =        20 INTLOC = 4974
 II,JST,KST,LST = 26  1  1  1 NREC =        22 INTLOC = 3248
 II,JST,KST,LST = 27  1  1  1 NREC =        24 INTLOC = 8076
 II,JST,KST,LST = 28  1  1  1 NREC =        26 INTLOC =13694
 SCHWARZ INEQUALITY TEST SKIPPED        7831 INTEGRAL BLOCKS.
 TOTAL NUMBER OF NONZERO TWO-ELECTRON INTEGRALS =              429070
         29 INTEGRAL RECORDS WERE STORED ON DISK FILE  8.
  ...... END OF TWO-ELECTRON INTEGRALS .....
 STEP CPU TIME =     0.10 TOTAL CPU TIME =          0.1 (      0.0 MIN)
 TOTAL WALL CLOCK TIME=          0.2 SECONDS, CPU UTILIZATION IS    86.67%

          --------------------------
               R-PBE SCF CALCULATION
          --------------------------

     NUCLEAR ENERGY =       128.1316801484
     MAXIT =   30     NPUNCH=    2
     EXTRAP=T  DAMP=F  SHIFT=F  RSTRCT=F  DIIS=T  DEM=F  SOSCF=F
         DENSITY MATRIX CONVERGENCE THRESHOLD=  1.00E-05
     COARSE -> FINE DFT GRID SWITCH THRESHOLD=  3.00E-04 (SWITCH IN $DFT)
                   HF -> DFT SWITCH THRESHOLD=  5.00E-03 (SWOFF IN $DFT)
     MEMORY REQUIRED FOR RHF ITERS=    330938 WORDS.

 DFT CODE IS SWITCHING FROM THE FINE GRID NRAD= 96,  NLEB=  302
                      TO THE COARSE GRID NRAD0= 24, NLEB0=  110

     EXCHANGE FUNCTIONAL   =PBE       
     CORRELATION FUNCTIONAL=PBE       
     DFT THRESHOLD         =.172E-07
     GRID CHANGE THRESHOLD =.300E-03
 FOR AN EULER-MACLAURIN QUADRATURE USING  96 RADIAL POINTS:
 SMALLEST GAUSSIAN PRIMITIVE EXPONENT=        0.1366870000 OF TYPE -S-
 ON ATOM NUMBER   4 HAS RADIAL NORMALIZATION=  1.000000
  LARGEST GAUSSIAN PRIMITIVE EXPONENT=     1106.0400000000 OF TYPE -S-
 ON ATOM NUMBER   3 HAS RADIAL NORMALIZATION=  1.000000
 DFT IS SWITCHED OFF, PERFORMING PURE SCF UNTIL SWOFF THRESHOLD IS REACHED.

 ITER EX DEM     TOTAL ENERGY        E CHANGE  DENSITY CHANGE    DIIS ERROR
          * * *   INITIATING DIIS PROCEDURE   * * *
   1  0  0     -275.5387332039  -275.5387332039   0.305941909   0.482557454
   2  1  0     -276.0603595588    -0.5216263549   0.068125193   0.119176605
   3  2  0     -276.0869662214    -0.0266066626   0.029283825   0.049800189
   4  3  0     -276.0923762766    -0.0054100552   0.008123781   0.010240255
   5  4  0     -276.0926655254    -0.0002892488   0.000625498   0.001275913
 CONVERGED TO SWOFF, SO DFT CALCULATION IS NOW SWITCHED ON.
          * * *   INITIATING DIIS PROCEDURE   * * *
   6  5  0     -277.1635929859    -1.0709274605   0.107417561   0.094629817
   7  6  0     -277.1730783858    -0.0094853999   0.076993596   0.071060542
   8  7  0     -277.1785908362    -0.0055124503   0.025396005   0.059031067
   9  8  0     -277.1891559340    -0.0105650978   0.005445571   0.007648914
  10  9  0     -277.1893210082    -0.0001650742   0.001343102   0.002070368
  11 10  0     -277.1893352785    -0.0000142703   0.000111344   0.000120715
 DFT CODE IS SWITCHING BACK TO THE FINE GRID
          * * *   INITIATING DIIS PROCEDURE   * * *
  12 11  0     -277.1983423570    -0.0090070785   0.003379980   0.002233272
  13 12  0     -277.1983616992    -0.0000193422   0.000564784   0.000334881
  14 13  0     -277.1983616075     0.0000000917   0.000264753   0.000502964
  15 14  0     -277.1983623595    -0.0000007519   0.000047926   0.000104013
  16 15  0     -277.1983623749    -0.0000000154   0.000010138   0.000014493
  17 16  0     -277.1983623755    -0.0000000006   0.000002630   0.000003415
  18 17  0     -277.1983623756    -0.0000000001   0.000000517   0.000001014

          -----------------
          DENSITY CONVERGED
          -----------------
     TIME TO FORM FOCK OPERATORS=       4.7 SECONDS (       0.3 SEC/ITER)
     TIME TO SOLVE SCF EQUATIONS=       0.0 SECONDS (       0.0 SEC/ITER)

 FINAL R-PBE ENERGY IS     -277.1983623756 AFTER  18 ITERATIONS
 DFT EXCHANGE + CORRELATION ENERGY =       -32.8539489265
 TOTAL ELECTRON NUMBER             =        34.0003740350

          ------------
          EIGENVECTORS
          ------------

                      1          2          3          4          5
                  -24.2361   -24.2356    -9.9760    -9.9742    -1.0889
                     A          A          A          A          A   
    1  C  1  S    0.000076   0.000128  -0.037269   0.983451  -0.069048
    2  C  1  S   -0.000077  -0.002838  -0.004416   0.059219   0.121122
    3  C  1  S   -0.006704   0.020364   0.013641  -0.047516   0.006340
    4  C  1  X   -0.000277  -0.000571  -0.001609  -0.000143  -0.015038
    5  C  1  Y   -0.000186   0.000668  -0.000221   0.000389   0.055182
    6  C  1  Z   -0.000045  -0.000139   0.000572  -0.000167  -0.018632
    7  C  1  X   -0.003044   0.000029   0.004402  -0.003409   0.003924
    8  C  1  Y   -0.000305   0.004572  -0.000735   0.003507   0.012065
    9  C  1  Z    0.000810  -0.002217  -0.001207  -0.000559  -0.003411
   10  C  2  S    0.000133   0.000069   0.983438   0.038283  -0.070111
   11  C  2  S   -0.002829   0.000063   0.059263   0.000139   0.123060
   12  C  2  S    0.019824  -0.007707  -0.048095   0.009965   0.006286
   13  C  2  X    0.000582   0.000250   0.000019   0.001620   0.015857
   14  C  2  Y    0.000658  -0.000219   0.000412  -0.000191   0.056414
   15  C  2  Z    0.000147   0.000036   0.000265  -0.000553   0.019237
   16  C  2  X    0.000131   0.003055   0.003752  -0.004134  -0.003649
   17  C  2  Y    0.004559  -0.000523   0.003532  -0.000471   0.012060
   18  C  2  Z    0.002227  -0.000932   0.000417   0.001188   0.003489
   19  F  3  S    0.983835  -0.023570   0.000232   0.000080  -0.203445
   20  F  3  S    0.053365  -0.001188  -0.000837  -0.000683   0.362364
   21  F  3  S   -0.028230   0.000876   0.002434   0.001188   0.332874
   22  F  3  X   -0.000996  -0.000054  -0.000007   0.000292  -0.033053
   23  F  3  Y   -0.001883   0.000017  -0.000113   0.000059  -0.058710
   24  F  3  Z   -0.000545   0.000082  -0.000049  -0.000036  -0.016723
   25  F  3  X    0.002439   0.000166   0.001264  -0.001160  -0.038169
   26  F  3  Y    0.004362  -0.000090   0.002976  -0.000296  -0.066503
   27  F  3  Z    0.001271  -0.000253   0.000989   0.000140  -0.018314
   28  H  4  S   -0.001025   0.000028  -0.002272   0.000216   0.012197
   29  H  4  S   -0.002913   0.001068   0.010848  -0.000123   0.008218
   30  H  5  S   -0.001000   0.000232  -0.002104   0.000015   0.011218
   31  H  5  S   -0.002897   0.000230   0.010724   0.000094   0.008005
   32  F  6  S    0.023545   0.983835   0.000062   0.000236  -0.198690
   33  F  6  S    0.001368   0.053368  -0.000616  -0.000880   0.353830
   34  F  6  S   -0.000481  -0.028263   0.000985   0.002512   0.325058
   35  F  6  X    0.000101   0.000992  -0.000292  -0.000014   0.032382
   36  F  6  Y   -0.000073  -0.001881   0.000066  -0.000109  -0.057339
   37  F  6  Z   -0.000056   0.000554   0.000031   0.000057   0.016512
   38  F  6  X   -0.000281  -0.002432   0.001253  -0.001179   0.037401
   39  F  6  Y    0.000120   0.004363  -0.000516   0.002949  -0.064906
   40  F  6  Z    0.000193  -0.001297  -0.000056  -0.001025   0.018080
   41  H  7  S   -0.000022  -0.001030   0.000379  -0.002248   0.012023
   42  H  7  S    0.000917  -0.002973  -0.000949   0.010826   0.008147
   43  H  8  S    0.000182  -0.001035   0.000217  -0.002223   0.011541
   44  H  8  S    0.000095  -0.003029  -0.000744   0.011008   0.008032

                      6          7          8          9         10
                   -1.0719    -0.7130    -0.5706    -0.4712    -0.4644
                     A          A          A          A          A   
    1  C  1  S   -0.053840  -0.186021   0.159453   0.010191  -0.008809
    2  C  1  S    0.098259   0.342700  -0.312040  -0.028427   0.030655
    3  C  1  S   -0.028010   0.173537  -0.175910   0.030752  -0.059478
    4  C  1  X   -0.036402   0.092778   0.086122   0.080583   0.127515
    5  C  1  Y    0.051977  -0.048457   0.036129   0.024043   0.210471
    6  C  1  Z   -0.017127  -0.018643  -0.065326   0.237076  -0.018690
    7  C  1  X   -0.018031   0.056873   0.063755   0.072657   0.128561
    8  C  1  Y    0.004825  -0.044604   0.051058   0.042744   0.185369
    9  C  1  Z   -0.002025  -0.008021  -0.062606   0.221683   0.006786
   10  C  2  S    0.052140  -0.184016  -0.161634  -0.008716  -0.008588
   11  C  2  S   -0.095290   0.338971   0.316446   0.025032   0.030653
   12  C  2  S    0.027910   0.173076   0.178730  -0.029505  -0.062713
   13  C  2  X   -0.036089  -0.092971   0.083654   0.089717  -0.124776
   14  C  2  Y   -0.050777  -0.047938  -0.036461  -0.029721   0.210098
   15  C  2  Z   -0.016804   0.021970  -0.059718   0.227509   0.027317
   16  C  2  X   -0.018098  -0.057159   0.061806   0.080716  -0.125490
   17  C  2  Y   -0.004507  -0.044008  -0.051706  -0.047543   0.183442
   18  C  2  Z   -0.001842   0.010150  -0.059925   0.215468   0.001527
   19  F  3  S    0.206776   0.076334   0.066261   0.026968   0.042094
   20  F  3  S   -0.369773  -0.140570  -0.123258  -0.048797  -0.075418
   21  F  3  S   -0.342274  -0.158943  -0.148709  -0.069787  -0.112664
   22  F  3  X    0.028458  -0.033836  -0.027905  -0.027423  -0.192136
   23  F  3  Y    0.057883  -0.041269  -0.112547  -0.123370  -0.076553
   24  F  3  Z    0.016481  -0.005865  -0.052780   0.093675  -0.038781
   25  F  3  X    0.032295  -0.025486  -0.029512  -0.030110  -0.195651
   26  F  3  Y    0.067139  -0.034494  -0.111242  -0.124394  -0.080392
   27  F  3  Z    0.019234  -0.006070  -0.051766   0.090882  -0.038227
   28  H  4  S   -0.009373   0.091570   0.132221   0.117661  -0.146760
   29  H  4  S   -0.008071   0.005935   0.035310   0.039751  -0.034353
   30  H  5  S   -0.008980   0.080780   0.135551  -0.145007  -0.029250
   31  H  5  S   -0.008786   0.007861   0.030820  -0.035964  -0.007993
   32  F  6  S   -0.211259   0.076996  -0.065255  -0.028669   0.041202
   33  F  6  S    0.377726  -0.141877   0.121412   0.051850  -0.073732
   34  F  6  S    0.349631  -0.159808   0.146403   0.074116  -0.110799
   35  F  6  X    0.029189   0.033817  -0.026315  -0.035940   0.190268
   36  F  6  Y   -0.059145  -0.041452   0.110537   0.126648  -0.071835
   37  F  6  Z    0.017019   0.006455  -0.053613   0.095444   0.042849
   38  F  6  X    0.033132   0.025523  -0.028053  -0.038674   0.193506
   39  F  6  Y   -0.068548  -0.034783   0.109213   0.127803  -0.075483
   40  F  6  Z    0.019866   0.006632  -0.052661   0.092760   0.042144
   41  H  7  S    0.009674   0.092168  -0.129868  -0.115268  -0.150118
   42  H  7  S    0.008275   0.006298  -0.034691  -0.039769  -0.035359
   43  H  8  S    0.009621   0.085484  -0.140674   0.153518  -0.023332
   44  H  8  S    0.009258   0.007977  -0.031306   0.036790  -0.006197

                     11         12         13         14         15
                   -0.4336    -0.4041    -0.3945    -0.3083    -0.2812
                     A          A          A          A          A   
    1  C  1  S    0.007583  -0.009653   0.003434  -0.033123  -0.005158
    2  C  1  S   -0.038120  -0.006728  -0.000216   0.077892   0.011940
    3  C  1  S    0.007051   0.174047  -0.041626   0.157509   0.011430
    4  C  1  X    0.237968  -0.009698  -0.026847   0.043621  -0.031312
    5  C  1  Y   -0.078688  -0.204755  -0.012745  -0.011198  -0.048395
    6  C  1  Z   -0.067378   0.011808  -0.217767   0.024447  -0.090069
    7  C  1  X    0.194194  -0.001920  -0.032382   0.142805   0.001086
    8  C  1  Y   -0.030324  -0.163384  -0.027202  -0.086432   0.014640
    9  C  1  Z   -0.066445  -0.010062  -0.251649  -0.036301  -0.058494
   10  C  2  S    0.007787   0.009790   0.005204   0.033082   0.004947
   11  C  2  S   -0.038542   0.005783  -0.002357  -0.077820  -0.011257
   12  C  2  S    0.005881  -0.171600  -0.052958  -0.158425  -0.010645
   13  C  2  X   -0.237059  -0.012903   0.026356   0.041833  -0.032302
   14  C  2  Y   -0.081026   0.203793  -0.003848   0.012112   0.047888
   15  C  2  Z    0.071021   0.002572   0.222892   0.024877  -0.089033
   16  C  2  X   -0.192573  -0.004945   0.032091   0.141868   0.000064
   17  C  2  Y   -0.032302   0.163316  -0.020646   0.086900  -0.015239
   18  C  2  Z    0.070836  -0.020407   0.258128  -0.033539  -0.060138
   19  F  3  S   -0.043274   0.036535   0.012483   0.002772   0.001058
   20  F  3  S    0.079125  -0.066403  -0.021393  -0.002123  -0.007513
   21  F  3  S    0.108811  -0.083041  -0.035111  -0.037085   0.027823
   22  F  3  X   -0.010248  -0.175335  -0.026309   0.306867   0.122114
   23  F  3  Y    0.232436  -0.190752  -0.167662  -0.123169  -0.181880
   24  F  3  Z    0.130987  -0.120866   0.159410  -0.185876   0.282998
   25  F  3  X   -0.000757  -0.191163  -0.029359   0.344237   0.129198
   26  F  3  Y    0.252151  -0.215938  -0.181081  -0.123340  -0.214778
   27  F  3  Z    0.136676  -0.131379   0.163939  -0.201915   0.323281
   28  H  4  S   -0.025651  -0.149306   0.078320  -0.014512  -0.129408
   29  H  4  S   -0.012227  -0.055698   0.040209   0.023193  -0.109057
   30  H  5  S   -0.050223  -0.026452  -0.184318  -0.072113   0.100734
   31  H  5  S   -0.022320   0.008870  -0.072762  -0.028676   0.050498
   32  F  6  S   -0.043100  -0.037690   0.011089  -0.002856  -0.001010
   33  F  6  S    0.078807   0.068428  -0.018766   0.002363   0.007335
   34  F  6  S    0.108489   0.086294  -0.032482   0.036929  -0.027398
   35  F  6  X    0.011138  -0.176437   0.017253   0.304500   0.121681
   36  F  6  Y    0.231395   0.199852  -0.158209   0.120337   0.184179
   37  F  6  Z   -0.127380  -0.116692  -0.156675  -0.190352   0.288982
   38  F  6  X    0.001675  -0.192409   0.019385   0.341395   0.128795
   39  F  6  Y    0.250817   0.225705  -0.170290   0.120248   0.217264
   40  F  6  Z   -0.133003  -0.127191  -0.161408  -0.206740   0.329962
   41  H  7  S   -0.028326   0.145596   0.084669   0.012560   0.130359
   42  H  7  S   -0.013196   0.053746   0.042917  -0.024751   0.109963
   43  H  8  S   -0.048654   0.033858  -0.180283   0.072462  -0.102166
   44  H  8  S   -0.021466  -0.007257  -0.069008   0.028246  -0.050063

                     16         17         18         19         20
                   -0.2749    -0.2664     0.0360     0.0520     0.0722
                     A          A          A          A          A   
    1  C  1  S   -0.008399   0.029016   0.006742  -0.121242   0.020733
    2  C  1  S    0.021638  -0.078308   0.007702   0.256626  -0.029149
    3  C  1  S   -0.000503  -0.044764  -0.522692   1.121878  -0.579889
    4  C  1  X    0.067794  -0.189348  -0.013721  -0.148703  -0.090747
    5  C  1  Y    0.063206  -0.036123   0.251144   0.060126   0.009203
    6  C  1  Z    0.114125   0.097370  -0.081364  -0.002672  -0.223101
    7  C  1  X    0.018891  -0.110416  -0.050650  -0.435829  -0.312582
    8  C  1  Y    0.047336   0.008479   0.618585   0.089574  -0.010289
    9  C  1  Z    0.023955   0.082186  -0.251279   0.031838  -0.588531
   10  C  2  S   -0.008901   0.029196   0.007976  -0.127490  -0.006610
   11  C  2  S    0.022459  -0.078903   0.005425   0.267274  -0.000080
   12  C  2  S    0.007021  -0.042733  -0.528251   1.210374   0.403071
   13  C  2  X   -0.068584   0.189427   0.015313   0.140267  -0.111818
   14  C  2  Y    0.063255  -0.036088   0.252144   0.056975  -0.005692
   15  C  2  Z   -0.116244  -0.098058   0.087718  -0.025840  -0.237794
   16  C  2  X   -0.021025   0.110348   0.055123   0.403384  -0.376979
   17  C  2  Y    0.045461   0.008373   0.620422   0.078489   0.026219
   18  C  2  Z   -0.026778  -0.083702   0.264397  -0.099218  -0.615336
   19  F  3  S    0.001202   0.003425   0.052655   0.042690  -0.019077
   20  F  3  S    0.002607  -0.008938  -0.098001  -0.065818   0.035030
   21  F  3  S   -0.029199  -0.008234  -0.319529  -0.346988   0.121880
   22  F  3  X    0.163524  -0.260660   0.116344   0.059192  -0.017945
   23  F  3  Y   -0.123129   0.062647   0.134656   0.157518  -0.078853
   24  F  3  Z    0.253710   0.197578   0.017421   0.067760   0.015284
   25  F  3  X    0.198217  -0.308646   0.184992   0.096925  -0.027323
   26  F  3  Y   -0.133953   0.073503   0.230553   0.261218  -0.134010
   27  F  3  Z    0.291694   0.231732   0.040793   0.106603   0.030698
   28  H  4  S   -0.159440   0.080582   0.099011   0.031406   0.076423
   29  H  4  S   -0.131128   0.086792   0.739670  -0.702887   0.628751
   30  H  5  S    0.160706   0.100063   0.006620  -0.053417  -0.116890
   31  H  5  S    0.157688   0.096131   0.440170  -0.792597  -1.105352
   32  F  6  S    0.001161   0.003375   0.052352   0.043999   0.015077
   33  F  6  S    0.002715  -0.008844  -0.097480  -0.068088  -0.029728
   34  F  6  S   -0.029487  -0.008081  -0.317177  -0.356412  -0.082743
   35  F  6  X   -0.165706   0.262623  -0.115878  -0.060302  -0.014937
   36  F  6  Y   -0.123116   0.064076   0.133338   0.162981   0.061136
   37  F  6  Z   -0.248680  -0.196377  -0.019084  -0.064544   0.017834
   38  F  6  X   -0.200770   0.310899  -0.184224  -0.099210  -0.021271
   39  F  6  Y   -0.133765   0.075112   0.228183   0.271567   0.103634
   40  F  6  Z   -0.285866  -0.230229  -0.043272  -0.101319   0.034954
   41  H  7  S   -0.158284   0.081271   0.100637   0.025773  -0.077845
   42  H  7  S   -0.129190   0.087384   0.746872  -0.725703  -0.475047
   43  H  8  S    0.157689   0.098788   0.001649  -0.034528   0.114872
   44  H  8  S    0.154718   0.093612   0.419828  -0.656042   1.173974

                     21         22         23         24         25
                    0.0954     0.1274     0.1294     0.2142     0.5393
                     A          A          A          A          A   
    1  C  1  S   -0.114991   0.001533  -0.071681   0.119599  -0.136677
    2  C  1  S    0.194209  -0.012068   0.131496  -0.194021   0.826647
    3  C  1  S    1.807354  -0.111354   0.252405  -2.381416  -2.494779
    4  C  1  X   -0.079868  -0.104684  -0.134902  -0.293990  -0.071388
    5  C  1  Y   -0.123865  -0.057426   0.279029  -0.084840   0.279034
    6  C  1  Z   -0.009285  -0.250739   0.050384   0.158010  -0.094793
    7  C  1  X   -0.074627  -0.361448  -0.408647  -1.619724  -0.312041
    8  C  1  Y   -0.527793  -0.106301   0.861400  -0.333003  -0.267028
    9  C  1  Z   -0.034428  -0.859570   0.169090   0.666187   0.475502
   10  C  2  S    0.111401   0.007890   0.070410  -0.120165   0.145870
   11  C  2  S   -0.187069  -0.026219  -0.127070   0.196152  -0.878608
   12  C  2  S   -1.750188   0.018127  -0.231677   2.386804   2.590804
   13  C  2  X   -0.071747   0.074270  -0.150520  -0.295081  -0.078407
   14  C  2  Y    0.120746  -0.111068  -0.264219   0.086102  -0.284062
   15  C  2  Z    0.003777   0.245989   0.008070   0.154911  -0.087255
   16  C  2  X   -0.047429   0.247621  -0.460735  -1.622530  -0.309930
   17  C  2  Y    0.518122  -0.274562  -0.827214   0.334998   0.277298
   18  C  2  Z   -0.002346   0.843767   0.019889   0.650709   0.443313
   19  F  3  S   -0.007156   0.002757  -0.064371   0.017124  -0.006808
   20  F  3  S    0.012801  -0.002232   0.106384  -0.012674   0.069928
   21  F  3  S    0.036853  -0.048907   0.538529  -0.266970  -0.486279
   22  F  3  X   -0.020791  -0.021793  -0.054580   0.103098  -0.075096
   23  F  3  Y   -0.043867   0.025099  -0.195399   0.021672  -0.075802
   24  F  3  Z    0.014857  -0.059283  -0.088230  -0.019279  -0.095919
   25  F  3  X   -0.011127  -0.025571  -0.132916   0.208195   0.037893
   26  F  3  Y   -0.051777   0.057592  -0.351465   0.047574   0.068526
   27  F  3  Z    0.020802  -0.096360  -0.150613  -0.040296  -0.035081
   28  H  4  S    0.078144  -0.024193   0.055208   0.064726  -0.226955
   29  H  4  S    1.315906  -0.975984  -0.127652  -0.048660  -0.308662
   30  H  5  S    0.041486   0.052044  -0.042475   0.090658   0.587837
   31  H  5  S    0.761593   1.081440   0.244067  -0.101295  -0.752125
   32  F  6  S    0.008520   0.014704   0.062844  -0.017248   0.007090
   33  F  6  S   -0.014511  -0.022834  -0.103932   0.012923  -0.068999
   34  F  6  S   -0.051447  -0.142659  -0.523351   0.268141   0.469615
   35  F  6  X   -0.021229   0.013031  -0.057788   0.102947  -0.077024
   36  F  6  Y    0.050267   0.061116   0.188205  -0.022017   0.070165
   37  F  6  Z    0.016241   0.040634  -0.097137  -0.020117  -0.094777
   38  F  6  X   -0.012664   0.003478  -0.135894   0.208304   0.034436
   39  F  6  Y    0.063377   0.122433   0.336478  -0.048531  -0.068401
   40  F  6  Z    0.022824   0.066330  -0.165224  -0.041789  -0.037969
   41  H  7  S   -0.077677  -0.034965  -0.048820  -0.064712   0.249119
   42  H  7  S   -1.385616  -0.906192   0.291251   0.057528   0.282722
   43  H  8  S   -0.037361   0.059495   0.034330  -0.090778  -0.562057
   44  H  8  S   -0.758061   1.155928  -0.455437   0.081478   0.680098

                     26         27         28         29         30
                    0.5597     0.6464     0.6472     0.6804     0.7028
                     A          A          A          A          A   
    1  C  1  S    0.192341  -0.124232   0.045048   0.094585   0.081739
    2  C  1  S   -1.177561   0.883201  -0.592108  -0.798101  -0.134690
    3  C  1  S    1.860362  -3.240711   1.943567   1.069651   0.470794
    4  C  1  X    0.164265  -0.039525   0.090033  -0.515423  -0.537364
    5  C  1  Y   -0.273120   0.131511  -0.181197   0.259576   0.248845
    6  C  1  Z    0.159895  -0.052697  -0.009722  -0.048507   0.082082
    7  C  1  X   -0.185861  -0.729477  -0.273406   0.473594   0.961605
    8  C  1  Y    0.268205  -0.824247   0.075170  -0.391879  -0.058274
    9  C  1  Z   -0.090579   0.118377   0.176907   0.034156  -0.265203
   10  C  2  S    0.187039   0.128922  -0.018375   0.100174  -0.081865
   11  C  2  S   -1.145559  -1.046225  -0.128131  -0.812893   0.127634
   12  C  2  S    1.755349   3.709026   0.233354   1.112244  -0.554673
   13  C  2  X   -0.160840  -0.078074  -0.086756   0.543288  -0.476367
   14  C  2  Y   -0.259955  -0.209181  -0.122463   0.283324  -0.219192
   15  C  2  Z   -0.153626  -0.057098   0.028251   0.055525   0.026461
   16  C  2  X    0.195729  -0.516497   0.606876  -0.523801   0.868694
   17  C  2  Y    0.256773   0.775875  -0.294950  -0.412949   0.035026
   18  C  2  Z    0.073174   0.081278  -0.190748  -0.036620  -0.204178
   19  F  3  S    0.019305   0.022752   0.047144   0.040607   0.027413
   20  F  3  S   -0.029415   0.000100  -0.174175  -0.162583  -0.097505
   21  F  3  S   -0.407904  -0.733158   0.038285   0.203604  -0.061119
   22  F  3  X    0.020085  -0.089478  -0.039057   0.093894  -0.036780
   23  F  3  Y   -0.136283  -0.075950   0.042265   0.063275   0.004407
   24  F  3  Z   -0.040431   0.093241  -0.012587  -0.028906   0.006852
   25  F  3  X    0.072012   0.114796  -0.050907   0.034300  -0.038054
   26  F  3  Y    0.035276   0.135588   0.049568  -0.051311   0.062847
   27  F  3  Z    0.004576   0.095011   0.014188  -0.042412   0.036617
   28  H  4  S    0.336147   0.358428  -0.841191  -0.167790  -0.459229
   29  H  4  S   -0.696950  -0.859487   0.214513  -0.297157   0.153223
   30  H  5  S    0.036701  -0.492402  -0.368036   0.177150  -0.430994
   31  H  5  S   -0.522090  -0.363038  -0.099000  -0.604193   0.235973
   32  F  6  S    0.018931   0.000954   0.051487   0.041668  -0.026973
   33  F  6  S   -0.026367  -0.078706  -0.152721  -0.165549   0.091797
   34  F  6  S   -0.427158   0.672199  -0.287209   0.191548   0.098773
   35  F  6  X   -0.016790  -0.061790   0.071833  -0.090442  -0.052463
   36  F  6  Y   -0.139313   0.088117   0.004477   0.062202  -0.003632
   37  F  6  Z    0.045157   0.089967  -0.034766   0.030066   0.005756
   38  F  6  X   -0.073370   0.124715  -0.007211  -0.033604  -0.042780
   39  F  6  Y    0.037998  -0.097576   0.100754  -0.045770  -0.074790
   40  F  6  Z   -0.002672   0.081895  -0.058215   0.041334   0.046081
   41  H  7  S    0.324026  -0.700250  -0.549343  -0.198610   0.516566
   42  H  7  S   -0.705822   0.862429  -0.218177  -0.276910  -0.197670
   43  H  8  S    0.061259   0.270517  -0.540432   0.158458   0.393814
   44  H  8  S   -0.559996   0.320944  -0.317383  -0.585826  -0.132501

                     31         32         33         34         35
                    0.7545     0.7611     0.8118     0.8579     0.8834
                     A          A          A          A          A   
    1  C  1  S    0.015575   0.132206   0.077307   0.036909   0.030886
    2  C  1  S    0.069451  -0.905679  -0.465434  -0.327424  -0.197871
    3  C  1  S   -0.151912   2.643787   1.315269   1.206960   0.517217
    4  C  1  X    0.077102   0.276373   0.261517  -0.211957   0.289007
    5  C  1  Y   -0.244416   0.532938   0.470240  -0.149387   0.377644
    6  C  1  Z   -0.385594  -0.229204  -0.339938  -0.736137   0.427109
    7  C  1  X   -0.218851  -0.150148  -0.187503   0.427365  -0.744281
    8  C  1  Y    0.468623  -1.233544  -0.591952   0.197419  -0.527337
    9  C  1  Z    0.050898   0.126827   0.982683   0.937790  -1.349687
   10  C  2  S    0.073426  -0.102557   0.077128  -0.035296   0.027941
   11  C  2  S   -0.403795   0.786744  -0.457294   0.325725  -0.191002
   12  C  2  S    1.171946  -2.294409   1.190327  -1.199113   0.617182
   13  C  2  X   -0.276739   0.178927  -0.288596  -0.193082  -0.278370
   14  C  2  Y    0.059342  -0.581901   0.476010   0.109476   0.380869
   15  C  2  Z    0.506697   0.049746   0.327879  -0.681759  -0.482656
   16  C  2  X    0.420010   0.024861   0.259246   0.391428   0.680112
   17  C  2  Y   -0.255877   1.292689  -0.587903  -0.140897  -0.548386
   18  C  2  Z   -0.244646   0.005972  -0.971705   0.862916   1.431178
   19  F  3  S    0.001181  -0.036828   0.000724  -0.002802  -0.014932
   20  F  3  S    0.011641   0.168482  -0.014975   0.004677   0.088325
   21  F  3  S   -0.122821  -0.312705   0.144941   0.029018  -0.241722
   22  F  3  X   -0.059399  -0.050811  -0.001766   0.031385  -0.133799
   23  F  3  Y    0.028158  -0.041449   0.004163  -0.011154   0.087763
   24  F  3  Z   -0.059830   0.022546   0.108401  -0.061306  -0.091083
   25  F  3  X   -0.031226   0.086242  -0.080834  -0.012967  -0.009728
   26  F  3  Y    0.040442   0.055444  -0.048124   0.029267   0.101667
   27  F  3  Z    0.017364   0.046466   0.057109  -0.065573  -0.089248
   28  H  4  S   -0.307705  -0.031318   0.307451   0.171183  -0.204263
   29  H  4  S   -0.011137   1.105039  -0.765963  -0.331266  -0.791047
   30  H  5  S    0.646047   0.188706  -0.331902  -0.026777   0.313443
   31  H  5  S   -1.060148   0.401750  -0.436738   0.941090   0.317895
   32  F  6  S   -0.021792   0.030752   0.000864   0.002483  -0.016409
   33  F  6  S    0.111209  -0.132371  -0.015243  -0.003046   0.093896
   34  F  6  S   -0.271739   0.199089   0.145656  -0.034442  -0.242323
   35  F  6  X    0.072630  -0.014420   0.001680   0.026667   0.135328
   36  F  6  Y   -0.000823   0.049481   0.005521   0.007229   0.087084
   37  F  6  Z    0.048544   0.054552  -0.106358  -0.057259   0.085044
   38  F  6  X   -0.027884   0.086415   0.077941  -0.017484   0.013376
   39  F  6  Y    0.059046  -0.028481  -0.050730  -0.031857   0.100797
   40  F  6  Z   -0.024742   0.032801  -0.056981  -0.071191   0.083032
   41  H  7  S   -0.242887  -0.123170   0.283419  -0.181223  -0.187366
   42  H  7  S    0.554760  -0.947700  -0.742787   0.415788  -0.772320
   43  H  8  S    0.696914   0.222509  -0.317730   0.085110   0.324957
   44  H  8  S   -0.611090  -0.946232  -0.495476  -1.050567   0.281840

                     36         37         38         39         40
                    0.9173     1.4512     1.4541     1.8028     1.8143
                     A          A          A          A          A   
    1  C  1  S   -0.033602  -0.013566  -0.033948   0.012308  -0.022171
    2  C  1  S    0.683313   0.403061   0.462318  -0.113304   0.160584
    3  C  1  S   -4.584246  -2.649706  -1.489263   0.190413   0.053946
    4  C  1  X    0.449430   0.020075   0.052646  -0.006059   0.080207
    5  C  1  Y   -0.008792  -0.062336   0.025781  -0.019527   0.072712
    6  C  1  Z   -0.240243  -0.036074   0.001229   0.009891  -0.037865
    7  C  1  X   -2.136040  -0.598571   0.081982  -0.195866  -0.188465
    8  C  1  Y    0.459104  -0.079228  -0.225836  -0.143109  -0.132173
    9  C  1  Z    0.816741   0.331535   0.051287  -0.060992   0.303987
   10  C  2  S    0.037204   0.024875  -0.027513  -0.011910  -0.021686
   11  C  2  S   -0.696373  -0.537996   0.295089   0.110346   0.158458
   12  C  2  S    4.586057   2.982632  -0.468082  -0.187709   0.048612
   13  C  2  X    0.450100   0.036783  -0.042490  -0.005330  -0.079843
   14  C  2  Y    0.003013   0.050180   0.045275   0.018775   0.072529
   15  C  2  Z   -0.192317  -0.029508  -0.014795   0.010336   0.040296
   16  C  2  X   -2.152914  -0.533676  -0.286926  -0.198089   0.188423
   17  C  2  Y   -0.445022   0.153810  -0.185924   0.144268  -0.127974
   18  C  2  Z    0.748407   0.333962   0.063874  -0.060864  -0.305890
   19  F  3  S    0.059602  -0.250473   0.173878   0.000420   0.004448
   20  F  3  S   -0.227669   1.291900  -0.889824  -0.008040  -0.027031
   21  F  3  S    0.014352  -1.777586   1.158475   0.037354   0.074510
   22  F  3  X   -0.012752   0.123514  -0.165841  -0.519936   0.353906
   23  F  3  Y    0.021699   0.304195  -0.205562   0.344742  -0.107567
   24  F  3  Z   -0.015915   0.120213  -0.023819  -0.293061  -0.578097
   25  F  3  X    0.102894  -0.003500   0.076006   0.537524  -0.400688
   26  F  3  Y   -0.022848  -0.093679   0.077871  -0.364784   0.111380
   27  F  3  Z   -0.059831  -0.067180  -0.012445   0.306783   0.621233
   28  H  4  S   -0.550578  -0.201196   0.078495   0.119307  -0.014325
   29  H  4  S   -0.225773  -0.422562   0.081473   0.079745  -0.053376
   30  H  5  S   -0.427483  -0.182139   0.080579  -0.024370  -0.122941
   31  H  5  S   -0.183351  -0.329810   0.181938   0.050983  -0.046121
   32  F  6  S   -0.060332   0.175233   0.249109  -0.000529   0.004583
   33  F  6  S    0.229775  -0.906437  -1.278655   0.008614  -0.027701
   34  F  6  S   -0.008993   1.270779   1.699202  -0.038366   0.075775
   35  F  6  X   -0.016020   0.059937   0.198010  -0.516672  -0.356151
   36  F  6  Y   -0.024712  -0.215109  -0.298334  -0.343677  -0.109899
   37  F  6  Z   -0.018718   0.105525   0.064612  -0.297852   0.571016
   38  F  6  X    0.103897   0.021960  -0.072240   0.533696   0.403010
   39  F  6  Y    0.018443   0.061258   0.105933   0.363459   0.113756
   40  F  6  Z   -0.064176  -0.067584  -0.011759   0.311694  -0.613402
   41  H  7  S    0.562092   0.162958   0.144490  -0.118879  -0.016805
   42  H  7  S    0.247956   0.369145   0.223715  -0.079312  -0.054918
   43  H  8  S    0.441558   0.145844   0.141876   0.025090  -0.123024
   44  H  8  S    0.149345   0.256952   0.296713  -0.053047  -0.049048

                     41         42         43         44
                    1.8644     1.9119     2.1659     2.2002
                     A          A          A          A   
    1  C  1  S   -0.018260   0.013004   0.053420   0.025622
    2  C  1  S    0.138813  -0.092481  -0.033604   0.070673
    3  C  1  S   -0.012291  -0.024581  -1.844539  -1.001942
    4  C  1  X    0.017033  -0.085208   0.088272   0.218443
    5  C  1  Y    0.109702  -0.070015  -0.242859  -0.188045
    6  C  1  Z    0.042535  -0.082549   0.060215   0.067650
    7  C  1  X    0.182760   0.443621  -0.171633   0.130314
    8  C  1  Y   -0.384986   0.240648  -0.279423  -0.310001
    9  C  1  Z   -0.349211   0.726578   0.172382   0.037160
   10  C  2  S    0.018830   0.013555  -0.054196   0.022681
   11  C  2  S   -0.141831  -0.094138   0.029478   0.070567
   12  C  2  S    0.007009  -0.038861   1.878575  -0.882024
   13  C  2  X    0.017775   0.085501   0.098170  -0.213666
   14  C  2  Y   -0.109795  -0.068606   0.252272  -0.176323
   15  C  2  Z    0.045529   0.085812   0.065590  -0.065686
   16  C  2  X    0.179927  -0.442290  -0.164070  -0.143007
   17  C  2  Y    0.386165   0.239445   0.293859  -0.296301
   18  C  2  Z   -0.348050  -0.722325   0.181544  -0.031589
   19  F  3  S   -0.002748   0.002843  -0.114312   0.116665
   20  F  3  S    0.026697  -0.022405   0.705680  -0.715461
   21  F  3  S   -0.159190   0.094207  -1.255960   1.212289
   22  F  3  X    0.374199  -0.438267  -0.234257   0.327507
   23  F  3  Y    0.081756   0.368869  -0.549747   0.497778
   24  F  3  Z   -0.558104  -0.342540  -0.233648   0.110120
   25  F  3  X   -0.380666   0.510751   0.384940  -0.514327
   26  F  3  Y   -0.065487  -0.467144   0.858299  -0.775008
   27  F  3  Z    0.641344   0.418128   0.340025  -0.186240
   28  H  4  S    0.108478   0.241082  -0.144131   0.112000
   29  H  4  S    0.084930   0.202561  -0.265561   0.089880
   30  H  5  S   -0.133951  -0.210675  -0.170462   0.113316
   31  H  5  S   -0.103684  -0.186350  -0.189193   0.218659
   32  F  6  S    0.002675   0.002964   0.108660   0.122352
   33  F  6  S   -0.026381  -0.022922  -0.671144  -0.750828
   34  F  6  S    0.159114   0.093941   1.197673   1.276697
   35  F  6  X    0.378616   0.436787  -0.218751  -0.337807
   36  F  6  Y   -0.081604   0.371709   0.523275   0.523402
   37  F  6  Z   -0.561399   0.342990  -0.230419  -0.122668
   38  F  6  X   -0.385547  -0.509165   0.360816   0.532160
   39  F  6  Y    0.065047  -0.470076  -0.817932  -0.816019
   40  F  6  Z    0.644863  -0.418721   0.334428   0.205041
   41  H  7  S   -0.107055   0.240356   0.138614   0.120384
   42  H  7  S   -0.084055   0.201852   0.260735   0.105598
   43  H  8  S    0.135647  -0.213143   0.169420   0.126027
   44  H  8  S    0.108366  -0.196976   0.187850   0.239340
 ...... END OF RHF CALCULATION ......
 STEP CPU TIME =     4.85 TOTAL CPU TIME =          5.0 (      0.1 MIN)
 TOTAL WALL CLOCK TIME=          5.1 SECONDS, CPU UTILIZATION IS    98.61%

     ---------------------------------------------------------------------
     PROPERTIES FOR THE PBE      DFT FUNCTIONAL (RHF  TYPE) DENSITY MATRIX
     ---------------------------------------------------------------------

          -----------------
          ENERGY COMPONENTS
          -----------------

         WAVEFUNCTION NORMALIZATION =       1.0000000000

                ONE ELECTRON ENERGY =    -636.8862212194
                TWO ELECTRON ENERGY =     231.5561786955
           NUCLEAR REPULSION ENERGY =     128.1316801484
                                      ------------------
                       TOTAL ENERGY =    -277.1983623756

 ELECTRON-ELECTRON POTENTIAL ENERGY =     231.5561786955
  NUCLEUS-ELECTRON POTENTIAL ENERGY =    -912.9326223147
   NUCLEUS-NUCLEUS POTENTIAL ENERGY =     128.1316801484
                                      ------------------
             TOTAL POTENTIAL ENERGY =    -553.2447634708
               TOTAL KINETIC ENERGY =     276.0464010953
                 VIRIAL RATIO (V/T) =       2.0041730712

          ---------------------------------------
          MULLIKEN AND LOWDIN POPULATION ANALYSES
          ---------------------------------------

     ATOMIC MULLIKEN POPULATION IN EACH MOLECULAR ORBITAL

                      1          2          3          4          5

                  2.000000   2.000000   2.000000   2.000000   2.000000

    1            -0.000144   0.002035   0.005312   1.991092   0.110027
    2             0.002019  -0.000138   1.991243   0.005238   0.113525
    3             1.997116   0.001142  -0.000301   0.000010   0.898843
    4            -0.000072   0.000000   0.001925  -0.000005   0.004793
    5            -0.000069   0.000001   0.001884   0.000004   0.005026
    6             0.001148   1.997107  -0.000005  -0.000289   0.857960
    7             0.000001  -0.000073  -0.000032   0.001956   0.004667
    8             0.000001  -0.000074  -0.000025   0.001993   0.005160

                      6          7          8          9         10

                  2.000000   2.000000   2.000000   2.000000   2.000000

    1             0.070446   0.771455   0.553214   0.584878   0.510184
    2             0.067204   0.761853   0.557287   0.568959   0.502605
    3             0.904978   0.121480   0.211020   0.202079   0.364465
    4             0.003217   0.059164   0.113898   0.082123   0.125961
    5             0.002542   0.048671   0.121172   0.127059   0.005841
    6             0.945299   0.123375   0.205208   0.216709   0.355319
    7             0.003412   0.060221   0.109901   0.078932   0.131883
    8             0.002901   0.053781   0.128300   0.139261   0.003742

                     11         12         13         14         15

                  2.000000   2.000000   2.000000   2.000000   2.000000

    1             0.434251   0.274231   0.393398   0.050269   0.052224
    2             0.436808   0.274342   0.417099   0.050316   0.052349
    3             0.552167   0.589156   0.386910   0.930162   0.809994
    4             0.003653   0.125351   0.032557   0.000699   0.080333
    5             0.013957   0.002287   0.194201   0.020353   0.043207
    6             0.541997   0.610929   0.356471   0.927639   0.836889
    7             0.004474   0.119275   0.038360   0.000581   0.081724
    8             0.012694   0.004429   0.181005   0.019980   0.043279

                     16         17

                  2.000000   2.000000

    1             0.088780   0.193750
    2             0.092040   0.195546
    3             0.670198   0.699520
    4             0.116834   0.039973
    5             0.133107   0.064649
    6             0.659322   0.704641
    7             0.115209   0.040490
    8             0.124510   0.061431

               ----- POPULATIONS IN EACH AO -----
                             MULLIKEN      LOWDIN
              1  C  1  S      1.98031     1.95744
              2  C  1  S      0.86780     0.66713
              3  C  1  S      0.38285     0.38823
              4  C  1  X      0.51295     0.49807
              5  C  1  Y      0.42465     0.41132
              6  C  1  Z      0.53472     0.51238
              7  C  1  X      0.42766     0.52230
              8  C  1  Y      0.35597     0.44142
              9  C  1  Z      0.59849     0.60478
             10  C  2  S      1.98034     1.95739
             11  C  2  S      0.86718     0.66799
             12  C  2  S      0.38945     0.39108
             13  C  2  X      0.51328     0.49828
             14  C  2  Y      0.42439     0.41102
             15  C  2  Z      0.52831     0.50619
             16  C  2  X      0.42661     0.52167
             17  C  2  Y      0.35429     0.44058
             18  C  2  Z      0.60445     0.60961
             19  F  3  S      1.98446     1.97073
             20  F  3  S      1.02945     0.98850
             21  F  3  S      0.97849     0.86582
             22  F  3  X      0.84253     0.84727
             23  F  3  Y      0.70741     0.70064
             24  F  3  Z      0.87496     0.88035
             25  F  3  X      1.00741     1.00767
             26  F  3  Y      0.88771     0.90964
             27  F  3  Z      1.02652     1.03519
             28  H  4  S      0.60062     0.57570
             29  H  4  S      0.18978     0.32028
             30  H  5  S      0.58879     0.56851
             31  H  5  S      0.19511     0.32582
             32  F  6  S      1.98446     1.97073
             33  F  6  S      1.02932     0.98838
             34  F  6  S      0.97864     0.86580
             35  F  6  X      0.84240     0.84715
             36  F  6  Y      0.70741     0.70065
             37  F  6  Z      0.87527     0.88068
             38  F  6  X      1.00743     1.00773
             39  F  6  Y      0.88777     0.90969
             40  F  6  Z      1.02702     1.03553
             41  H  7  S      0.60058     0.57569
             42  H  7  S      0.19040     0.32008
             43  H  8  S      0.59797     0.57652
             44  H  8  S      0.18440     0.31833

          ----- MULLIKEN ATOMIC OVERLAP POPULATIONS -----
          (OFF-DIAGONAL ELEMENTS NEED TO BE MULTIPLIED BY 2)

             1           2           3           4           5

    1    5.1026257
    2    0.2156713   5.1072266
    3   -0.0336867   0.1792392   9.2326686
    4   -0.0362617   0.3430895  -0.0206851   0.5417677
    5   -0.0464834   0.3588051  -0.0214451  -0.0391341   0.5286620
    6    0.1794512  -0.0337980  -0.0004310   0.0025686   0.0006856
    7    0.3440208  -0.0363588   0.0025654   0.0049771  -0.0057488
    8    0.3600672  -0.0455816   0.0007128  -0.0059201   0.0085529

             6           7           8

    6    9.2331633
    7   -0.0206698   0.5415675
    8   -0.0212506  -0.0393725   0.5251597

          TOTAL MULLIKEN AND LOWDIN ATOMIC POPULATIONS
       ATOM         MULL.POP.    CHARGE          LOW.POP.     CHARGE
    1 C             6.085404   -0.085404         6.003080   -0.003080
    2 C             6.088293   -0.088293         6.003823   -0.003823
    3 F             9.338938   -0.338938         9.205819   -0.205819
    4 H             0.790402    0.209598         0.895979    0.104021
    5 H             0.783894    0.216106         0.894333    0.105667
    6 F             9.339719   -0.339719         9.206344   -0.206344
    7 H             0.790981    0.209019         0.895769    0.104231
    8 H             0.782368    0.217632         0.894852    0.105148

          MULLIKEN SPHERICAL HARMONIC POPULATIONS
       ATOM           S       P       D      F      G      H      I    TOTAL
    1 C             3.23    2.85    0.00   0.00   0.00   0.00   0.00    6.09
    2 C             3.24    2.85    0.00   0.00   0.00   0.00   0.00    6.09
    3 F             3.99    5.35    0.00   0.00   0.00   0.00   0.00    9.34
    4 H             0.79    0.00    0.00   0.00   0.00   0.00   0.00    0.79
    5 H             0.78    0.00    0.00   0.00   0.00   0.00   0.00    0.78
    6 F             3.99    5.35    0.00   0.00   0.00   0.00   0.00    9.34
    7 H             0.79    0.00    0.00   0.00   0.00   0.00   0.00    0.79
    8 H             0.78    0.00    0.00   0.00   0.00   0.00   0.00    0.78

          -------------------------------
          BOND ORDER AND VALENCE ANALYSIS     BOND ORDER THRESHOLD=0.050
          -------------------------------

                   BOND                       BOND                       BOND
  ATOM PAIR DIST  ORDER      ATOM PAIR DIST  ORDER      ATOM PAIR DIST  ORDER
    1   2  1.500  0.972        1   6  1.400  0.841        1   7  1.100  0.889
    1   8  1.100  0.893        2   3  1.400  0.841        2   4  1.100  0.888
    2   5  1.120  0.892

                       TOTAL       BONDED        FREE
      ATOM            VALENCE     VALENCE     VALENCE
    1 C                 3.609       3.609      -0.000
    2 C                 3.607       3.607       0.000
    3 F                 0.953       0.953       0.000
    4 H                 0.917       0.917       0.000
    5 H                 0.918       0.918      -0.000
    6 F                 0.952       0.952       0.000
    7 H                 0.918       0.918       0.000
    8 H                 0.917       0.917      -0.000

          ---------------------
          ELECTROSTATIC MOMENTS
          ---------------------

 POINT   1           X           Y           Z (BOHR)    CHARGE
                -0.000000   -0.000000   -0.000000        0.00 (A.U.)
         DX          DY          DZ         /D/  (DEBYE)
    -0.002625   -3.161621    0.018003    3.161673
 ...... END OF PROPERTY EVALUATION ......
 STEP CPU TIME =     0.01 TOTAL CPU TIME =          5.0 (      0.1 MIN)
 TOTAL WALL CLOCK TIME=          5.1 SECONDS, CPU UTILIZATION IS    98.62%

 BEGINNING ONE ELECTRON GRADIENT...
 ..... END OF 1-ELECTRON GRADIENT ......
 STEP CPU TIME =     0.01 TOTAL CPU TIME =          5.0 (      0.1 MIN)
 TOTAL WALL CLOCK TIME=          5.1 SECONDS, CPU UTILIZATION IS    98.62%

          ----------------------
          GRADIENT OF THE ENERGY
          ----------------------
 MEMORY FOR GRID POINT CONTRIBUTIONS TO THE DFT GRADIENT=    295391 WORDS.
 STEP CPU TIME =     1.32 TOTAL CPU TIME =          6.3 (      0.1 MIN)
 TOTAL WALL CLOCK TIME=          6.4 SECONDS, CPU UTILIZATION IS    98.90%
 THE COARSE/FINE SCHWARZ SCREENINGS SKIPPED         7831/        6068 BLOCKS.
 THE NUMBER OF GRADIENT INTEGRAL BLOCKS COMPUTED WAS     68218
 ...... END OF 2-ELECTRON GRADIENT ......
 STEP CPU TIME =     0.07 TOTAL CPU TIME =          6.4 (      0.1 MIN)
 TOTAL WALL CLOCK TIME=          6.5 SECONDS, CPU UTILIZATION IS    98.92%

          NSERCH=  0     ENERGY=    -277.1983624

                                 -----------------------
                                 GRADIENT (HARTREE/BOHR)
                                 -----------------------
        ATOM     ZNUC       DE/DX         DE/DY         DE/DZ
 --------------------------------------------------------------
    1  C            6.0    -0.0010962     0.0175638    -0.0115671
    2  C            6.0     0.0009385     0.0182383     0.0228202
    3  F            9.0    -0.0119275    -0.0216073    -0.0082338
    4  H            1.0    -0.0035687     0.0067808    -0.0003172
    5  H            1.0    -0.0021826    -0.0033202    -0.0052841
    6  F            9.0     0.0121580    -0.0219617     0.0084201
    7  H            1.0     0.0034709     0.0067932     0.0006655
    8  H            1.0     0.0022076    -0.0024869    -0.0065036


                     --------------------
                     INTERNAL COORDINATES
                     --------------------

                 - - ATOMS - -         COORDINATE        GRADIENT
 NO.   TYPE    I  J  K  L  M  N         (ANG,DEG)     (H/B,H/RAD)
 ----------------------------------------------------------------
   1 STRETCH   2  1                     1.5000000      -0.0187641
   2 STRETCH   3  2                     1.4000000      -0.0259827
   3 BEND      3  2  1                109.5421400       0.0007734
   4 STRETCH   4  2                     1.1000000      -0.0071342
   5 BEND      4  2  1                109.5421400      -0.0019090
   6 TORSION   4  2  1  3             120.0000000      -0.0052099
   7 STRETCH   5  2                     1.1200000       0.0055709
   8 BEND      5  2  1                109.5421400      -0.0047962
   9 TORSION   5  2  1  3            -120.5000000      -0.0054890
  10 STRETCH   6  1                     1.4000000      -0.0264444
  11 BEND      6  1  2                109.5421400       0.0007554
  12 TORSION   6  1  2  3              50.0000000      -0.0147239
  13 STRETCH   7  1                     1.1000000      -0.0072365
  14 BEND      7  1  2                109.5421400      -0.0013648
  15 TORSION   7  1  2  6             120.0000000      -0.0047338
  16 STRETCH   8  1                     1.1000000      -0.0062492
  17 BEND      8  1  2                109.5421400      -0.0048241
  18 TORSION   8  1  2  6            -120.5000000      -0.0058493

 NOTE: CARTESIAN GRADIENTS ARE ALWAYS TAKEN TO TEST CONVERGENCE,
       SO THE FOLLOWING GRADIENTS ARE CARTESIAN.

          MAXIMUM GRADIENT = 0.0227949    RMS GRADIENT = 0.0109746

 NSERCH:   0  E=     -277.1983623756  GRAD. MAX=  0.0227949  R.M.S.=  0.0109746

          FORCE CONSTANT MATRIX NOT UPDATED --- TAKING FIRST STEP
          MIN SEARCH, CORRECT HESSIAN, TRYING PURE NR STEP
               NR STEP HAS LENGTH         =   0.151850
          RADIUS OF STEP TAKEN=   0.15185  CURRENT TRUST RADIUS=   0.30000
          TRANSFORMING DISPLACEMENT FROM INTERNALS TO CARTESIANS
          THE ROOT MEAN SQUARE ERROR IN ITERATION   1 IS   0.00338532
          THE ROOT MEAN SQUARE ERROR IN ITERATION   2 IS   0.00000163
          THE ROOT MEAN SQUARE ERROR IN ITERATION   3 IS   0.00000000

 BEGINNING GEOMETRY SEARCH POINT NSERCH=   1 ...

 COORDINATES OF ALL ATOMS ARE (ANGS)
   ATOM   CHARGE       X              Y              Z
 ------------------------------------------------------------
 C           6.0  -0.7121284450  -0.6712592378   0.2733125395
 C           6.0   0.7124620436  -0.6714328138  -0.2723310209
 F           9.0   1.3772446377   0.5444900553   0.1266559767
 H           1.0   1.2664226844  -1.5553087987   0.1103752924
 H           1.0   0.7091668293  -0.7183689737  -1.3823118779
 F           9.0  -1.3775802777   0.5446780172  -0.1272152650
 H           1.0  -1.2644184236  -1.5555222612  -0.1113719421
 H           1.0  -0.7088160769  -0.7153846806   1.3821648356


                     --------------------
                     INTERNAL COORDINATES
                     --------------------

                 - - ATOMS - -         COORDINATE      COORDINATE
 NO.   TYPE    I  J  K  L  M  N        (BOHR,RAD)       (ANG,DEG)
 ----------------------------------------------------------------
   1 STRETCH   2  1                     2.8827985       1.5255114
   2 STRETCH   3  2                     2.7251362       1.4420801
   3 BEND      3  2  1                  1.9086206     109.3559026
   4 STRETCH   4  2                     2.0997001       1.1111135
   5 BEND      4  2  1                  1.9203453     110.0276833
   6 TORSION   4  2  1  3               2.1152348     121.1940293
   7 STRETCH   5  2                     2.0994434       1.1109777
   8 BEND      5  2  1                  1.9332753     110.7685128
   9 TORSION   5  2  1  3              -2.0811657    -119.2420106
  10 STRETCH   6  1                     2.7265492       1.4428278
  11 BEND      6  1  2                  1.9086960     109.3602265
  12 TORSION   6  1  2  3               0.9315601      53.3744608
  13 STRETCH   7  1                     2.1000013       1.1112729
  14 BEND      7  1  2                  1.9179295     109.8892639
  15 TORSION   7  1  2  6               2.1133304     121.0849118
  16 STRETCH   8  1                     2.0970948       1.1097349
  17 BEND      8  1  2                  1.9332855     110.7691009
  18 TORSION   8  1  2  6              -2.0797245    -119.1594341

 THE CURRENT FULLY SUBSTITUTED Z-MATRIX IS
 C   
 C      1   1.5255114
 F      2   1.4420801  1   109.3559026
 H      2   1.1111135  1   110.0276833  3   121.1940293  0
 H      2   1.1109777  1   110.7685128  3  -119.2420106  0
 F      1   1.4428278  2   109.3602265  3    53.3744608  0
 H      1   1.1112729  2   109.8892639  6   121.0849118  0
 H      1   1.1097349  2   110.7691009  6  -119.1594341  0

          INTERNUCLEAR DISTANCES (ANGS.)
          ------------------------------

                1 C          2 C          3 F          4 H          5 H     

   1 C       0.0000000    1.5255114 *  2.4217833 *  2.1731905 *  2.1825196 *
   2 C       1.5255114 *  0.0000000    1.4420801 *  1.1111135 *  1.1109777 *
   3 F       2.4217833 *  1.4420801 *  0.0000000    2.1027843 *  2.0780098 *
   4 H       2.1731905 *  1.1111135 *  2.1027843 *  0.0000000    1.7997548 *
   5 H       2.1825196 *  1.1109777 *  2.0780098 *  1.7997548 *  0.0000000  
   6 F       1.4428278 *  2.4224494 *  2.7664980 *  3.3848406    2.7431859 *
   7 H       1.1112729 *  2.1715382 *  3.3830597    2.5405371 *  2.4922184 *
   8 H       1.1097349 *  2.1815865 *  2.7413931 *  2.4948926 *  3.1069303  

                6 F          7 H          8 H     

   1 C       1.4428278 *  1.1112729 *  1.1097349 *
   2 C       2.4224494 *  2.1715382 *  2.1815865 *
   3 F       2.7664980 *  3.3830597    2.7413931 *
   4 H       3.3848406    2.5405371 *  2.4948926 *
   5 H       2.7431859 *  2.4922184 *  3.1069303  
   6 F       0.0000000    2.1033064 *  2.0768322 *
   7 H       2.1033064 *  0.0000000    1.8014375 *
   8 H       2.0768322 *  1.8014375 *  0.0000000  

  * ... LESS THAN  3.000

 ...... END OF ONE-ELECTRON INTEGRALS ......
 STEP CPU TIME =     0.00 TOTAL CPU TIME =          6.4 (      0.1 MIN)
 TOTAL WALL CLOCK TIME=          6.5 SECONDS, CPU UTILIZATION IS    98.76%
 TOTAL NUMBER OF NONZERO TWO-ELECTRON INTEGRALS =              424797
         29 INTEGRAL RECORDS WERE STORED ON DISK FILE  8.
  ...... END OF TWO-ELECTRON INTEGRALS .....
 STEP CPU TIME =     0.05 TOTAL CPU TIME =          6.4 (      0.1 MIN)
 TOTAL WALL CLOCK TIME=          6.5 SECONDS, CPU UTILIZATION IS    98.77%

          --------------------------
               R-PBE SCF CALCULATION
          --------------------------
         DENSITY MATRIX CONVERGENCE THRESHOLD=  5.00E-05
     COARSE -> FINE DFT GRID SWITCH THRESHOLD=  1.50E-03 (SWITCH IN $DFT)
                   HF -> DFT SWITCH THRESHOLD=  5.00E-03 (SWOFF IN $DFT)

 DFT CODE IS SWITCHING FROM THE FINE GRID NRAD= 96,  NLEB=  302
[...]
   40  F  6  Z    0.178730   0.162407   0.072151  -0.224086  -0.317827
   41  H  7  S    0.030144  -0.163858  -0.049714   0.025578  -0.103877
   42  H  7  S    0.012169  -0.067247  -0.031360  -0.016871  -0.086541
   43  H  8  S    0.067941   0.007743   0.192737   0.060473   0.159396
   44  H  8  S    0.015821   0.029805   0.079186   0.004866   0.167588

                     16         17         18         19         20
                   -0.2758    -0.2648     0.0354     0.0500     0.0551
                     A          A          A          A          A   
    1  C  1  S   -0.000497  -0.029805  -0.029288  -0.123063  -0.024012
    2  C  1  S    0.003579   0.077520   0.084629   0.256157   0.055050
    3  C  1  S   -0.041538   0.059880  -0.189551   1.234580  -0.355569
    4  C  1  X   -0.045112   0.176960  -0.070396  -0.145553  -0.158520
    5  C  1  Y   -0.068242   0.047378   0.262796  -0.017965   0.149068
    6  C  1  Z   -0.077537  -0.079746  -0.083228   0.030781  -0.179553
    7  C  1  X   -0.037591   0.085988  -0.159893  -0.375449  -0.442272
    8  C  1  Y   -0.002083  -0.003818   0.602660  -0.103708   0.385514
    9  C  1  Z   -0.048975  -0.075570  -0.187705   0.150826  -0.457036
   10  C  2  S    0.000496  -0.029802  -0.029282  -0.123069   0.024010
   11  C  2  S   -0.003576   0.077498   0.084604   0.256131  -0.055050
   12  C  2  S    0.041541   0.059993  -0.189453   1.234889   0.355652
   13  C  2  X   -0.045113  -0.176960   0.070376   0.145574  -0.158502
   14  C  2  Y    0.068141   0.047446   0.262852  -0.017992  -0.149276
   15  C  2  Z   -0.077543   0.079702   0.082959  -0.030754  -0.179412
   16  C  2  X   -0.037604  -0.086028   0.159819   0.375452  -0.442230
   17  C  2  Y    0.002021  -0.003743   0.602799  -0.103855  -0.386044
   18  C  2  Z   -0.048956   0.075595   0.187094  -0.150681  -0.456669
   19  F  3  S   -0.000451  -0.001623   0.057044   0.023630  -0.046278
   20  F  3  S   -0.002186   0.004668  -0.107601  -0.031474   0.077530
   21  F  3  S    0.021007  -0.000096  -0.335752  -0.221761   0.340508
   22  F  3  X    0.090358   0.287712   0.143178   0.034631  -0.079994
   23  F  3  Y   -0.228862  -0.092433   0.139797   0.108623  -0.154403
   24  F  3  Z    0.262105  -0.166110   0.069890   0.079204  -0.073669
   25  F  3  X    0.097149   0.334768   0.217236   0.057069  -0.147749
   26  F  3  Y   -0.267561  -0.102948   0.229075   0.172256  -0.257714
   27  F  3  Z    0.296610  -0.194456   0.115810   0.116601  -0.113546
   28  H  4  S   -0.129660  -0.118478   0.115982  -0.004358   0.065449
   29  H  4  S   -0.105631  -0.120239   0.659431  -0.938461   0.113129
   30  H  5  S    0.109557  -0.037334  -0.039461  -0.048769  -0.134704
   31  H  5  S    0.037444  -0.055790   0.000239  -0.764377  -0.774260
   32  F  6  S    0.000450  -0.001623   0.057049   0.023627   0.046275
   33  F  6  S    0.002188   0.004665  -0.107612  -0.031475  -0.077522
   34  F  6  S   -0.020995  -0.000079  -0.335776  -0.221706  -0.340486
   35  F  6  X    0.090404  -0.287700  -0.143197  -0.034636  -0.079990
   36  F  6  Y    0.229186  -0.092296   0.139747   0.108536   0.154327
   37  F  6  Z    0.262027   0.166195  -0.070021  -0.079295  -0.073800
   38  F  6  X    0.097204  -0.334749  -0.217265  -0.057069  -0.147742
   39  F  6  Y    0.267925  -0.102790   0.228990   0.172121   0.257594
   40  F  6  Z    0.296519   0.194552  -0.116024  -0.116746  -0.113765
   41  H  7  S    0.129706  -0.118482   0.115972  -0.004344  -0.065465
   42  H  7  S    0.105671  -0.120225   0.659426  -0.938309  -0.113295
   43  H  8  S   -0.109636  -0.037326  -0.039443  -0.048773   0.134714
   44  H  8  S   -0.037519  -0.055772   0.000329  -0.764319   0.774283

                     21         22         23         24         25
                    0.0884     0.1110     0.1148     0.1944     0.5408
                     A          A          A          A          A   
    1  C  1  S    0.135944  -0.012922   0.005528  -0.119188  -0.147152
    2  C  1  S   -0.235326   0.020713  -0.015346   0.206660   0.891412
    3  C  1  S   -1.717879  -0.186153  -0.207197   2.103222  -2.609991
    4  C  1  X    0.098703  -0.005174  -0.118607   0.291319  -0.111005
    5  C  1  Y    0.007886   0.259123  -0.066616   0.062833   0.307513
    6  C  1  Z   -0.042703   0.130913  -0.244046  -0.188207  -0.137215
    7  C  1  X    0.135076  -0.036914  -0.388353   1.478569  -0.277725
    8  C  1  Y    0.148727   0.849481  -0.187997   0.244226  -0.292052
    9  C  1  Z   -0.133463   0.363004  -0.801665  -0.779564   0.519178
   10  C  2  S   -0.135934   0.012927   0.005525   0.119184   0.147266
   11  C  2  S    0.235304  -0.020728  -0.015346  -0.206638  -0.892084
   12  C  2  S    1.717792   0.186125  -0.207147  -2.103262   2.610998
   13  C  2  X    0.098681  -0.005176   0.118634   0.291310  -0.111121
   14  C  2  Y   -0.007922  -0.259000  -0.066377  -0.063001  -0.307785
   15  C  2  Z   -0.042700   0.131154   0.244115  -0.188143  -0.137030
   16  C  2  X    0.135030  -0.036914   0.388404   1.478556  -0.277608
   17  C  2  Y   -0.148831  -0.849143  -0.187227  -0.244937   0.292714
   18  C  2  Z   -0.133334   0.363804   0.801867  -0.779381   0.519008
   19  F  3  S    0.030136  -0.030126   0.024398  -0.010411  -0.004030
   20  F  3  S   -0.051211   0.048190  -0.046275   0.001266   0.070916
   21  F  3  S   -0.213523   0.256019  -0.165780   0.192044  -0.517303
   22  F  3  X    0.061146  -0.038427   0.012034  -0.091312  -0.081146
   23  F  3  Y    0.097156  -0.058822   0.078637  -0.010164  -0.059965
   24  F  3  Z    0.028945  -0.071885  -0.033508   0.034342  -0.100441
   25  F  3  X    0.090320  -0.101167   0.033733  -0.181948   0.073047
   26  F  3  Y    0.148346  -0.107506   0.144171  -0.017725   0.086943
   27  F  3  Z    0.053825  -0.130416  -0.043653   0.063293  -0.012934
   28  H  4  S   -0.083247  -0.034047  -0.025308  -0.063189  -0.129208
   29  H  4  S   -1.069113  -1.034780  -0.664454  -0.029331  -0.346960
   30  H  5  S   -0.040704   0.019839   0.051677  -0.070452   0.545734
   31  H  5  S   -0.917763   0.739294   1.166610   0.134475  -0.714270
   32  F  6  S   -0.030138   0.030125   0.024393   0.010410   0.004037
   33  F  6  S    0.051213  -0.048188  -0.046266  -0.001267  -0.070914
   34  F  6  S    0.213545  -0.256014  -0.165743  -0.192002   0.517037
   35  F  6  X    0.061156  -0.038432  -0.012032  -0.091312  -0.081151
   36  F  6  Y   -0.097139   0.058750   0.078652   0.010187   0.059791
   37  F  6  Z    0.029039  -0.071936   0.033441   0.034339  -0.100459
   38  F  6  X    0.090335  -0.101176  -0.033729  -0.181939   0.073002
   39  F  6  Y   -0.148312   0.107378   0.144184   0.017758  -0.086923
   40  F  6  Z    0.053966  -0.130506   0.043532   0.063289  -0.012867
   41  H  7  S    0.083246   0.034050  -0.025301   0.063166   0.129495
   42  H  7  S    1.069227   1.034806  -0.664376   0.029389   0.346508
   43  H  8  S    0.040705  -0.019837   0.051679   0.070438  -0.545702
   44  H  8  S    0.917769  -0.739278   1.166589  -0.134503   0.713995

                     26         27
                    0.5586     0.6388
                     A          A   
    1  C  1  S    0.167828   0.078160
    2  C  1  S   -0.979112  -0.807188
    3  C  1  S    1.485259   1.723449
    4  C  1  X    0.205646  -0.001435
    5  C  1  Y   -0.222159  -0.104389
    6  C  1  Z    0.169426   0.078618
    7  C  1  X   -0.196449  -0.333849
    8  C  1  Y    0.315184  -0.141291
    9  C  1  Z   -0.139477   0.159611
   10  C  2  S    0.167763   0.078207
   11  C  2  S   -0.978754  -0.807604
   12  C  2  S    1.484360   1.725037
   13  C  2  X   -0.205543   0.001381
   14  C  2  Y   -0.222113  -0.104414
   15  C  2  Z   -0.169146  -0.078478
   16  C  2  X    0.196458   0.333574
   17  C  2  Y    0.315174  -0.141345
   18  C  2  Z    0.138903  -0.159425
   19  F  3  S    0.010335   0.059918
   20  F  3  S    0.004831  -0.192220
   21  F  3  S   -0.396983  -0.176587
   22  F  3  X    0.010651  -0.026421
   23  F  3  Y   -0.124994   0.021828
   24  F  3  Z   -0.051006   0.005831
   25  F  3  X    0.083202   0.021597
   26  F  3  Y    0.044565   0.083324
   27  F  3  Z    0.019100   0.038098
   28  H  4  S    0.502720  -0.666349
   29  H  4  S   -0.691755  -0.223010
   30  H  5  S    0.048872  -0.352099
   31  H  5  S   -0.423521  -0.481257
   32  F  6  S    0.010330   0.059908
   33  F  6  S    0.004870  -0.192210
   34  F  6  S   -0.397210  -0.176398
   35  F  6  X   -0.010604   0.026407
   36  F  6  Y   -0.124977   0.021841
   37  F  6  Z    0.051199  -0.005821
   38  F  6  X   -0.083232  -0.021560
   39  F  6  Y    0.044589   0.083261
   40  F  6  Z   -0.019121  -0.038148
   41  H  7  S    0.502584  -0.666496
   42  H  7  S   -0.691806  -0.222602
   43  H  8  S    0.049275  -0.351930
   44  H  8  S   -0.423862  -0.481051

     ---------------------------------------------------------------------
     PROPERTIES FOR THE PBE      DFT FUNCTIONAL (RHF  TYPE) DENSITY MATRIX
     ---------------------------------------------------------------------

          -----------------
          ENERGY COMPONENTS
          -----------------

         WAVEFUNCTION NORMALIZATION =       1.0000000000

                ONE ELECTRON ENERGY =    -630.2585656344
                TWO ELECTRON ENERGY =     228.3344787047
           NUCLEAR REPULSION ENERGY =     124.7199700346
                                      ------------------
                       TOTAL ENERGY =    -277.2041168951

 ELECTRON-ELECTRON POTENTIAL ENERGY =     228.3344787047
  NUCLEUS-ELECTRON POTENTIAL ENERGY =    -906.1075788226
   NUCLEUS-NUCLEUS POTENTIAL ENERGY =     124.7199700346
                                      ------------------
             TOTAL POTENTIAL ENERGY =    -553.0531300833
               TOTAL KINETIC ENERGY =     275.8490131883
                 VIRIAL RATIO (V/T) =       2.0049124834

          ---------------------------------------
          MULLIKEN AND LOWDIN POPULATION ANALYSES
          ---------------------------------------

     ATOMIC MULLIKEN POPULATION IN EACH MOLECULAR ORBITAL

                      1          2          3          4          5

                  2.000000   2.000000   2.000000   2.000000   2.000000

    1             0.000783   0.000907   1.000192   0.996132   0.105964
    2             0.000804   0.000886   0.997043   0.999282   0.106022
    3             1.009795   0.988637  -0.000147  -0.000039   0.885104
    4            -0.000023  -0.000042   0.000793   0.001110   0.004095
    5            -0.000029  -0.000028   0.000734   0.001225   0.005021
    6             0.988722   1.009710  -0.000148  -0.000039   0.884677
    7            -0.000022  -0.000042   0.000796   0.001107   0.004096
    8            -0.000029  -0.000029   0.000738   0.001222   0.005022

                      6          7          8          9         10

                  2.000000   2.000000   2.000000   2.000000   2.000000

    1             0.065501   0.771730   0.581697   0.540190   0.542786
    2             0.065465   0.771861   0.581675   0.540335   0.542693
    3             0.929601   0.119902   0.167414   0.269176   0.282844
    4             0.002656   0.059588   0.112284   0.060065   0.172722
    5             0.002042   0.048702   0.138617   0.130509   0.001709
    6             0.930035   0.119897   0.167416   0.269235   0.282763
    7             0.002657   0.059604   0.112287   0.060007   0.172765
    8             0.002043   0.048716   0.138610   0.130484   0.001718

                     11         12         13         14         15

                  2.000000   2.000000   2.000000   2.000000   2.000000

    1             0.492348   0.293956   0.392964   0.043850   0.059152
    2             0.492393   0.293944   0.392922   0.043845   0.059202
    3             0.480090   0.555456   0.384791   0.942475   0.753380
    4             0.005087   0.151004   0.012371   0.002230   0.049021
    5             0.022493  -0.000438   0.209872   0.011428   0.138860
    6             0.480007   0.555506   0.384835   0.942515   0.752636
    7             0.005088   0.151009   0.012371   0.002230   0.048958
    8             0.022493  -0.000436   0.209876   0.011427   0.138790

                     16         17

                  2.000000   2.000000

    1             0.056941   0.158797
    2             0.056887   0.158800
    3             0.821149   0.749340
    4             0.076745   0.076105
    5             0.044756   0.015773
    6             0.821891   0.749314
    7             0.076799   0.076104
    8             0.044832   0.015767

               ----- POPULATIONS IN EACH AO -----
                             MULLIKEN      LOWDIN
              1  C  1  S      1.98047     1.95757
              2  C  1  S      0.86977     0.67536
              3  C  1  S      0.40596     0.39980
              4  C  1  X      0.48646     0.47110
              5  C  1  Y      0.43770     0.42112
              6  C  1  Z      0.51777     0.49743
              7  C  1  X      0.41933     0.51089
              8  C  1  Y      0.41996     0.48404
              9  C  1  Z      0.56648     0.58981
             10  C  2  S      1.98047     1.95757
             11  C  2  S      0.86975     0.67536
             12  C  2  S      0.40606     0.39981
             13  C  2  X      0.48647     0.47110
             14  C  2  Y      0.43760     0.42103
             15  C  2  Z      0.51786     0.49752
             16  C  2  X      0.41940     0.51091
             17  C  2  Y      0.41974     0.48390
             18  C  2  Z      0.56670     0.58994
             19  F  3  S      1.98456     1.97085
             20  F  3  S      1.03048     0.99185
             21  F  3  S      0.97676     0.87841
             22  F  3  X      0.81811     0.82151
             23  F  3  Y      0.74291     0.73932
             24  F  3  Z      0.85527     0.85915
             25  F  3  X      0.99351     0.99401
             26  F  3  Y      0.92218     0.93940
             27  F  3  Z      1.01519     1.02426
             28  H  4  S      0.59389     0.56767
             29  H  4  S      0.19192     0.32272
             30  H  5  S      0.58949     0.56521
             31  H  5  S      0.18175     0.31852
             32  F  6  S      1.98456     1.97085
             33  F  6  S      1.03048     0.99185
             34  F  6  S      0.97676     0.87841
             35  F  6  X      0.81809     0.82150
             36  F  6  Y      0.74306     0.73948
             37  F  6  Z      0.85513     0.85900
             38  F  6  X      0.99350     0.99400
             39  F  6  Y      0.92231     0.93951
             40  F  6  Z      1.01508     1.02416
             41  H  7  S      0.59389     0.56767
             42  H  7  S      0.19192     0.32272
             43  H  8  S      0.58949     0.56521
             44  H  8  S      0.18175     0.31852

          ----- MULLIKEN ATOMIC OVERLAP POPULATIONS -----
          (OFF-DIAGONAL ELEMENTS NEED TO BE MULTIPLIED BY 2)

             1           2           3           4           5

    1    5.1192275
    2    0.2292643   5.1194614
    3   -0.0328364   0.1795072   9.2246379
    4   -0.0313683   0.3341736  -0.0189833   0.5302752
    5   -0.0406277   0.3464841  -0.0190513  -0.0320906   0.5068383
    6    0.1795199  -0.0328333  -0.0001401   0.0022952   0.0035351
    7    0.3341974  -0.0313691   0.0022956   0.0036935  -0.0021842
    8    0.3465117  -0.0406300   0.0035372  -0.0021848   0.0083444

             6           7           8

    6    9.2246306
    7   -0.0189844   0.5302617
    8   -0.0190532  -0.0320978   0.5068177

          TOTAL MULLIKEN AND LOWDIN ATOMIC POPULATIONS
       ATOM         MULL.POP.    CHARGE          LOW.POP.     CHARGE
    1 C             6.103888   -0.103888         6.007114   -0.007114
    2 C             6.104058   -0.104058         6.007134   -0.007134
    3 F             9.338967   -0.338967         9.218761   -0.218761
    4 H             0.785811    0.214189         0.890388    0.109612
    5 H             0.771248    0.228752         0.883727    0.116273
    6 F             9.338970   -0.338970         9.218762   -0.218762
    7 H             0.785813    0.214187         0.890389    0.109611
    8 H             0.771245    0.228755         0.883726    0.116274

          MULLIKEN SPHERICAL HARMONIC POPULATIONS
       ATOM           S       P       D      F      G      H      I    TOTAL
    1 C             3.26    2.85    0.00   0.00   0.00   0.00   0.00    6.10
    2 C             3.26    2.85    0.00   0.00   0.00   0.00   0.00    6.10
    3 F             3.99    5.35    0.00   0.00   0.00   0.00   0.00    9.34
    4 H             0.79    0.00    0.00   0.00   0.00   0.00   0.00    0.79
    5 H             0.77    0.00    0.00   0.00   0.00   0.00   0.00    0.77
    6 F             3.99    5.35    0.00   0.00   0.00   0.00   0.00    9.34
    7 H             0.79    0.00    0.00   0.00   0.00   0.00   0.00    0.79
    8 H             0.77    0.00    0.00   0.00   0.00   0.00   0.00    0.77

          -------------------------------
          BOND ORDER AND VALENCE ANALYSIS     BOND ORDER THRESHOLD=0.050
          -------------------------------

                   BOND                       BOND                       BOND
  ATOM PAIR DIST  ORDER      ATOM PAIR DIST  ORDER      ATOM PAIR DIST  ORDER
    1   2  1.523  0.981        1   6  1.443  0.845        1   7  1.109  0.887
    1   8  1.107  0.887        2   3  1.443  0.845        2   4  1.109  0.887
    2   5  1.107  0.887

                       TOTAL       BONDED        FREE
      ATOM            VALENCE     VALENCE     VALENCE
    1 C                 3.607       3.607      -0.000
    2 C                 3.607       3.607       0.000
    3 F                 0.952       0.952       0.000
    4 H                 0.918       0.918       0.000
    5 H                 0.921       0.921      -0.000
    6 F                 0.952       0.952      -0.000
    7 H                 0.918       0.918       0.000
    8 H                 0.921       0.921      -0.000

          ---------------------
          ELECTROSTATIC MOMENTS
          ---------------------

 POINT   1           X           Y           Z (BOHR)    CHARGE
                -0.000000   -0.000000   -0.000000        0.00 (A.U.)
         DX          DY          DZ         /D/  (DEBYE)
     0.000023   -2.994634    0.001402    2.994634
 ...... END OF PROPERTY EVALUATION ......
 STEP CPU TIME =     0.01 TOTAL CPU TIME =         64.0 (      1.1 MIN)
 TOTAL WALL CLOCK TIME=         64.5 SECONDS, CPU UTILIZATION IS    99.18%
  $VIB   
          IVIB=   0 IATOM=   0 ICOORD=   0 E=     -277.2041168951
 -2.980813433E-05 3.322835807E-06-1.470590818E-05 3.037567465E-05 7.220527932E-06
  8.688393263E-06-7.643146298E-06-4.759720536E-06-9.413766288E-06-4.332104558E-06
 -4.337362333E-06-9.879499870E-08-3.085334944E-06 2.685792919E-06 3.756978494E-06
  7.723197023E-06-4.497770581E-06 1.083515931E-05 3.889934222E-06-3.303642032E-06
  1.943712974E-06 2.879914242E-06 3.669338824E-06-1.005774580E-06
  2.284027575E-05-2.994633864E+00 1.401978694E-03
 ......END OF GEOMETRY SEARCH......
 STEP CPU TIME =     0.00 TOTAL CPU TIME =         64.0 (      1.1 MIN)
 TOTAL WALL CLOCK TIME=         64.5 SECONDS, CPU UTILIZATION IS    99.16%
                580000  WORDS OF DYNAMIC MEMORY USED
 EXECUTION OF GAMESS TERMINATED NORMALLY Thu Oct  3 22:20:52 2019
 DDI: 263640 bytes (0.3 MB / 0 MWords) used by master data server.

 ----------------------------------------
 CPU timing information for all processes
 ========================================
 0: 63.690 + 0.276 = 63.966
 ----------------------------------------
 ddikick.x: exited gracefully.
----- accounting info -----
Files used on the master node d12chas540.crc.nd.edu were:
-rw-r--r-- 1 wschnei1 campus 216243 Oct  3 22:20 /scratch365/wschnei1/opt-zmat.F07
Thu Oct  3 22:20:55 EDT 2019
0.437u 0.360s 1:08.23 1.1%	0+0k 0+456io 0pf+0w
