----- GAMESS execution script 'rungms' -----
This job is running on host d12chas532.crc.nd.edu
under operating system Linux at Fri Oct 4 09:16:49 EDT 2019
SGE has assigned the following compute nodes to this run:
Available scratch disk space (Kbyte units) at beginning of the job is
Filesystem      1K-blocks     Used  Available Use% Mounted on
/dev/sda2      1949705068 49569148 1900135920   3% /
GAMESS temporary binary files will be written to /tmp/471840.1.debug
GAMESS supplementary output files will be written to /afs/crc.nd.edu/user/w/wschnei1/scr
Copying input file vib.inp to your run's scratch directory...
reading your own /afs/crc.nd.edu/user/w/wschnei1/.gmsrc

 Distributed Data Interface kickoff program.
 Initiating 1 compute processes on 1 nodes to run the following command:
 /afs/crc.nd.edu/x86_64_linux/g/gamess/nov-2017/gamess/gamess.00.x vib 

          ******************************************************
          *         GAMESS VERSION = 11 NOV 2017 (R3)         *
          *             FROM IOWA STATE UNIVERSITY             *
          * M.W.SCHMIDT, K.K.BALDRIDGE, J.A.BOATZ, S.T.ELBERT, *
          *   M.S.GORDON, J.H.JENSEN, S.KOSEKI, N.MATSUNAGA,   *
          *          K.A.NGUYEN, S.J.SU, T.L.WINDUS,           *
          *       TOGETHER WITH M.DUPUIS, J.A.MONTGOMERY       *
          *         J.COMPUT.CHEM.  14, 1347-1363(1993)        *
          **************** 64 BIT INTEL VERSION ****************

  SINCE 1993, STUDENTS AND POSTDOCS WORKING AT IOWA STATE UNIVERSITY
  AND ALSO IN THEIR VARIOUS JOBS AFTER LEAVING ISU HAVE MADE IMPORTANT
  CONTRIBUTIONS TO THE CODE:
     IVANA ADAMOVIC, CHRISTINE AIKENS, YURI ALEXEEV, POOJA ARORA,
     ANDREY ASADCHEV, ROB BELL, PRADIPTA BANDYOPADHYAY, JONATHAN BENTZ,
     BRETT BODE, KURT BRORSEN, CALEB CARLIN, GALINA CHABAN, WEI CHEN,
     CHEOL HO CHOI, PAUL DAY, ALBERT DEFUSCO, NUWAN DESILVA, TIM DUDLEY,
     DMITRI FEDOROV, ALEX FINDLATER, GRAHAM FLETCHER, MARK FREITAG,
     KURT GLAESEMANN, ANASTASIA GUININA,
     DAN KEMP, GRANT MERRILL, NORIYUKI MINEZAWA, JONATHAN MULLIN,
     TAKESHI NAGATA, SEAN NEDD, HEATHER NETZLOFF, BOSILJKA NJEGIC, RYAN OLSON,
     MIKE PAK, BUU PHAM,
     SPENCER PRUITT, LUKE ROSKOP, JIM SHOEMAKER, LYUDMILA SLIPCHENKO,
     TONY SMITH, SAROM SOK LEANG, JIE SONG, TETSUYA TAKETSUGU, SIMON WEBB,
     PENG XU, SOOHAENG YOO, FEDERICO ZAHARIEV

  ADDITIONAL CODE HAS BEEN PROVIDED BY COLLABORATORS IN OTHER GROUPS:
     IOWA STATE UNIVERSITY:
          JOE IVANIC, AARON WEST, LAIMUTIS BYTAUTAS, KLAUS RUEDENBERG
     UNIVERSITY OF TOKYO: KIMIHIKO HIRAO, TAKAHITO NAKAJIMA,
          TAKAO TSUNEDA, MUNEAKI KAMIYA, SUSUMU YANAGISAWA,
          KIYOSHI YAGI, MAHITO CHIBA, SEIKEN TOKURA, NAOAKI KAWAKAMI
     UNIVERSITY OF AARHUS: FRANK JENSEN
     UNIVERSITY OF IOWA: VISVALDAS KAIRYS, HUI LI
     NATIONAL INST. OF STANDARDS AND TECHNOLOGY: WALT STEVENS, DAVID GARMER
     UNIVERSITY OF PISA: BENEDETTA MENNUCCI, JACOPO TOMASI
     UNIVERSITY OF MEMPHIS: HENRY KURTZ, PRAKASHAN KORAMBATH
     UNIVERSITY OF ALBERTA: TOBY ZENG, MARIUSZ KLOBUKOWSKI
     UNIVERSITY OF NEW ENGLAND: MARK SPACKMAN
     MIE UNIVERSITY: HIROAKI UMEDA
     NAT. INST. OF ADVANCED INDUSTRIAL SCIENCE AND TECHNOLOGY: KAZUO KITAURA
     MICHIGAN STATE UNIVERSITY:
          KAROL KOWALSKI, MARTA WLOCH, JEFFREY GOUR, JESSE LUTZ,
          WEI LI, PIOTR PIECUCH
     UNIVERSITY OF SILESIA: MONIKA MUSIAL, STANISLAW KUCHARSKI
     FACULTES UNIVERSITAIRES NOTRE-DAME DE LA PAIX:
          OLIVIER QUINET, BENOIT CHAMPAGNE
     UNIVERSITY OF CALIFORNIA - SANTA BARBARA: BERNARD KIRTMAN
     INSTITUTE FOR MOLECULAR SCIENCE:
          KAZUYA ISHIMURA, MICHIO KATOUDA, AND SHIGERU NAGASE
     UNIVERSITY OF NOTRE DAME: ANNA POMOGAEVA, DAN CHIPMAN
     KYUSHU UNIVERSITY:
          HARUYUKI NAKANO,
          FENG LONG GU, JACEK KORCHOWIEC, MARCIN MAKOWSKI, AND YURIKO AOKI,
          HIROTOSHI MORI AND EISAKU MIYOSHI
     PENNSYLVANIA STATE UNIVERSITY:
          TZVETELIN IORDANOV, CHET SWALINA, JONATHAN SKONE,
          SHARON HAMMES-SCHIFFER
     WASEDA UNIVERSITY:
          MASATO KOBAYASHI, TOMOKO AKAMA, TSUGUKI TOUMA,
          TAKESHI YOSHIKAWA, YASUHIRO IKABATA, JUNJI SEINO,
          YUYA NAKAJIMA, HIROMI NAKAI
     NANJING UNIVERSITY: SHUHUA LI
     UNIVERSITY OF NEBRASKA:
          PEIFENG SU, DEJUN SI, NANDUN THELLAMUREGE, YALI WANG, HUI LI
     UNIVERSITY OF ZURICH: ROBERTO PEVERATI, KIM BALDRIDGE
     N. COPERNICUS UNIVERSITY AND JACKSON STATE UNIVERSITY:
          MARIA BARYSZ
     UNIVERSITY OF COPENHAGEN: Jimmy Kromann, CASPER STEINMANN
     TOKYO INSTITUTE OF TECHNOLOGY: HIROYA NAKATA
     NAGOYA UNIVERSITY: YOSHIO NISHIMOTO, STEPHAN IRLE
     MOSCOW STATE UNIVERSITY: VLADIMIR MIRONOV

 EXECUTION OF GAMESS BEGUN Fri Oct  4 09:16:49 2019

            ECHO OF THE FIRST FEW INPUT CARDS -
 INPUT CARD> $CONTRL SCFTYP=RHF DFTTYP=PBE RUNTYP=HESSIAN COORD=CART ISPHER=1 $END          
 INPUT CARD> $BASIS GBASIS=PCseg-0 $END                                                     
 INPUT CARD> $FORCE METHOD=SEMINUM $END                                                     
 INPUT CARD> $DATA                                                                          
 INPUT CARD>FCH2CH2F cartesian optimization calculation                                     
 INPUT CARD>C1                                                                              
 INPUT CARD> C           6.0  -0.6825859983  -0.6052590209   0.3379509790                   
 INPUT CARD> C           6.0   0.6825995662  -0.6055753182  -0.3374024974                   
 INPUT CARD> F           9.0   1.4628498216   0.4896405340   0.1849444048                   
 INPUT CARD> H           1.0   1.2186619285  -1.5559000964  -0.1370893512                   
 INPUT CARD> H           1.0   0.5547773061  -0.4649563102  -1.4280795562                   
 INPUT CARD> F           9.0  -1.4628577245   0.4894871378  -0.1853877322                   
 INPUT CARD> H           1.0  -1.2186896005  -1.5557398042   0.1384984228                   
 INPUT CARD> H           1.0  -0.5547622072  -0.4636360628   1.4284969260                   
 INPUT CARD> $END                                                                           
 INPUT CARD>                                                                                
    1000000 WORDS OF MEMORY AVAILABLE


                    * * * WARNING * * *
 OLD KEYWORD COORD=CART SELECTED, AUTOMATICALLY CHANGED TO COORD=PRINAXIS.
 YOUR MOLECULE'S COORDINATES WILL BE CHANGED TO PRINCIPAL AXES BY
   A) TRANSLATION TO THE CENTER OF MASS, THEN
   B) ROTATION TO HAVE A DIAGONAL MOMENT OF INERTIA TENSOR.

 HOWEVER, NOTHING ELSE IN YOUR INPUT WILL BE ROTATED IN THE SAME WAY,
 SO IF YOU HAVE A $VEC, $VIB, $GRAD, $HESS, EFP PARTICLE COORDINATES,
 OR ANYTHING ELSE THAT DEPENDS ON THE INITIAL ORIENTATION, THAT DATA
 WILL NOT BE USED CORRECTLY IN THIS RUN.

 THE PURPOSE OF COORD=PRINAXIS IS TO BE USED ONCE, ONLY AT THE VERY
 BEGINNING OF A SERIES OF COMPUTATIONS, PERHAPS TO FIND THE SYMMETRY
 UNIQUE ATOMS FROM AN ARBITRARY INITIAL ORIENTATION.

 AFTER THE FIRST RUN, YOU SHOULD USE ONLY COORD=UNIQUE, TO ENSURE THAT
 THE COORDINATES WHICH YOU READ IN ARE THE COORDINATES THAT ARE USED.


     BASIS OPTIONS
     -------------
     GBASIS=PCSEG-0      IGAUSS=       0      POLAR=NONE    
     NDFUNC=       0     NFFUNC=       0     DIFFSP=       F
     NPFUNC=       0      DIFFS=       F     BASNAM=        


     RUN TITLE
     ---------
 FCH2CH2F cartesian optimization calculation                                     

 THE POINT GROUP OF THE MOLECULE IS C1      
 THE ORDER OF THE PRINCIPAL AXIS IS     0

 THE MOMENTS OF INERTIA ARE (AMU-ANGSTROM**2)
 IXX=    31.316   IYY=   104.297   IZZ=   119.415

 ATOM      ATOMIC                      COORDINATES (BOHR)
           CHARGE         X                   Y                   Z
 C           6.0    -1.2687556223        1.1440719324       -0.6791719253
 C           6.0     1.2688024556        1.1440734195        0.6791636579
 F           9.0     2.7741789944       -0.9251547822       -0.2610497737
 H           1.0     2.2934258448        2.9400872673        0.3341242696
 H           1.0     0.9612609029        0.8774194311        2.7313154433
 F           9.0    -2.7742110579       -0.9251284139        0.2610562747
 H           1.0    -2.2934236385        2.9400601203       -0.3341484879
 H           1.0    -0.9612163189        0.8773658851       -2.7313153373

          INTERNUCLEAR DISTANCES (ANGS.)
          ------------------------------

                1 C          2 C          3 F          4 H          5 H     

   1 C       0.0000000    1.5231001 *  2.4135267 *  2.1781013 *  2.1609296 *
   2 C       1.5231001 *  0.0000000    1.4426138 *  1.1093266 *  1.1071083 *
   3 F       2.4135267 *  1.4426138 *  0.0000000    2.0850827 *  2.0827139 *
   4 H       2.1781013 *  1.1093266 *  2.0850827 *  0.0000000    1.8159176 *
   5 H       2.1609296 *  1.1071083 *  2.0827139 *  1.8159176 *  0.0000000  
   6 F       1.4426283 *  2.4135570 *  2.9490525 *  3.3729052    2.5546226 *
   7 H       1.1093251 *  2.1781172 *  3.3728907    2.4528822 *  2.6056017 *
   8 H       1.1071072 *  2.1609284 *  2.5545875 *  2.6055967 *  3.0644916  

                6 F          7 H          8 H     

   1 C       1.4426283 *  1.1093251 *  1.1071072 *
   2 C       2.4135570 *  2.1781172 *  2.1609284 *
   3 F       2.9490525 *  3.3728907    2.5545875 *
   4 H       3.3729052    2.4528822 *  2.6055967 *
   5 H       2.5546226 *  2.6056017 *  3.0644916  
   6 F       0.0000000    2.0850596 *  2.0827158 *
   7 H       2.0850596 *  0.0000000    1.8159257 *
   8 H       2.0827158 *  1.8159257 *  0.0000000  

  * ... LESS THAN  3.000


     ATOMIC BASIS SET
     ----------------
 THE CONTRACTED PRIMITIVE FUNCTIONS HAVE BEEN UNNORMALIZED
 THE CONTRACTED BASIS FUNCTIONS ARE NOW NORMALIZED TO UNITY

  SHELL TYPE  PRIMITIVE        EXPONENT          CONTRACTION COEFFICIENT(S)

 C         

      1   S       1           471.5250000    0.018365741272
      1   S       2            71.1900000    0.127245821015
      1   S       3            15.8860000    0.440412776421
      1   S       4             4.1646900    0.553280001111

      2   S       5             0.4425810    1.000000000000

      3   S       6             0.1428360    1.000000000000

      4   P       7             4.4121100    0.213746653399
      4   P       8             0.8798600    0.879956252208

      5   P       9             0.1929920    1.000000000000

 C         

      6   S      10           471.5250000    0.018365741272
      6   S      11            71.1900000    0.127245821015
      6   S      12            15.8860000    0.440412776421
      6   S      13             4.1646900    0.553280001111

      7   S      14             0.4425810    1.000000000000

      8   S      15             0.1428360    1.000000000000

      9   P      16             4.4121100    0.213746653399
      9   P      17             0.8798600    0.879956252208

     10   P      18             0.1929920    1.000000000000

 F         

     11   S      19          1106.0400000    0.017695356391
     11   S      20           166.9030000    0.123797950743
     11   S      21            37.4603000    0.437934495315
     11   S      22             9.9899200    0.556305561791

     12   S      23             1.1379200    1.000000000000

     13   S      24             0.3490830    1.000000000000

     14   P      25            10.7104000    0.232618932285
     14   P      26             2.1985200    0.865223996240

     15   P      27             0.4576870    1.000000000000

 H         

     16   S      28             4.3447300    0.167654352461
     16   S      29             0.6604870    0.896889788192

     17   S      30             0.1366870    1.000000000000

 H         

     18   S      31             4.3447300    0.167654352461
     18   S      32             0.6604870    0.896889788192

     19   S      33             0.1366870    1.000000000000

 F         

     20   S      34          1106.0400000    0.017695356391
     20   S      35           166.9030000    0.123797950743
     20   S      36            37.4603000    0.437934495315
     20   S      37             9.9899200    0.556305561791

     21   S      38             1.1379200    1.000000000000

     22   S      39             0.3490830    1.000000000000

     23   P      40            10.7104000    0.232618932285
     23   P      41             2.1985200    0.865223996240

     24   P      42             0.4576870    1.000000000000

 H         

     25   S      43             4.3447300    0.167654352461
     25   S      44             0.6604870    0.896889788192

     26   S      45             0.1366870    1.000000000000

 H         

     27   S      46             4.3447300    0.167654352461
     27   S      47             0.6604870    0.896889788192

     28   S      48             0.1366870    1.000000000000

 TOTAL NUMBER OF BASIS SET SHELLS             =   28
 NUMBER OF CARTESIAN GAUSSIAN BASIS FUNCTIONS =   44
 NOTE: THIS RUN WILL RESTRICT THE MO VARIATION SPACE TO SPHERICAL HARMONICS.
 THE NUMBER OF ORBITALS KEPT IN THE VARIATIONAL SPACE WILL BE PRINTED LATER.
 NUMBER OF ELECTRONS                          =   34
 CHARGE OF MOLECULE                           =    0
 SPIN MULTIPLICITY                            =    1
 NUMBER OF OCCUPIED ORBITALS (ALPHA)          =   17
 NUMBER OF OCCUPIED ORBITALS (BETA )          =   17
 TOTAL NUMBER OF ATOMS                        =    8
 THE NUCLEAR REPULSION ENERGY IS      124.7237647055

     LEBEDEV GRID-BASED DFT OPTIONS
     ------------------------------
     DFTTYP=PBE     
     NRAD  =      96     NLEB  =     302
     NRAD0 =      96     NLEB0 =     302
     SWOFF =    5.00E-03 (PURE SCF -> DFT)
     SWITCH=    3.00E-04 (COARSE -> TIGHT GRID)
     THRESH=    0.00E+00 GTHRE=    1.00E+00

 GRIMME'S EMPIRICAL DISPERSION CORRECTION= F

     $CONTRL OPTIONS
     ---------------
 SCFTYP=RHF          RUNTYP=HESSIAN      EXETYP=RUN     
 MPLEVL=       0     CITYP =NONE         CCTYP =NONE         VBTYP =NONE    
 DFTTYP=PBE          TDDFT =NONE    
 MULT  =       1     ICHARG=       0     NZVAR =       0     COORD =PRINAXIS
 PP    =NONE         RELWFN=NONE         LOCAL =NONE         NUMGRD=       F
 ISPHER=       1     NOSYM =       0     MAXIT =      30     UNITS =ANGS    
 PLTORB=       F     MOLPLT=       F     AIMPAC=       F     FRIEND=        
 NPRINT=       7     IREST =       0     GEOM  =INPUT   
 NORMF =       0     NORMP =       0     ITOL  =      20     ICUT  =       9
 INTTYP=BEST         GRDTYP=BEST         QMTTOL= 1.0E-06

     $SYSTEM OPTIONS
     ---------------
  REPLICATED MEMORY=     1000000 WORDS (ON EVERY NODE).
 DISTRIBUTED MEMDDI=           0 MILLION WORDS IN AGGREGATE,
 MEMDDI DISTRIBUTED OVER   1 PROCESSORS IS           0 WORDS/PROCESSOR.
 TOTAL MEMORY REQUESTED ON EACH PROCESSOR=     1000000 WORDS.
 TIMLIM=      525600.00 MINUTES, OR     365.0 DAYS.
 PARALL= F  BALTYP=  DLB     KDIAG=    0  COREFL= F
 MXSEQ2=     300 MXSEQ3=     150  mem10=         0

          ----------------
          PROPERTIES INPUT
          ----------------

     MOMENTS            FIELD           POTENTIAL          DENSITY
 IEMOM =       1   IEFLD =       0   IEPOT =       0   IEDEN =       0
 WHERE =COMASS     WHERE =NUCLEI     WHERE =NUCLEI     WHERE =NUCLEI  
 OUTPUT=BOTH       OUTPUT=BOTH       OUTPUT=BOTH       OUTPUT=BOTH    
 IEMINT=       0   IEFINT=       0                     IEDINT=       0
                                                       MORB  =       0
          EXTRAPOLATION IN EFFECT
          DIIS IN EFFECT
 ORBITAL PRINTING OPTION: NPREO=     1    44     2     1

     -------------------------------
     INTEGRAL TRANSFORMATION OPTIONS
     -------------------------------
     NWORD  =            0
     CUTOFF = 1.0E-09     MPTRAN =       0
     DIRTRF =       F     AOINTS =DUP     

          ----------------------
          INTEGRAL INPUT OPTIONS
          ----------------------
 NOPK  =       1 NORDER=       0 SCHWRZ=       T

     ------------------------------------------
     THE POINT GROUP IS C1 , NAXIS= 0, ORDER= 1
     ------------------------------------------

 -- VARIATIONAL SPACE WILL BE RESTRICTED TO PURE SPHERICAL HARMONICS ONLY --
 AFTER EXCLUDING CONTAMINANT COMBINATIONS FROM THE CARTESIAN GAUSSIAN BASIS
 SET, THE NUMBER OF SPHERICAL HARMONICS KEPT IN THE VARIATION SPACE IS   44

     DIMENSIONS OF THE SYMMETRY SUBSPACES ARE
 A   =   44

 ..... DONE SETTING UP THE RUN .....
 STEP CPU TIME =     0.02 TOTAL CPU TIME =          0.0 (      0.0 MIN)
 TOTAL WALL CLOCK TIME=          0.0 SECONDS, CPU UTILIZATION IS    75.00%

     ---------------------------------
     HESSIAN MATRIX CONTROL PARAMETERS
     ---------------------------------
     METHOD=SEMINUM    NVIB  =       2   VIBSIZ= 0.01000
     RDHESS=       F   PURIFY=       F   PRTIFC=       F
     VIBANL=       T   DECOMP=       F   PROJCT=       F
     SCLFAC= 1.00000   PRTSCN=       F   NPRT  =       0
     PULCOR=       F   NPUN  =       0   REDOVB=       T
     HSSTYP=GENERAL 
     THERMOCHEMISTRY WILL BE PRINTED FOR    1 TEMPERATURES:
      298.15000

               * * * EFFICIENCY NOTE * * *
 THIS CALCULATION CAN BE RUN WITH DIFFERENTIATION METHOD=ANALYTIC
 THIS MIGHT BE MORE ACCURATE AND/OR FASTER THAN YOUR CHOICE,
 BUT THE REQUESTED CALCULATION METHOD=SEMINUM  IS PROCEEDING.

1   ATOM  0
                                        -------------------
   COORD  0                             NUCLEAR COORDINATES
                                        -------------------
     VIB  0

                       ATOM             X              Y              Z

                 1  C               -1.268756       1.144072      -0.679172
                 2  C                1.268802       1.144073       0.679164
                 3  F                2.774179      -0.925155      -0.261050
                 4  H                2.293426       2.940087       0.334124
                 5  H                0.961261       0.877419       2.731315
                 6  F               -2.774211      -0.925128       0.261056
                 7  H               -2.293424       2.940060      -0.334148
                 8  H               -0.961216       0.877366      -2.731315

          ********************
          1 ELECTRON INTEGRALS
          ********************
 ...... END OF ONE-ELECTRON INTEGRALS ......
 STEP CPU TIME =     0.00 TOTAL CPU TIME =          0.0 (      0.0 MIN)
 TOTAL WALL CLOCK TIME=          0.1 SECONDS, CPU UTILIZATION IS    60.00%

          -------------
          GUESS OPTIONS
          -------------
          GUESS =HUCKEL            NORB  =       0          NORDER=       0
          MIX   =       F          PRTMO =       F          PUNMO =       F
          TOLZ  = 1.0E-08          TOLE  = 1.0E-05
          SYMDEN=       F          PURIFY=       F

 INITIAL GUESS ORBITALS GENERATED BY HUCKEL   ROUTINE.
 HUCKEL GUESS REQUIRES     22304 WORDS.

 SYMMETRIES FOR INITIAL GUESS ORBITALS FOLLOW.   BOTH SET(S).
    17 ORBITALS ARE OCCUPIED (    4 CORE ORBITALS).
     5=A        6=A        7=A        8=A        9=A       10=A       11=A   
    12=A       13=A       14=A       15=A       16=A       17=A       18=A   
    19=A       20=A       21=A       22=A       23=A       24=A       25=A   
    26=A       27=A   
 ...... END OF INITIAL ORBITAL SELECTION ......
 STEP CPU TIME =     0.01 TOTAL CPU TIME =          0.0 (      0.0 MIN)
 TOTAL WALL CLOCK TIME=          0.1 SECONDS, CPU UTILIZATION IS    66.67%

                    ----------------------
                    AO INTEGRAL TECHNOLOGY
                    ----------------------
     S,P,L SHELL ROTATED AXIS INTEGRALS, REPROGRAMMED BY
        KAZUYA ISHIMURA (IMS) AND JOSE SIERRA (SYNSTAR).
     S,P,D,L SHELL ROTATED AXIS INTEGRALS PROGRAMMED BY
        KAZUYA ISHIMURA (INSTITUTE FOR MOLECULAR SCIENCE).
     S,P,D,F,G SHELL TO TOTAL QUARTET ANGULAR MOMENTUM SUM 5,
        ERIC PROGRAM BY GRAHAM FLETCHER (ELORET AND NASA ADVANCED
        SUPERCOMPUTING DIVISION, AMES RESEARCH CENTER).
     S,P,D,F,G,L SHELL GENERAL RYS QUADRATURE PROGRAMMED BY
        MICHEL DUPUIS (PACIFIC NORTHWEST NATIONAL LABORATORY).

          --------------------
          2 ELECTRON INTEGRALS
          --------------------

 THE -PK- OPTION IS OFF, THE INTEGRALS ARE NOT IN SUPERMATRIX FORM.
 STORING   15000 INTEGRALS/RECORD ON DISK, USING 12 BYTES/INTEGRAL.
 TWO ELECTRON INTEGRAL EVALUATION REQUIRES   89762 WORDS OF MEMORY.
 SCHWARZ INEQUALITY OVERHEAD:       981 INTEGRALS, T=        0.01
 II,JST,KST,LST =  1  1  1  1 NREC =         1 INTLOC =    1
 II,JST,KST,LST =  2  1  1  1 NREC =         1 INTLOC =    2
 II,JST,KST,LST =  3  1  1  1 NREC =         1 INTLOC =    7
 II,JST,KST,LST =  4  1  1  1 NREC =         1 INTLOC =   22
 II,JST,KST,LST =  5  1  1  1 NREC =         1 INTLOC =   67
 II,JST,KST,LST =  6  1  1  1 NREC =         1 INTLOC =  214
 II,JST,KST,LST =  7  1  1  1 NREC =         1 INTLOC =  575
 II,JST,KST,LST =  8  1  1  1 NREC =         1 INTLOC = 1194
 II,JST,KST,LST =  9  1  1  1 NREC =         1 INTLOC = 1987
 II,JST,KST,LST = 10  1  1  1 NREC =         1 INTLOC = 5542
 II,JST,KST,LST = 11  1  1  1 NREC =         1 INTLOC =11589
 II,JST,KST,LST = 12  1  1  1 NREC =         1 INTLOC =14304
 II,JST,KST,LST = 13  1  1  1 NREC =         2 INTLOC = 3045
 II,JST,KST,LST = 14  1  1  1 NREC =         2 INTLOC = 7579
 II,JST,KST,LST = 15  1  1  1 NREC =         3 INTLOC = 9281
 II,JST,KST,LST = 16  1  1  1 NREC =         5 INTLOC = 4377
 II,JST,KST,LST = 17  1  1  1 NREC =         6 INTLOC =   38
 II,JST,KST,LST = 18  1  1  1 NREC =         6 INTLOC =12011
 II,JST,KST,LST = 19  1  1  1 NREC =         7 INTLOC =10175
 II,JST,KST,LST = 20  1  1  1 NREC =         8 INTLOC = 9842
 II,JST,KST,LST = 21  1  1  1 NREC =         9 INTLOC = 4540
 II,JST,KST,LST = 22  1  1  1 NREC =        10 INTLOC = 3162
 II,JST,KST,LST = 23  1  1  1 NREC =        11 INTLOC = 6498
 II,JST,KST,LST = 24  1  1  1 NREC =        14 INTLOC =10955
 II,JST,KST,LST = 25  1  1  1 NREC =        19 INTLOC =13203
 II,JST,KST,LST = 26  1  1  1 NREC =        21 INTLOC =11006
 II,JST,KST,LST = 27  1  1  1 NREC =        24 INTLOC =  573
 II,JST,KST,LST = 28  1  1  1 NREC =        26 INTLOC = 6450
 SCHWARZ INEQUALITY TEST SKIPPED        8759 INTEGRAL BLOCKS.
 TOTAL NUMBER OF NONZERO TWO-ELECTRON INTEGRALS =              421660
         29 INTEGRAL RECORDS WERE STORED ON DISK FILE  8.
  ...... END OF TWO-ELECTRON INTEGRALS .....
 STEP CPU TIME =     0.11 TOTAL CPU TIME =          0.2 (      0.0 MIN)
 TOTAL WALL CLOCK TIME=          0.2 SECONDS, CPU UTILIZATION IS    88.24%

          --------------------------
               R-PBE SCF CALCULATION
          --------------------------

     NUCLEAR ENERGY =       124.7237647055
     MAXIT =   30     NPUNCH=    2
     EXTRAP=T  DAMP=F  SHIFT=F  RSTRCT=F  DIIS=T  DEM=F  SOSCF=F
         DENSITY MATRIX CONVERGENCE THRESHOLD=  1.00E-05
     COARSE -> FINE DFT GRID SWITCH THRESHOLD=  3.00E-04 (SWITCH IN $DFT)
                   HF -> DFT SWITCH THRESHOLD=  5.00E-03 (SWOFF IN $DFT)
     MEMORY REQUIRED FOR RHF ITERS=    330938 WORDS.

     EXCHANGE FUNCTIONAL   =PBE       
     CORRELATION FUNCTIONAL=PBE       
     DFT THRESHOLD         =.431E-08
 FOR AN EULER-MACLAURIN QUADRATURE USING  96 RADIAL POINTS:
 SMALLEST GAUSSIAN PRIMITIVE EXPONENT=        0.1366870000 OF TYPE -S-
 ON ATOM NUMBER   4 HAS RADIAL NORMALIZATION=  1.000000
  LARGEST GAUSSIAN PRIMITIVE EXPONENT=     1106.0400000000 OF TYPE -S-
 ON ATOM NUMBER   3 HAS RADIAL NORMALIZATION=  1.000000
 DFT IS SWITCHED OFF, PERFORMING PURE SCF UNTIL SWOFF THRESHOLD IS REACHED.

 ITER EX DEM     TOTAL ENERGY        E CHANGE  DENSITY CHANGE    DIIS ERROR
   1  0  0     -275.5549039529  -275.5549039529   0.296160099   0.508272562
          * * *   INITIATING DIIS PROCEDURE   * * *
   2  1  0     -276.0614789573    -0.5065750043   0.071555054   0.105145176
   3  2  0     -276.0885224543    -0.0270434970   0.028392404   0.056649669
   4  3  0     -276.0948846634    -0.0063622092   0.008570435   0.010742389
   5  4  0     -276.0952865491    -0.0004018857   0.000582623   0.001002462
 CONVERGED TO SWOFF, SO DFT CALCULATION IS NOW SWITCHED ON.
          * * *   INITIATING DIIS PROCEDURE   * * *
   6  5  0     -277.1781529857    -1.0828664365   0.097751763   0.078935853
   7  6  0     -277.1854866131    -0.0073336275   0.077420769   0.073513236
   8  7  0     -277.1919460734    -0.0064594602   0.024244591   0.060578308
   9  8  0     -277.2038010861    -0.0118550127   0.006157040   0.008021998
  10  9  0     -277.2040105591    -0.0002094730   0.001331032   0.002140428
  11 10  0     -277.2040251386    -0.0000145795   0.000127126   0.000138648
  12 11  0     -277.2040252541    -0.0000001155   0.000014547   0.000021437
  13 12  0     -277.2040252558    -0.0000000017   0.000001259   0.000001552
  14 13  0     -277.2040252558    -0.0000000000   0.000000249   0.000000439

          -----------------
          DENSITY CONVERGED
          -----------------
     TIME TO FORM FOCK OPERATORS=       5.0 SECONDS (       0.4 SEC/ITER)
     TIME TO SOLVE SCF EQUATIONS=       0.0 SECONDS (       0.0 SEC/ITER)

 FINAL R-PBE ENERGY IS     -277.2040252558 AFTER  14 ITERATIONS
 DFT EXCHANGE + CORRELATION ENERGY =       -32.8059108138
 TOTAL ELECTRON NUMBER             =        33.9999466909

          ------------
          EIGENVECTORS
          ------------

                      1          2          3          4          5
                  -24.2308   -24.2308    -9.9809    -9.9807    -1.0684
                     A          A          A          A          A   
    1  C  1  S    0.000107   0.000051  -0.695304   0.696657  -0.065487
    2  C  1  S   -0.001873  -0.002417  -0.043045   0.040331   0.115591
    3  C  1  S    0.007609   0.019204   0.042088  -0.025762   0.013437
    4  C  1  X   -0.000581  -0.000283  -0.000960  -0.001055  -0.019795
    5  C  1  Y   -0.000238  -0.000505   0.000267  -0.000066  -0.045145
    6  C  1  Z    0.000062   0.000146  -0.000692  -0.000438   0.022640
    7  C  1  X   -0.002707   0.001633   0.005681   0.000152   0.000929
    8  C  1  Y   -0.002446  -0.002936   0.002213  -0.001696  -0.012585
    9  C  1  Z    0.001507   0.002552   0.001278   0.001968   0.006445
   10  C  2  S    0.000110  -0.000044   0.695983   0.695978  -0.065518
   11  C  2  S   -0.002021   0.002294   0.043085   0.040289   0.115643
   12  C  2  S    0.008800  -0.018688  -0.042113  -0.025720   0.013453
   13  C  2  X    0.000598  -0.000246  -0.000959   0.001056   0.019819
   14  C  2  Y   -0.000269   0.000489  -0.000267  -0.000066  -0.045173
   15  C  2  Z   -0.000071   0.000142  -0.000692   0.000438  -0.022653
   16  C  2  X    0.002599   0.001800   0.005681  -0.000158  -0.000924
   17  C  2  Y   -0.002626   0.002777  -0.002215  -0.001694  -0.012588
   18  C  2  Z   -0.001664   0.002453   0.001276  -0.001969  -0.006449
   19  F  3  S    0.717418  -0.673703   0.000115   0.000181  -0.203526
   20  F  3  S    0.038820  -0.036179  -0.000221  -0.000816   0.363367
   21  F  3  S   -0.019919   0.018674   0.001637   0.002302   0.332046
   22  F  3  X   -0.000917   0.000707  -0.000226   0.000126  -0.035974
   23  F  3  Y    0.001172  -0.001063   0.000163   0.000108   0.047492
   24  F  3  Z    0.000472  -0.000500   0.000058   0.000097   0.020332
   25  F  3  X    0.002216  -0.001717   0.001650   0.000280  -0.041049
   26  F  3  Y   -0.002730   0.002461  -0.001821  -0.001513   0.054474
   27  F  3  Z   -0.001061   0.001179  -0.000802  -0.000892   0.022854
   28  H  4  S   -0.000706   0.000683  -0.001700  -0.001426   0.011764
   29  H  4  S   -0.001436   0.002634   0.007994   0.007261   0.007103
   30  H  5  S   -0.000597   0.000841  -0.001550  -0.001428   0.012419
   31  H  5  S   -0.001403   0.002619   0.007446   0.007917   0.007093
   32  F  6  S    0.673659   0.717459  -0.000115   0.000181  -0.203395
   33  F  6  S    0.036470   0.038547   0.000221  -0.000817   0.363132
   34  F  6  S   -0.018707  -0.019889  -0.001635   0.002304   0.331835
   35  F  6  X    0.000870   0.000764  -0.000226  -0.000126   0.035953
   36  F  6  Y    0.001103   0.001134  -0.000163   0.000108   0.047460
   37  F  6  Z   -0.000440  -0.000529   0.000058  -0.000097  -0.020319
   38  F  6  X   -0.002104  -0.001853   0.001649  -0.000282   0.041026
   39  F  6  Y   -0.002570  -0.002628   0.001820  -0.001514   0.054437
   40  F  6  Z    0.000985   0.001243  -0.000801   0.000893  -0.022839
   41  H  7  S   -0.000661  -0.000726   0.001698  -0.001428   0.011760
   42  H  7  S   -0.001268  -0.002719  -0.007987   0.007269   0.007105
   43  H  8  S   -0.000543  -0.000876   0.001549  -0.001430   0.012415
   44  H  8  S   -0.001236  -0.002702  -0.007438   0.007925   0.007094

                      6          7          8          9         10
                   -1.0564    -0.7100    -0.5744    -0.4602    -0.4590
                     A          A          A          A          A   
    1  C  1  S   -0.048548  -0.186226   0.162401  -0.014738   0.008686
    2  C  1  S    0.089884   0.343713  -0.317223   0.040567  -0.027604
    3  C  1  S   -0.020292   0.179946  -0.187621  -0.035668   0.041047
    4  C  1  X   -0.039134   0.087556   0.066908  -0.117980  -0.113619
    5  C  1  Y   -0.041216   0.040718  -0.030928   0.039203   0.221659
    6  C  1  Z    0.019601   0.024891   0.087056   0.210335  -0.024044
    7  C  1  X   -0.020243   0.056630   0.045890  -0.108432  -0.117475
    8  C  1  Y   -0.004890   0.038487  -0.040779   0.063626   0.201974
    9  C  1  Z    0.001993   0.007709   0.077845   0.196521   0.000441
   10  C  2  S    0.048508  -0.186225  -0.162401   0.014752   0.008660
   11  C  2  S   -0.089817   0.343698   0.317228  -0.040612  -0.027525
   12  C  2  S    0.020313   0.180039   0.187604   0.035746   0.040934
   13  C  2  X   -0.039120  -0.087556   0.066905  -0.117783   0.113820
   14  C  2  Y    0.041191   0.040719   0.030929  -0.038828   0.221734
   15  C  2  Z    0.019588  -0.024891   0.087054   0.210381   0.023687
   16  C  2  X   -0.020241  -0.056655   0.045886  -0.108231   0.117679
   17  C  2  Y    0.004882   0.038488   0.040780  -0.063286   0.202091
   18  C  2  Z    0.001990  -0.007722   0.077842   0.196528  -0.000767
   19  F  3  S    0.210053   0.075700   0.059023  -0.037404  -0.035449
   20  F  3  S   -0.375456  -0.139171  -0.109161   0.067894   0.063169
   21  F  3  S   -0.347949  -0.156986  -0.133872   0.097607   0.097269
   22  F  3  X    0.033279  -0.037406  -0.036214   0.064890   0.177169
   23  F  3  Y   -0.047620   0.037215   0.085911  -0.159327  -0.032084
   24  F  3  Z   -0.020518   0.009201   0.062670   0.051191  -0.044643
   25  F  3  X    0.039317  -0.029792  -0.036893   0.069809   0.178886
   26  F  3  Y   -0.055679   0.031540   0.085251  -0.162700  -0.035933
   27  F  3  Z   -0.023959   0.009130   0.061644   0.048533  -0.044724
   28  H  4  S   -0.008966   0.091416   0.130767  -0.101671   0.170140
   29  H  4  S   -0.006551   0.007135   0.034195  -0.037001   0.050457
   30  H  5  S   -0.008521   0.084380   0.143949   0.150568  -0.019301
   31  H  5  S   -0.007795   0.004295   0.035127   0.034404  -0.005368
   32  F  6  S   -0.210181   0.075699  -0.059023   0.037345  -0.035509
   33  F  6  S    0.375685  -0.139172   0.109161  -0.067789   0.063279
   34  F  6  S    0.348154  -0.156970   0.133877  -0.097446   0.097415
   35  F  6  X    0.033302   0.037405  -0.036216   0.064597  -0.177263
   36  F  6  Y    0.047647   0.037213  -0.085908   0.159267  -0.032343
   37  F  6  Z   -0.020530  -0.009202   0.062668   0.051256   0.044548
   38  F  6  X    0.039343   0.029795  -0.036895   0.069513  -0.178992
   39  F  6  Y    0.055710   0.031541  -0.085247   0.162634  -0.036198
   40  F  6  Z   -0.023972  -0.009131   0.061642   0.048598   0.044633
   41  H  7  S    0.008974   0.091416  -0.130769   0.101960   0.169960
   42  H  7  S    0.006552   0.007152  -0.034189   0.037085   0.050384
   43  H  8  S    0.008529   0.084382  -0.143950  -0.150599  -0.019051
   44  H  8  S    0.007794   0.004310  -0.035121  -0.034416  -0.005318

                     11         12         13         14         15
                   -0.4240    -0.3965    -0.3911    -0.3051    -0.2794
                     A          A          A          A          A   
    1  C  1  S   -0.005047   0.007252  -0.003576  -0.032688  -0.000349
    2  C  1  S    0.029482   0.011588  -0.004446   0.074713  -0.000680
    3  C  1  S    0.015771  -0.155874   0.054530   0.159076   0.023073
    4  C  1  X   -0.234165   0.008247   0.048418   0.041234  -0.013485
    5  C  1  Y   -0.070661  -0.206749  -0.006329   0.011469   0.060772
    6  C  1  Z   -0.114273   0.008723  -0.220847  -0.016665   0.109016
    7  C  1  X   -0.193651   0.000133   0.048079   0.124631   0.022154
    8  C  1  Y   -0.035394  -0.184099  -0.025200   0.073746   0.031229
    9  C  1  Z   -0.117707  -0.017351  -0.237032   0.044395   0.020121
   10  C  2  S   -0.005048  -0.007254  -0.003573   0.032685  -0.000348
   11  C  2  S    0.029501  -0.011588  -0.004432  -0.074710  -0.000680
   12  C  2  S    0.015645   0.155909   0.054401  -0.159053   0.023052
   13  C  2  X    0.234167   0.008250  -0.048418   0.041214   0.013521
   14  C  2  Y   -0.070687   0.206726  -0.006423  -0.011473   0.060823
   15  C  2  Z    0.114266   0.008842   0.220838  -0.016674  -0.109077
   16  C  2  X    0.193686   0.000132  -0.048060   0.124621  -0.022129
   17  C  2  Y   -0.035415   0.184068  -0.025285  -0.073746   0.031230
   18  C  2  Z    0.117722  -0.017225   0.237042   0.044389  -0.020164
   19  F  3  S    0.038197  -0.033209  -0.019515   0.001232  -0.002749
   20  F  3  S   -0.070574   0.061267   0.034458   0.001728   0.003386
   21  F  3  S   -0.098445   0.076933   0.053199  -0.028945   0.022317
   22  F  3  X   -0.021032   0.197187   0.070073   0.280213  -0.118314
   23  F  3  Y    0.181284  -0.130582  -0.207228   0.135180  -0.171817
   24  F  3  Z    0.169822  -0.143067   0.075649   0.215347   0.272261
   25  F  3  X   -0.033276   0.217369   0.078032   0.321317  -0.139454
   26  F  3  Y    0.197106  -0.151049  -0.224665   0.144176  -0.191176
   27  F  3  Z    0.177650  -0.155600   0.074813   0.234023   0.313866
   28  H  4  S    0.030092   0.163810  -0.049825  -0.025565   0.104043
   29  H  4  S    0.012164   0.067231  -0.031407   0.016861   0.086670
   30  H  5  S    0.067945  -0.007629   0.192762  -0.060468  -0.159439
   31  H  5  S    0.015863  -0.029754   0.079221  -0.004932  -0.167600
   32  F  6  S    0.038191   0.033205  -0.019531  -0.001232  -0.002749
   33  F  6  S   -0.070562  -0.061261   0.034490  -0.001726   0.003383
   34  F  6  S   -0.098447  -0.076926   0.053232   0.028943   0.022334
   35  F  6  X    0.021022   0.197171  -0.070176   0.280191   0.118244
   36  F  6  Y    0.181255   0.130502  -0.207287  -0.135185  -0.171657
   37  F  6  Z   -0.169800  -0.143122  -0.075573   0.215349  -0.272068
   38  F  6  X    0.033261   0.217351  -0.078148   0.321291   0.139381
   39  F  6  Y    0.197071   0.150964  -0.224735  -0.144182  -0.190988
   40  F  6  Z   -0.177627  -0.155656  -0.074729   0.234026  -0.313647
   41  H  7  S    0.030112  -0.163840  -0.049753   0.025552   0.103943
   42  H  7  S    0.012153  -0.067251  -0.031387  -0.016880   0.086586
   43  H  8  S    0.067947   0.007734   0.192763   0.060464  -0.159354
   44  H  8  S    0.015843   0.029794   0.079199   0.004920  -0.167569

                     16         17         18         19         20
                   -0.2758    -0.2648     0.0354     0.0500     0.0552
                     A          A          A          A          A   
    1  C  1  S    0.000495   0.029801  -0.029396  -0.123034  -0.023991
    2  C  1  S   -0.003558  -0.077511   0.084837   0.256067   0.054996
    3  C  1  S    0.041428  -0.059863  -0.188576   1.234742  -0.355635
    4  C  1  X    0.047493  -0.174388  -0.073075  -0.144458  -0.164023
    5  C  1  Y   -0.068161   0.047362  -0.262859   0.018175  -0.149108
    6  C  1  Z   -0.076141  -0.085193   0.080873  -0.035360   0.174482
    7  C  1  X    0.039031  -0.083587  -0.165985  -0.370459  -0.456275
    8  C  1  Y   -0.002002  -0.003807  -0.602608   0.104297  -0.385557
    9  C  1  Z   -0.047785  -0.078189   0.182402  -0.162534   0.442910
   10  C  2  S   -0.000493   0.029801  -0.029385  -0.123040   0.024007
   11  C  2  S    0.003555  -0.077496   0.084803   0.256042  -0.055037
   12  C  2  S   -0.041446  -0.059983  -0.188442   1.235114   0.355614
   13  C  2  X    0.047492   0.174389   0.073035   0.144460  -0.164044
   14  C  2  Y    0.068118   0.047358  -0.262797   0.018191   0.149182
   15  C  2  Z   -0.076062   0.085193  -0.080826   0.035372   0.174496
   16  C  2  X    0.039052   0.083630   0.165869   0.370405  -0.456331
   17  C  2  Y    0.001978  -0.003809  -0.602476   0.104350   0.385740
   18  C  2  Z   -0.047768   0.078214  -0.182299   0.162540   0.442938
   19  F  3  S    0.000451   0.001622   0.057070   0.023575  -0.046274
   20  F  3  S    0.002188  -0.004660  -0.107638  -0.031373   0.077531
   21  F  3  S   -0.021023   0.000076  -0.335953  -0.221408   0.340443
   22  F  3  X   -0.098482  -0.282379   0.145291   0.036925  -0.082182
   23  F  3  Y   -0.228883  -0.092235  -0.139954  -0.108460   0.154401
   24  F  3  Z    0.259107  -0.175134  -0.065485  -0.078053   0.071176
   25  F  3  X   -0.106342  -0.328521   0.220748   0.060425  -0.151086
   26  F  3  Y   -0.267585  -0.102729  -0.229305  -0.171992   0.257715
   27  F  3  Z    0.293369  -0.204941  -0.109123  -0.114707   0.108939
   28  H  4  S    0.129617   0.118417   0.115948  -0.004462   0.065493
   29  H  4  S    0.105607   0.120194   0.658287  -0.939028   0.113698
   30  H  5  S   -0.109520   0.037402  -0.039462  -0.048736  -0.134680
   31  H  5  S   -0.037428   0.055837   0.000036  -0.764512  -0.774548
   32  F  6  S   -0.000449   0.001622   0.057083   0.023576   0.046257
   33  F  6  S   -0.002191  -0.004658  -0.107663  -0.031379  -0.077499
   34  F  6  S    0.021006   0.000061  -0.336037  -0.221379  -0.340329
   35  F  6  X   -0.098555   0.282392  -0.145324  -0.036936  -0.082149
   36  F  6  Y    0.229019  -0.092260  -0.139998  -0.108459  -0.154355
   37  F  6  Z    0.259312   0.175143   0.065509   0.078055   0.071153
   38  F  6  X   -0.106428   0.328531  -0.220801  -0.060435  -0.151034
   39  F  6  Y    0.267736  -0.102760  -0.229373  -0.171984  -0.257636
   40  F  6  Z    0.293606   0.204950   0.109156   0.114709   0.108902
   41  H  7  S   -0.129685   0.118423   0.115937  -0.004454  -0.065518
   42  H  7  S   -0.105661   0.120177   0.658302  -0.938882  -0.113850
   43  H  8  S    0.109632   0.037400  -0.039425  -0.048727   0.134696
   44  H  8  S    0.037544   0.055820   0.000202  -0.764368   0.774608

                     21         22         23         24         25
                    0.0884     0.1110     0.1148     0.1944     0.5408
                     A          A          A          A          A   
    1  C  1  S   -0.135934   0.012976   0.005529   0.119190  -0.147128
    2  C  1  S    0.235299  -0.020818  -0.015371  -0.206624   0.891254
    3  C  1  S    1.718024   0.185788  -0.206823  -2.104134  -2.609840
    4  C  1  X   -0.097327   0.001175  -0.126119  -0.285303  -0.115084
    5  C  1  Y    0.007969   0.259080   0.066593   0.062908  -0.307553
    6  C  1  Z   -0.045739   0.131068   0.240266  -0.197122   0.133477
    7  C  1  X   -0.130870   0.025675  -0.413057  -1.453976  -0.261546
    8  C  1  Y    0.149031   0.849302   0.187802   0.244617   0.292312
    9  C  1  Z   -0.137453   0.364176   0.789411  -0.825178  -0.527424
   10  C  2  S    0.135921  -0.012983   0.005531  -0.119186   0.147267
   11  C  2  S   -0.235268   0.020838  -0.015377   0.206601  -0.892099
   12  C  2  S   -1.717900  -0.185718  -0.206961   2.104168   2.611146
   13  C  2  X   -0.097312   0.001147   0.126129  -0.285291  -0.115220
   14  C  2  Y   -0.007971  -0.259113   0.066518  -0.062912   0.307714
   15  C  2  Z   -0.045729   0.131133  -0.240232  -0.197121   0.133585
   16  C  2  X   -0.130837   0.025588   0.413093  -1.453960  -0.261385
   17  C  2  Y   -0.149027  -0.849394   0.187550  -0.244639  -0.292504
   18  C  2  Z   -0.137421   0.364390  -0.789309  -0.825212  -0.527495
   19  F  3  S   -0.030120   0.030148   0.024366   0.010418  -0.004031
   20  F  3  S    0.051183  -0.048224  -0.046202  -0.001266   0.070920
   21  F  3  S    0.213416  -0.256214  -0.165649  -0.192193  -0.517300
   22  F  3  X   -0.061958   0.040662   0.010903   0.090193  -0.084225
   23  F  3  Y    0.097144  -0.058908  -0.078597  -0.010210   0.059922
   24  F  3  Z    0.027046  -0.070749   0.033854   0.037128   0.097870
   25  F  3  X   -0.091851   0.105208   0.032236   0.179902   0.072562
   26  F  3  Y    0.148314  -0.107652  -0.144109  -0.017837  -0.086996
   27  F  3  Z    0.051004  -0.127338   0.044668   0.068857   0.015161
   28  H  4  S    0.083251   0.034022  -0.025322   0.063171  -0.129422
   29  H  4  S    1.069342   1.034462  -0.664821   0.029151  -0.346862
   30  H  5  S    0.040708  -0.019819   0.051692   0.070500   0.545817
   31  H  5  S    0.917656  -0.739204   1.166468  -0.134403  -0.714338
   32  F  6  S    0.030120  -0.030150   0.024357  -0.010415   0.004042
   33  F  6  S   -0.051179   0.048228  -0.046186   0.001264  -0.070927
   34  F  6  S   -0.213429   0.256224  -0.165580   0.192154   0.516986
   35  F  6  X   -0.061967   0.040658  -0.010899   0.090191  -0.084223
   36  F  6  Y   -0.097147   0.058918  -0.078578   0.010203  -0.059833
   37  F  6  Z    0.027056  -0.070732  -0.033871   0.037132   0.097829
   38  F  6  X   -0.091864   0.105204  -0.032220   0.179890   0.072511
   39  F  6  Y   -0.148320   0.107670  -0.144075   0.017818   0.086959
   40  F  6  Z    0.051017  -0.127311  -0.044699   0.068864   0.015171
   41  H  7  S   -0.083249  -0.034014  -0.025327  -0.063156   0.129676
   42  H  7  S   -1.069435  -1.034254  -0.665136  -0.029180   0.346363
   43  H  8  S   -0.040714   0.019799   0.051698  -0.070489  -0.545788
   44  H  8  S   -0.917756   0.738877   1.166631   0.134424   0.713941

                     26         27         28         29         30
                    0.5586     0.6388     0.6766     0.6777     0.6915
                     A          A          A          A          A   
    1  C  1  S    0.167858   0.078112   0.109930   0.150546   0.000511
    2  C  1  S   -0.979330  -0.806911  -0.745598  -0.968224  -0.426314
    3  C  1  S    1.485564   1.723150   0.890802   3.421440   1.334613
    4  C  1  X    0.210722   0.001097  -0.489399  -0.101623   0.507015
    5  C  1  Y    0.222259   0.104593  -0.242934  -0.123309   0.173233
    6  C  1  Z   -0.162885  -0.078468   0.027005  -0.093857   0.090383
    7  C  1  X   -0.200578  -0.328819   0.478014   0.858323  -0.540609
    8  C  1  Y   -0.315209   0.141204   0.315256  -0.449505  -0.263424
    9  C  1  Z    0.133271  -0.169943   0.126664   0.341369  -0.270800
   10  C  2  S    0.167783   0.078150   0.111060  -0.149665  -0.000514
   11  C  2  S   -0.978927  -0.807237  -0.752823   0.962161   0.426282
   12  C  2  S    1.484529   1.724428   0.916523  -3.413835  -1.334473
   13  C  2  X   -0.210626  -0.001105   0.490256  -0.097937   0.506967
   14  C  2  Y    0.222024   0.104519  -0.243889   0.121541  -0.173181
   15  C  2  Z    0.162791   0.078446  -0.026277  -0.093988   0.090436
   16  C  2  X    0.200600   0.328518  -0.484621   0.854812  -0.540537
   17  C  2  Y   -0.315039   0.141109   0.311874   0.451884   0.263373
   18  C  2  Z   -0.132946   0.169918  -0.129288   0.340419  -0.270745
   19  F  3  S    0.010345   0.059922   0.016806  -0.006815  -0.037781
   20  F  3  S    0.004805  -0.192242  -0.072711  -0.034692   0.099617
   21  F  3  S   -0.396997  -0.176519   0.131948   0.470473   0.326507
   22  F  3  X    0.009107  -0.026226   0.075922   0.019397   0.057958
   23  F  3  Y    0.124961  -0.021797  -0.051516  -0.068973  -0.022172
   24  F  3  Z    0.051351  -0.006690   0.046862   0.072334   0.053392
   25  F  3  X    0.083780   0.022756   0.018500  -0.126774  -0.037889
   26  F  3  Y   -0.044599  -0.083301   0.040026   0.052098   0.102294
   27  F  3  Z   -0.016496  -0.037451   0.064986   0.043551   0.094146
   28  H  4  S    0.502648  -0.666273  -0.003216  -0.737245   0.194613
   29  H  4  S   -0.691830  -0.222846  -0.307131   1.036495   0.332148
   30  H  5  S    0.049022  -0.352409   0.454199   0.228138   0.546699
   31  H  5  S   -0.423608  -0.480897  -0.645728   0.379879   0.070661
   32  F  6  S    0.010338   0.059918   0.016757   0.006968   0.037791
   33  F  6  S    0.004855  -0.192245  -0.072981   0.034056  -0.099651
   34  F  6  S   -0.397256  -0.176377   0.135463  -0.469541  -0.326541
   35  F  6  X   -0.009053   0.026217  -0.076059   0.018820   0.057954
   36  F  6  Y    0.124994  -0.021817  -0.052026   0.068590   0.022187
   37  F  6  Z   -0.051435   0.006647  -0.047409   0.071968   0.053402
   38  F  6  X   -0.083816  -0.022724  -0.017535  -0.126935  -0.037906
   39  F  6  Y   -0.044648  -0.083292   0.040406  -0.051822  -0.102308
   40  F  6  Z    0.016477   0.037429  -0.065303   0.043068   0.094162
   41  H  7  S    0.502511  -0.666513  -0.008814   0.737027  -0.194635
   42  H  7  S   -0.691901  -0.222450  -0.299326  -1.038956  -0.332199
   43  H  8  S    0.049479  -0.352185   0.455873  -0.224825  -0.546890
   44  H  8  S   -0.424015  -0.480796  -0.642857  -0.384969  -0.070591

                     31         32         33         34         35
                    0.7555     0.7633     0.8143     0.8498     0.8594
                     A          A          A          A          A   
    1  C  1  S   -0.036790   0.108789   0.080225  -0.022508   0.038666
    2  C  1  S    0.115377  -0.744642  -0.493490   0.125903  -0.460738
    3  C  1  S   -0.506059   1.987787   1.332223  -0.422919   2.308956
    4  C  1  X   -0.256304   0.079336   0.149828  -0.369136  -0.429000
    5  C  1  Y   -0.203915  -0.507914  -0.380624   0.493299   0.344503
    6  C  1  Z   -0.391195   0.348691   0.501338   0.350714   0.469405
    7  C  1  X    0.522125  -0.017968   0.044236   0.803455   1.155909
    8  C  1  Y    0.188625   1.294400   0.456850  -0.655278  -0.687504
    9  C  1  Z    0.004013  -0.355097  -1.236972  -1.007512  -0.381539
   10  C  2  S   -0.036912  -0.108744   0.080210  -0.022512  -0.038657
   11  C  2  S    0.116204   0.744481  -0.493350   0.126022   0.460676
   12  C  2  S   -0.508419  -1.987141   1.331547  -0.423815  -2.308819
   13  C  2  X    0.256303   0.079053  -0.149890   0.368959  -0.429097
   14  C  2  Y   -0.203296   0.508219  -0.380630   0.493188  -0.344589
   15  C  2  Z    0.391592   0.348226  -0.501331  -0.350675   0.469531
   16  C  2  X   -0.521934  -0.017366  -0.043972  -0.802896   1.156158
   17  C  2  Y    0.187066  -1.294714   0.456867  -0.655074   0.687633
   18  C  2  Z   -0.004357  -0.355058   1.237049   1.007599  -0.381921
   19  F  3  S    0.015145  -0.032415  -0.000810   0.016076  -0.015414
   20  F  3  S   -0.092184   0.159927  -0.015340  -0.091672   0.033308
   21  F  3  S    0.308408  -0.341639   0.184086   0.241781   0.185881
   22  F  3  X    0.103355  -0.034513   0.022147   0.128196   0.039463
   23  F  3  Y    0.025692   0.066348   0.015601   0.088241  -0.009314
   24  F  3  Z   -0.024673  -0.054023  -0.096275  -0.029352   0.077509
   25  F  3  X   -0.017353   0.119945  -0.080012   0.009940  -0.097623
   26  F  3  Y    0.085013  -0.048201   0.075838   0.111342  -0.018537
   27  F  3  Z    0.041925  -0.043175  -0.048458  -0.044400   0.048414
   28  H  4  S    0.283234   0.213582   0.235654   0.053594   0.201694
   29  H  4  S   -0.221084   0.783951  -0.693066   0.743858  -0.442014
   30  H  5  S   -0.687715  -0.188369  -0.312406  -0.213540   0.106010
   31  H  5  S    0.744209   0.742008  -0.608970  -0.373736   0.930571
   32  F  6  S    0.015177   0.032400  -0.000805   0.016080   0.015415
   33  F  6  S   -0.092354  -0.159828  -0.015356  -0.091678  -0.033303
   34  F  6  S    0.308845   0.341242   0.184050   0.241721  -0.185964
   35  F  6  X   -0.103401  -0.034395  -0.022143  -0.128180   0.039496
   36  F  6  Y    0.025610  -0.066367   0.015602   0.088242   0.009288
   37  F  6  Z    0.024606  -0.054050   0.096276   0.029370   0.077488
   38  F  6  X    0.017501   0.119915   0.079997  -0.009973  -0.097631
   39  F  6  Y    0.085087   0.048093   0.075836   0.111350   0.018497
   40  F  6  Z   -0.041991  -0.043117   0.048455   0.044399   0.048396
   41  H  7  S    0.282952  -0.213919   0.235615   0.053495  -0.201736
   42  H  7  S   -0.221902  -0.783667  -0.693099   0.744018   0.441835
   43  H  8  S   -0.687481   0.189151  -0.312444  -0.213622  -0.105895
   44  H  8  S    0.743356  -0.742901  -0.609067  -0.373907  -0.930495

                     36         37         38         39         40
                    0.9114     1.4307     1.4492     1.7641     1.8016
                     A          A          A          A          A   
    1  C  1  S    0.032119  -0.023707  -0.028082   0.019157  -0.013252
    2  C  1  S   -0.625838   0.524130   0.354494  -0.160015   0.083009
    3  C  1  S    3.936406  -2.906864  -0.880862   0.230507   0.149305
    4  C  1  X   -0.299381   0.026427   0.032646  -0.004119   0.048611
    5  C  1  Y   -0.104439   0.058821  -0.040753   0.050050  -0.036440
    6  C  1  Z   -0.439782   0.024415   0.021226  -0.005467   0.074683
    7  C  1  X    1.683987  -0.517731   0.237949  -0.164485  -0.032539
    8  C  1  Y    0.587428   0.097465   0.187342   0.075764   0.009596
    9  C  1  Z    1.195090  -0.396116  -0.092893  -0.063813  -0.439434
   10  C  2  S   -0.032114   0.023714  -0.028072  -0.019158  -0.013251
   11  C  2  S    0.625816  -0.524216   0.354305   0.160019   0.082999
   12  C  2  S   -3.936362   2.907063  -0.879912  -0.230532   0.149410
   13  C  2  X   -0.299438   0.026457  -0.032634  -0.004119  -0.048605
   14  C  2  Y    0.104421  -0.058813  -0.040762  -0.050046  -0.036441
   15  C  2  Z   -0.439716   0.024418  -0.021216  -0.005463  -0.074679
   16  C  2  X    1.684152  -0.517723  -0.238122  -0.164487   0.032476
   17  C  2  Y   -0.587403  -0.097531   0.187311  -0.075776   0.009590
   18  C  2  Z    1.194832  -0.396112   0.092769  -0.063838   0.439405
   19  F  3  S   -0.058907  -0.218931   0.215577   0.009938   0.003772
   20  F  3  S    0.226655   1.128415  -1.099151  -0.054149  -0.022194
   21  F  3  S   -0.019905  -1.550307   1.425244   0.096920   0.062240
   22  F  3  X    0.006016   0.078938  -0.221294  -0.609450   0.140696
   23  F  3  Y    0.035248  -0.243838   0.218208  -0.319248  -0.107963
   24  F  3  Z   -0.038616  -0.120721   0.069743   0.017241   0.662386
   25  F  3  X   -0.075677   0.043742   0.097598   0.611241  -0.160790
   26  F  3  Y    0.007064   0.070551  -0.069763   0.328346   0.125154
   27  F  3  Z   -0.082616   0.058361  -0.012790  -0.010544  -0.703311
   28  H  4  S    0.508650  -0.179782   0.112994   0.096209   0.014838
   29  H  4  S    0.361688  -0.407932   0.151660   0.041488  -0.022097
   30  H  5  S    0.391222  -0.166007   0.099904   0.020398  -0.135489
   31  H  5  S   -0.123793  -0.359604   0.155703   0.065691  -0.161957
   32  F  6  S    0.058910   0.218867   0.215639  -0.009938   0.003772
   33  F  6  S   -0.226657  -1.128090  -1.099473   0.054151  -0.022198
   34  F  6  S    0.019839   1.549900   1.425694  -0.096927   0.062249
   35  F  6  X    0.006031   0.078881   0.221323  -0.609442  -0.140731
   36  F  6  Y   -0.035261   0.243778   0.218273   0.319277  -0.107946
   37  F  6  Z   -0.038637  -0.120695  -0.069781   0.017273  -0.662403
   38  F  6  X   -0.075688   0.043769  -0.097584   0.611227   0.160829
   39  F  6  Y   -0.007094  -0.070529  -0.069781  -0.328376   0.125136
   40  F  6  Z   -0.082620   0.058353   0.012808  -0.010577   0.703327
   41  H  7  S   -0.508670   0.179764   0.113056  -0.096208   0.014835
   42  H  7  S   -0.361755   0.407920   0.151786  -0.041473  -0.022095
   43  H  8  S   -0.391104   0.165959   0.099961  -0.020389  -0.135484
   44  H  8  S    0.123823   0.359580   0.155822  -0.065678  -0.161952

                     41         42         43         44
                    1.8789     1.9236     2.1206     2.2101
                     A          A          A          A   
    1  C  1  S    0.009959   0.021059  -0.048585   0.021971
    2  C  1  S   -0.055025  -0.125157  -0.032396   0.107557
    3  C  1  S   -0.213670  -0.097059   1.810154  -0.880787
    4  C  1  X   -0.015627  -0.091497  -0.112202   0.231304
    5  C  1  Y    0.111843   0.101991  -0.202629   0.132591
    6  C  1  Z    0.038375   0.032372   0.081039  -0.061949
    7  C  1  X   -0.090808   0.504316   0.127209   0.141569
    8  C  1  Y   -0.512503  -0.260250  -0.221003   0.298901
    9  C  1  Z   -0.347618  -0.430388   0.202780  -0.072636
   10  C  2  S   -0.009960   0.021058   0.048585   0.021974
   11  C  2  S    0.055031  -0.125141   0.032384   0.107501
   12  C  2  S    0.213661  -0.097159  -1.810140  -0.880589
   13  C  2  X   -0.015633   0.091491  -0.112218  -0.231293
   14  C  2  Y   -0.111847   0.101982   0.202641   0.132603
   15  C  2  Z    0.038379  -0.032372   0.081044   0.061952
   16  C  2  X   -0.090783  -0.504278   0.127258  -0.141603
   17  C  2  Y    0.512525  -0.260190   0.221023   0.298878
   18  C  2  Z   -0.347659   0.430390   0.202748   0.072622
   19  F  3  S   -0.001151   0.007390   0.103353   0.119707
   20  F  3  S   -0.002955  -0.056147  -0.631719  -0.719734
   21  F  3  S    0.096516   0.167721   1.105134   1.179379
   22  F  3  X   -0.152067  -0.453745   0.270416   0.434787
   23  F  3  Y    0.261337  -0.495745  -0.499793  -0.410660
   24  F  3  Z   -0.605400   0.012970  -0.288609  -0.164258
   25  F  3  X    0.137366   0.507754  -0.431366  -0.649503
   26  F  3  Y   -0.274808   0.616637   0.736268   0.634711
   27  F  3  Z    0.694542  -0.019123   0.405691   0.262043
   28  H  4  S   -0.164449   0.208803   0.140845   0.093036
   29  H  4  S   -0.144408   0.162898   0.255095   0.093766
   30  H  5  S    0.161854  -0.157689   0.172578   0.131134
   31  H  5  S    0.044787  -0.117976   0.207786   0.188327
   32  F  6  S    0.001152   0.007389  -0.103351   0.119710
   33  F  6  S    0.002954  -0.056139   0.631706  -0.719752
   34  F  6  S   -0.096515   0.167695  -1.105117   1.179416
   35  F  6  X   -0.152102   0.453719   0.270417  -0.434802
   36  F  6  Y   -0.261309  -0.495761   0.499783  -0.410655
   37  F  6  Z   -0.605381  -0.013007  -0.288602   0.164270
   38  F  6  X    0.137403  -0.507726  -0.431367   0.649528
   39  F  6  Y    0.274774   0.616651  -0.736251   0.634702
   40  F  6  Z    0.694517   0.019166   0.405679  -0.262060
   41  H  7  S    0.164432   0.208819  -0.140860   0.093045
   42  H  7  S    0.144399   0.162895  -0.255115   0.093786
   43  H  8  S   -0.161845  -0.157709  -0.172565   0.131152
   44  H  8  S   -0.044768  -0.117989  -0.207784   0.188358
 ...... END OF RHF CALCULATION ......
 STEP CPU TIME =     5.19 TOTAL CPU TIME =          5.3 (      0.1 MIN)
 TOTAL WALL CLOCK TIME=          5.4 SECONDS, CPU UTILIZATION IS    99.44%

     ---------------------------------------------------------------------
     PROPERTIES FOR THE PBE      DFT FUNCTIONAL (RHF  TYPE) DENSITY MATRIX
     ---------------------------------------------------------------------

          -----------------
          ENERGY COMPONENTS
          -----------------

         WAVEFUNCTION NORMALIZATION =       1.0000000000

                ONE ELECTRON ENERGY =    -630.2664645638
                TWO ELECTRON ENERGY =     228.3386746024
           NUCLEAR REPULSION ENERGY =     124.7237647055
                                      ------------------
                       TOTAL ENERGY =    -277.2040252558

 ELECTRON-ELECTRON POTENTIAL ENERGY =     228.3386746024
  NUCLEUS-ELECTRON POTENTIAL ENERGY =    -906.1158558866
   NUCLEUS-NUCLEUS POTENTIAL ENERGY =     124.7237647055
                                      ------------------
             TOTAL POTENTIAL ENERGY =    -553.0534165787
               TOTAL KINETIC ENERGY =     275.8493913229
                 VIRIAL RATIO (V/T) =       2.0049107737

          ---------------------------------------
          MULLIKEN AND LOWDIN POPULATION ANALYSES
          ---------------------------------------

     ATOMIC MULLIKEN POPULATION IN EACH MOLECULAR ORBITAL

                      1          2          3          4          5

                  2.000000   2.000000   2.000000   2.000000   2.000000

    1             0.000732   0.000958   0.997645   0.998679   0.105951
    2             0.000855   0.000835   0.999589   0.996735   0.106061
    3             1.062057   0.936375  -0.000148  -0.000039   0.885440
    4            -0.000025  -0.000040   0.000795   0.001107   0.004097
    5            -0.000031  -0.000026   0.000737   0.001223   0.005021
    6             0.936460   1.061972  -0.000147  -0.000039   0.884314
    7            -0.000021  -0.000044   0.000793   0.001109   0.004095
    8            -0.000027  -0.000030   0.000735   0.001225   0.005020

                      6          7          8          9         10

                  2.000000   2.000000   2.000000   2.000000   2.000000

    1             0.065526   0.771723   0.581718   0.540699   0.542443
    2             0.065438   0.771852   0.581701   0.540077   0.543123
    3             0.929253   0.119902   0.167389   0.269211   0.282594
    4             0.002655   0.059585   0.112300   0.059925   0.172923
    5             0.002041   0.048712   0.138605   0.130499   0.001720
    6             0.930385   0.119898   0.167386   0.268769   0.282974
    7             0.002658   0.059601   0.112298   0.060272   0.172555
    8             0.002044   0.048727   0.138603   0.130548   0.001669

                     11         12         13         14         15

                  2.000000   2.000000   2.000000   2.000000   2.000000

    1             0.492297   0.293917   0.393013   0.043833   0.059105
    2             0.492348   0.293837   0.393015   0.043820   0.059186
    3             0.480170   0.555652   0.384549   0.942552   0.753583
    4             0.005071   0.150922   0.012431   0.002228   0.049115
    5             0.022503  -0.000451   0.209931   0.011427   0.138828
    6             0.480034   0.555581   0.384747   0.942490   0.752456
    7             0.005076   0.150979   0.012392   0.002225   0.049019
    8             0.022501  -0.000437   0.209921   0.011425   0.138707

                     16         17

                  2.000000   2.000000

    1             0.056905   0.158748
    2             0.056835   0.158754
    3             0.821033   0.749365
    4             0.076697   0.076031
    5             0.044722   0.015806
    6             0.822203   0.749461
    7             0.076776   0.076032
    8             0.044829   0.015803

               ----- POPULATIONS IN EACH AO -----
                             MULLIKEN      LOWDIN
              1  C  1  S      1.98047     1.95757
              2  C  1  S      0.86978     0.67536
              3  C  1  S      0.40594     0.39979
              4  C  1  X      0.48474     0.46937
              5  C  1  Y      0.43759     0.42102
              6  C  1  Z      0.51963     0.49927
              7  C  1  X      0.41886     0.50933
              8  C  1  Y      0.41975     0.48389
              9  C  1  Z      0.56714     0.59150
             10  C  2  S      1.98047     1.95757
             11  C  2  S      0.86976     0.67536
             12  C  2  S      0.40604     0.39979
             13  C  2  X      0.48474     0.46938
             14  C  2  Y      0.43759     0.42102
             15  C  2  Z      0.51963     0.49927
             16  C  2  X      0.41892     0.50933
             17  C  2  Y      0.41974     0.48389
             18  C  2  Z      0.56716     0.59151
             19  F  3  S      1.98456     1.97085
             20  F  3  S      1.03049     0.99186
             21  F  3  S      0.97674     0.87841
             22  F  3  X      0.81519     0.81839
             23  F  3  Y      0.74289     0.73929
             24  F  3  Z      0.85822     0.86231
             25  F  3  X      0.99104     0.99183
             26  F  3  Y      0.92216     0.93938
             27  F  3  Z      1.01765     1.02643
             28  H  4  S      0.59389     0.56767
             29  H  4  S      0.19193     0.32272
             30  H  5  S      0.58950     0.56521
             31  H  5  S      0.18177     0.31852
             32  F  6  S      1.98456     1.97085
             33  F  6  S      1.03049     0.99186
             34  F  6  S      0.97674     0.87842
             35  F  6  X      0.81518     0.81838
             36  F  6  Y      0.74290     0.73930
             37  F  6  Z      0.85822     0.86231
             38  F  6  X      0.99104     0.99182
             39  F  6  Y      0.92217     0.93939
             40  F  6  Z      1.01765     1.02643
             41  H  7  S      0.59389     0.56768
             42  H  7  S      0.19192     0.32272
             43  H  8  S      0.58950     0.56521
             44  H  8  S      0.18177     0.31852

          ----- MULLIKEN ATOMIC OVERLAP POPULATIONS -----
          (OFF-DIAGONAL ELEMENTS NEED TO BE MULTIPLIED BY 2)

             1           2           3           4           5

    1    5.1191172
    2    0.2293514   5.1193447
    3   -0.0328267   0.1794958   9.2246203
    4   -0.0313783   0.3342062  -0.0189838   0.5302775
    5   -0.0406274   0.3464911  -0.0190512  -0.0321040   0.5068757
    6    0.1795060  -0.0328238  -0.0001409   0.0022957   0.0035280
    7    0.3342351  -0.0313791   0.0022959   0.0036967  -0.0021908
    8    0.3465150  -0.0406277   0.0035298  -0.0021916   0.0083451

             6           7           8

    6    9.2246168
    7   -0.0189860   0.5302532
    8   -0.0190525  -0.0321071   0.5068525

          TOTAL MULLIKEN AND LOWDIN ATOMIC POPULATIONS
       ATOM         MULL.POP.    CHARGE          LOW.POP.     CHARGE
    1 C             6.103892   -0.103892         6.007111   -0.007111
    2 C             6.104059   -0.104059         6.007130   -0.007130
    3 F             9.338939   -0.338939         9.218751   -0.218751
    4 H             0.785818    0.214182         0.890391    0.109609
    5 H             0.771267    0.228733         0.883735    0.116265
    6 F             9.338943   -0.338943         9.218757   -0.218757
    7 H             0.785818    0.214182         0.890391    0.109609
    8 H             0.771264    0.228736         0.883733    0.116267

          MULLIKEN SPHERICAL HARMONIC POPULATIONS
       ATOM           S       P       D      F      G      H      I    TOTAL
    1 C             3.26    2.85    0.00   0.00   0.00   0.00   0.00    6.10
    2 C             3.26    2.85    0.00   0.00   0.00   0.00   0.00    6.10
    3 F             3.99    5.35    0.00   0.00   0.00   0.00   0.00    9.34
    4 H             0.79    0.00    0.00   0.00   0.00   0.00   0.00    0.79
    5 H             0.77    0.00    0.00   0.00   0.00   0.00   0.00    0.77
    6 F             3.99    5.35    0.00   0.00   0.00   0.00   0.00    9.34
    7 H             0.79    0.00    0.00   0.00   0.00   0.00   0.00    0.79
    8 H             0.77    0.00    0.00   0.00   0.00   0.00   0.00    0.77

          -------------------------------
          BOND ORDER AND VALENCE ANALYSIS     BOND ORDER THRESHOLD=0.050
          -------------------------------

                   BOND                       BOND                       BOND
  ATOM PAIR DIST  ORDER      ATOM PAIR DIST  ORDER      ATOM PAIR DIST  ORDER
    1   2  1.523  0.981        1   6  1.443  0.845        1   7  1.109  0.887
    1   8  1.107  0.887        2   3  1.443  0.845        2   4  1.109  0.887
    2   5  1.107  0.887

                       TOTAL       BONDED        FREE
      ATOM            VALENCE     VALENCE     VALENCE
    1 C                 3.607       3.607       0.000
    2 C                 3.607       3.607      -0.000
    3 F                 0.952       0.952      -0.000
    4 H                 0.918       0.918       0.000
    5 H                 0.921       0.921      -0.000
    6 F                 0.952       0.952       0.000
    7 H                 0.918       0.918       0.000
    8 H                 0.921       0.921       0.000

          ---------------------
          ELECTROSTATIC MOMENTS
          ---------------------

 POINT   1           X           Y           Z (BOHR)    CHARGE
                 0.000000    0.000000   -0.000000        0.00 (A.U.)
         DX          DY          DZ         /D/  (DEBYE)
     0.000013    2.995607   -0.000054    2.995607
 ...... END OF PROPERTY EVALUATION ......
 STEP CPU TIME =     0.00 TOTAL CPU TIME =          5.3 (      0.1 MIN)
 TOTAL WALL CLOCK TIME=          5.4 SECONDS, CPU UTILIZATION IS    99.26%

 BEGINNING ONE ELECTRON GRADIENT...
 ..... END OF 1-ELECTRON GRADIENT ......
 STEP CPU TIME =     0.00 TOTAL CPU TIME =          5.3 (      0.1 MIN)
 TOTAL WALL CLOCK TIME=          5.4 SECONDS, CPU UTILIZATION IS    99.26%

          ----------------------
          GRADIENT OF THE ENERGY
          ----------------------
 MEMORY FOR GRID POINT CONTRIBUTIONS TO THE DFT GRADIENT=    295391 WORDS.
 STEP CPU TIME =     1.12 TOTAL CPU TIME =          6.5 (      0.1 MIN)
 TOTAL WALL CLOCK TIME=          6.5 SECONDS, CPU UTILIZATION IS    99.38%
 THE COARSE/FINE SCHWARZ SCREENINGS SKIPPED         8759/        5980 BLOCKS.
 THE NUMBER OF GRADIENT INTEGRAL BLOCKS COMPUTED WAS     67378
 ...... END OF 2-ELECTRON GRADIENT ......
 STEP CPU TIME =     0.06 TOTAL CPU TIME =          6.5 (      0.1 MIN)
 TOTAL WALL CLOCK TIME=          6.6 SECONDS, CPU UTILIZATION IS    99.39%
 THE VIB 0 GRADIENT RMS = 1.51538264E-04

 THE VIB 0 GEOMETRY GRADIENT IS

 UNITS ARE HARTREE/BOHR    E'X               E'Y               E'Z 
    1 C                0.000286216       0.000102957       0.000186833
    2 C               -0.000276799       0.000096804      -0.000190506
    3 F                0.000131369      -0.000084485       0.000281321
    4 H               -0.000012421      -0.000009987      -0.000164417
    5 H                0.000116301      -0.000002231      -0.000074072
    6 F               -0.000137179      -0.000087205      -0.000279612
    7 H                0.000009391      -0.000012613       0.000165783
    8 H               -0.000116878      -0.000003240       0.000074669
  $VIB   
          IVIB=   0 IATOM=   0 ICOORD=   0 E=     -277.2040252558
  2.862156210E-04 1.029574091E-04 1.868333896E-04-2.767988727E-04 9.680416799E-05
 -1.905055424E-04 1.313689646E-04-8.448492815E-05 2.813207306E-04-1.242091184E-05
 -9.987427112E-06-1.644166467E-04 1.163014561E-04-2.231169231E-06-7.407230598E-05
 -1.371793496E-04-8.720540871E-05-2.796118192E-04 9.391472606E-06-1.261272605E-05
  1.657827505E-04-1.168783802E-04-3.239917836E-06 7.466944367E-05
  1.306476304E-05 2.995607128E+00-5.439355024E-05
1   ATOM  1
                                        -------------------
   COORD  1                             NUCLEAR COORDINATES
                                        -------------------
     VIB  1

                       ATOM             X              Y              Z

                 1  C               -1.258756       1.144072      -0.679172
                 2  C                1.268802       1.144073       0.679164
                 3  F                2.774179      -0.925155      -0.261050
                 4  H                2.293426       2.940087       0.334124
                 5  H                0.961261       0.877419       2.731315
                 6  F               -2.774211      -0.925128       0.261056
                 7  H               -2.293424       2.940060      -0.334148
                 8  H               -0.961216       0.877366      -2.731315
 ...... END OF ONE-ELECTRON INTEGRALS ......
 STEP CPU TIME =     0.00 TOTAL CPU TIME =          6.5 (      0.1 MIN)
 TOTAL WALL CLOCK TIME=          6.6 SECONDS, CPU UTILIZATION IS    99.39%
 TOTAL NUMBER OF NONZERO TWO-ELECTRON INTEGRALS =              421770
         29 INTEGRAL RECORDS WERE STORED ON DISK FILE  8.
  ...... END OF TWO-ELECTRON INTEGRALS .....
 STEP CPU TIME =     0.05 TOTAL CPU TIME =          6.6 (      0.1 MIN)
 TOTAL WALL CLOCK TIME=          6.6 SECONDS, CPU UTILIZATION IS    99.39%

          --------------------------
               R-PBE SCF CALCULATION
          --------------------------
         DENSITY MATRIX CONVERGENCE THRESHOLD=  1.00E-05
     COARSE -> FINE DFT GRID SWITCH THRESHOLD=  3.00E-04 (SWITCH IN $DFT)
                   HF -> DFT SWITCH THRESHOLD=  5.00E-03 (SWOFF IN $DFT)

 ITER EX DEM     TOTAL ENERGY        E CHANGE  DENSITY CHANGE    DIIS ERROR
          * * *   INITIATING DIIS PROCEDURE   * * *
   1  0  0     -277.2039845257  -277.2039845257   0.003473302   0.001184115
   2  1  0     -277.2039982620    -0.0000137363   0.001067357   0.000760889
   3  2  0     -277.2039982462     0.0000000158   0.000411133   0.000840150
   4  3  0     -277.2040006822    -0.0000024359   0.000079173   0.000127068
   5  4  0     -277.2040007270    -0.0000000449   0.000015346   0.000017545
   6  5  0     -277.2040007288    -0.0000000018   0.000003585   0.000006240
   7  6  0     -277.2040007289    -0.0000000001   0.000001261   0.000001308

          -----------------
          DENSITY CONVERGED
          -----------------
     TIME TO FORM FOCK OPERATORS=       3.8 SECONDS (       0.5 SEC/ITER)
     TIME TO SOLVE SCF EQUATIONS=       0.0 SECONDS (       0.0 SEC/ITER)

 FINAL R-PBE ENERGY IS     -277.2040007289 AFTER   7 ITERATIONS
 DFT EXCHANGE + CORRELATION ENERGY =       -32.8063590002
 TOTAL ELECTRON NUMBER             =        33.9999050067
 ...... END OF RHF CALCULATION ......
 STEP CPU TIME =     3.86 TOTAL CPU TIME =         10.4 (      0.2 MIN)
 TOTAL WALL CLOCK TIME=         10.5 SECONDS, CPU UTILIZATION IS    99.43%
 ..... END OF 1-ELECTRON GRADIENT ......
 STEP CPU TIME =     0.00 TOTAL CPU TIME =         10.4 (      0.2 MIN)
 TOTAL WALL CLOCK TIME=         10.5 SECONDS, CPU UTILIZATION IS    99.43%
 MEMORY FOR GRID POINT CONTRIBUTIONS TO THE DFT GRADIENT=    295391 WORDS.
 STEP CPU TIME =     1.11 TOTAL CPU TIME =         11.5 (      0.2 MIN)
 TOTAL WALL CLOCK TIME=         11.6 SECONDS, CPU UTILIZATION IS    99.40%
 ...... END OF 2-ELECTRON GRADIENT ......
 STEP CPU TIME =     0.07 TOTAL CPU TIME =         11.6 (      0.2 MIN)
 TOTAL WALL CLOCK TIME=         11.7 SECONDS, CPU UTILIZATION IS    99.49%

 UNITS ARE HARTREE/BOHR    E'X               E'Y               E'Z 
    1 C                0.004528063      -0.000444138      -0.000157518
    2 C               -0.001527917       0.000109217      -0.000601354
    3 F               -0.000145424       0.000081595       0.000236620
    4 H               -0.000132609      -0.000019368      -0.000267360
    5 H                0.000113694      -0.000045104      -0.000067426
    6 F               -0.001132094      -0.000780312       0.000077002
    7 H               -0.001095383       0.001032526       0.000395695
    8 H               -0.000608329       0.000065585       0.000384341
  $VIB   
          IVIB=   1 IATOM=   1 ICOORD=   1 E=     -277.2040007289
  4.528062858E-03-4.441384050E-04-1.575183559E-04-1.527917267E-03 1.092169584E-04
 -6.013539331E-04-1.454242876E-04 8.159477170E-05 2.366202442E-04-1.326092026E-04
 -1.936811614E-05-2.673601141E-04 1.136944127E-04-4.510446638E-05-6.742615418E-05
 -1.132094427E-03-7.803124126E-04 7.700193592E-05-1.095383431E-03 1.032526254E-03
  3.956948775E-04-6.083286552E-04 6.558541575E-05 3.843414996E-04
  1.020560428E-02 3.001499998E+00-2.614385540E-03
1   ATOM  1
                                        -------------------
   COORD  2                             NUCLEAR COORDINATES
                                        -------------------
     VIB  1

                       ATOM             X              Y              Z

                 1  C               -1.268756       1.154072      -0.679172
                 2  C                1.268802       1.144073       0.679164
                 3  F                2.774179      -0.925155      -0.261050
                 4  H                2.293426       2.940087       0.334124
                 5  H                0.961261       0.877419       2.731315
                 6  F               -2.774211      -0.925128       0.261056
                 7  H               -2.293424       2.940060      -0.334148
                 8  H               -0.961216       0.877366      -2.731315
 ...... END OF ONE-ELECTRON INTEGRALS ......
 STEP CPU TIME =     0.00 TOTAL CPU TIME =         11.6 (      0.2 MIN)
 TOTAL WALL CLOCK TIME=         11.7 SECONDS, CPU UTILIZATION IS    99.40%
 TOTAL NUMBER OF NONZERO TWO-ELECTRON INTEGRALS =              422979
         29 INTEGRAL RECORDS WERE STORED ON DISK FILE  8.
  ...... END OF TWO-ELECTRON INTEGRALS .....
 STEP CPU TIME =     0.05 TOTAL CPU TIME =         11.7 (      0.2 MIN)
 TOTAL WALL CLOCK TIME=         11.7 SECONDS, CPU UTILIZATION IS    99.40%

          --------------------------
               R-PBE SCF CALCULATION
          --------------------------
         DENSITY MATRIX CONVERGENCE THRESHOLD=  1.00E-05
     COARSE -> FINE DFT GRID SWITCH THRESHOLD=  3.00E-04 (SWITCH IN $DFT)
                   HF -> DFT SWITCH THRESHOLD=  5.00E-03 (SWOFF IN $DFT)

 ITER EX DEM     TOTAL ENERGY        E CHANGE  DENSITY CHANGE    DIIS ERROR
          * * *   INITIATING DIIS PROCEDURE   * * *
   1  0  0     -277.2039828766  -277.2039828766   0.002986311   0.001131911
   2  1  0     -277.2039960561    -0.0000131794   0.001439256   0.000722249
   3  2  0     -277.2039967131    -0.0000006570   0.000567662   0.000731635
   4  3  0     -277.2039994295    -0.0000027164   0.000086285   0.000101230
   5  4  0     -277.2039994690    -0.0000000396   0.000024614   0.000024784
   6  5  0     -277.2039994712    -0.0000000021   0.000006067   0.000010278
   7  6  0     -277.2039994716    -0.0000000004   0.000000977   0.000001538

          -----------------
          DENSITY CONVERGED
          -----------------
     TIME TO FORM FOCK OPERATORS=       3.8 SECONDS (       0.5 SEC/ITER)
     TIME TO SOLVE SCF EQUATIONS=       0.0 SECONDS (       0.0 SEC/ITER)

 FINAL R-PBE ENERGY IS     -277.2039994716 AFTER   7 ITERATIONS
 DFT EXCHANGE + CORRELATION ENERGY =       -32.8058800085
 TOTAL ELECTRON NUMBER             =        33.9999399985
 ...... END OF RHF CALCULATION ......
 STEP CPU TIME =     3.86 TOTAL CPU TIME =         15.5 (      0.3 MIN)
 TOTAL WALL CLOCK TIME=         15.6 SECONDS, CPU UTILIZATION IS    99.49%
 ..... END OF 1-ELECTRON GRADIENT ......
 STEP CPU TIME =     0.01 TOTAL CPU TIME =         15.5 (      0.3 MIN)
 TOTAL WALL CLOCK TIME=         15.6 SECONDS, CPU UTILIZATION IS    99.49%
 MEMORY FOR GRID POINT CONTRIBUTIONS TO THE DFT GRADIENT=    295391 WORDS.
 STEP CPU TIME =     1.11 TOTAL CPU TIME =         16.6 (      0.3 MIN)
 TOTAL WALL CLOCK TIME=         16.7 SECONDS, CPU UTILIZATION IS    99.52%
 ...... END OF 2-ELECTRON GRADIENT ......
 STEP CPU TIME =     0.06 TOTAL CPU TIME =         16.7 (      0.3 MIN)
 TOTAL WALL CLOCK TIME=         16.8 SECONDS, CPU UTILIZATION IS    99.46%

 UNITS ARE HARTREE/BOHR    E'X               E'Y               E'Z 
    1 C               -0.000301654       0.005061101       0.000589282
    2 C               -0.000284227      -0.000473397      -0.000177576
    3 F                0.000505192      -0.000276376       0.000319757
    4 H               -0.000266256      -0.000005497      -0.000290091
    5 H                0.000141284       0.000024354      -0.000026438
    6 F               -0.000854417      -0.001605738       0.000137931
    7 H                0.001097191      -0.002168264      -0.000237519
    8 H               -0.000037114      -0.000556182      -0.000315346
  $VIB   
          IVIB=   1 IATOM=   1 ICOORD=   2 E=     -277.2039994716
 -3.016538869E-04 5.061100543E-03 5.892821501E-04-2.842271602E-04-4.733974062E-04
 -1.775758038E-04 5.051923891E-04-2.763760145E-04 3.197567590E-04-2.662555130E-04
 -5.497266180E-06-2.900909678E-04 1.412841475E-04 2.435432046E-05-2.643815532E-05
 -8.544172740E-04-1.605737675E-03 1.379306878E-04 1.097191162E-03-2.168264046E-03
 -2.375188459E-04-3.711386412E-05-5.561824560E-04-3.153458241E-04
  3.130340745E-03 3.008903316E+00-2.092852199E-03
1   ATOM  1
                                        -------------------
   COORD  3                             NUCLEAR COORDINATES
                                        -------------------
     VIB  1

                       ATOM             X              Y              Z

                 1  C               -1.268756       1.144072      -0.669172
                 2  C                1.268802       1.144073       0.679164
                 3  F                2.774179      -0.925155      -0.261050
                 4  H                2.293426       2.940087       0.334124
                 5  H                0.961261       0.877419       2.731315
                 6  F               -2.774211      -0.925128       0.261056
                 7  H               -2.293424       2.940060      -0.334148
                 8  H               -0.961216       0.877366      -2.731315
 ...... END OF ONE-ELECTRON INTEGRALS ......
 STEP CPU TIME =     0.00 TOTAL CPU TIME =         16.7 (      0.3 MIN)
 TOTAL WALL CLOCK TIME=         16.8 SECONDS, CPU UTILIZATION IS    99.46%
 TOTAL NUMBER OF NONZERO TWO-ELECTRON INTEGRALS =              421678
         29 INTEGRAL RECORDS WERE STORED ON DISK FILE  8.
  ...... END OF TWO-ELECTRON INTEGRALS .....
 STEP CPU TIME =     0.05 TOTAL CPU TIME =         16.8 (      0.3 MIN)
 TOTAL WALL CLOCK TIME=         16.8 SECONDS, CPU UTILIZATION IS    99.47%

          --------------------------
               R-PBE SCF CALCULATION
          --------------------------
         DENSITY MATRIX CONVERGENCE THRESHOLD=  1.00E-05
     COARSE -> FINE DFT GRID SWITCH THRESHOLD=  3.00E-04 (SWITCH IN $DFT)
                   HF -> DFT SWITCH THRESHOLD=  5.00E-03 (SWOFF IN $DFT)

 ITER EX DEM     TOTAL ENERGY        E CHANGE  DENSITY CHANGE    DIIS ERROR
          * * *   INITIATING DIIS PROCEDURE   * * *
   1  0  0     -277.2039820871  -277.2039820871   0.003292368   0.000966555
   2  1  0     -277.2039965189    -0.0000144318   0.000922697   0.000509750
   3  2  0     -277.2039960721     0.0000004468   0.000501762   0.000583694
   4  3  0     -277.2039974946    -0.0000014225   0.000053070   0.000064176
   5  4  0     -277.2039975088    -0.0000000143   0.000026568   0.000028809
   6  5  0     -277.2039975117    -0.0000000029   0.000004975   0.000006041
   7  6  0     -277.2039975119    -0.0000000002   0.000001746   0.000001637

          -----------------
          DENSITY CONVERGED
          -----------------
     TIME TO FORM FOCK OPERATORS=       3.8 SECONDS (       0.5 SEC/ITER)
     TIME TO SOLVE SCF EQUATIONS=       0.0 SECONDS (       0.0 SEC/ITER)

 FINAL R-PBE ENERGY IS     -277.2039975119 AFTER   7 ITERATIONS
 DFT EXCHANGE + CORRELATION ENERGY =       -32.8058520434
 TOTAL ELECTRON NUMBER             =        33.9999267787
 ...... END OF RHF CALCULATION ......
 STEP CPU TIME =     3.86 TOTAL CPU TIME =         20.6 (      0.3 MIN)
 TOTAL WALL CLOCK TIME=         20.7 SECONDS, CPU UTILIZATION IS    99.47%
 ..... END OF 1-ELECTRON GRADIENT ......
 STEP CPU TIME =     0.01 TOTAL CPU TIME =         20.6 (      0.3 MIN)
 TOTAL WALL CLOCK TIME=         20.7 SECONDS, CPU UTILIZATION IS    99.52%
 MEMORY FOR GRID POINT CONTRIBUTIONS TO THE DFT GRADIENT=    295391 WORDS.
 STEP CPU TIME =     1.11 TOTAL CPU TIME =         21.7 (      0.4 MIN)
 TOTAL WALL CLOCK TIME=         21.8 SECONDS, CPU UTILIZATION IS    99.50%
[...]
                D/DY     0.360336298   -0.583112286   -0.014675635
                D/DZ     0.230376908   -0.196628154    0.369269449
     H          D/DX     0.248752607   -0.135204710    0.309225232
                D/DY    -0.206830591    0.257492312   -0.162662180
                D/DZ     0.065239276   -0.009343424   -0.467683143

          --------------------------------------------------------
          NORMAL COORDINATE ANALYSIS IN THE HARMONIC APPROXIMATION
          --------------------------------------------------------

          ATOMIC WEIGHTS (AMU)

    1     C                12.00000
    2     C                12.00000
    3     F                18.99840
    4     H                 1.00782
    5     H                 1.00782
    6     F                18.99840
    7     H                 1.00782
    8     H                 1.00782

 MODES    1 TO    6 ARE TAKEN AS ROTATIONS AND TRANSLATIONS.

 ANALYZING SYMMETRY OF NORMAL MODES...

     FREQUENCIES IN CM**-1, IR INTENSITIES IN DEBYE**2/AMU-ANGSTROM**2,
     REDUCED MASSES IN AMU.

                            1           2           3           4           5
       FREQUENCY:        12.86        8.48        0.03        0.01        0.05  
        SYMMETRY:         A           A           A           A           A   
    REDUCED MASS:      2.90319     7.61222     8.27614     8.25364     8.30009
    IR INTENSITY:      0.28384     0.00011     0.00000     0.00000     0.00001

  1   C            X  0.00688908 -0.03545423  0.11947886 -0.00017302  0.02890971
                   Y -0.05729236  0.00133065 -0.00000397  0.12306584 -0.00003755
                   Z -0.10832548  0.06614181 -0.02867603  0.00001816  0.11922343
  2   C            X  0.00622669  0.03584176  0.11947958 -0.00017083  0.02891229
                   Y  0.05726188  0.00206058  0.00034550  0.12306556  0.00008738
                   Z -0.10707808 -0.06809258 -0.02867719  0.00001399  0.11921867
  3   F            X -0.00513249 -0.01589656  0.11981539 -0.00017273  0.02857646
                   Y -0.03953765 -0.00208093  0.00062191  0.12306498 -0.00051673
                   Z  0.08753324 -0.14181452 -0.02876558  0.00001141  0.12001825
  4   H            X  0.01548818  0.01881757  0.11919387 -0.00016887  0.02919120
                   Y  0.01912211  0.00025303  0.00052628  0.12306334 -0.00020808
                   Z -0.27706088 -0.12773567 -0.02859869  0.00001220  0.11850475
  5   H            X  0.00336611  0.14409095  0.11952360 -0.00016532  0.02887060
                   Y  0.25169715  0.00777905  0.00020949  0.12306226  0.00094459
                   Z -0.08228318 -0.05117493 -0.02868592  0.00001392  0.11931978
  6   F            X -0.00541956  0.01557853  0.11981496 -0.00017124  0.02857840
                   Y  0.03956394 -0.00070910 -0.00027979  0.12306514  0.00056554
                   Z  0.08488617  0.14335763 -0.02876294  0.00002030  0.12002787
  7   H            X  0.01582331 -0.01783731  0.11919405 -0.00017478  0.02918931
                   Y -0.01913077  0.00045456 -0.00018440  0.12306361  0.00025745
                   Z -0.27939640  0.12271369 -0.02859679  0.00002052  0.11851414
  8   H            X  0.00604296 -0.14379481  0.11952103 -0.00017877  0.02886035
                   Y -0.25180757  0.00347014  0.00013171  0.12306312 -0.00089389
                   Z -0.08321467  0.04967468 -0.02868496  0.00001813  0.11932330

 TRANS. SAYVETZ    X -0.00204369 -0.00010533  7.90126304 -0.01135430  1.89673489
                   Y  0.00001381 -0.00026121  0.01128651  8.12575965  0.00162602
                   Z -0.03675421 -0.00066586 -1.89665131  0.00105346  7.90118126
               TOTAL  0.03681099  0.00072297  8.12572281  8.12576765  8.12565512

   ROT. SAYVETZ    X-10.50770157 -0.09459269  0.00470340  0.00001336 -0.04352173
                   Y -0.17899469 19.29239094  0.00017300  0.00061962  0.00066478
                   Z -2.31537836 -0.07157230  0.06798717 -0.00001641 -0.06773435
               TOTAL 10.76126425 19.29275560  0.06814989  0.00061998  0.08051413

                            6           7           8           9          10
       FREQUENCY:         4.35      129.43      298.15      437.77      834.72  
        SYMMETRY:         A           A           A           A           A   
    REDUCED MASS:      7.26734     5.52794     2.47455     2.62455     2.89432
    IR INTENSITY:      0.07833     0.09976     0.02633     0.38924     0.26412

  1   C            X -0.05530251 -0.01134647  0.05304802 -0.08091700 -0.09824278
                   Y -0.06839436  0.07028041 -0.01347390  0.08243743  0.09520561
                   Z -0.01145581  0.02778929 -0.08451243 -0.06487056 -0.05285546
  2   C            X -0.05513153  0.01133786 -0.05305223 -0.08091665  0.09828316
                   Y  0.06839163  0.07028837 -0.01347971 -0.08243927  0.09519780
                   Z -0.01177734 -0.02779220  0.08451342 -0.06487327  0.05283197
  3   F            X  0.04415145 -0.12198736 -0.08537068  0.06757723  0.04036851
                   Y  0.13068512 -0.05469251  0.01969770 -0.01905703 -0.05628659
                   Z  0.00986281  0.03580786 -0.05101228  0.03829398 -0.01308605
  4   H            X -0.14242907  0.07473759  0.01340990 -0.02605866  0.28134152
                   Y  0.11410611  0.01076389 -0.01101633 -0.07225230  0.02072754
                   Z -0.03154457 -0.14930534  0.31143855  0.15965995  0.24064778
  5   H            X -0.04254913  0.06090089 -0.20756010 -0.28435883  0.00023593
                   Y  0.07476165  0.18360611 -0.19986906 -0.20592361 -0.09304966
                   Z -0.00910053 -0.00604546  0.03641539 -0.10907110  0.01268848
  6   F            X  0.04420764  0.12199500  0.08537428  0.06757198 -0.04039308
                   Y -0.13068431 -0.05471687  0.01969976  0.01905710 -0.05630852
                   Z  0.01056572 -0.03580728  0.05101067  0.03829332  0.01309797
  7   H            X -0.14250625 -0.07475885 -0.01341050 -0.02605506 -0.28127998
                   Y -0.11410744  0.01074747 -0.01101402  0.07225435  0.02071757
                   Z -0.03096540  0.14930726 -0.31142568  0.15967760 -0.24055474
  8   H            X -0.04323630 -0.06090922  0.20754792 -0.28436749 -0.00031515
                   Y -0.07476779  0.18360384 -0.19985133  0.20594009 -0.09299786
                   Z -0.00885566  0.00603905 -0.03641256 -0.10907594 -0.01272753

 TRANS. SAYVETZ    X -0.02014880  0.00001217  0.00000502 -0.00008315 -0.00000004
                   Y -0.00002488 -0.00001456 -0.00000544 -0.00000195 -0.00001992
                   Z  0.02821571 -0.00002838 -0.00000297  0.00009250 -0.00000119
               TOTAL  0.03467133  0.00003414  0.00000798  0.00012440  0.00001996

   ROT. SAYVETZ    X -1.18610236 -0.00001486  0.00020269 -0.03691487  0.00005242
                   Y  0.04713538 -0.44575808  0.14192209  0.00012321  0.02617348
                   Z 20.51979954  0.00178259 -0.00014545  0.00239621  0.00000541
               TOTAL 20.55410503  0.44576165  0.14192231  0.03699277  0.02617353

                           11          12          13          14          15
       FREQUENCY:       877.64     1020.87     1033.30     1073.75     1171.08  
        SYMMETRY:         A           A           A           A           A   
    REDUCED MASS:      2.16232     2.99978     5.10555     1.88376     1.10538
    IR INTENSITY:      0.50524     0.59110     1.12252     0.08528     0.02624

  1   C            X  0.10079689  0.01988495 -0.13221318  0.01033859  0.01746993
                   Y -0.01877145  0.13842453 -0.08571695 -0.01116974  0.00837963
                   Z -0.05475897 -0.02132793 -0.02752896 -0.13658633 -0.04436999
  2   C            X  0.10073898  0.01964681  0.13225538 -0.01034430  0.01747518
                   Y  0.01874666 -0.13828982 -0.08594401 -0.01113928 -0.00838855
                   Z -0.05477484 -0.02134774  0.02748841  0.13659024 -0.04438579
  3   F            X -0.06037716 -0.02680214 -0.04462752  0.01532451 -0.01463107
                   Y  0.04791179  0.07030418  0.06259177 -0.00720458 -0.00258145
                   Z  0.02543762  0.02388541  0.02758576 -0.03311335  0.02827534
  4   H            X  0.18340599  0.09391654  0.10526638  0.01896841 -0.32348845
                   Y  0.03966744 -0.21008683 -0.07520408 -0.09833439  0.21780253
                   Z  0.28937117 -0.22452622 -0.01619385 -0.25056283  0.04845424
  5   H            X -0.24513974  0.17651337  0.20048865  0.03481944  0.39124995
                   Y -0.13560988  0.07131091 -0.08167402  0.36681370 -0.37234107
                   Z -0.11687223  0.02773620  0.04357279  0.19117942 -0.05300814
  6   F            X -0.06036978 -0.02687923  0.04457571 -0.01531841 -0.01462698
                   Y -0.04789847 -0.07040545  0.06246410 -0.00718663  0.00259000
                   Z  0.02543887  0.02393842 -0.02754363  0.03310967  0.02826982
  7   H            X  0.18351632  0.09409631 -0.10504201 -0.01902705 -0.32352654
                   Y -0.03967275  0.21017683 -0.07482639 -0.09839744 -0.21783226
                   Z  0.28947163 -0.22448138  0.01584951  0.25059779  0.04843592
  8   H            X -0.24511606  0.17683314 -0.20024074 -0.03480730  0.39126334
                   Y  0.13565872 -0.07109521 -0.08178288  0.36684840  0.37231614
                   Z -0.11687421  0.02777248 -0.04354034 -0.19119138 -0.05299695

 TRANS. SAYVETZ    X  0.00013329  0.00011657 -0.00000180  0.00000053  0.00004388
                   Y -0.00000052  0.00000067 -0.00001058  0.00001374  0.00000032
                   Z -0.00003708 -0.00010993 -0.00000056  0.00000003  0.00001204
               TOTAL  0.00013835  0.00016023  0.00001075  0.00001375  0.00004550

   ROT. SAYVETZ    X -0.00012009 -0.00519936 -0.00000704 -0.00003167 -0.00488795
                   Y  0.00002876 -0.00001152  0.01814284  0.00294939  0.00000592
                   Z -0.00131908  0.01385035  0.00000184 -0.00000163 -0.01113439
               TOTAL  0.00132484  0.01479411  0.01814284  0.00294956  0.01216004

                           16          17          18          19          20
       FREQUENCY:      1222.29     1347.31     1367.51     1475.86     1483.15  
        SYMMETRY:         A           A           A           A           A   
    REDUCED MASS:      1.12160     1.26193     1.26812     1.09045     1.09007
    IR INTENSITY:      0.00001     0.20817     0.11410     0.02140     0.37033

  1   C            X  0.02639637 -0.09305471 -0.06975637  0.00276127 -0.01782526
                   Y -0.02213398 -0.01673493 -0.06194082  0.04205249  0.03742524
                   Z  0.04836883  0.00876861 -0.02145065 -0.04043427 -0.04059866
  2   C            X -0.02639622  0.09301438 -0.06982083 -0.00278005 -0.01781565
                   Y -0.02213433 -0.01669726  0.06195205  0.04203628 -0.03745419
                   Z -0.04836244 -0.00878128 -0.02145082  0.04040728 -0.04062247
  3   F            X  0.00561631 -0.00366590  0.00387430  0.00050030  0.00213820
                   Y  0.02514914 -0.00448649  0.00556218  0.00252136 -0.00531352
                   Z  0.00089345 -0.00750875  0.00755796  0.00401474 -0.00243412
  4   H            X  0.48584670 -0.20938242  0.44195941  0.02067018 -0.04255836
                   Y -0.33361712  0.14226778 -0.21242738 -0.08730306  0.09973819
                   Z -0.03499384 -0.07460827  0.11167976 -0.46810201  0.46158589
  5   H            X -0.27236781 -0.53995334  0.31626413 -0.10913129  0.21439728
                   Y  0.12308148  0.14128051 -0.17965164 -0.46075522  0.42442699
                   Z -0.06098212 -0.07585448  0.00141283 -0.05877030  0.06797880
  6   F            X -0.00561422  0.00366606  0.00386843 -0.00049716  0.00213999
                   Y  0.02515074 -0.00449361 -0.00556250  0.00252552  0.00531313
                   Z -0.00089732  0.00751521  0.00755522 -0.00401572 -0.00243172
  7   H            X -0.48583787  0.20966813  0.44179922 -0.02066523 -0.04253417
                   Y -0.33361957  0.14242245  0.21234223 -0.08734312 -0.09967366
                   Z  0.03498759  0.07464669  0.11158820  0.46839070  0.46130903
  8   H            X  0.27231854  0.54014387  0.31593438  0.10929045  0.21436172
                   Y  0.12304220  0.14142184  0.17960906 -0.46099262 -0.42413908
                   Z  0.06098497  0.07584511  0.00135764  0.05882171  0.06795563

 TRANS. SAYVETZ    X  0.00000075 -0.00000078 -0.00000753 -0.00000024 -0.00005663
                   Y -0.00001069  0.00003862 -0.00000002 -0.00002567  0.00000027
                   Z -0.00000022 -0.00000008  0.00011588  0.00000012  0.00001787
               TOTAL  0.00001071  0.00003863  0.00011613  0.00002567  0.00005939

   ROT. SAYVETZ    X  0.00000671 -0.00001260 -0.01319121 -0.00002336 -0.02016430
                   Y  0.00019866 -0.01046791  0.00001303 -0.01302420  0.00002397
                   Z -0.00001184  0.00002719  0.01745459  0.00002098  0.02033201
               TOTAL  0.00019913  0.01046795  0.02187855  0.01302424  0.02863547

                           21          22          23          24
       FREQUENCY:      2953.23     2964.88     3015.22     3030.83  
        SYMMETRY:         A           A           A           A   
    REDUCED MASS:      1.05763     1.05690     1.10579     1.10499
    IR INTENSITY:      0.40445     0.78193     0.30257     0.73388

  1   C            X -0.02256923  0.01964394 -0.02141435  0.01919741
                   Y  0.03761448 -0.03376305  0.03413992 -0.02632717
                   Z -0.01463728  0.02423884  0.04900373 -0.05423331
  2   C            X -0.02258337 -0.01962647  0.02143063  0.01917684
                   Y -0.03764217 -0.03373668  0.03416171  0.02629397
                   Z -0.01465187 -0.02422725 -0.04905572 -0.05418798
  3   F            X  0.00078847  0.00034631  0.00007160 -0.00019271
                   Y -0.00073701 -0.00025979 -0.00057060 -0.00003215
                   Z -0.00033446 -0.00022052 -0.00002707  0.00053742
  4   H            X  0.30474060  0.28476993 -0.19481659 -0.15095114
                   Y  0.51984403  0.47179872 -0.32110489 -0.24324644
                   Z -0.11697449 -0.10374807  0.05829847  0.04221785
  5   H            X -0.05072777 -0.06589995 -0.07183185 -0.07374671
                   Y -0.05427391 -0.06520109 -0.07490480 -0.08606023
                   Z  0.29774317  0.38416225  0.54158868  0.59287197
  6   F            X  0.00078837 -0.00034704 -0.00007173 -0.00019263
                   Y  0.00073698 -0.00026045 -0.00057047  0.00003268
                   Z -0.00033435  0.00022074  0.00002752  0.00053737
  7   H            X  0.30453027 -0.28500107  0.19469726 -0.15113910
                   Y -0.51947585  0.47217446 -0.32090279  0.24354852
                   Z -0.11688806  0.10382677 -0.05826236  0.04227059
  8   H            X -0.05068168  0.06593717  0.07175974 -0.07381343
                   Y  0.05423593 -0.06524979 -0.07483342  0.08614361
                   Z  0.29749097 -0.38438328 -0.54101407  0.59337489

 TRANS. SAYVETZ    X -0.00003838  0.00000018  0.00000012  0.00000139
                   Y -0.00000012  0.00000770 -0.00000009 -0.00000002
                   Z  0.00002314 -0.00000026  0.00000015  0.00004255
               TOTAL  0.00004482  0.00000770  0.00000021  0.00004257

   ROT. SAYVETZ    X -0.00223027 -0.00000018  0.00000544  0.00066942
                   Y  0.00000164  0.00188722 -0.00028697  0.00000176
                   Z  0.00560074 -0.00000993  0.00000456 -0.00223889
               TOTAL  0.00602847  0.00188725  0.00028706  0.00233683

 REFERENCE ON SAYVETZ CONDITIONS - A. SAYVETZ, J.CHEM.PHYS., 7, 383-389(1939).

 NOTE - THE MODES J,K ARE ORTHONORMALIZED ACCORDING TO
 SUM ON I   M(I) * (X(I,J)*X(I,K) + Y(I,J)*Y(I,K) + Z(I,J)*Z(I,K)) = DELTA(J,K)

  MODE FREQ(CM**-1)  SYMMETRY  RED. MASS  IR INTENS.
     1      12.864    A        2.903194    0.283839
     2       8.477    A        7.612220    0.000105
     3       0.033    A        8.276140    0.000001
     4       0.009    A        8.253639    0.000000
     5       0.049    A        8.300090    0.000005
     6       4.347    A        7.267345    0.078329
     7     129.426    A        5.527942    0.099765
     8     298.151    A        2.474550    0.026330
     9     437.769    A        2.624550    0.389245
    10     834.719    A        2.894323    0.264125
    11     877.644    A        2.162325    0.505241
    12    1020.869    A        2.999779    0.591095
    13    1033.300    A        5.105553    1.122521
    14    1073.747    A        1.883759    0.085277
    15    1171.082    A        1.105380    0.026242
    16    1222.289    A        1.121597    0.000007
    17    1347.311    A        1.261925    0.208174
    18    1367.508    A        1.268117    0.114096
    19    1475.856    A        1.090446    0.021402
    20    1483.152    A        1.090069    0.370328
    21    2953.230    A        1.057633    0.404454
    22    2964.879    A        1.056903    0.781927
    23    3015.221    A        1.105786    0.302565
    24    3030.835    A        1.104988    0.733876

     -------------------------------
     THERMOCHEMISTRY AT T=  298.15 K
     -------------------------------

 USING IDEAL GAS, RIGID ROTOR, HARMONIC NORMAL MODE APPROXIMATIONS.
 P=  1.01325E+05 PASCAL.
 ALL FREQUENCIES ARE SCALED BY   1.00000
 THE MOMENTS OF INERTIA ARE (IN AMU*BOHR**2)
    111.83149   372.45076   426.43856
 THE ROTATIONAL SYMMETRY NUMBER IS  1.0
 THE ROTATIONAL CONSTANTS ARE (IN GHZ)
     16.12326     4.84115     4.22825
      7 -     24 VIBRATIONAL MODES ARE USED IN THERMOCHEMISTRY.
 THE HARMONIC ZERO POINT ENERGY IS (SCALED BY   1.000)
        0.058633 HARTREE/MOLECULE    12868.495030 CM**-1/MOLECULE 
       36.792911 KCAL/MOL              153.941538 KJ/MOL

               Q               LN Q
 ELEC.     1.00000E+00       0.000000
 TRANS.    2.10886E+07      16.864241
 ROT.      4.77074E+04      10.772843
 VIB.      3.41944E+00       1.229476
 TOT.      3.44023E+12      28.866560

              E         H         G         CV        CP        S
           KJ/MOL    KJ/MOL    KJ/MOL   J/MOL-K   J/MOL-K   J/MOL-K
 ELEC.      0.000     0.000     0.000     0.000     0.000     0.000
 TRANS.     3.718     6.197   -41.805    12.472    20.786   161.002
 ROT.       3.718     3.718   -26.705    12.472    12.472   102.041
 VIB.     158.302   158.302   150.894    33.209    33.209    24.849
 TOTAL    165.739   168.218    82.383    58.153    66.467   287.892
 VIB. THERMAL CORRECTION E(T)-E(0) = H(T)-H(0) =  4360.844 J/MOL

              E         H         G         CV        CP        S
         KCAL/MOL  KCAL/MOL  KCAL/MOL CAL/MOL-K CAL/MOL-K CAL/MOL-K
 ELEC.      0.000     0.000     0.000     0.000     0.000     0.000
 TRANS.     0.889     1.481    -9.992     2.981     4.968    38.480
 ROT.       0.889     0.889    -6.383     2.981     2.981    24.388
 VIB.      37.835    37.835    36.064     7.937     7.937     5.939
 TOTAL     39.613    40.205    19.690    13.899    15.886    68.808
 VIB. THERMAL CORRECTION E(T)-E(0) = H(T)-H(0) =  1042.267 CAL/MOL
 ......END OF NORMAL COORDINATE ANALYSIS......
 STEP CPU TIME =     0.01 TOTAL CPU TIME =        242.6 (      4.0 MIN)
 TOTAL WALL CLOCK TIME=        244.6 SECONDS, CPU UTILIZATION IS    99.18%
                580000  WORDS OF DYNAMIC MEMORY USED
 EXECUTION OF GAMESS TERMINATED NORMALLY Fri Oct  4 09:20:54 2019
 DDI: 263640 bytes (0.3 MB / 0 MWords) used by master data server.

 ----------------------------------------
 CPU timing information for all processes
 ========================================
 0: 241.876 + 0.725 = 242.601
 ----------------------------------------
 ddikick.x: exited gracefully.
----- accounting info -----
Files used on the master node d12chas532.crc.nd.edu were:
-rw-r--r-- 1 wschnei1 campus 60511 Oct  4 09:20 /scratch365/wschnei1/vib.F07
Fri Oct  4 09:20:57 EDT 2019
0.469u 0.366s 4:08.51 0.3%	0+0k 0+152io 0pf+0w
