----- GAMESS execution script 'rungms' -----
This job is running on host d12chas540.crc.nd.edu
under operating system Linux at Wed Oct 9 10:03:12 EDT 2019
SGE has assigned the following compute nodes to this run:
Available scratch disk space (Kbyte units) at beginning of the job is
Filesystem      1K-blocks     Used  Available Use% Mounted on
/dev/sda2      1949705068 67978348 1881726720   4% /
GAMESS temporary binary files will be written to /tmp/478590.1.debug
GAMESS supplementary output files will be written to /afs/crc.nd.edu/user/w/wschnei1/scr
Copying input file zmat-1.inp to your run's scratch directory...
reading your own /afs/crc.nd.edu/user/w/wschnei1/.gmsrc

 Distributed Data Interface kickoff program.
 Initiating 1 compute processes on 1 nodes to run the following command:
 /afs/crc.nd.edu/x86_64_linux/g/gamess/nov-2017/gamess/gamess.00.x zmat-1 

          ******************************************************
          *         GAMESS VERSION = 11 NOV 2017 (R3)         *
          *             FROM IOWA STATE UNIVERSITY             *
          * M.W.SCHMIDT, K.K.BALDRIDGE, J.A.BOATZ, S.T.ELBERT, *
          *   M.S.GORDON, J.H.JENSEN, S.KOSEKI, N.MATSUNAGA,   *
          *          K.A.NGUYEN, S.J.SU, T.L.WINDUS,           *
          *       TOGETHER WITH M.DUPUIS, J.A.MONTGOMERY       *
          *         J.COMPUT.CHEM.  14, 1347-1363(1993)        *
          **************** 64 BIT INTEL VERSION ****************

  SINCE 1993, STUDENTS AND POSTDOCS WORKING AT IOWA STATE UNIVERSITY
  AND ALSO IN THEIR VARIOUS JOBS AFTER LEAVING ISU HAVE MADE IMPORTANT
  CONTRIBUTIONS TO THE CODE:
     IVANA ADAMOVIC, CHRISTINE AIKENS, YURI ALEXEEV, POOJA ARORA,
     ANDREY ASADCHEV, ROB BELL, PRADIPTA BANDYOPADHYAY, JONATHAN BENTZ,
     BRETT BODE, KURT BRORSEN, CALEB CARLIN, GALINA CHABAN, WEI CHEN,
     CHEOL HO CHOI, PAUL DAY, ALBERT DEFUSCO, NUWAN DESILVA, TIM DUDLEY,
     DMITRI FEDOROV, ALEX FINDLATER, GRAHAM FLETCHER, MARK FREITAG,
     KURT GLAESEMANN, ANASTASIA GUININA,
     DAN KEMP, GRANT MERRILL, NORIYUKI MINEZAWA, JONATHAN MULLIN,
     TAKESHI NAGATA, SEAN NEDD, HEATHER NETZLOFF, BOSILJKA NJEGIC, RYAN OLSON,
     MIKE PAK, BUU PHAM,
     SPENCER PRUITT, LUKE ROSKOP, JIM SHOEMAKER, LYUDMILA SLIPCHENKO,
     TONY SMITH, SAROM SOK LEANG, JIE SONG, TETSUYA TAKETSUGU, SIMON WEBB,
     PENG XU, SOOHAENG YOO, FEDERICO ZAHARIEV

  ADDITIONAL CODE HAS BEEN PROVIDED BY COLLABORATORS IN OTHER GROUPS:
     IOWA STATE UNIVERSITY:
          JOE IVANIC, AARON WEST, LAIMUTIS BYTAUTAS, KLAUS RUEDENBERG
     UNIVERSITY OF TOKYO: KIMIHIKO HIRAO, TAKAHITO NAKAJIMA,
          TAKAO TSUNEDA, MUNEAKI KAMIYA, SUSUMU YANAGISAWA,
          KIYOSHI YAGI, MAHITO CHIBA, SEIKEN TOKURA, NAOAKI KAWAKAMI
     UNIVERSITY OF AARHUS: FRANK JENSEN
     UNIVERSITY OF IOWA: VISVALDAS KAIRYS, HUI LI
     NATIONAL INST. OF STANDARDS AND TECHNOLOGY: WALT STEVENS, DAVID GARMER
     UNIVERSITY OF PISA: BENEDETTA MENNUCCI, JACOPO TOMASI
     UNIVERSITY OF MEMPHIS: HENRY KURTZ, PRAKASHAN KORAMBATH
     UNIVERSITY OF ALBERTA: TOBY ZENG, MARIUSZ KLOBUKOWSKI
     UNIVERSITY OF NEW ENGLAND: MARK SPACKMAN
     MIE UNIVERSITY: HIROAKI UMEDA
     NAT. INST. OF ADVANCED INDUSTRIAL SCIENCE AND TECHNOLOGY: KAZUO KITAURA
     MICHIGAN STATE UNIVERSITY:
          KAROL KOWALSKI, MARTA WLOCH, JEFFREY GOUR, JESSE LUTZ,
          WEI LI, PIOTR PIECUCH
     UNIVERSITY OF SILESIA: MONIKA MUSIAL, STANISLAW KUCHARSKI
     FACULTES UNIVERSITAIRES NOTRE-DAME DE LA PAIX:
          OLIVIER QUINET, BENOIT CHAMPAGNE
     UNIVERSITY OF CALIFORNIA - SANTA BARBARA: BERNARD KIRTMAN
     INSTITUTE FOR MOLECULAR SCIENCE:
          KAZUYA ISHIMURA, MICHIO KATOUDA, AND SHIGERU NAGASE
     UNIVERSITY OF NOTRE DAME: ANNA POMOGAEVA, DAN CHIPMAN
     KYUSHU UNIVERSITY:
          HARUYUKI NAKANO,
          FENG LONG GU, JACEK KORCHOWIEC, MARCIN MAKOWSKI, AND YURIKO AOKI,
          HIROTOSHI MORI AND EISAKU MIYOSHI
     PENNSYLVANIA STATE UNIVERSITY:
          TZVETELIN IORDANOV, CHET SWALINA, JONATHAN SKONE,
          SHARON HAMMES-SCHIFFER
     WASEDA UNIVERSITY:
          MASATO KOBAYASHI, TOMOKO AKAMA, TSUGUKI TOUMA,
          TAKESHI YOSHIKAWA, YASUHIRO IKABATA, JUNJI SEINO,
          YUYA NAKAJIMA, HIROMI NAKAI
     NANJING UNIVERSITY: SHUHUA LI
     UNIVERSITY OF NEBRASKA:
          PEIFENG SU, DEJUN SI, NANDUN THELLAMUREGE, YALI WANG, HUI LI
     UNIVERSITY OF ZURICH: ROBERTO PEVERATI, KIM BALDRIDGE
     N. COPERNICUS UNIVERSITY AND JACKSON STATE UNIVERSITY:
          MARIA BARYSZ
     UNIVERSITY OF COPENHAGEN: Jimmy Kromann, CASPER STEINMANN
     TOKYO INSTITUTE OF TECHNOLOGY: HIROYA NAKATA
     NAGOYA UNIVERSITY: YOSHIO NISHIMOTO, STEPHAN IRLE
     MOSCOW STATE UNIVERSITY: VLADIMIR MIRONOV

 EXECUTION OF GAMESS BEGUN Wed Oct  9 10:03:12 2019

            ECHO OF THE FIRST FEW INPUT CARDS -
 INPUT CARD> $CONTRL SCFTYP=RHF DFTTYP=PBE RUNTYP=OPTIMIZE COORD=ZMT NZVAR=18 ISPHER=1 $END 
 INPUT CARD> $BASIS GBASIS=PCseg-1 $END                                                     
 INPUT CARD> $DATA                                                                          
 INPUT CARD>FCH2CH2F cartesian optimization calculation                                     
 INPUT CARD>C1                                                                              
 INPUT CARD> C                                                                              
 INPUT CARD> C      1   1.5231820                                                           
 INPUT CARD> F      2   1.4425887  1   108.9141055                                          
 INPUT CARD> H      2   1.1093304  1   110.6816081  3   119.6722433  0                      
 INPUT CARD> H      2   1.1071023  1   109.4687372  3  -118.8753319  0                      
 INPUT CARD> F      1   1.4425956  2   108.9160521  3    73.3324915  0                      
 INPUT CARD> H      1   1.1093293  2   110.6833783  6   119.6739766  0                      
 INPUT CARD> H      1   1.1071084  2   109.4682599  6  -118.8746540  0                      
 INPUT CARD> $END                                                                           
 INPUT CARD>                                                                                
    1000000 WORDS OF MEMORY AVAILABLE

     BASIS OPTIONS
     -------------
     GBASIS=PCSEG-1      IGAUSS=       0      POLAR=NONE    
     NDFUNC=       0     NFFUNC=       0     DIFFSP=       F
     NPFUNC=       0      DIFFS=       F     BASNAM=        


     RUN TITLE
     ---------
 FCH2CH2F cartesian optimization calculation                                     

 THE POINT GROUP OF THE MOLECULE IS C1      
 THE ORDER OF THE PRINCIPAL AXIS IS     0

 YOUR FULLY SUBSTITUTED Z-MATRIX IS
 C   
 C      1   1.5231820
 F      2   1.4425887  1  108.9141
 H      2   1.1093304  1  110.6816  3  119.6722  0
 H      2   1.1071023  1  109.4687  3 -118.8753  0
 F      1   1.4425956  2  108.9161  3   73.3325  0
 H      1   1.1093293  2  110.6834  6  119.6740  0
 H      1   1.1071084  2  109.4683  6 -118.8747  0

 THE MOMENTS OF INERTIA ARE (AMU-ANGSTROM**2)
 IXX=    31.307   IYY=   104.331   IZZ=   119.435

 ATOM      ATOMIC                      COORDINATES (BOHR)
           CHARGE         X                   Y                   Z
 C           6.0     1.2687301365       -1.1437241148       -0.6793780543
 C           6.0    -1.2687789094       -1.1437390497        0.6793768475
 F           9.0    -2.7747483545        0.9248877530       -0.2610730319
 H           1.0    -2.2930282011       -2.9400927552        0.3349523140
 H           1.0    -0.9609575859       -0.8763814317        2.7313836648
 F           9.0     2.7747844170        0.9248538604        0.2610811692
 H           1.0     2.2929941543       -2.9400936044       -0.3350923163
 H           1.0     0.9608925526       -0.8762782822       -2.7313826896

          INTERNUCLEAR DISTANCES (ANGS.)
          ------------------------------

                1 C          2 C          3 F          4 H          5 H     

   1 C       0.0000000    1.5231820 *  2.4136431 *  2.1781240 *  2.1609797 *
   2 C       1.5231820 *  0.0000000    1.4425887 *  1.1093304 *  1.1071023 *
   3 F       2.4136431 *  1.4425887 *  0.0000000    2.0850775 *  2.0826473 *
   4 H       2.1781240 *  1.1093304 *  2.0850775 *  0.0000000    1.8159494 *
   5 H       2.1609797 *  1.1071023 *  2.0826473 *  1.8159494 *  0.0000000  
   6 F       1.4425956 *  2.4136779 *  2.9496569 *  3.3728977    2.5544856 *
   7 H       1.1093293 *  2.1781455 *  3.3728802    2.4525845 *  2.6059164 *
   8 H       1.1071084 *  2.1609781 *  2.5544325 *  2.6058818 *  3.0644491  

                6 F          7 H          8 H     

   1 C       1.4425956 *  1.1093293 *  1.1071084 *
   2 C       2.4136779 *  2.1781455 *  2.1609781 *
   3 F       2.9496569 *  3.3728802    2.5544325 *
   4 H       3.3728977    2.4525845 *  2.6058818 *
   5 H       2.5544856 *  2.6059164 *  3.0644491  
   6 F       0.0000000    2.0850768 *  2.0826416 *
   7 H       2.0850768 *  0.0000000    1.8159368 *
   8 H       2.0826416 *  1.8159368 *  0.0000000  

  * ... LESS THAN  3.000


     ATOMIC BASIS SET
     ----------------
 THE CONTRACTED PRIMITIVE FUNCTIONS HAVE BEEN UNNORMALIZED
 THE CONTRACTED BASIS FUNCTIONS ARE NOW NORMALIZED TO UNITY

  SHELL TYPE  PRIMITIVE        EXPONENT          CONTRACTION COEFFICIENT(S)

 C         

      1   S       1          1243.2000000    0.005630097702
      1   S       2           187.1450000    0.041950603854
      1   S       3            42.5126000    0.184664360492
      1   S       4            11.7393000    0.466557421368
      1   S       5             3.5054800    0.448234778316

      2   S       6             5.3908900   -0.148114817444
      2   S       7             0.4933410    1.051981714281

      3   S       8             0.1497410    1.000000000000

      4   P       9             9.1805600    0.063992052045
      4   P      10             1.9365800    0.333521296407
      4   P      11             0.5262960    0.741161730513

      5   P      12             0.1363190    1.000000000000

      6   D      13             0.8000000    1.000000000000

 C         

      7   S      14          1243.2000000    0.005630097702
      7   S      15           187.1450000    0.041950603854
      7   S      16            42.5126000    0.184664360492
      7   S      17            11.7393000    0.466557421368
      7   S      18             3.5054800    0.448234778316

      8   S      19             5.3908900   -0.148114817444
      8   S      20             0.4933410    1.051981714281

      9   S      21             0.1497410    1.000000000000

     10   P      22             9.1805600    0.063992052045
     10   P      23             1.9365800    0.333521296407
     10   P      24             0.5262960    0.741161730513

     11   P      25             0.1363190    1.000000000000

     12   D      26             0.8000000    1.000000000000

 F         

     13   S      27          2931.5500000    0.005390132259
     13   S      28           441.1250000    0.040296704072
     13   S      29           100.2320000    0.180202178717
     13   S      30            27.8655000    0.465064284210
     13   S      31             8.4447000    0.452433138251

     14   S      32            13.6123000   -0.151660908297
     14   S      33             1.2612200    1.053515343452

     15   S      34             0.3708000    1.000000000000

     16   P      35            21.9305000    0.070356827475
     16   P      36             4.7855200    0.356742371235
     16   P      37             1.2837800    0.719732016372

     17   P      38             0.3115580    1.000000000000

     18   D      39             1.1000000    1.000000000000

 H         

     19   S      40            12.2518000    0.037217389296
     19   S      41             1.8687100    0.253808206955
     19   S      42             0.4182080    0.797386763917

     20   S      43             0.1061000    1.000000000000

     21   P      44             1.0000000    1.000000000000

 H         

     22   S      45            12.2518000    0.037217389296
     22   S      46             1.8687100    0.253808206955
     22   S      47             0.4182080    0.797386763917

     23   S      48             0.1061000    1.000000000000

     24   P      49             1.0000000    1.000000000000

 F         

     25   S      50          2931.5500000    0.005390132259
     25   S      51           441.1250000    0.040296704072
     25   S      52           100.2320000    0.180202178717
     25   S      53            27.8655000    0.465064284210
     25   S      54             8.4447000    0.452433138251

     26   S      55            13.6123000   -0.151660908297
     26   S      56             1.2612200    1.053515343452

     27   S      57             0.3708000    1.000000000000

     28   P      58            21.9305000    0.070356827475
     28   P      59             4.7855200    0.356742371235
     28   P      60             1.2837800    0.719732016372

     29   P      61             0.3115580    1.000000000000

     30   D      62             1.1000000    1.000000000000

 H         

     31   S      63            12.2518000    0.037217389296
     31   S      64             1.8687100    0.253808206955
     31   S      65             0.4182080    0.797386763917

     32   S      66             0.1061000    1.000000000000

     33   P      67             1.0000000    1.000000000000

 H         

     34   S      68            12.2518000    0.037217389296
     34   S      69             1.8687100    0.253808206955
     34   S      70             0.4182080    0.797386763917

     35   S      71             0.1061000    1.000000000000

     36   P      72             1.0000000    1.000000000000

 TOTAL NUMBER OF BASIS SET SHELLS             =   36
 NUMBER OF CARTESIAN GAUSSIAN BASIS FUNCTIONS =   80
 NOTE: THIS RUN WILL RESTRICT THE MO VARIATION SPACE TO SPHERICAL HARMONICS.
 THE NUMBER OF ORBITALS KEPT IN THE VARIATIONAL SPACE WILL BE PRINTED LATER.
 NUMBER OF ELECTRONS                          =   34
 CHARGE OF MOLECULE                           =    0
 SPIN MULTIPLICITY                            =    1
 NUMBER OF OCCUPIED ORBITALS (ALPHA)          =   17
 NUMBER OF OCCUPIED ORBITALS (BETA )          =   17
 TOTAL NUMBER OF ATOMS                        =    8
 THE NUCLEAR REPULSION ENERGY IS      124.7199705770

     LEBEDEV GRID-BASED DFT OPTIONS
     ------------------------------
     DFTTYP=PBE     
     NRAD  =      96     NLEB  =     302
     NRAD0 =      24     NLEB0 =     110
     SWOFF =    5.00E-03 (PURE SCF -> DFT)
     SWITCH=    3.00E-04 (COARSE -> TIGHT GRID)
     THRESH=    0.00E+00 GTHRE=    1.00E+00

 GRIMME'S EMPIRICAL DISPERSION CORRECTION= F

     $CONTRL OPTIONS
     ---------------
 SCFTYP=RHF          RUNTYP=OPTIMIZE     EXETYP=RUN     
 MPLEVL=       0     CITYP =NONE         CCTYP =NONE         VBTYP =NONE    
 DFTTYP=PBE          TDDFT =NONE    
 MULT  =       1     ICHARG=       0     NZVAR =      18     COORD =ZMT     
 PP    =NONE         RELWFN=NONE         LOCAL =NONE         NUMGRD=       F
 ISPHER=       1     NOSYM =       0     MAXIT =      30     UNITS =ANGS    
 PLTORB=       F     MOLPLT=       F     AIMPAC=       F     FRIEND=        
 NPRINT=       7     IREST =       0     GEOM  =INPUT   
 NORMF =       0     NORMP =       0     ITOL  =      20     ICUT  =       9
 INTTYP=BEST         GRDTYP=BEST         QMTTOL= 1.0E-06

     $SYSTEM OPTIONS
     ---------------
  REPLICATED MEMORY=     1000000 WORDS (ON EVERY NODE).
 DISTRIBUTED MEMDDI=           0 MILLION WORDS IN AGGREGATE,
 MEMDDI DISTRIBUTED OVER   1 PROCESSORS IS           0 WORDS/PROCESSOR.
 TOTAL MEMORY REQUESTED ON EACH PROCESSOR=     1000000 WORDS.
 TIMLIM=      525600.00 MINUTES, OR     365.0 DAYS.
 PARALL= F  BALTYP=  DLB     KDIAG=    0  COREFL= F
 MXSEQ2=     300 MXSEQ3=     150  mem10=         0

          ----------------
          PROPERTIES INPUT
          ----------------

     MOMENTS            FIELD           POTENTIAL          DENSITY
 IEMOM =       1   IEFLD =       0   IEPOT =       0   IEDEN =       0
 WHERE =COMASS     WHERE =NUCLEI     WHERE =NUCLEI     WHERE =NUCLEI  
 OUTPUT=BOTH       OUTPUT=BOTH       OUTPUT=BOTH       OUTPUT=BOTH    
 IEMINT=       0   IEFINT=       0                     IEDINT=       0
                                                       MORB  =       0
          EXTRAPOLATION IN EFFECT
          DIIS IN EFFECT
 ORBITAL PRINTING OPTION: NPREO=     1    80     2     1

     -------------------------------
     INTEGRAL TRANSFORMATION OPTIONS
     -------------------------------
     NWORD  =            0
     CUTOFF = 1.0E-09     MPTRAN =       0
     DIRTRF =       F     AOINTS =DUP     

          ----------------------
          INTEGRAL INPUT OPTIONS
          ----------------------
 NOPK  =       1 NORDER=       0 SCHWRZ=       T

   --- ENCODED Z MATRIX ---
 COORD  TYPE   I   J   K   L   M   N
    1      1    2   1
    2      1    3   2
    3      2    3   2   1
    4      1    4   2
    5      2    4   2   1
    6      3    4   2   1   3
    7      1    5   2
    8      2    5   2   1
    9      3    5   2   1   3
   10      1    6   1
   11      2    6   1   2
   12      3    6   1   2   3
   13      1    7   1
   14      2    7   1   2
   15      3    7   1   2   6
   16      1    8   1
   17      2    8   1   2
   18      3    8   1   2   6

 THE DETERMINANT OF THE G MATRIX IS 10**(   -12)


                     --------------------
                     INTERNAL COORDINATES
                     --------------------

                 - - ATOMS - -         COORDINATE      COORDINATE
 NO.   TYPE    I  J  K  L  M  N        (BOHR,RAD)       (ANG,DEG)
 ----------------------------------------------------------------
   1 STRETCH   2  1                     2.8783966       1.5231820
   2 STRETCH   3  2                     2.7260974       1.4425887
   3 BEND      3  2  1                  1.9009097     108.9141055
   4 STRETCH   4  2                     2.0963305       1.1093304
   5 BEND      4  2  1                  1.9317585     110.6816081
   6 TORSION   4  2  1  3               2.0886747     119.6722433
   7 STRETCH   5  2                     2.0921200       1.1071023
   8 BEND      5  2  1                  1.9105899     109.4687372
   9 TORSION   5  2  1  3              -2.0747659    -118.8753319
  10 STRETCH   6  1                     2.7261104       1.4425956
  11 BEND      6  1  2                  1.9009437     108.9160521
  12 TORSION   6  1  2  3               1.2798934      73.3324915
  13 STRETCH   7  1                     2.0963284       1.1093293
  14 BEND      7  1  2                  1.9317894     110.6833783
  15 TORSION   7  1  2  6               2.0887049     119.6739766
  16 STRETCH   8  1                     2.0921315       1.1071084
  17 BEND      8  1  2                  1.9105816     109.4682599
  18 TORSION   8  1  2  6              -2.0747541    -118.8746540

     ------------------------------------------
     THE POINT GROUP IS C1 , NAXIS= 0, ORDER= 1
     ------------------------------------------

 -- VARIATIONAL SPACE WILL BE RESTRICTED TO PURE SPHERICAL HARMONICS ONLY --
 AFTER EXCLUDING CONTAMINANT COMBINATIONS FROM THE CARTESIAN GAUSSIAN BASIS
 SET, THE NUMBER OF SPHERICAL HARMONICS KEPT IN THE VARIATION SPACE IS   76

     DIMENSIONS OF THE SYMMETRY SUBSPACES ARE
 A   =   76

 ..... DONE SETTING UP THE RUN .....
 STEP CPU TIME =     0.05 TOTAL CPU TIME =          0.1 (      0.0 MIN)
 TOTAL WALL CLOCK TIME=          0.4 SECONDS, CPU UTILIZATION IS    12.82%


          -----------------------------
          STATIONARY POINT LOCATION RUN
          -----------------------------

 OBTAINING INITIAL HESSIAN, HESS=GUESS   
 DIAGONAL GUESS HESSIAN IN INTERNAL COORDS IS
     1  0.3721     2  0.3008     3  0.2337     4  0.3336     5  0.2233
     6  0.2500     7  0.3350     8  0.2235     9  0.2500    10  0.3008
    11  0.2337    12  0.2500    13  0.3336    14  0.2233    15  0.2500
    16  0.3350    17  0.2235    18  0.2500

          PARAMETERS CONTROLLING GEOMETRY SEARCH ARE
          METHOD =QA                  UPHESS =BFGS    
          NNEG   =         0          NFRZ   =         0
          NSTEP  =        50          IFOLOW =         1
          HESS   =GUESS               RESTAR =         F
          IHREP  =         0          HSSEND =         F
          NPRT   =         0          NPUN   =         0
          OPTTOL = 1.000E-04          RMIN   = 1.500E-03
          RMAX   = 1.000E-01          RLIM   = 7.000E-02
          DXMAX  = 3.000E-01          PURIFY =         F
          MOVIE  =         F          TRUPD  =         T
          TRMAX  = 5.000E-01          TRMIN  = 5.000E-02
          ITBMAT =         5          STPT   =         F
          STSTEP = 1.000E-02          PROJCT=          T

 BEGINNING GEOMETRY SEARCH POINT NSERCH=   0 ...

 COORDINATES OF ALL ATOMS ARE (ANGS)
   ATOM   CHARGE       X              Y              Z
 ------------------------------------------------------------
 C           6.0   0.6713831237  -0.6052327810  -0.3595114100
 C           6.0  -0.6714089331  -0.6052406842   0.3595107713
 F           9.0  -1.4683337016   0.4894295570  -0.1381539089
 H           1.0  -1.2134183559  -1.5558301967   0.1772491442
 H           1.0  -0.5085168920  -0.4637611153   1.4453860944
 F           9.0   1.4683527850   0.4894116218   0.1381582150
 H           1.0   1.2134003391  -1.5558306461  -0.1773232302
 H           1.0   0.5084824778  -0.4637065309  -1.4453855783


                     --------------------
                     INTERNAL COORDINATES
                     --------------------

                 - - ATOMS - -         COORDINATE      COORDINATE
 NO.   TYPE    I  J  K  L  M  N        (BOHR,RAD)       (ANG,DEG)
 ----------------------------------------------------------------
   1 STRETCH   2  1                     2.8783966       1.5231820
   2 STRETCH   3  2                     2.7260974       1.4425887
   3 BEND      3  2  1                  1.9009097     108.9141055
   4 STRETCH   4  2                     2.0963305       1.1093304
   5 BEND      4  2  1                  1.9317585     110.6816081
   6 TORSION   4  2  1  3               2.0886747     119.6722433
   7 STRETCH   5  2                     2.0921200       1.1071023
   8 BEND      5  2  1                  1.9105899     109.4687372
   9 TORSION   5  2  1  3              -2.0747659    -118.8753319
  10 STRETCH   6  1                     2.7261104       1.4425956
  11 BEND      6  1  2                  1.9009437     108.9160521
  12 TORSION   6  1  2  3               1.2798934      73.3324915
  13 STRETCH   7  1                     2.0963284       1.1093293
  14 BEND      7  1  2                  1.9317894     110.6833783
  15 TORSION   7  1  2  6               2.0887049     119.6739766
  16 STRETCH   8  1                     2.0921315       1.1071084
  17 BEND      8  1  2                  1.9105816     109.4682599
  18 TORSION   8  1  2  6              -2.0747541    -118.8746540

 THE CURRENT FULLY SUBSTITUTED Z-MATRIX IS
 C   
 C      1   1.5231820
 F      2   1.4425887  1   108.9141055
 H      2   1.1093304  1   110.6816081  3   119.6722433  0
 H      2   1.1071023  1   109.4687372  3  -118.8753319  0
 F      1   1.4425956  2   108.9160521  3    73.3324915  0
 H      1   1.1093293  2   110.6833783  6   119.6739766  0
 H      1   1.1071084  2   109.4682599  6  -118.8746540  0

          ********************
          1 ELECTRON INTEGRALS
          ********************
 ...... END OF ONE-ELECTRON INTEGRALS ......
 STEP CPU TIME =     0.01 TOTAL CPU TIME =          0.1 (      0.0 MIN)
 TOTAL WALL CLOCK TIME=          0.4 SECONDS, CPU UTILIZATION IS    14.63%

          -------------
          GUESS OPTIONS
          -------------
          GUESS =HUCKEL            NORB  =       0          NORDER=       0
          MIX   =       F          PRTMO =       F          PUNMO =       F
          TOLZ  = 1.0E-08          TOLE  = 1.0E-05
          SYMDEN=       F          PURIFY=       F

 INITIAL GUESS ORBITALS GENERATED BY HUCKEL   ROUTINE.
 HUCKEL GUESS REQUIRES     54920 WORDS.

 STATISTICS FOR GENERATION OF SYMMETRY ORBITAL -Q- MATRIX
 NUMBER OF CARTESIAN ATOMIC ORBITALS=         80
 NUMBER OF SPHERICAL CONTAMINANTS DROPPED=     4
 NUMBER OF LINEARLY DEPENDENT MOS DROPPED=     0
 TOTAL NUMBER OF MOS IN VARIATION SPACE=      76

 SYMMETRIES FOR INITIAL GUESS ORBITALS FOLLOW.   BOTH SET(S).
    17 ORBITALS ARE OCCUPIED (    4 CORE ORBITALS).
     5=A        6=A        7=A        8=A        9=A       10=A       11=A   
    12=A       13=A       14=A       15=A       16=A       17=A       18=A   
    19=A       20=A       21=A       22=A       23=A       24=A       25=A   
    26=A       27=A   
 ...... END OF INITIAL ORBITAL SELECTION ......
 STEP CPU TIME =     0.01 TOTAL CPU TIME =          0.1 (      0.0 MIN)
 TOTAL WALL CLOCK TIME=          0.5 SECONDS, CPU UTILIZATION IS    14.89%

                    ----------------------
                    AO INTEGRAL TECHNOLOGY
                    ----------------------
     S,P,L SHELL ROTATED AXIS INTEGRALS, REPROGRAMMED BY
        KAZUYA ISHIMURA (IMS) AND JOSE SIERRA (SYNSTAR).
     S,P,D,L SHELL ROTATED AXIS INTEGRALS PROGRAMMED BY
        KAZUYA ISHIMURA (INSTITUTE FOR MOLECULAR SCIENCE).
     S,P,D,F,G SHELL TO TOTAL QUARTET ANGULAR MOMENTUM SUM 5,
        ERIC PROGRAM BY GRAHAM FLETCHER (ELORET AND NASA ADVANCED
        SUPERCOMPUTING DIVISION, AMES RESEARCH CENTER).
     S,P,D,F,G,L SHELL GENERAL RYS QUADRATURE PROGRAMMED BY
        MICHEL DUPUIS (PACIFIC NORTHWEST NATIONAL LABORATORY).

          --------------------
          2 ELECTRON INTEGRALS
          --------------------

 THE -PK- OPTION IS OFF, THE INTEGRALS ARE NOT IN SUPERMATRIX FORM.
 STORING   15000 INTEGRALS/RECORD ON DISK, USING 12 BYTES/INTEGRAL.
 TWO ELECTRON INTEGRAL EVALUATION REQUIRES   91062 WORDS OF MEMORY.
 SCHWARZ INEQUALITY OVERHEAD:      3237 INTEGRALS, T=        0.00
 II,JST,KST,LST =  1  1  1  1 NREC =         1 INTLOC =    1
 II,JST,KST,LST =  2  1  1  1 NREC =         1 INTLOC =    2
 II,JST,KST,LST =  3  1  1  1 NREC =         1 INTLOC =    7
 II,JST,KST,LST =  4  1  1  1 NREC =         1 INTLOC =   22
 II,JST,KST,LST =  5  1  1  1 NREC =         1 INTLOC =   67
 II,JST,KST,LST =  6  1  1  1 NREC =         1 INTLOC =  214
 II,JST,KST,LST =  7  1  1  1 NREC =         1 INTLOC = 1189
 II,JST,KST,LST =  8  1  1  1 NREC =         1 INTLOC = 3081
 II,JST,KST,LST =  9  1  1  1 NREC =         1 INTLOC = 5509
 II,JST,KST,LST = 10  1  1  1 NREC =         1 INTLOC = 8374
 II,JST,KST,LST = 11  1  1  1 NREC =         2 INTLOC = 5046
 II,JST,KST,LST = 12  1  1  1 NREC =         3 INTLOC = 7329
 II,JST,KST,LST = 13  1  1  1 NREC =         7 INTLOC = 3989
 II,JST,KST,LST = 14  1  1  1 NREC =         8 INTLOC = 2069
 II,JST,KST,LST = 15  1  1  1 NREC =         9 INTLOC = 2793
 II,JST,KST,LST = 16  1  1  1 NREC =        10 INTLOC = 5632
 II,JST,KST,LST = 17  1  1  1 NREC =        14 INTLOC = 7361
 II,JST,KST,LST = 18  1  1  1 NREC =        19 INTLOC =13317
 II,JST,KST,LST = 19  1  1  1 NREC =        34 INTLOC = 9113
 II,JST,KST,LST = 20  1  1  1 NREC =        37 INTLOC =12271
 II,JST,KST,LST = 21  1  1  1 NREC =        41 INTLOC = 3767
 II,JST,KST,LST = 22  1  1  1 NREC =        52 INTLOC =11524
 II,JST,KST,LST = 23  1  1  1 NREC =        57 INTLOC = 2251
 II,JST,KST,LST = 24  1  1  1 NREC =        61 INTLOC =12104
 II,JST,KST,LST = 25  1  1  1 NREC =        77 INTLOC = 4336
 II,JST,KST,LST = 26  1  1  1 NREC =        80 INTLOC = 8613
 II,JST,KST,LST = 27  1  1  1 NREC =        85 INTLOC = 1028
 II,JST,KST,LST = 28  1  1  1 NREC =        91 INTLOC = 3697
 II,JST,KST,LST = 29  1  1  1 NREC =       106 INTLOC =12638
 II,JST,KST,LST = 30  1  1  1 NREC =       130 INTLOC = 1137
 II,JST,KST,LST = 31  1  1  1 NREC =       177 INTLOC = 5465
 II,JST,KST,LST = 32  1  1  1 NREC =       188 INTLOC =  323
 II,JST,KST,LST = 33  1  1  1 NREC =       199 INTLOC =10927
 II,JST,KST,LST = 34  1  1  1 NREC =       231 INTLOC = 2558
 II,JST,KST,LST = 35  1  1  1 NREC =       244 INTLOC =10485
 II,JST,KST,LST = 36  1  1  1 NREC =       259 INTLOC =  559
 SCHWARZ INEQUALITY TEST SKIPPED       17636 INTEGRAL BLOCKS.
 TOTAL NUMBER OF NONZERO TWO-ELECTRON INTEGRALS =             4519781
        302 INTEGRAL RECORDS WERE STORED ON DISK FILE  8.
  ...... END OF TWO-ELECTRON INTEGRALS .....
 STEP CPU TIME =     0.50 TOTAL CPU TIME =          0.6 (      0.0 MIN)
 TOTAL WALL CLOCK TIME=          1.0 SECONDS, CPU UTILIZATION IS    57.00%

          --------------------------
               R-PBE SCF CALCULATION
          --------------------------

     NUCLEAR ENERGY =       124.7199705770
     MAXIT =   30     NPUNCH=    2
     EXTRAP=T  DAMP=F  SHIFT=F  RSTRCT=F  DIIS=T  DEM=F  SOSCF=F
         DENSITY MATRIX CONVERGENCE THRESHOLD=  1.00E-05
     COARSE -> FINE DFT GRID SWITCH THRESHOLD=  3.00E-04 (SWITCH IN $DFT)
                   HF -> DFT SWITCH THRESHOLD=  5.00E-03 (SWOFF IN $DFT)
     MEMORY REQUIRED FOR RHF ITERS=    365468 WORDS.

 DFT CODE IS SWITCHING FROM THE FINE GRID NRAD= 96,  NLEB=  302
                      TO THE COARSE GRID NRAD0= 24, NLEB0=  110

     EXCHANGE FUNCTIONAL   =PBE       
     CORRELATION FUNCTIONAL=PBE       
     DFT THRESHOLD         =.172E-07
     GRID CHANGE THRESHOLD =.300E-03
 FOR AN EULER-MACLAURIN QUADRATURE USING  96 RADIAL POINTS:
 SMALLEST GAUSSIAN PRIMITIVE EXPONENT=        0.1061000000 OF TYPE -S-
 ON ATOM NUMBER   4 HAS RADIAL NORMALIZATION=  1.000000
  LARGEST GAUSSIAN PRIMITIVE EXPONENT=     2931.5500000000 OF TYPE -S-
 ON ATOM NUMBER   3 HAS RADIAL NORMALIZATION=  1.000000
 DFT IS SWITCHED OFF, PERFORMING PURE SCF UNTIL SWOFF THRESHOLD IS REACHED.

 ITER EX DEM     TOTAL ENERGY        E CHANGE  DENSITY CHANGE    DIIS ERROR
   1  0  0     -276.1341053014  -276.1341053014   0.184433183   0.731769909
          * * *   INITIATING DIIS PROCEDURE   * * *
   2  1  0     -276.7813529204    -0.6472476190   0.079092722   0.078036782
   3  2  0     -276.8226870315    -0.0413341111   0.040534529   0.044689054
   4  3  0     -276.8372612381    -0.0145742066   0.008593616   0.011535679
   5  4  0     -276.8380074146    -0.0007461765   0.001768544   0.001706622
 CONVERGED TO SWOFF, SO DFT CALCULATION IS NOW SWITCHED ON.
          * * *   INITIATING DIIS PROCEDURE   * * *
   6  5  0     -277.9049993018    -1.0669918872   0.077003694   0.078705769
   7  6  0     -277.9205293055    -0.0155300037   0.066322068   0.045040669
   8  7  0     -277.9183906270     0.0021386785   0.039009572   0.046509611
   9  8  0     -277.9340993633    -0.0157087362   0.005166226   0.005012458
  10  9  0     -277.9343191730    -0.0002198098   0.000977223   0.000971147
  11 10  0     -277.9343260148    -0.0000068417   0.000138133   0.000172989
 DFT CODE IS SWITCHING BACK TO THE FINE GRID
          * * *   INITIATING DIIS PROCEDURE   * * *
  12 11  0     -277.9350405350    -0.0007145203   0.002041019   0.004306820
  13 12  0     -277.9350826003    -0.0000420653   0.002297440   0.001205235
  14 13  0     -277.9350712884     0.0000113118   0.001439949   0.001797942
  15 14  0     -277.9350933216    -0.0000220331   0.000128093   0.000098306
  16 15  0     -277.9350933963    -0.0000000748   0.000028173   0.000036173
  17 16  0     -277.9350934049    -0.0000000086   0.000001108   0.000003410
  18 17  0     -277.9350934050    -0.0000000001   0.000000174   0.000000364

          -----------------
          DENSITY CONVERGED
          -----------------
     TIME TO FORM FOCK OPERATORS=       8.3 SECONDS (       0.5 SEC/ITER)
     TIME TO SOLVE SCF EQUATIONS=       0.1 SECONDS (       0.0 SEC/ITER)

 FINAL R-PBE ENERGY IS     -277.9350934050 AFTER  18 ITERATIONS
 DFT EXCHANGE + CORRELATION ENERGY =       -32.8783844183
 TOTAL ELECTRON NUMBER             =        34.0000818004

          ------------
          EIGENVECTORS
          ------------

                      1          2          3          4          5
                  -24.2302   -24.2301    -9.9768    -9.9767    -1.0838
                     A          A          A          A          A   
    1  C  1  S   -0.000085  -0.000129   0.705480  -0.699316  -0.048457
    2  C  1  S   -0.000456  -0.000537   0.025407  -0.026564   0.090907
    3  C  1  S    0.003826   0.007764  -0.011208   0.019407   0.025194
    4  C  1  X    0.000815   0.000291   0.001012   0.000107   0.022438
    5  C  1  Y    0.000531   0.000588   0.000184  -0.000309   0.051840
    6  C  1  Z    0.000107   0.000291  -0.000323  -0.000339   0.026885
    7  C  1  X    0.001339   0.000247   0.000322  -0.003830   0.000650
    8  C  1  Y    0.002113   0.002617   0.000627  -0.000372   0.006073
    9  C  1  Z    0.001458   0.001248   0.000911   0.001655   0.006450
   10  C  1 XX   -0.000125   0.000045  -0.000661  -0.000272   0.001750
   11  C  1 YY    0.000152   0.000118   0.000493   0.000198   0.003535
   12  C  1 ZZ   -0.000027  -0.000163   0.000169   0.000074  -0.005285
   13  C  1 XY    0.000352   0.000179  -0.000052   0.000057   0.008850
   14  C  1 XZ    0.000148   0.000129   0.000697   0.000275   0.002337
   15  C  1 YZ    0.000120   0.000193  -0.000073   0.000005   0.006624
   16  C  2  S   -0.000087   0.000128   0.699450   0.705347  -0.048467
   17  C  2  S   -0.000464   0.000530   0.025178   0.026781   0.090923
   18  C  2  S    0.003944  -0.007705  -0.011040  -0.019503   0.025210
   19  C  2  X   -0.000820   0.000278  -0.001013   0.000099  -0.022449
   20  C  2  Y    0.000540  -0.000579   0.000182   0.000310   0.051855
   21  C  2  Z   -0.000111   0.000289   0.000326  -0.000336  -0.026891
   22  C  2  X   -0.001343   0.000227  -0.000288  -0.003833  -0.000651
   23  C  2  Y    0.002153  -0.002584   0.000623   0.000377   0.006076
   24  C  2  Z   -0.001477   0.001225  -0.000926   0.001647  -0.006449
   25  C  2 XX   -0.000124  -0.000047  -0.000664   0.000267   0.001748
   26  C  2 YY    0.000154  -0.000115   0.000494  -0.000194   0.003537
   27  C  2 ZZ   -0.000030   0.000162   0.000169  -0.000073  -0.005286
   28  C  2 XY   -0.000355   0.000173   0.000051   0.000057  -0.008853
   29  C  2 XZ    0.000150  -0.000126   0.000699  -0.000269   0.002339
   30  C  2 YZ   -0.000123   0.000191   0.000073   0.000006  -0.006626
   31  F  3  S    0.707574  -0.696822   0.000045   0.000038  -0.167632
   32  F  3  S    0.024280  -0.023623   0.000230   0.000340   0.340803
   33  F  3  S   -0.011846   0.011338  -0.000370  -0.000077   0.351332
   34  F  3  X    0.000540  -0.000375  -0.000163  -0.000051   0.037502
   35  F  3  Y   -0.000637   0.000628   0.000109   0.000083  -0.049707
   36  F  3  Z    0.000250  -0.000332  -0.000050  -0.000028   0.021482
   37  F  3  X   -0.001793   0.001215  -0.000334  -0.000618   0.018256
   38  F  3  Y    0.001958  -0.001971   0.001049   0.000905  -0.024027
   39  F  3  Z   -0.000742   0.001078  -0.000517  -0.000471   0.010549
   40  F  3 XX   -0.000063  -0.000091   0.000127  -0.000043  -0.000055
   41  F  3 YY   -0.000092   0.000150  -0.000382  -0.000273   0.003036
   42  F  3 ZZ    0.000155  -0.000059   0.000254   0.000316  -0.002981
   43  F  3 XY    0.000257  -0.000236   0.000628   0.000648  -0.006529
   44  F  3 XZ   -0.000105   0.000155  -0.000342  -0.000208   0.002797
   45  F  3 YZ    0.000143  -0.000138   0.000422   0.000414  -0.004019
   46  H  4  S   -0.000434   0.000651  -0.001090  -0.000685   0.015503
   47  H  4  S    0.000330   0.000472   0.002570   0.002018   0.000756
   48  H  4  X    0.000182  -0.000011  -0.000298  -0.000430   0.001232
   49  H  4  Y   -0.000173   0.000264  -0.000881  -0.000821   0.003478
   50  H  4  Z    0.000132  -0.000123  -0.000204  -0.000145   0.000408
   51  H  5  S   -0.000541   0.000737  -0.000979  -0.000595   0.017468
   52  H  5  S   -0.000191   0.000240   0.003026   0.001940   0.003821
   53  H  5  X   -0.000027  -0.000207   0.000317   0.000129  -0.000603
   54  H  5  Y   -0.000244   0.000213   0.000091   0.000098   0.000229
   55  H  5  Z    0.000206  -0.000095   0.000850   0.000899  -0.004166
   56  F  6  S    0.696818   0.707578   0.000046  -0.000037  -0.167587
   57  F  6  S    0.023915   0.023992   0.000233  -0.000338   0.340711
   58  F  6  S   -0.011672  -0.011518  -0.000371   0.000074   0.351240
   59  F  6  X   -0.000534  -0.000383   0.000163  -0.000049  -0.037494
   60  F  6  Y   -0.000627  -0.000638   0.000110  -0.000082  -0.049692
   61  F  6  Z   -0.000245  -0.000336   0.000050  -0.000028  -0.021476
   62  F  6  X    0.001775   0.001242   0.000339  -0.000615  -0.018253
   63  F  6  Y    0.001928   0.002001   0.001057  -0.000896  -0.024021
   64  F  6  Z    0.000726   0.001089   0.000521  -0.000467  -0.010547
   65  F  6 XX   -0.000064   0.000090   0.000127   0.000044  -0.000054
   66  F  6 YY   -0.000090  -0.000151  -0.000384   0.000270   0.003035
   67  F  6 ZZ    0.000154   0.000061   0.000257  -0.000314  -0.002980
   68  F  6 XY   -0.000253  -0.000240  -0.000634   0.000642   0.006528
   69  F  6 XZ   -0.000103  -0.000156  -0.000343   0.000205   0.002797
   70  F  6 YZ   -0.000140  -0.000141  -0.000426   0.000411   0.004017
   71  H  7  S   -0.000424  -0.000658  -0.001096   0.000676   0.015501
   72  H  7  S    0.000337  -0.000467   0.002587  -0.001996   0.000758
   73  H  7  X   -0.000182  -0.000014   0.000302  -0.000427  -0.001232
   74  H  7  Y   -0.000169  -0.000267  -0.000888   0.000813   0.003477
   75  H  7  Z   -0.000131  -0.000125   0.000205  -0.000143  -0.000408
   76  H  8  S   -0.000530  -0.000745  -0.000984   0.000587   0.017467
   77  H  8  S   -0.000187  -0.000243   0.003042  -0.001914   0.003825
   78  H  8  X    0.000030  -0.000207  -0.000318   0.000127   0.000603
   79  H  8  Y   -0.000240  -0.000216   0.000091  -0.000097   0.000228
   80  H  8  Z   -0.000204  -0.000098  -0.000858   0.000892   0.004166

                      6          7          8          9         10
                   -1.0740    -0.7071    -0.5796    -0.4624    -0.4624
                     A          A          A          A          A   
    1  C  1  S   -0.035977  -0.150664   0.128387  -0.002168  -0.000639
    2  C  1  S    0.070719   0.309987  -0.279660   0.007698   0.014650
    3  C  1  S   -0.003333   0.177143  -0.151851  -0.003766  -0.023271
    4  C  1  X    0.045413  -0.097636  -0.095576   0.136446  -0.062750
    5  C  1  Y    0.047408  -0.037913   0.022601  -0.008224   0.284686
    6  C  1  Z    0.021637   0.032612   0.091564   0.262926   0.021504
    7  C  1  X    0.015309  -0.030192  -0.018694   0.029408  -0.035274
    8  C  1  Y    0.002631  -0.025651   0.024647  -0.022920   0.089450
    9  C  1  Z   -0.003420   0.002824   0.037570   0.111912  -0.013325
   10  C  1 XX   -0.002218   0.005511   0.004050  -0.005200  -0.002397
   11  C  1 YY    0.005607  -0.005050  -0.004887   0.003235   0.003352
   12  C  1 ZZ   -0.003389  -0.000461   0.000838   0.001965  -0.000955
   13  C  1 XY    0.010736  -0.000159  -0.000805   0.003640   0.000907
   14  C  1 XZ    0.005261  -0.007648  -0.007740  -0.000424  -0.000569
   15  C  1 YZ    0.006270  -0.000535   0.000169   0.007724   0.010856
   16  C  2  S    0.035965  -0.150666  -0.128386   0.002162  -0.000653
   17  C  2  S   -0.070699   0.309976   0.279664  -0.007593   0.014694
   18  C  2  S    0.003347   0.177217   0.151835   0.003613  -0.023263
   19  C  2  X    0.045404   0.097636  -0.095571   0.136864   0.061819
   20  C  2  Y   -0.047397  -0.037913  -0.022601   0.010166   0.284628
   21  C  2  Z    0.021631  -0.032614   0.091559   0.262790  -0.023295
   22  C  2  X    0.015308   0.030212  -0.018691   0.029648   0.035091
   23  C  2  Y   -0.002629  -0.025651  -0.024646   0.023529   0.089301
   24  C  2  Z   -0.003419  -0.002837   0.037567   0.112009   0.012552
   25  C  2 XX    0.002219   0.005512  -0.004050   0.005184  -0.002433
   26  C  2 YY   -0.005607  -0.005050   0.004887  -0.003213   0.003375
   27  C  2 ZZ    0.003388  -0.000461  -0.000838  -0.001971  -0.000942
   28  C  2 XY    0.010733   0.000159  -0.000806   0.003634  -0.000932
   29  C  2 XZ   -0.005260  -0.007648   0.007739   0.000420  -0.000573
   30  C  2 YZ    0.006269   0.000534   0.000170   0.007650  -0.010910
   31  F  3  S    0.171852   0.056315   0.045326  -0.026225   0.029575
   32  F  3  S   -0.349722  -0.122920  -0.099372   0.053931  -0.062142
   33  F  3  S   -0.364584  -0.141197  -0.122112   0.087599  -0.093734
   34  F  3  X   -0.034300   0.058952   0.062989  -0.111060   0.250662
   35  F  3  Y    0.049358  -0.063424  -0.134084   0.227911  -0.102362
   36  F  3  Z   -0.021613   0.019272   0.089032   0.064788   0.095543
   37  F  3  X   -0.017043   0.032803   0.038089  -0.068133   0.156930
   38  F  3  Y    0.024662  -0.037698  -0.081545   0.137860  -0.063627
   39  F  3  Z   -0.009971   0.013621   0.054472   0.038795   0.055947
   40  F  3 XX    0.000527   0.000768  -0.002867   0.000782   0.006306
   41  F  3 YY   -0.003204   0.001572   0.004188  -0.007409  -0.003902
   42  F  3 ZZ    0.002677  -0.002341  -0.001321   0.006627  -0.002404
   43  F  3 XY    0.006312  -0.004633  -0.004459   0.006387  -0.007887
   44  F  3 XZ   -0.002718   0.001371   0.003774   0.002831   0.004492
   45  F  3 YZ    0.003852  -0.001766  -0.005540  -0.001420  -0.002543
   46  H  4  S   -0.014182   0.114956   0.160230  -0.085206  -0.188912
   47  H  4  S    0.000363  -0.007008   0.014007  -0.009893  -0.040589
   48  H  4  X   -0.001190   0.007162   0.005092  -0.000658  -0.006576
   49  H  4  Y   -0.003243   0.009247   0.010960  -0.005386  -0.005225
   50  H  4  Z   -0.000083   0.001756   0.004057   0.004802  -0.002137
   51  H  5  S   -0.012445   0.108939   0.169416   0.190518   0.017523
   52  H  5  S    0.001439  -0.005784   0.011679   0.018749  -0.014185
   53  H  5  X    0.001166  -0.000447  -0.003756   0.002677   0.001915
   54  H  5  Y   -0.000138  -0.002262  -0.002773  -0.001333   0.006278
   55  H  5  Z    0.002703  -0.011052  -0.012644  -0.008525  -0.002268
   56  F  6  S   -0.171896   0.056313  -0.045327   0.026427   0.029394
   57  F  6  S    0.349813  -0.122919   0.099373  -0.054355  -0.061771
   58  F  6  S    0.364676  -0.141183   0.122116  -0.088237  -0.093122
   59  F  6  X   -0.034312  -0.058952   0.062995  -0.112775  -0.249892
   60  F  6  Y   -0.049369  -0.063420   0.134081  -0.228600  -0.100788
   61  F  6  Z   -0.021618  -0.019273   0.089033   0.064120  -0.095977
   62  F  6  X   -0.017047  -0.032807   0.038093  -0.069207  -0.156460
   63  F  6  Y   -0.024666  -0.037700   0.081542  -0.138289  -0.062677
   64  F  6  Z   -0.009973  -0.013622   0.054472   0.038404  -0.056208
   65  F  6 XX   -0.000527   0.000769   0.002866  -0.000739   0.006311
   66  F  6 YY    0.003205   0.001572  -0.004187   0.007382  -0.003953
   67  F  6 ZZ   -0.002678  -0.002341   0.001321  -0.006643  -0.002358
   68  F  6 XY    0.006313   0.004633  -0.004460   0.006441   0.007843
   69  F  6 XZ    0.002719   0.001371  -0.003775  -0.002800   0.004512
   70  F  6 YZ    0.003853   0.001766  -0.005540  -0.001402   0.002552
   71  H  7  S    0.014186   0.114960  -0.160234   0.083907  -0.189485
   72  H  7  S   -0.000364  -0.007000  -0.014001   0.009615  -0.040659
   73  H  7  X   -0.001191  -0.007163   0.005092  -0.000613   0.006580
   74  H  7  Y    0.003243   0.009248  -0.010960   0.005349  -0.005261
   75  H  7  Z   -0.000083  -0.001755   0.004056   0.004817   0.002104
   76  H  8  S    0.012448   0.108942  -0.169415  -0.190382   0.018832
   77  H  8  S   -0.001442  -0.005779  -0.011675  -0.018845  -0.014056
   78  H  8  X    0.001166   0.000447  -0.003756   0.002664  -0.001933
   79  H  8  Y    0.000138  -0.002263   0.002773   0.001376   0.006269
   80  H  8  Z    0.002703   0.011053  -0.012644  -0.008509   0.002327

                     11         12         13         14         15
                   -0.4305    -0.4071    -0.3963    -0.3277    -0.3000
                     A          A          A          A          A   
    1  C  1  S   -0.002873   0.014251   0.006459   0.026061   0.001924
    2  C  1  S    0.002526  -0.025708  -0.007265  -0.056948  -0.005359
    3  C  1  S    0.011642  -0.050380  -0.033154  -0.123334   0.006887
    4  C  1  X   -0.308317  -0.029445   0.016025   0.049571   0.034934
    5  C  1  Y   -0.026924   0.256306  -0.030309   0.022422  -0.092017
    6  C  1  Z    0.086860  -0.013488   0.275957   0.021442   0.149574
    7  C  1  X   -0.112836  -0.039731  -0.001132   0.060903  -0.018509
    8  C  1  Y    0.017900   0.079828  -0.028154   0.053503  -0.020740
    9  C  1  Z    0.049694  -0.012230   0.121913  -0.021915   0.005917
   10  C  1 XX   -0.001740  -0.001648   0.009610   0.015335   0.000788
   11  C  1 YY   -0.004560   0.005824   0.000902  -0.007094   0.019339
   12  C  1 ZZ    0.006300  -0.004176  -0.010512  -0.008241  -0.020127
   13  C  1 XY   -0.010007   0.021226   0.003321   0.007281   0.003525
   14  C  1 XZ   -0.009474   0.001346   0.007996  -0.002241  -0.005969
   15  C  1 YZ   -0.001126   0.004524   0.008462  -0.007434  -0.004712
   16  C  2  S   -0.002873  -0.014250   0.006460  -0.026060   0.001922
   17  C  2  S    0.002507   0.025707  -0.007277   0.056948  -0.005360
   18  C  2  S    0.011754   0.050378  -0.033101   0.123323   0.006915
   19  C  2  X    0.308322  -0.029468  -0.016014   0.049567  -0.034961
   20  C  2  Y   -0.026942  -0.256300  -0.030285  -0.022421  -0.092055
   21  C  2  Z   -0.086853  -0.013506  -0.275948   0.021442  -0.149625
   22  C  2  X    0.112879  -0.039740   0.001160   0.060901   0.018513
   23  C  2  Y    0.017898  -0.079825  -0.028144  -0.053504  -0.020744
   24  C  2  Z   -0.049718  -0.012239  -0.121918  -0.021919  -0.005945
   25  C  2 XX   -0.001739   0.001649   0.009610  -0.015334   0.000785
   26  C  2 YY   -0.004561  -0.005824   0.000902   0.007094   0.019345
   27  C  2 ZZ    0.006300   0.004175  -0.010512   0.008241  -0.020131
   28  C  2 XY    0.010009   0.021225  -0.003322   0.007282  -0.003521
   29  C  2 XZ   -0.009475  -0.001344   0.007995   0.002241  -0.005974
   30  C  2 YZ    0.001126   0.004523  -0.008462  -0.007434   0.004716
   31  F  3  S   -0.020090  -0.016545   0.006274  -0.001723  -0.002756
   32  F  3  S    0.042557   0.031975  -0.011177   0.000454   0.005177
   33  F  3  S    0.056415   0.049099  -0.018675   0.019556   0.020505
   34  F  3  X    0.030644  -0.250498   0.070813   0.351013   0.174817
   35  F  3  Y    0.266388   0.119393  -0.232064   0.180484   0.202971
   36  F  3  Z   -0.194979  -0.199315  -0.177090  -0.270035   0.306029
   37  F  3  X    0.013637  -0.155416   0.041651   0.237098   0.120491
   38  F  3  Y    0.167670   0.075148  -0.148553   0.119813   0.142340
   39  F  3  Z   -0.119364  -0.127919  -0.112629  -0.178805   0.212851
   40  F  3 XX    0.008347  -0.003050  -0.000353   0.008622   0.003212
   41  F  3 YY   -0.007818   0.003469   0.008316  -0.005548  -0.004556
   42  F  3 ZZ   -0.000529  -0.000419  -0.007963  -0.003073   0.001344
   43  F  3 XY    0.001172   0.006622  -0.005056  -0.005220   0.000204
   44  F  3 XZ   -0.002849  -0.006252  -0.003881  -0.000274   0.004180
   45  F  3 YZ    0.008325   0.004953   0.004202   0.006397  -0.002749
   46  H  4  S   -0.082984   0.215543   0.055657   0.035483   0.141076
   47  H  4  S   -0.013567   0.060904   0.009236  -0.010012   0.083887
   48  H  4  X    0.003548   0.004872   0.000613   0.002590   0.004181
   49  H  4  Y   -0.006336   0.004947   0.002853   0.000029   0.001489
   50  H  4  Z   -0.002510   0.001846  -0.006214   0.001668  -0.003387
   51  H  5  S   -0.027309  -0.018274  -0.231267   0.065661  -0.205398
   52  H  5  S    0.003036  -0.010025  -0.058715   0.011291  -0.129677
   53  H  5  X    0.006967   0.000062   0.003681  -0.000922  -0.001979
   54  H  5  Y   -0.000164  -0.006171   0.001413  -0.002298   0.000441
   55  H  5  Z    0.001193   0.001745   0.007327  -0.001773   0.004250
   56  F  6  S   -0.020089   0.016547   0.006274   0.001723  -0.002757
   57  F  6  S    0.042551  -0.031979  -0.011179  -0.000455   0.005176
   58  F  6  S    0.056422  -0.049108  -0.018671  -0.019555   0.020515
   59  F  6  X   -0.030641  -0.250516  -0.070809   0.351010  -0.174761
   60  F  6  Y    0.266367  -0.119416  -0.232071  -0.180505   0.202846
   61  F  6  Z    0.194968  -0.199313   0.177109  -0.270044  -0.305886
   62  F  6  X   -0.013641  -0.155427  -0.041652   0.237096  -0.120455
   63  F  6  Y    0.167652  -0.075162  -0.148560  -0.119828   0.142253
   64  F  6  Z    0.119357  -0.127918   0.112641  -0.178812  -0.212751
   65  F  6 XX    0.008347   0.003050  -0.000353  -0.008622   0.003211
   66  F  6 YY   -0.007817  -0.003469   0.008317   0.005549  -0.004553
   67  F  6 ZZ   -0.000530   0.000418  -0.007963   0.003073   0.001342
   68  F  6 XY   -0.001172   0.006622   0.005056  -0.005219  -0.000204
   69  F  6 XZ   -0.002849   0.006252  -0.003882   0.000274   0.004179
   70  F  6 YZ   -0.008324   0.004953  -0.004202   0.006397   0.002747
   71  H  7  S   -0.082993  -0.215539   0.055672  -0.035484   0.140999
   72  H  7  S   -0.013566  -0.060903   0.009241   0.010012   0.083855
   73  H  7  X   -0.003548   0.004873  -0.000613   0.002591  -0.004180
   74  H  7  Y   -0.006336  -0.004946   0.002854  -0.000029   0.001488
   75  H  7  Z    0.002510   0.001846   0.006215   0.001668   0.003387
   76  H  8  S   -0.027304   0.018267  -0.231271  -0.065658  -0.205341
   77  H  8  S    0.003040   0.010024  -0.058713  -0.011285  -0.129667
   78  H  8  X   -0.006968   0.000063  -0.003681  -0.000922   0.001978
   79  H  8  Y   -0.000163   0.006171   0.001413   0.002299   0.000441
   80  H  8  Z   -0.001192   0.001745  -0.007327  -0.001773  -0.004249

                     16         17         18         19         20
                   -0.2962    -0.2844     0.0210     0.0218     0.0418
                     A          A          A          A          A   
    1  C  1  S    0.000959   0.020999   0.033178  -0.083287  -0.007714
    2  C  1  S   -0.002652  -0.059091  -0.023951   0.192471   0.051229
    3  C  1  S    0.001899  -0.086152  -0.745308   0.872625  -0.360972
    4  C  1  X   -0.066866   0.229395  -0.014832   0.196685   0.196740
    5  C  1  Y    0.094687  -0.055701   0.277443   0.160515   0.190913
    6  C  1  Z   -0.106979  -0.133640   0.114342   0.029922   0.210453
    7  C  1  X   -0.015936   0.052583  -0.045710   0.397553   0.362239
    8  C  1  Y    0.003908  -0.001706   0.469225   0.226510   0.338684
    9  C  1  Z   -0.048757  -0.066181   0.188635  -0.010848   0.450283
   10  C  1 XX    0.006085  -0.016425   0.003092   0.013571  -0.015608
   11  C  1 YY   -0.014010   0.011621   0.000704  -0.007841  -0.018043
   12  C  1 ZZ    0.007925   0.004804  -0.003796  -0.005730   0.033651
   13  C  1 XY    0.007565  -0.008856  -0.030242  -0.032633  -0.006425
   14  C  1 XZ    0.011554   0.008969   0.000593  -0.009903  -0.017978
   15  C  1 YZ    0.006776   0.005729  -0.003445  -0.004225  -0.021070
   16  C  2  S   -0.000960   0.020999   0.033187  -0.083289   0.007719
   17  C  2  S    0.002654  -0.059067  -0.023959   0.192449  -0.051250
   18  C  2  S   -0.001900  -0.086279  -0.745420   0.872773   0.360963
   19  C  2  X   -0.066849  -0.229399   0.014853  -0.196684   0.196735
   20  C  2  Y   -0.094640  -0.055704   0.277430   0.160495  -0.190958
   21  C  2  Z   -0.106910   0.133637  -0.114311  -0.029899   0.210442
   22  C  2  X   -0.015943  -0.052643   0.045752  -0.397521   0.362235
   23  C  2  Y   -0.003895  -0.001718   0.469247   0.226489  -0.338769
   24  C  2  Z   -0.048749   0.066216  -0.188579   0.010886   0.450263
   25  C  2 XX   -0.006085  -0.016426   0.003095   0.013574   0.015606
   26  C  2 YY    0.014001   0.011621   0.000704  -0.007841   0.018044
   27  C  2 ZZ   -0.007916   0.004805  -0.003799  -0.005733  -0.033650
   28  C  2 XY    0.007567   0.008856   0.030242   0.032632  -0.006430
   29  C  2 XZ   -0.011551   0.008970   0.000595  -0.009901   0.017979
   30  C  2 YZ    0.006775  -0.005728   0.003445   0.004223  -0.021068
   31  F  3  S    0.001471   0.000613   0.034180   0.042299  -0.041838
   32  F  3  S   -0.001126  -0.003851  -0.073696  -0.080395   0.076153
   33  F  3  S   -0.019217   0.007940  -0.224227  -0.329808   0.343263
   34  F  3  X    0.111317   0.329093  -0.113678  -0.126277   0.082269
   35  F  3  Y    0.283764   0.092031   0.064536   0.197602  -0.168241
   36  F  3  Z    0.316964  -0.229250  -0.010394  -0.119580   0.086327
   37  F  3  X    0.074702   0.235941  -0.113067  -0.110767   0.091859
   38  F  3  Y    0.195649   0.061375   0.053129   0.207178  -0.170525
   39  F  3  Z    0.220203  -0.162519  -0.009311  -0.129816   0.067046
   40  F  3 XX    0.002327   0.003724   0.003445   0.000983   0.002065
   41  F  3 YY   -0.005819  -0.001529  -0.002245   0.002161  -0.002104
   42  F  3 ZZ    0.003492  -0.002194  -0.001200  -0.003144   0.000040
   43  F  3 XY    0.001202  -0.002212   0.000855  -0.001652   0.003937
   44  F  3 XZ    0.003477  -0.000038   0.000795   0.001419  -0.000434
   45  F  3 YZ   -0.002999   0.003090   0.001424  -0.003647  -0.000795
   46  H  4  S    0.162172   0.134600   0.109433   0.069233   0.079283
   47  H  4  S    0.075999   0.090691   0.986734  -0.331901   0.122882
   48  H  4  X    0.003025  -0.002056  -0.014120  -0.013687   0.005518
   49  H  4  Y    0.001811   0.002608  -0.009874   0.012164  -0.007931
   50  H  4  Z   -0.000917   0.004925  -0.007665   0.000971   0.010768
   51  H  5  S   -0.133238   0.075239  -0.012405  -0.085193  -0.157907
   52  H  5  S   -0.025054   0.052627   0.277747  -0.503605  -0.902396
   53  H  5  X   -0.001633  -0.004479   0.002794  -0.007259   0.012361
   54  H  5  Y    0.000403  -0.002361   0.010780   0.009724  -0.013146
   55  H  5  Z    0.003141  -0.000472   0.003816  -0.008382  -0.012810
   56  F  6  S   -0.001469   0.000613   0.034184   0.042302   0.041834
   57  F  6  S    0.001123  -0.003848  -0.073701  -0.080403  -0.076145
   58  F  6  S    0.019207   0.007925  -0.224258  -0.329815  -0.343229
   59  F  6  X    0.111402  -0.329076   0.113691   0.126297   0.082259
   60  F  6  Y   -0.283864   0.092033   0.064553   0.197608   0.168221
   61  F  6  Z    0.317089   0.229261   0.010398   0.119583   0.086313
   62  F  6  X    0.074761  -0.235921   0.113083   0.110780   0.091851
   63  F  6  Y   -0.195719   0.061381   0.053153   0.207177   0.170505
   64  F  6  Z    0.220290   0.162528   0.009313   0.129813   0.067034
   65  F  6 XX   -0.002328   0.003723   0.003445   0.000983  -0.002065
   66  F  6 YY    0.005821  -0.001529  -0.002245   0.002161   0.002104
   67  F  6 ZZ   -0.003492  -0.002194  -0.001200  -0.003144  -0.000039
   68  F  6 XY    0.001203   0.002211  -0.000855   0.001653   0.003936
   69  F  6 XZ   -0.003479  -0.000038   0.000795   0.001419   0.000434
   70  F  6 YZ   -0.003000  -0.003090  -0.001424   0.003647  -0.000795
   71  H  7  S   -0.162236   0.134597   0.109410   0.069237  -0.079298
   72  H  7  S   -0.076036   0.090691   0.986629  -0.331869  -0.122966
   73  H  7  X    0.003027   0.002057   0.014121   0.013686   0.005517
   74  H  7  Y   -0.001811   0.002608  -0.009874   0.012165   0.007931
   75  H  7  Z   -0.000919  -0.004925   0.007665  -0.000969   0.010768
   76  H  8  S    0.133335   0.075230  -0.012398  -0.085171   0.157921
   77  H  8  S    0.025111   0.052626   0.277755  -0.503498   0.902469
   78  H  8  X   -0.001633   0.004479  -0.002792   0.007259   0.012360
   79  H  8  Y   -0.000403  -0.002361   0.010780   0.009725   0.013145
   80  H  8  Z    0.003143   0.000471  -0.003817   0.008382  -0.012811

                     21         22         23         24         25
                    0.0612     0.0787     0.0841     0.1552     0.3527
                     A          A          A          A          A   
    1  C  1  S   -0.105223   0.002900   0.007270   0.076636   0.000702
    2  C  1  S    0.210423  -0.018552  -0.007992  -0.089334   0.063793
    3  C  1  S    1.293518   0.199480  -0.210219  -1.863764   0.510488
    4  C  1  X    0.115350   0.019149   0.129448   0.302321  -0.407084
    5  C  1  Y    0.034639  -0.277622  -0.098955  -0.062361  -0.156292
    6  C  1  Z   -0.024699   0.147125   0.256485  -0.229486   0.188723
    7  C  1  X    0.186893   0.092000   0.443992   1.710746   0.680742
    8  C  1  Y    0.012935  -0.894435  -0.250690  -0.457871   0.075962
    9  C  1  Z   -0.096221   0.344628   0.841168  -1.040273  -0.775621
   10  C  1 XX   -0.002532  -0.007315   0.005505   0.027513   0.035153
   11  C  1 YY   -0.005684   0.001043  -0.013142  -0.017844  -0.019067
   12  C  1 ZZ    0.008216   0.006272   0.007636  -0.009669  -0.016086
   13  C  1 XY   -0.000063   0.004022   0.003155   0.005920   0.019584
   14  C  1 XZ   -0.004283   0.001897   0.008992  -0.032739  -0.052337
   15  C  1 YZ   -0.007454   0.015748  -0.008024   0.018332   0.023534
   16  C  2  S    0.105217  -0.002903   0.007265  -0.076636   0.000695
   17  C  2  S   -0.210409   0.018559  -0.007979   0.089319   0.063807
   18  C  2  S   -1.293473  -0.199430  -0.210196   1.863786   0.510521
   19  C  2  X    0.115319   0.019158  -0.129479   0.302303   0.407130
   20  C  2  Y   -0.034656   0.277624  -0.098898   0.062371  -0.156230
   21  C  2  Z   -0.024701   0.147162  -0.256476  -0.229480  -0.188782
   22  C  2  X    0.186866   0.092045  -0.444037   1.710743  -0.680745
   23  C  2  Y   -0.012967   0.894439  -0.250552   0.457911   0.075770
   24  C  2  Z   -0.096265   0.344765  -0.841155  -1.040299   0.775671
   25  C  2 XX    0.002532   0.007314   0.005506  -0.027515   0.035145
   26  C  2 YY    0.005684  -0.001043  -0.013144   0.017843  -0.019063
   27  C  2 ZZ   -0.008216  -0.006272   0.007638   0.009671  -0.016082
   28  C  2 XY   -0.000065   0.004022  -0.003154   0.005919  -0.019582
   29  C  2 XZ    0.004284  -0.001897   0.008989   0.032740  -0.052333
   30  C  2 YZ   -0.007454   0.015747   0.008026   0.018332  -0.023536
   31  F  3  S   -0.027492   0.025720   0.020086   0.001816  -0.003455
   32  F  3  S    0.050628  -0.039465  -0.036114   0.017068   0.029069
   33  F  3  S    0.221224  -0.254398  -0.177991  -0.110365  -0.090512
   34  F  3  X    0.096501  -0.022452   0.002901  -0.096846   0.113703
   35  F  3  Y   -0.129126   0.053776   0.064273   0.000879  -0.051651
   36  F  3  Z    0.036035  -0.061808   0.046225   0.032807  -0.059514
   37  F  3  X    0.111171  -0.064404   0.001080  -0.186960   0.099231
   38  F  3  Y   -0.147669   0.049079   0.104058   0.008275   0.022899
   39  F  3  Z    0.051645  -0.093942   0.056920   0.066633  -0.116478
   40  F  3 XX    0.002689  -0.000465  -0.004306   0.002250   0.003366
   41  F  3 YY   -0.001815  -0.002575   0.003403   0.001336  -0.006270
   42  F  3 ZZ   -0.000874   0.003040   0.000902  -0.003586   0.002903
   43  F  3 XY    0.002919   0.001136   0.000359  -0.005782   0.008683
   44  F  3 XZ   -0.000677   0.004215  -0.003408   0.006865  -0.008392
   45  F  3 YZ    0.003313  -0.001814   0.003443   0.007294   0.002922
   46  H  4  S    0.096103   0.028753  -0.021930   0.099093  -0.195647
   47  H  4  S    0.906334   1.321930  -0.922236   0.578954   0.089431
   48  H  4  X   -0.005708  -0.012975  -0.000794   0.010202  -0.004642
   49  H  4  Y   -0.013444  -0.007325   0.014182  -0.008538   0.001510
   50  H  4  Z    0.002941  -0.007267  -0.007347  -0.020491   0.024809
   51  H  5  S    0.026555   0.000222   0.047298   0.087886  -0.281796
   52  H  5  S    0.793175  -0.902024   1.377255   0.354538  -0.167996
   53  H  5  X    0.005504  -0.005806   0.004176   0.018095  -0.020246
   54  H  5  Y   -0.002735   0.009471   0.004663   0.010007  -0.013125
   55  H  5  Z    0.010438  -0.010770   0.016228   0.002531   0.010474
   56  F  6  S    0.027492  -0.025722   0.020079  -0.001814  -0.003454
   57  F  6  S   -0.050627   0.039468  -0.036100  -0.017068   0.029076
   58  F  6  S   -0.221230   0.254421  -0.177930   0.110324  -0.090576
   59  F  6  X    0.096506  -0.022457  -0.002909  -0.096847  -0.113725
   60  F  6  Y    0.129131  -0.053780   0.064249  -0.000874  -0.051663
   61  F  6  Z    0.036035  -0.061802  -0.046237   0.032815   0.059523
   62  F  6  X    0.111181  -0.064412  -0.001092  -0.186948  -0.099216
   63  F  6  Y    0.147676  -0.049086   0.104033  -0.008257   0.022898
   64  F  6  Z    0.051643  -0.093931  -0.056936   0.066643   0.116486
   65  F  6 XX   -0.002690   0.000465  -0.004305  -0.002251   0.003362
   66  F  6 YY    0.001815   0.002575   0.003404  -0.001336  -0.006269
   67  F  6 ZZ    0.000874  -0.003040   0.000902   0.003587   0.002906
   68  F  6 XY    0.002919   0.001137  -0.000359  -0.005782  -0.008687
   69  F  6 XZ    0.000678  -0.004215  -0.003409  -0.006864  -0.008392
   70  F  6 YZ    0.003313  -0.001813  -0.003444   0.007294  -0.002922
   71  H  7  S   -0.096111  -0.028755  -0.021922  -0.099059  -0.195598
   72  H  7  S   -0.906463  -1.321863  -0.922279  -0.579022   0.089410
   73  H  7  X   -0.005709  -0.012976   0.000792   0.010203   0.004641
   74  H  7  Y    0.013447   0.007324   0.014180   0.008541   0.001514
   75  H  7  Z    0.002941  -0.007266   0.007347  -0.020491  -0.024810
   76  H  8  S   -0.026556  -0.000229   0.047303  -0.087870  -0.281788
   77  H  8  S   -0.793113   0.901868   1.377348  -0.354495  -0.167959
   78  H  8  X    0.005504  -0.005806  -0.004179   0.018095   0.020249
   79  H  8  Y    0.002735  -0.009471   0.004661  -0.010006  -0.013124
   80  H  8  Z    0.010438  -0.010769  -0.016229   0.002530  -0.010472

                     26         27         28         29         30
                    0.3805     0.3833     0.4464     0.4599     0.4657
                     A          A          A          A          A   
    1  C  1  S   -0.036173   0.033556  -0.022145  -0.063723   0.039141
    2  C  1  S    0.261054  -0.281112   0.207091   0.397765  -0.207062
    3  C  1  S   -0.171199   0.108682  -0.914829  -1.158445   0.155456
    4  C  1  X    0.233188  -0.260049  -0.287629  -0.553445  -0.102530
    5  C  1  Y    0.514701  -0.367486   0.075864  -0.032203   0.085672
    6  C  1  Z    0.166766  -0.360519   0.288722   0.139444   0.193778
    7  C  1  X   -0.267831   0.388153   1.003137   1.239008  -0.493817
    8  C  1  Y   -0.876896   0.540982  -1.166067   0.286657   0.159336
    9  C  1  Z   -0.399223   0.831905  -0.473958  -0.730367  -1.000519
   10  C  1 XX    0.012665  -0.010849  -0.068637  -0.007900  -0.023700
   11  C  1 YY    0.009342   0.028894  -0.027855   0.064375   0.059653
   12  C  1 ZZ   -0.022006  -0.018045   0.096492  -0.056475  -0.035953
   13  C  1 XY   -0.020140   0.017041   0.018605   0.000752  -0.084380
   14  C  1 XZ   -0.016195   0.021047   0.007677   0.046717  -0.006707
   15  C  1 YZ   -0.005325  -0.005003   0.029336   0.013722  -0.000398
   16  C  2  S    0.036179   0.033557   0.022137   0.063724   0.039143
   17  C  2  S   -0.261087  -0.281127  -0.207064  -0.397770  -0.207091
   18  C  2  S    0.171255   0.108755   0.914927   1.158467   0.155551
   19  C  2  X    0.233235   0.260003  -0.287636  -0.553442   0.102482
   20  C  2  Y   -0.514753  -0.367470  -0.075923   0.032199   0.085706
   21  C  2  Z    0.166731   0.360515   0.288702   0.139412  -0.193712
   22  C  2  X   -0.267857  -0.388087   1.003014   1.239028   0.493902
   23  C  2  Y    0.876972   0.540974   1.166076  -0.286621   0.159442
   24  C  2  Z   -0.399111  -0.831879  -0.473915  -0.730266   1.000533
   25  C  2 XX   -0.012666  -0.010846   0.068642   0.007899  -0.023682
   26  C  2 YY   -0.009338   0.028895   0.027838  -0.064374   0.059662
   27  C  2 ZZ    0.022004  -0.018049  -0.096480   0.056475  -0.035980
   28  C  2 XY   -0.020141  -0.017040   0.018578   0.000754   0.084386
   29  C  2 XZ    0.016192   0.021044  -0.007679  -0.046720  -0.006704
   30  C  2 YZ   -0.005331   0.005004   0.029339   0.013715   0.000413
   31  F  3  S    0.001075   0.010907   0.001335  -0.021186  -0.019480
   32  F  3  S    0.069028   0.028232   0.053412   0.058458   0.037981
   33  F  3  S   -0.408185  -0.407893  -0.290717   0.157586   0.210965
   34  F  3  X    0.151657   0.079414   0.070449  -0.025209  -0.150427
   35  F  3  Y   -0.137587  -0.183276  -0.087675   0.034805  -0.123957
   36  F  3  Z    0.104220   0.087965  -0.159651   0.079052  -0.039305
   37  F  3  X   -0.043086  -0.061214  -0.142929  -0.010165   0.052113
   38  F  3  Y    0.028120   0.067498   0.004633  -0.048352  -0.109238
   39  F  3  Z   -0.010192   0.027861  -0.017701   0.081795  -0.038426
   40  F  3 XX   -0.006110   0.005836  -0.013549  -0.012722   0.015611
   41  F  3 YY   -0.008970  -0.017360   0.000246   0.012951  -0.013139
   42  F  3 ZZ    0.015079   0.011524   0.013303  -0.000229  -0.002472
   43  F  3 XY    0.025065   0.033110   0.013609  -0.001145  -0.007336
   44  F  3 XZ   -0.015037  -0.007911   0.014480   0.000934   0.001296
   45  F  3 YZ    0.021591   0.016513  -0.005514  -0.007080   0.000778
   46  H  4  S   -0.026805   0.227269   0.524131  -0.055150   0.765418
   47  H  4  S    0.103822  -0.028466   0.253744   0.330653  -0.269937
   48  H  4  X    0.027678  -0.006026  -0.009587  -0.020319  -0.008939
   49  H  4  Y    0.008798  -0.004973  -0.005203   0.006496  -0.044430
   50  H  4  Z   -0.018419   0.003810   0.004744  -0.006329   0.011696
   51  H  5  S    0.328266   0.091372  -0.401894   0.519221  -0.125423
   52  H  5  S   -0.009626   0.151853   0.453854  -0.075306  -0.282134
   53  H  5  X   -0.007590   0.025936  -0.003233  -0.021276  -0.001821
   54  H  5  Y   -0.010186   0.005318   0.034746  -0.004591   0.025327
   55  H  5  Z    0.012284  -0.025151  -0.025666   0.038400   0.026107
   56  F  6  S   -0.001076   0.010907  -0.001333   0.021185  -0.019482
   57  F  6  S   -0.069020   0.028232  -0.053408  -0.058454   0.037980
   58  F  6  S    0.408165  -0.407904   0.290668  -0.157586   0.211000
   59  F  6  X    0.151653  -0.079422   0.070396  -0.025205   0.150429
   60  F  6  Y    0.137556  -0.183276   0.087696  -0.034816  -0.123949
   61  F  6  Z    0.104219  -0.087977  -0.159639   0.079054   0.039252
   62  F  6  X   -0.043096   0.061217  -0.142931  -0.010164  -0.052138
   63  F  6  Y   -0.028124   0.067500  -0.004605   0.048348  -0.109242
   64  F  6  Z   -0.010181  -0.027865  -0.017684   0.081805   0.038422
   65  F  6 XX    0.006113   0.005835   0.013545   0.012723   0.015614
   66  F  6 YY    0.008966  -0.017359  -0.000244  -0.012951  -0.013139
   67  F  6 ZZ   -0.015079   0.011524  -0.013301   0.000228  -0.002474
   68  F  6 XY    0.025063  -0.033111   0.013607  -0.001145   0.007336
   69  F  6 XZ    0.015036  -0.007913  -0.014482  -0.000936   0.001291
   70  F  6 YZ    0.021588  -0.016515  -0.005513  -0.007081  -0.000782
   71  H  7  S    0.026853   0.227262  -0.524333   0.055174   0.765306
   72  H  7  S   -0.103844  -0.028457  -0.253634  -0.330649  -0.269924
   73  H  7  X    0.027678   0.006021  -0.009591  -0.020319   0.008934
   74  H  7  Y   -0.008798  -0.004972   0.005214  -0.006497  -0.044426
   75  H  7  Z   -0.018422  -0.003808   0.004743  -0.006331  -0.011694
   76  H  8  S   -0.328288   0.091405   0.401907  -0.519234  -0.125278
   77  H  8  S    0.009611   0.151848  -0.453927   0.075274  -0.282215
   78  H  8  X   -0.007590  -0.025937  -0.003228  -0.021273   0.001822
   79  H  8  Y    0.010185   0.005316  -0.034752   0.004590   0.025320
   80  H  8  Z    0.012282   0.025150  -0.025668   0.038397  -0.026115

                     31         32         33         34         35
                    0.5300     0.5417     0.5522     0.5794     0.7850
                     A          A          A          A          A   
    1  C  1  S   -0.028660  -0.037733  -0.040389   0.058963   0.022457
    2  C  1  S    0.164005   0.286255   0.321185  -0.464647  -1.286266
    3  C  1  S   -0.376141  -0.411791  -0.343430   0.163456   2.641625
    4  C  1  X    0.358786  -0.018485   0.312949  -0.049520   0.134805
    5  C  1  Y   -0.461423   0.182873  -0.444459   0.045172   0.148909
    6  C  1  Z    0.125796  -0.469709   0.313149   0.520981   0.012794
    7  C  1  X   -0.904760  -0.010543  -0.713546   0.562471   0.192013
    8  C  1  Y    0.848928  -0.336397   1.048923   0.464453  -0.332222
    9  C  1  Z   -0.962559   0.334307  -0.648148  -1.298421  -0.409127
   10  C  1 XX    0.000583   0.017727   0.008923  -0.036125  -0.052314
   11  C  1 YY    0.001698   0.068166  -0.041136   0.008656   0.049346
   12  C  1 ZZ   -0.002281  -0.085893   0.032213   0.027469   0.002968
   13  C  1 XY    0.046503  -0.013322   0.034137  -0.029013   0.031584
   14  C  1 XZ   -0.008996  -0.048653  -0.004306   0.020786   0.036637
   15  C  1 YZ    0.005162   0.027246   0.027893  -0.034078   0.011948
   16  C  2  S   -0.028672  -0.037751   0.040365  -0.058964   0.022447
   17  C  2  S    0.164145   0.286441  -0.321023   0.464696  -1.286402
   18  C  2  S   -0.376439  -0.412049   0.343158  -0.163558   2.642442
   19  C  2  X   -0.358833   0.018321   0.312878  -0.049506  -0.134804
   20  C  2  Y   -0.461493   0.182637   0.444442  -0.045187   0.148926
   21  C  2  Z   -0.125875   0.469610   0.313366   0.520967  -0.012781
   22  C  2  X    0.904801   0.010905  -0.713366   0.562438  -0.191742
   23  C  2  Y    0.849005  -0.335849  -1.048886  -0.464414  -0.332288
   24  C  2  Z    0.962748  -0.334082  -0.648217  -1.298510   0.408884
   25  C  2 XX    0.000584   0.017736  -0.008915   0.036130  -0.052307
   26  C  2 YY    0.001690   0.068151   0.041166  -0.008658   0.049344
   27  C  2 ZZ   -0.002274  -0.085887  -0.032250  -0.027471   0.002964
   28  C  2 XY   -0.046509   0.013310   0.034129  -0.029010  -0.031595
   29  C  2 XZ   -0.008998  -0.048654   0.004286  -0.020788   0.036638
   30  C  2 YZ   -0.005169  -0.027248   0.027888  -0.034079  -0.011957
   31  F  3  S    0.017123   0.004854   0.000705   0.001676   0.036632
   32  F  3  S   -0.081789  -0.039703  -0.002428  -0.021703  -0.157750
   33  F  3  S    0.037034   0.089485   0.000551   0.078519  -0.169030
   34  F  3  X   -0.131866  -0.061044  -0.035594  -0.030073  -0.023305
   35  F  3  Y   -0.100103  -0.029271  -0.032246   0.062141  -0.054457
   36  F  3  Z   -0.027148  -0.057394   0.070670   0.054416  -0.018126
   37  F  3  X   -0.090273   0.043528   0.029514   0.001741  -0.083905
   38  F  3  Y   -0.037704   0.015556   0.088078  -0.005890   0.236314
   39  F  3  Z   -0.047385   0.042762   0.059357   0.089622  -0.084201
   40  F  3 XX    0.001608   0.000929   0.011270  -0.003595   0.011354
   41  F  3 YY   -0.001284  -0.012087  -0.017985   0.002920  -0.018458
   42  F  3 ZZ   -0.000324   0.011157   0.006714   0.000675   0.007104
   43  F  3 XY    0.007411  -0.001875   0.002434  -0.001889   0.018274
   44  F  3 XZ   -0.007634   0.010756  -0.002091   0.001236  -0.016166
   45  F  3 YZ    0.000065  -0.013552   0.002155  -0.003361   0.014303
   46  H  4  S   -0.217702   0.039163   0.408993  -0.463499  -0.338657
   47  H  4  S    1.153134  -0.459507  -1.542374   0.263838  -0.717752
   48  H  4  X    0.050018   0.008820  -0.037136   0.014708   0.025287
   49  H  4  Y    0.051184  -0.021713  -0.072159   0.023976  -0.045821
   50  H  4  Z    0.028918   0.036442  -0.019229   0.014763  -0.007416
   51  H  5  S   -0.306437  -0.756558   0.128735  -0.300043  -0.330352
   52  H  5  S   -0.582022   1.053938   0.669391   1.452154  -0.708397
   53  H  5  X   -0.014638  -0.015727  -0.012813  -0.033035   0.011107
   54  H  5  Y    0.001008  -0.011871   0.010589  -0.035487  -0.011711
   55  H  5  Z    0.009000  -0.076775  -0.018730  -0.067731   0.024658
   56  F  6  S    0.017123   0.004855  -0.000698  -0.001677   0.036626
   57  F  6  S   -0.081784  -0.039706   0.002389   0.021714  -0.157737
   58  F  6  S    0.037007   0.089485  -0.000516  -0.078531  -0.168963
   59  F  6  X    0.131866   0.061063  -0.035539  -0.030084   0.023328
   60  F  6  Y   -0.100121  -0.029283   0.032214  -0.062135  -0.054457
   61  F  6  Z    0.027131   0.057354   0.070705   0.054409   0.018140
   62  F  6  X    0.090275  -0.043542   0.029520   0.001744   0.083844
   63  F  6  Y   -0.037682   0.015604  -0.088072   0.005885   0.236261
   64  F  6  Z    0.047381  -0.042777   0.059335   0.089616   0.084189
   65  F  6 XX    0.001609   0.000936  -0.011270   0.003595   0.011356
   66  F  6 YY   -0.001287  -0.012095   0.017979  -0.002919  -0.018458
   67  F  6 ZZ   -0.000321   0.011159  -0.006709  -0.000676   0.007103
   68  F  6 XY   -0.007412   0.001875   0.002434  -0.001889  -0.018272
   69  F  6 XZ   -0.007634   0.010755   0.002095  -0.001236  -0.016167
   70  F  6 YZ   -0.000065   0.013550   0.002163  -0.003361  -0.014300
   71  H  7  S   -0.217600   0.039318  -0.409036   0.463512  -0.338546
   72  H  7  S    1.152849  -0.460231   1.542393  -0.263841  -0.717736
   73  H  7  X   -0.050011  -0.008802  -0.037150   0.014714  -0.025287
   74  H  7  Y    0.051170  -0.021744   0.072161  -0.023976  -0.045821
   75  H  7  Z   -0.028910  -0.036435  -0.019244   0.014763   0.007412
   76  H  8  S   -0.306418  -0.756499  -0.129135   0.300093  -0.330280
   77  H  8  S   -0.581934   1.054182  -0.669002  -1.452110  -0.708451
   78  H  8  X    0.014641   0.015732  -0.012803  -0.033037  -0.011109
   79  H  8  Y    0.001012  -0.011870  -0.010593   0.035489  -0.011703
   80  H  8  Z   -0.009001   0.076777  -0.018695  -0.067729  -0.024658

                     36         37         38         39         40
                    0.9596     0.9818     1.0003     1.0246     1.1132
                     A          A          A          A          A   
    1  C  1  S   -0.023797   0.004054   0.003703  -0.009945  -0.026719
    2  C  1  S   -0.768922  -0.160772  -0.019669   0.292343  -1.141104
    3  C  1  S    4.097091   0.280436  -0.226979   0.102247   4.544371
    4  C  1  X    0.088060  -0.043539  -0.087314   0.099555  -0.137200
    5  C  1  Y    0.160053  -0.090446  -0.011390   0.200027  -0.051531
    6  C  1  Z    0.073490  -0.052210  -0.019129   0.108449  -0.018109
    7  C  1  X   -1.160787   0.046701  -0.033600   0.014099  -1.324190
    8  C  1  Y   -0.108431  -0.019528  -0.057298   0.051693  -0.448206
    9  C  1  Z    0.621876  -0.330689   0.013195  -0.155713   0.849654
   10  C  1 XX    0.081644   0.037127   0.133492  -0.021341  -0.063007
   11  C  1 YY   -0.000117  -0.062635  -0.079615   0.045907  -0.009338
   12  C  1 ZZ   -0.081526   0.025508  -0.053877  -0.024567   0.072345
   13  C  1 XY    0.063961  -0.160553  -0.060454   0.063866   0.010637
   14  C  1 XZ    0.068138   0.000599   0.113323   0.021040  -0.113393
   15  C  1 YZ    0.087655   0.135284  -0.069736   0.131852  -0.010616
   16  C  2  S    0.023800   0.004051  -0.003703  -0.009944   0.026721
   17  C  2  S    0.768769  -0.160848   0.019698   0.292352   1.141043
   18  C  2  S   -4.096763   0.280868   0.226932   0.102223  -4.544167
   19  C  2  X    0.088065   0.043524  -0.087326  -0.099547  -0.137179
   20  C  2  Y   -0.160050  -0.090436   0.011408   0.200035   0.051545
   21  C  2  Z    0.073484   0.052207  -0.019140  -0.108446  -0.018119
   22  C  2  X   -1.160852  -0.046576  -0.033591  -0.014109  -1.324285
   23  C  2  Y    0.108372  -0.019537   0.057298   0.051663   0.448138
   24  C  2  Z    0.621959   0.330604   0.013129   0.155703   0.849710
   25  C  2 XX   -0.081645   0.037107  -0.133499  -0.021346   0.063000
   26  C  2 YY    0.000109  -0.062611   0.079634   0.045920   0.009335
   27  C  2 ZZ    0.081536   0.025504   0.053865  -0.024574  -0.072335
   28  C  2 XY    0.063967   0.160541  -0.060474  -0.063861   0.010640
   29  C  2 XZ   -0.068131   0.000585  -0.113326   0.021037   0.113396
   30  C  2 YZ    0.087656  -0.135291  -0.069709  -0.131848  -0.010620
   31  F  3  S   -0.057525  -0.017729   0.024095   0.039176  -0.002817
   32  F  3  S    0.268584   0.086636  -0.133142  -0.207262  -0.017592
   33  F  3  S    0.206037  -0.005544   0.005581   0.058289   0.257357
   34  F  3  X   -0.297752  -0.221902  -0.291936   0.213743   0.084423
   35  F  3  Y    0.118915   0.246625  -0.474536  -0.344250  -0.122478
   36  F  3  Z   -0.226444   0.432698   0.018719   0.342620   0.371637
   37  F  3  X    0.576438   0.326539   0.280188  -0.388173  -0.001148
   38  F  3  Y   -0.425316  -0.361398   0.628844   0.574970   0.067486
   39  F  3  Z    0.357465  -0.492116  -0.066444  -0.500387  -0.515525
   40  F  3 XX    0.018420   0.010286   0.006489   0.004999   0.009999
   41  F  3 YY   -0.019077  -0.002469  -0.012144   0.013966   0.014792
   42  F  3 ZZ    0.000656  -0.007817   0.005655  -0.018965  -0.024791
   43  F  3 XY   -0.007709   0.011328  -0.015277  -0.040571  -0.038059
   44  F  3 XZ   -0.015694  -0.017671   0.003961   0.013683   0.002691
   45  F  3 YZ   -0.006323   0.012907  -0.003571  -0.019859  -0.044267
   46  H  4  S    0.383243  -0.080878  -0.051288   0.074280   0.522927
   47  H  4  S    0.212538  -0.007323   0.083723   0.014969   0.289404
   48  H  4  X    0.024574  -0.063423   0.070987   0.013237  -0.035649
   49  H  4  Y    0.013689   0.026531  -0.058085  -0.022841   0.052874
   50  H  4  Z   -0.017894   0.077905   0.065273   0.060914  -0.000302
   51  H  5  S    0.367951  -0.112208  -0.046770   0.032162   0.367298
   52  H  5  S    0.078245  -0.175831  -0.047885  -0.113478   0.107275
   53  H  5  X   -0.047944   0.025486  -0.078532   0.005647   0.064338
   54  H  5  Y    0.050210  -0.083309  -0.019838  -0.070709   0.011714
   55  H  5  Z   -0.025778   0.006883   0.012528   0.012096  -0.017884
   56  F  6  S    0.057528  -0.017736  -0.024091   0.039177   0.002818
   57  F  6  S   -0.268605   0.086670   0.133119  -0.207271   0.017586
   58  F  6  S   -0.206037  -0.005525  -0.005576   0.058292  -0.257360
   59  F  6  X   -0.297742   0.221860  -0.291964  -0.213748   0.084470
   60  F  6  Y   -0.118896   0.246725   0.474493  -0.344236   0.122445
   61  F  6  Z   -0.226453  -0.432713   0.018812  -0.342654   0.371610
   62  F  6  X    0.576441  -0.326523   0.280231   0.388184  -0.001210
   63  F  6  Y    0.425297  -0.361541  -0.628774   0.574945  -0.067430
   64  F  6  Z    0.357482   0.492124  -0.066550   0.500430  -0.515485
   65  F  6 XX   -0.018417   0.010284  -0.006492   0.005001  -0.010000
   66  F  6 YY    0.019074  -0.002465   0.012145   0.013964  -0.014788
   67  F  6 ZZ   -0.000657  -0.007819  -0.005654  -0.018965   0.024788
   68  F  6 XY   -0.007710  -0.011330  -0.015274   0.040571  -0.038062
   69  F  6 XZ    0.015690  -0.017675  -0.003959   0.013683  -0.002695
   70  F  6 YZ   -0.006326  -0.012906  -0.003568   0.019858  -0.044268
   71  H  7  S   -0.383277  -0.080847   0.051297   0.074280  -0.522951
   72  H  7  S   -0.212644  -0.007322  -0.083723   0.014983  -0.289483
   73  H  7  X    0.024568   0.063433   0.070977  -0.013239  -0.035651
   74  H  7  Y   -0.013693   0.026548   0.058076  -0.022838  -0.052879
   75  H  7  Z   -0.017890  -0.077900   0.065291  -0.060917  -0.000304
   76  H  8  S   -0.367984  -0.112171   0.046793   0.032156  -0.367300
   77  H  8  S   -0.078344  -0.175825   0.047917  -0.113489  -0.107344
   78  H  8  X   -0.047945  -0.025504  -0.078529  -0.005650   0.064348
   79  H  8  Y   -0.050210  -0.083309   0.019855  -0.070712  -0.011719
   80  H  8  Z   -0.025787  -0.006883   0.012531  -0.012099  -0.017890

                     41         42         43         44         45
                    1.1762     1.1855     1.2845     1.3048     1.5263
                     A          A          A          A          A   
    1  C  1  S   -0.008727   0.001020  -0.000990   0.001129  -0.002090
    2  C  1  S   -0.542289   0.098873  -0.007599   0.078392  -0.088649
    3  C  1  S    1.480624   0.040364  -0.156334  -0.183258   0.431905
    4  C  1  X   -0.040426  -0.072094   0.030550   0.012630   0.054495
    5  C  1  Y   -0.153047   0.067417  -0.036710   0.009243   0.048292
    6  C  1  Z   -0.010150  -0.024863   0.000488   0.004003   0.018260
    7  C  1  X   -0.430746   0.757657  -0.088481  -0.205958  -0.222243
    8  C  1  Y    0.643898  -0.488687  -0.033458   0.444838   0.045209
[...]
   27  C  2 ZZ    0.018960  -0.007640  -0.014345   0.011734   0.017768
   28  C  2 XY   -0.000650   0.001115  -0.005599   0.005127   0.019903
   29  C  2 XZ   -0.009052  -0.008562   0.010661   0.032040   0.049677
   30  C  2 YZ    0.000701  -0.007189  -0.025036   0.019026   0.025677
   31  F  3  S    0.017267  -0.022132  -0.051846   0.001407   0.004894
   32  F  3  S   -0.035744   0.038962   0.086996   0.018714  -0.032191
   33  F  3  S   -0.123818   0.204047   0.487093  -0.113596   0.074585
   34  F  3  X   -0.075689   0.000715   0.090763  -0.104941  -0.119102
   35  F  3  Y    0.106666  -0.070711  -0.159134  -0.005570   0.036185
   36  F  3  Z   -0.006689  -0.044652   0.093106   0.032510   0.061725
   37  F  3  X   -0.068333   0.002354   0.143929  -0.207704  -0.117462
   38  F  3  Y    0.131923  -0.114416  -0.172659  -0.001954  -0.024445
   39  F  3  Z    0.001818  -0.059697   0.123265   0.073548   0.121478
   40  F  3 XX   -0.002763   0.004159   0.002642   0.002038  -0.003840
   41  F  3 YY    0.003668  -0.003482   0.000342   0.001077   0.005460
   42  F  3 ZZ   -0.000905  -0.000677  -0.002984  -0.003116  -0.001620
   43  F  3 XY   -0.003908  -0.000220   0.002465  -0.006314  -0.007032
   44  F  3 XZ   -0.002434   0.003650  -0.004151   0.007235   0.008652
   45  F  3 YZ   -0.001499  -0.003712   0.002522   0.008010  -0.002723
   46  H  4  S   -0.109891   0.009680   0.051649   0.111425   0.221691
   47  H  4  S   -1.525088   0.959927  -0.555203   0.532262  -0.104222
   48  H  4  X    0.010732   0.001389   0.007826   0.010784   0.003387
   49  H  4  Y    0.016830  -0.014963  -0.004290  -0.007330  -0.001328
   50  H  4  Z    0.000542   0.006515   0.013154  -0.020168  -0.023248
   51  H  5  S    0.024278  -0.038678  -0.065785   0.079892   0.264183
   52  H  5  S    0.093194  -1.359870   0.750331   0.410135   0.201895
   53  H  5  X   -0.004809  -0.002988   0.012101   0.017991   0.022682
   54  H  5  Y   -0.000580  -0.004936  -0.014498   0.010372   0.014864
   55  H  5  Z    0.001201  -0.015715   0.007972   0.004476  -0.012198
   56  F  6  S   -0.017266  -0.022139   0.051843  -0.001407   0.004893
   57  F  6  S    0.035742   0.038972  -0.086989  -0.018711  -0.032187
   58  F  6  S    0.123809   0.204119  -0.487069   0.113591   0.074572
   59  F  6  X   -0.075689  -0.000729   0.090764  -0.104947   0.119101
   60  F  6  Y   -0.106663  -0.070734   0.159120   0.005568   0.036180
   61  F  6  Z   -0.006691   0.044637   0.093116   0.032512  -0.061729
   62  F  6  X   -0.068339  -0.002376   0.143935  -0.207697   0.117465
   63  F  6  Y   -0.131920  -0.114442   0.172637   0.001958  -0.024436
   64  F  6  Z    0.001815   0.059677   0.123278   0.073547  -0.121477
   65  F  6 XX    0.002763   0.004159  -0.002641  -0.002039  -0.003840
   66  F  6 YY   -0.003668  -0.003482  -0.000343  -0.001077   0.005459
   67  F  6 ZZ    0.000905  -0.000677   0.002984   0.003116  -0.001620
   68  F  6 XY   -0.003908   0.000219   0.002465  -0.006315   0.007031
   69  F  6 XZ    0.002434   0.003649   0.004152  -0.007236   0.008652
   70  F  6 YZ   -0.001499   0.003711   0.002522   0.008010   0.002722
   71  H  7  S    0.109895   0.009686  -0.051648  -0.111423   0.221689
   72  H  7  S    1.525095   0.959861   0.555338  -0.532258  -0.104246
   73  H  7  X    0.010733  -0.001390   0.007825   0.010784  -0.003386
   74  H  7  Y   -0.016831  -0.014964   0.004288   0.007331  -0.001332
   75  H  7  Z    0.000542  -0.006517   0.013153  -0.020169   0.023249
   76  H  8  S   -0.024270  -0.038688   0.065776  -0.079884   0.264190
   77  H  8  S   -0.093176  -1.359716  -0.750542  -0.410132   0.201869
   78  H  8  X   -0.004810   0.002986   0.012102   0.017992  -0.022683
   79  H  8  Y    0.000581  -0.004938   0.014497  -0.010373   0.014864
   80  H  8  Z    0.001201   0.015712   0.007975   0.004477   0.012195

                     26         27
                    0.3941     0.3961
                     A          A   
    1  C  1  S   -0.032479   0.039493
    2  C  1  S    0.278058  -0.270211
    3  C  1  S   -0.143666   0.143282
    4  C  1  X    0.261250  -0.244466
    5  C  1  Y    0.407047  -0.533133
    6  C  1  Z    0.370094  -0.156681
    7  C  1  X   -0.403227   0.249845
    8  C  1  Y   -0.538688   0.858146
    9  C  1  Z   -0.801786   0.373850
   10  C  1 XX    0.008070  -0.013992
   11  C  1 YY   -0.028095  -0.005669
   12  C  1 ZZ    0.020025   0.019661
   13  C  1 XY   -0.037747   0.027930
   14  C  1 XZ   -0.019132   0.017544
   15  C  1 YZ    0.001643   0.014062
   16  C  2  S   -0.032455  -0.039515
   17  C  2  S    0.277914   0.270400
   18  C  2  S   -0.143676  -0.143388
   19  C  2  X   -0.261074  -0.244619
   20  C  2  Y    0.406725   0.533394
   21  C  2  Z   -0.369993  -0.156897
   22  C  2  X    0.402999   0.250079
   23  C  2  Y   -0.538202  -0.858492
   24  C  2  Z    0.801565   0.374335
   25  C  2 XX    0.008060   0.013999
   26  C  2 YY   -0.028097   0.005650
   27  C  2 ZZ    0.020037  -0.019649
   28  C  2 XY    0.037729   0.027954
   29  C  2 XZ   -0.019119  -0.017556
   30  C  2 YZ   -0.001654   0.014062
   31  F  3  S   -0.008876   0.003679
   32  F  3  S   -0.036207  -0.081309
   33  F  3  S    0.411615   0.383139
   34  F  3  X   -0.106255  -0.160877
   35  F  3  Y    0.198184   0.155688
   36  F  3  Z   -0.086130  -0.112275
   37  F  3  X    0.048881   0.022930
   38  F  3  Y   -0.053254   0.001229
   39  F  3  Z   -0.036614  -0.003475
   40  F  3 XX   -0.004073   0.006499
   41  F  3 YY    0.018674   0.010600
   42  F  3 ZZ   -0.014602  -0.017099
   43  F  3 XY   -0.037805  -0.027474
   44  F  3 XZ    0.008619   0.016228
   45  F  3 YZ   -0.016636  -0.022415
   46  H  4  S   -0.131956   0.036431
   47  H  4  S   -0.020880  -0.109137
   48  H  4  X    0.001979  -0.030462
   49  H  4  Y    0.002685  -0.008090
   50  H  4  Z   -0.006696   0.015967
   51  H  5  S   -0.048981  -0.324503
   52  H  5  S   -0.152747   0.008277
   53  H  5  X   -0.025499   0.005852
   54  H  5  Y   -0.001855   0.013122
   55  H  5  Z    0.026125  -0.012282
   56  F  6  S   -0.008873  -0.003684
   57  F  6  S   -0.036256   0.081287
   58  F  6  S    0.411843  -0.382880
   59  F  6  X    0.106357  -0.160813
   60  F  6  Y    0.198278  -0.155558
   61  F  6  Z    0.086205  -0.112224
   62  F  6  X   -0.048889   0.022897
   63  F  6  Y   -0.053252  -0.001265
   64  F  6  Z    0.036617  -0.003451
   65  F  6 XX   -0.004069  -0.006502
   66  F  6 YY    0.018680  -0.010587
   67  F  6 ZZ   -0.014611   0.017089
   68  F  6 XY    0.037822  -0.027450
   69  F  6 XZ    0.008630  -0.016223
   70  F  6 YZ    0.016650  -0.022404
   71  H  7  S   -0.131931  -0.036518
   72  H  7  S   -0.020927   0.109134
   73  H  7  X   -0.001959  -0.030463
   74  H  7  Y    0.002680   0.008092
   75  H  7  Z    0.006686   0.015971
   76  H  8  S   -0.049185   0.324468
   77  H  8  S   -0.152745  -0.008370
   78  H  8  X    0.025496   0.005868
   79  H  8  Y   -0.001846  -0.013123
   80  H  8  Z   -0.026118  -0.012297

     ---------------------------------------------------------------------
     PROPERTIES FOR THE PBE      DFT FUNCTIONAL (RHF  TYPE) DENSITY MATRIX
     ---------------------------------------------------------------------

          -----------------
          ENERGY COMPONENTS
          -----------------

         WAVEFUNCTION NORMALIZATION =       1.0000000000

                ONE ELECTRON ENERGY =    -635.2502788852
                TWO ELECTRON ENERGY =     230.5878418261
           NUCLEAR REPULSION ENERGY =     126.7246599842
                                      ------------------
                       TOTAL ENERGY =    -277.9377770749

 ELECTRON-ELECTRON POTENTIAL ENERGY =     230.5878418261
  NUCLEUS-ELECTRON POTENTIAL ENERGY =    -912.3266822251
   NUCLEUS-NUCLEUS POTENTIAL ENERGY =     126.7246599842
                                      ------------------
             TOTAL POTENTIAL ENERGY =    -555.0141804148
               TOTAL KINETIC ENERGY =     277.0764033399
                 VIRIAL RATIO (V/T) =       2.0031087950

          ---------------------------------------
          MULLIKEN AND LOWDIN POPULATION ANALYSES
          ---------------------------------------

     ATOMIC MULLIKEN POPULATION IN EACH MOLECULAR ORBITAL

                      1          2          3          4          5

                  2.000000   2.000000   2.000000   2.000000   2.000000

    1             0.000586   0.000561   1.021486   0.978299   0.115776
    2             0.000500   0.000646   0.977809   1.021976   0.115753
    3             0.932306   1.066567  -0.000261  -0.000250   0.875933
    4             0.000006  -0.000013   0.000276   0.000056   0.002946
    5            -0.000008  -0.000004   0.000337   0.000058   0.005150
    6             1.066614   0.932259  -0.000273  -0.000239   0.876340
    7             0.000006  -0.000012   0.000282   0.000050   0.002949
    8            -0.000009  -0.000003   0.000344   0.000051   0.005153

                      6          7          8          9         10

                  2.000000   2.000000   2.000000   2.000000   2.000000

    1             0.084740   0.713506   0.470877   0.387530   0.456447
    2             0.084773   0.713618   0.470868   0.387506   0.456431
    3             0.912003   0.149084   0.272723   0.455426   0.356128
    4             0.002110   0.072979   0.118139   0.153799   0.025508
    5             0.001335   0.064360   0.138271   0.003240   0.161891
    6             0.911598   0.149090   0.272725   0.455435   0.356186
    7             0.002108   0.072993   0.118132   0.153823   0.025504
    8             0.001333   0.064369   0.138266   0.003240   0.161905

                     11         12         13         14         15

                  2.000000   2.000000   2.000000   2.000000   2.000000

    1             0.461780   0.299987   0.329939   0.050078   0.132162
    2             0.461838   0.300004   0.329967   0.050079   0.131757
    3             0.501568   0.497974   0.451025   0.924006   0.592281
    4             0.031420   0.201321   0.012984   0.007877   0.085493
    5             0.005208   0.000730   0.206060   0.018017   0.188726
    6             0.501565   0.497939   0.451005   0.924045   0.594615
    7             0.031412   0.201314   0.012979   0.007879   0.085852
    8             0.005208   0.000730   0.206041   0.018018   0.189115

                     16         17

                  2.000000   2.000000

    1             0.114676   0.256094
    2             0.115080   0.256099
    3             0.714519   0.623376
    4             0.110059   0.082838
    5             0.062085   0.037721
    6             0.712183   0.623322
    7             0.109702   0.082831
    8             0.061695   0.037719

               ----- POPULATIONS IN EACH AO -----
                             MULLIKEN      LOWDIN
              1  C  1  S      1.99338     1.97162
              2  C  1  S      0.75944     0.38515
              3  C  1  S      0.36686     0.27909
              4  C  1  X      0.69619     0.63644
              5  C  1  Y      0.62713     0.56799
              6  C  1  Z      0.74452     0.67130
              7  C  1  X      0.17804     0.28669
              8  C  1  Y      0.17057     0.28694
              9  C  1  Z      0.27391     0.36440
             10  C  1 XX      0.01423     0.16064
             11  C  1 YY      0.01541     0.16292
             12  C  1 ZZ      0.01694     0.16246
             13  C  1 XY      0.00950     0.03410
             14  C  1 XZ      0.00837     0.01863
             15  C  1 YZ      0.00000     0.01573
             16  C  2  S      1.99338     1.97162
             17  C  2  S      0.75943     0.38515
             18  C  2  S      0.36695     0.27910
             19  C  2  X      0.69619     0.63644
             20  C  2  Y      0.62713     0.56799
             21  C  2  Z      0.74453     0.67130
             22  C  2  X      0.17811     0.28670
             23  C  2  Y      0.17058     0.28694
             24  C  2  Z      0.27395     0.36441
             25  C  2 XX      0.01423     0.16064
             26  C  2 YY      0.01542     0.16292
             27  C  2 ZZ      0.01694     0.16246
             28  C  2 XY      0.00950     0.03410
             29  C  2 XZ      0.00837     0.01863
             30  C  2 YZ      0.00000     0.01573
             31  F  3  S      1.99544     1.97164
             32  F  3  S      0.94952     0.75208
             33  F  3  S      0.99775     0.52469
             34  F  3  X      1.14321     1.10745
             35  F  3  Y      1.06739     1.02465
             36  F  3  Z      1.20192     1.17034
             37  F  3  X      0.65647     0.68415
             38  F  3  Y      0.61102     0.64988
             39  F  3  Z      0.69124     0.71968
             40  F  3 XX      0.00144     0.19140
             41  F  3 YY      0.00236     0.19362
             42  F  3 ZZ      0.00341     0.18959
             43  F  3 XY      0.00123     0.00426
             44  F  3 XZ      0.00200     0.00171
             45  F  3 YZ      0.00000     0.00287
             46  H  4  S      0.77156     0.64858
             47  H  4  S      0.11945     0.21695
             48  H  4  X      0.00461     0.01038
             49  H  4  Y      0.00875     0.01859
             50  H  4  Z      0.00342     0.00849
             51  H  5  S      0.76703     0.64931
             52  H  5  S      0.10938     0.21718
             53  H  5  X      0.00277     0.00805
             54  H  5  Y      0.00246     0.00608
             55  H  5  Z      0.01154     0.02427
             56  F  6  S      1.99544     1.97164
             57  F  6  S      0.94952     0.75208
             58  F  6  S      0.99776     0.52469
             59  F  6  X      1.14321     1.10744
             60  F  6  Y      1.06740     1.02466
             61  F  6  Z      1.20192     1.17033
             62  F  6  X      0.65647     0.68414
             63  F  6  Y      0.61102     0.64989
             64  F  6  Z      0.69124     0.71968
             65  F  6 XX      0.00144     0.19140
             66  F  6 YY      0.00236     0.19362
             67  F  6 ZZ      0.00341     0.18959
             68  F  6 XY      0.00123     0.00426
             69  F  6 XZ      0.00200     0.00171
             70  F  6 YZ      0.00000     0.00287
             71  H  7  S      0.77156     0.64858
             72  H  7  S      0.11946     0.21695
             73  H  7  X      0.00461     0.01038
             74  H  7  Y      0.00875     0.01859
             75  H  7  Z      0.00342     0.00849
             76  H  8  S      0.76703     0.64931
             77  H  8  S      0.10938     0.21718
             78  H  8  X      0.00277     0.00805
             79  H  8  Y      0.00246     0.00608
             80  H  8  Z      0.01154     0.02427

          ----- MULLIKEN ATOMIC OVERLAP POPULATIONS -----
          (OFF-DIAGONAL ELEMENTS NEED TO BE MULTIPLIED BY 2)

             1           2           3           4           5

    1    4.6112235
    2    0.3917916   4.6115410
    3   -0.0415453   0.2471182   9.1715914
    4   -0.0334295   0.3604414  -0.0291077   0.6379133
    5   -0.0365214   0.3753562  -0.0307155  -0.0344093   0.6092508
    6    0.2471445  -0.0415507   0.0010040   0.0039840   0.0020743
    7    0.3604695  -0.0334448   0.0039844   0.0072118  -0.0048051
    8    0.3753901  -0.0365463   0.0020769  -0.0048044   0.0129464

             6           7           8

    6    9.1715794
    7   -0.0291093   0.6379103
    8   -0.0307175  -0.0344116   0.6092407

          TOTAL MULLIKEN AND LOWDIN ATOMIC POPULATIONS
       ATOM         MULL.POP.    CHARGE          LOW.POP.     CHARGE
    1 C             5.874523    0.125477         6.004113   -0.004113
    2 C             5.874707    0.125293         6.004135   -0.004135
    3 F             9.324406   -0.324406         9.187998   -0.187998
    4 H             0.907800    0.092200         0.902986    0.097014
    5 H             0.893177    0.106823         0.904893    0.095107
    6 F             9.324409   -0.324409         9.187996   -0.187996
    7 H             0.907805    0.092195         0.902986    0.097014
    8 H             0.893174    0.106826         0.904892    0.095108

          MULLIKEN SPHERICAL HARMONIC POPULATIONS
       ATOM           S       P       D      F      G      H      I    TOTAL
    1 C             3.12    2.69    0.06   0.00   0.00   0.00   0.00    5.87
    2 C             3.12    2.69    0.06   0.00   0.00   0.00   0.00    5.87
    3 F             3.94    5.37    0.01   0.00   0.00   0.00   0.00    9.32
    4 H             0.89    0.02    0.00   0.00   0.00   0.00   0.00    0.91
    5 H             0.88    0.02    0.00   0.00   0.00   0.00   0.00    0.89
    6 F             3.94    5.37    0.01   0.00   0.00   0.00   0.00    9.32
    7 H             0.89    0.02    0.00   0.00   0.00   0.00   0.00    0.91
    8 H             0.88    0.02    0.00   0.00   0.00   0.00   0.00    0.89

          -------------------------------
          BOND ORDER AND VALENCE ANALYSIS     BOND ORDER THRESHOLD=0.050
          -------------------------------

                   BOND                       BOND                       BOND
  ATOM PAIR DIST  ORDER      ATOM PAIR DIST  ORDER      ATOM PAIR DIST  ORDER
    1   2  1.507  1.054        1   6  1.398  0.923        1   7  1.109  0.933
    1   8  1.108  0.933        2   3  1.398  0.923        2   4  1.109  0.933
    2   5  1.108  0.933

                       TOTAL       BONDED        FREE
      ATOM            VALENCE     VALENCE     VALENCE
    1 C                 3.862       3.862       0.000
    2 C                 3.862       3.862       0.000
    3 F                 0.982       0.982       0.000
    4 H                 0.954       0.954      -0.000
    5 H                 0.962       0.962       0.000
    6 F                 0.982       0.982      -0.000
    7 H                 0.954       0.954      -0.000
    8 H                 0.962       0.962      -0.000

          ---------------------
          ELECTROSTATIC MOMENTS
          ---------------------

 POINT   1           X           Y           Z (BOHR)    CHARGE
                 0.000000   -0.000000    0.000000        0.00 (A.U.)
         DX          DY          DZ         /D/  (DEBYE)
     0.000072   -2.664494   -0.000077    2.664494
 ...... END OF PROPERTY EVALUATION ......
 STEP CPU TIME =     0.02 TOTAL CPU TIME =        127.3 (      2.1 MIN)
 TOTAL WALL CLOCK TIME=        128.5 SECONDS, CPU UTILIZATION IS    99.08%
  $VIB   
          IVIB=   0 IATOM=   0 ICOORD=   0 E=     -277.9377770749
 -7.085897749E-05-1.416860248E-05-4.928083455E-05 7.077820048E-05-1.423752624E-05
  4.929647457E-05-1.711118697E-05 1.463505530E-05-2.325877653E-05-1.812241018E-05
  4.641966218E-06-9.979199916E-06-7.258793271E-06-5.070365125E-06-1.617129514E-06
  1.713802922E-05 1.459241077E-05 2.322595884E-05 1.813767819E-05 4.662274273E-06
  9.996554177E-06 7.297460025E-06-5.055212714E-06 1.616952921E-06
  7.230922147E-05-2.664493635E+00-7.680726185E-05
 ......END OF GEOMETRY SEARCH......
 STEP CPU TIME =     0.00 TOTAL CPU TIME =        127.3 (      2.1 MIN)
 TOTAL WALL CLOCK TIME=        128.5 SECONDS, CPU UTILIZATION IS    99.07%
                991181  WORDS OF DYNAMIC MEMORY USED
 EXECUTION OF GAMESS TERMINATED NORMALLY Wed Oct  9 10:05:21 2019
 DDI: 263640 bytes (0.3 MB / 0 MWords) used by master data server.

 ----------------------------------------
 CPU timing information for all processes
 ========================================
 0: 125.19 + 2.341 = 127.360
 ----------------------------------------
 ddikick.x: exited gracefully.
----- accounting info -----
Files used on the master node d12chas540.crc.nd.edu were:
-rw-r--r-- 1 wschnei1 campus 449343 Oct  9 10:05 /scratch365/wschnei1/zmat-1.F07
Wed Oct  9 10:05:24 EDT 2019
0.491u 0.481s 2:12.71 0.7%	0+0k 232+920io 1pf+0w
