----- GAMESS execution script 'rungms' -----
This job is running on host d12chas543.crc.nd.edu
under operating system Linux at Sun Oct 6 23:18:49 EDT 2019
SGE has assigned the following compute nodes to this run:
Available scratch disk space (Kbyte units) at beginning of the job is
Filesystem      1K-blocks     Used  Available Use% Mounted on
/dev/sda2      1949705068 63873428 1885831640   4% /
GAMESS temporary binary files will be written to /tmp/474112.1.debug
GAMESS supplementary output files will be written to /afs/crc.nd.edu/user/w/wschnei1/scr
Copying input file 0-PC1.inp to your run's scratch directory...
reading your own /afs/crc.nd.edu/user/w/wschnei1/.gmsrc

 Distributed Data Interface kickoff program.
 Initiating 1 compute processes on 1 nodes to run the following command:
 /afs/crc.nd.edu/x86_64_linux/g/gamess/nov-2017/gamess/gamess.00.x 0-PC1 

          ******************************************************
          *         GAMESS VERSION = 11 NOV 2017 (R3)         *
          *             FROM IOWA STATE UNIVERSITY             *
          * M.W.SCHMIDT, K.K.BALDRIDGE, J.A.BOATZ, S.T.ELBERT, *
          *   M.S.GORDON, J.H.JENSEN, S.KOSEKI, N.MATSUNAGA,   *
          *          K.A.NGUYEN, S.J.SU, T.L.WINDUS,           *
          *       TOGETHER WITH M.DUPUIS, J.A.MONTGOMERY       *
          *         J.COMPUT.CHEM.  14, 1347-1363(1993)        *
          **************** 64 BIT INTEL VERSION ****************

  SINCE 1993, STUDENTS AND POSTDOCS WORKING AT IOWA STATE UNIVERSITY
  AND ALSO IN THEIR VARIOUS JOBS AFTER LEAVING ISU HAVE MADE IMPORTANT
  CONTRIBUTIONS TO THE CODE:
     IVANA ADAMOVIC, CHRISTINE AIKENS, YURI ALEXEEV, POOJA ARORA,
     ANDREY ASADCHEV, ROB BELL, PRADIPTA BANDYOPADHYAY, JONATHAN BENTZ,
     BRETT BODE, KURT BRORSEN, CALEB CARLIN, GALINA CHABAN, WEI CHEN,
     CHEOL HO CHOI, PAUL DAY, ALBERT DEFUSCO, NUWAN DESILVA, TIM DUDLEY,
     DMITRI FEDOROV, ALEX FINDLATER, GRAHAM FLETCHER, MARK FREITAG,
     KURT GLAESEMANN, ANASTASIA GUININA,
     DAN KEMP, GRANT MERRILL, NORIYUKI MINEZAWA, JONATHAN MULLIN,
     TAKESHI NAGATA, SEAN NEDD, HEATHER NETZLOFF, BOSILJKA NJEGIC, RYAN OLSON,
     MIKE PAK, BUU PHAM,
     SPENCER PRUITT, LUKE ROSKOP, JIM SHOEMAKER, LYUDMILA SLIPCHENKO,
     TONY SMITH, SAROM SOK LEANG, JIE SONG, TETSUYA TAKETSUGU, SIMON WEBB,
     PENG XU, SOOHAENG YOO, FEDERICO ZAHARIEV

  ADDITIONAL CODE HAS BEEN PROVIDED BY COLLABORATORS IN OTHER GROUPS:
     IOWA STATE UNIVERSITY:
          JOE IVANIC, AARON WEST, LAIMUTIS BYTAUTAS, KLAUS RUEDENBERG
     UNIVERSITY OF TOKYO: KIMIHIKO HIRAO, TAKAHITO NAKAJIMA,
          TAKAO TSUNEDA, MUNEAKI KAMIYA, SUSUMU YANAGISAWA,
          KIYOSHI YAGI, MAHITO CHIBA, SEIKEN TOKURA, NAOAKI KAWAKAMI
     UNIVERSITY OF AARHUS: FRANK JENSEN
     UNIVERSITY OF IOWA: VISVALDAS KAIRYS, HUI LI
     NATIONAL INST. OF STANDARDS AND TECHNOLOGY: WALT STEVENS, DAVID GARMER
     UNIVERSITY OF PISA: BENEDETTA MENNUCCI, JACOPO TOMASI
     UNIVERSITY OF MEMPHIS: HENRY KURTZ, PRAKASHAN KORAMBATH
     UNIVERSITY OF ALBERTA: TOBY ZENG, MARIUSZ KLOBUKOWSKI
     UNIVERSITY OF NEW ENGLAND: MARK SPACKMAN
     MIE UNIVERSITY: HIROAKI UMEDA
     NAT. INST. OF ADVANCED INDUSTRIAL SCIENCE AND TECHNOLOGY: KAZUO KITAURA
     MICHIGAN STATE UNIVERSITY:
          KAROL KOWALSKI, MARTA WLOCH, JEFFREY GOUR, JESSE LUTZ,
          WEI LI, PIOTR PIECUCH
     UNIVERSITY OF SILESIA: MONIKA MUSIAL, STANISLAW KUCHARSKI
     FACULTES UNIVERSITAIRES NOTRE-DAME DE LA PAIX:
          OLIVIER QUINET, BENOIT CHAMPAGNE
     UNIVERSITY OF CALIFORNIA - SANTA BARBARA: BERNARD KIRTMAN
     INSTITUTE FOR MOLECULAR SCIENCE:
          KAZUYA ISHIMURA, MICHIO KATOUDA, AND SHIGERU NAGASE
     UNIVERSITY OF NOTRE DAME: ANNA POMOGAEVA, DAN CHIPMAN
     KYUSHU UNIVERSITY:
          HARUYUKI NAKANO,
          FENG LONG GU, JACEK KORCHOWIEC, MARCIN MAKOWSKI, AND YURIKO AOKI,
          HIROTOSHI MORI AND EISAKU MIYOSHI
     PENNSYLVANIA STATE UNIVERSITY:
          TZVETELIN IORDANOV, CHET SWALINA, JONATHAN SKONE,
          SHARON HAMMES-SCHIFFER
     WASEDA UNIVERSITY:
          MASATO KOBAYASHI, TOMOKO AKAMA, TSUGUKI TOUMA,
          TAKESHI YOSHIKAWA, YASUHIRO IKABATA, JUNJI SEINO,
          YUYA NAKAJIMA, HIROMI NAKAI
     NANJING UNIVERSITY: SHUHUA LI
     UNIVERSITY OF NEBRASKA:
          PEIFENG SU, DEJUN SI, NANDUN THELLAMUREGE, YALI WANG, HUI LI
     UNIVERSITY OF ZURICH: ROBERTO PEVERATI, KIM BALDRIDGE
     N. COPERNICUS UNIVERSITY AND JACKSON STATE UNIVERSITY:
          MARIA BARYSZ
     UNIVERSITY OF COPENHAGEN: Jimmy Kromann, CASPER STEINMANN
     TOKYO INSTITUTE OF TECHNOLOGY: HIROYA NAKATA
     NAGOYA UNIVERSITY: YOSHIO NISHIMOTO, STEPHAN IRLE
     MOSCOW STATE UNIVERSITY: VLADIMIR MIRONOV

 EXECUTION OF GAMESS BEGUN Sun Oct  6 23:18:49 2019

            ECHO OF THE FIRST FEW INPUT CARDS -
 INPUT CARD> $CONTRL SCFTYP=RHF DFTTYP=PBE RUNTYP=OPTIMIZE COORD=ZMT NZVAR=18 ISPHER=1 $END 
 INPUT CARD> $BASIS GBASIS=PCseg-1 $END                                                     
 INPUT CARD> $STATPT IFREEZ(1)=12 $END                                                      
 INPUT CARD> $DATA                                                                          
 INPUT CARD>FCH2CH2F eclipsed TS                                                            
 INPUT CARD>C1                                                                              
 INPUT CARD>C                                                                               
 INPUT CARD>C   1   r1                                                                      
 INPUT CARD>F   2   r2   1   A1                                                             
 INPUT CARD>H   2   r3   1   A2   3   D1                                                    
 INPUT CARD>H   2   r4   1   A3   3   D2                                                    
 INPUT CARD>F   1   r5   2   A4   3   D3                                                    
 INPUT CARD>H   1   r6   2   A5   6   D4                                                    
 INPUT CARD>H   1   r7   2   A6   6   D5                                                    
 INPUT CARD>                                                                                
 INPUT CARD>r1=1.5                                                                          
 INPUT CARD>r2=1.4                                                                          
 INPUT CARD>r3=1.1                                                                          
 INPUT CARD>r4=1.1                                                                          
 INPUT CARD>r5=1.5                                                                          
 INPUT CARD>r6=1.1                                                                          
 INPUT CARD>r7=1.1                                                                          
 INPUT CARD>A1=109.54214                                                                    
 INPUT CARD>A2=109.54214                                                                    
 INPUT CARD>A3=109.54214                                                                    
 INPUT CARD>A4=109.54214                                                                    
 INPUT CARD>A5=109.54214                                                                    
 INPUT CARD>A6=109.54214                                                                    
 INPUT CARD>D1=120.                                                                         
 INPUT CARD>D2=-120.                                                                        
 INPUT CARD>D3=0                                                                            
 INPUT CARD>D4=120.                                                                         
 INPUT CARD>D5=-120.                                                                        
 INPUT CARD> $END                                                                           
 INPUT CARD>                                                                                
    1000000 WORDS OF MEMORY AVAILABLE

     BASIS OPTIONS
     -------------
     GBASIS=PCSEG-1      IGAUSS=       0      POLAR=NONE    
     NDFUNC=       0     NFFUNC=       0     DIFFSP=       F
     NPFUNC=       0      DIFFS=       F     BASNAM=        


     RUN TITLE
     ---------
 FCH2CH2F eclipsed TS                                                            

 THE POINT GROUP OF THE MOLECULE IS C1      
 THE ORDER OF THE PRINCIPAL AXIS IS     0

 YOUR FULLY SUBSTITUTED Z-MATRIX IS
 C   
 C      1   1.5000000
 F      2   1.4000000  1  109.5421
 H      2   1.1000000  1  109.5421  3  120.0000  0
 H      2   1.1000000  1  109.5421  3 -120.0000  0
 F      1   1.5000000  2  109.5421  3    0.0000  0
 H      1   1.1000000  2  109.5421  6  120.0000  0
 H      1   1.1000000  2  109.5421  6 -120.0000  0

 THE MOMENTS OF INERTIA ARE (AMU-ANGSTROM**2)
 IXX=    37.597   IYY=    79.908   IZZ=   111.007

 ATOM      ATOMIC                      COORDINATES (BOHR)
           CHARGE         X                   Y                   Z
 C           6.0    -1.3086490074       -1.5096274934        0.0000000000
 C           6.0     1.5205630062       -1.3351165299        0.0000000000
 F           9.0     2.2503486732        1.2078539626        0.0000000000
 H           1.0     2.2748702553       -2.2699293304        1.6965062379
 H           1.0     2.2748702553       -2.2699293304       -1.6965062379
 F           9.0    -2.4194789949        1.0982358913        0.0000000000
 H           1.0    -1.9423534398       -2.5300553893       -1.6965062379
 H           1.0    -1.9423534398       -2.5300553893        1.6965062379

          INTERNUCLEAR DISTANCES (ANGS.)
          ------------------------------

                1 C          2 C          3 F          4 H          5 H     

   1 C       0.0000000    1.5000000 *  2.3695781 *  2.1363170 *  2.1363170 *
   2 C       1.5000000 *  0.0000000    1.4000000 *  1.1000000 *  1.1000000 *
   3 F       2.3695781 *  1.4000000 *  0.0000000    2.0476979 *  2.0476979 *
   4 H       2.1363170 *  1.1000000 *  2.0476979 *  0.0000000    1.7955050 *
   5 H       2.1363170 *  1.1000000 *  2.0476979 *  1.7955050 *  0.0000000  
   6 F       1.5000000 *  2.4505612 *  2.4718473 *  3.1864902    3.1864902  
   7 H       1.1000000 *  2.1363170 *  3.1050059    2.8675927 *  2.2359001 *
   8 H       1.1000000 *  2.1363170 *  3.1050059    2.2359001 *  2.8675927 *

                6 F          7 H          8 H     

   1 C       1.5000000 *  1.1000000 *  1.1000000 *
   2 C       2.4505612 *  2.1363170 *  2.1363170 *
   3 F       2.4718473 *  3.1050059    3.1050059  
   4 H       3.1864902    2.8675927 *  2.2359001 *
   5 H       3.1864902    2.2359001 *  2.8675927 *
   6 F       0.0000000    2.1345124 *  2.1345124 *
   7 H       2.1345124 *  0.0000000    1.7955050 *
   8 H       2.1345124 *  1.7955050 *  0.0000000  

  * ... LESS THAN  3.000


     ATOMIC BASIS SET
     ----------------
 THE CONTRACTED PRIMITIVE FUNCTIONS HAVE BEEN UNNORMALIZED
 THE CONTRACTED BASIS FUNCTIONS ARE NOW NORMALIZED TO UNITY

  SHELL TYPE  PRIMITIVE        EXPONENT          CONTRACTION COEFFICIENT(S)

 C         

      1   S       1          1243.2000000    0.005630097702
      1   S       2           187.1450000    0.041950603854
      1   S       3            42.5126000    0.184664360492
      1   S       4            11.7393000    0.466557421368
      1   S       5             3.5054800    0.448234778316

      2   S       6             5.3908900   -0.148114817444
      2   S       7             0.4933410    1.051981714281

      3   S       8             0.1497410    1.000000000000

      4   P       9             9.1805600    0.063992052045
      4   P      10             1.9365800    0.333521296407
      4   P      11             0.5262960    0.741161730513

      5   P      12             0.1363190    1.000000000000

      6   D      13             0.8000000    1.000000000000

 C         

      7   S      14          1243.2000000    0.005630097702
      7   S      15           187.1450000    0.041950603854
      7   S      16            42.5126000    0.184664360492
      7   S      17            11.7393000    0.466557421368
      7   S      18             3.5054800    0.448234778316

      8   S      19             5.3908900   -0.148114817444
      8   S      20             0.4933410    1.051981714281

      9   S      21             0.1497410    1.000000000000

     10   P      22             9.1805600    0.063992052045
     10   P      23             1.9365800    0.333521296407
     10   P      24             0.5262960    0.741161730513

     11   P      25             0.1363190    1.000000000000

     12   D      26             0.8000000    1.000000000000

 F         

     13   S      27          2931.5500000    0.005390132259
     13   S      28           441.1250000    0.040296704072
     13   S      29           100.2320000    0.180202178717
     13   S      30            27.8655000    0.465064284210
     13   S      31             8.4447000    0.452433138251

     14   S      32            13.6123000   -0.151660908297
     14   S      33             1.2612200    1.053515343452

     15   S      34             0.3708000    1.000000000000

     16   P      35            21.9305000    0.070356827475
     16   P      36             4.7855200    0.356742371235
     16   P      37             1.2837800    0.719732016372

     17   P      38             0.3115580    1.000000000000

     18   D      39             1.1000000    1.000000000000

 H         

     19   S      40            12.2518000    0.037217389296
     19   S      41             1.8687100    0.253808206955
     19   S      42             0.4182080    0.797386763917

     20   S      43             0.1061000    1.000000000000

     21   P      44             1.0000000    1.000000000000

 H         

     22   S      45            12.2518000    0.037217389296
     22   S      46             1.8687100    0.253808206955
     22   S      47             0.4182080    0.797386763917

     23   S      48             0.1061000    1.000000000000

     24   P      49             1.0000000    1.000000000000

 F         

     25   S      50          2931.5500000    0.005390132259
     25   S      51           441.1250000    0.040296704072
     25   S      52           100.2320000    0.180202178717
     25   S      53            27.8655000    0.465064284210
     25   S      54             8.4447000    0.452433138251

     26   S      55            13.6123000   -0.151660908297
     26   S      56             1.2612200    1.053515343452

     27   S      57             0.3708000    1.000000000000

     28   P      58            21.9305000    0.070356827475
     28   P      59             4.7855200    0.356742371235
     28   P      60             1.2837800    0.719732016372

     29   P      61             0.3115580    1.000000000000

     30   D      62             1.1000000    1.000000000000

 H         

     31   S      63            12.2518000    0.037217389296
     31   S      64             1.8687100    0.253808206955
     31   S      65             0.4182080    0.797386763917

     32   S      66             0.1061000    1.000000000000

     33   P      67             1.0000000    1.000000000000

 H         

     34   S      68            12.2518000    0.037217389296
     34   S      69             1.8687100    0.253808206955
     34   S      70             0.4182080    0.797386763917

     35   S      71             0.1061000    1.000000000000

     36   P      72             1.0000000    1.000000000000

 TOTAL NUMBER OF BASIS SET SHELLS             =   36
 NUMBER OF CARTESIAN GAUSSIAN BASIS FUNCTIONS =   80
 NOTE: THIS RUN WILL RESTRICT THE MO VARIATION SPACE TO SPHERICAL HARMONICS.
 THE NUMBER OF ORBITALS KEPT IN THE VARIATIONAL SPACE WILL BE PRINTED LATER.
 NUMBER OF ELECTRONS                          =   34
 CHARGE OF MOLECULE                           =    0
 SPIN MULTIPLICITY                            =    1
 NUMBER OF OCCUPIED ORBITALS (ALPHA)          =   17
 NUMBER OF OCCUPIED ORBITALS (BETA )          =   17
 TOTAL NUMBER OF ATOMS                        =    8
 THE NUCLEAR REPULSION ENERGY IS      127.3160891021

     LEBEDEV GRID-BASED DFT OPTIONS
     ------------------------------
     DFTTYP=PBE     
     NRAD  =      96     NLEB  =     302
     NRAD0 =      24     NLEB0 =     110
     SWOFF =    5.00E-03 (PURE SCF -> DFT)
     SWITCH=    3.00E-04 (COARSE -> TIGHT GRID)
     THRESH=    0.00E+00 GTHRE=    1.00E+00

 GRIMME'S EMPIRICAL DISPERSION CORRECTION= F

     $CONTRL OPTIONS
     ---------------
 SCFTYP=RHF          RUNTYP=OPTIMIZE     EXETYP=RUN     
 MPLEVL=       0     CITYP =NONE         CCTYP =NONE         VBTYP =NONE    
 DFTTYP=PBE          TDDFT =NONE    
 MULT  =       1     ICHARG=       0     NZVAR =      18     COORD =ZMT     
 PP    =NONE         RELWFN=NONE         LOCAL =NONE         NUMGRD=       F
 ISPHER=       1     NOSYM =       0     MAXIT =      30     UNITS =ANGS    
 PLTORB=       F     MOLPLT=       F     AIMPAC=       F     FRIEND=        
 NPRINT=       7     IREST =       0     GEOM  =INPUT   
 NORMF =       0     NORMP =       0     ITOL  =      20     ICUT  =       9
 INTTYP=BEST         GRDTYP=BEST         QMTTOL= 1.0E-06

     $SYSTEM OPTIONS
     ---------------
  REPLICATED MEMORY=     1000000 WORDS (ON EVERY NODE).
 DISTRIBUTED MEMDDI=           0 MILLION WORDS IN AGGREGATE,
 MEMDDI DISTRIBUTED OVER   1 PROCESSORS IS           0 WORDS/PROCESSOR.
 TOTAL MEMORY REQUESTED ON EACH PROCESSOR=     1000000 WORDS.
 TIMLIM=      525600.00 MINUTES, OR     365.0 DAYS.
 PARALL= F  BALTYP=  DLB     KDIAG=    0  COREFL= F
 MXSEQ2=     300 MXSEQ3=     150  mem10=         0

          ----------------
          PROPERTIES INPUT
          ----------------

     MOMENTS            FIELD           POTENTIAL          DENSITY
 IEMOM =       1   IEFLD =       0   IEPOT =       0   IEDEN =       0
 WHERE =COMASS     WHERE =NUCLEI     WHERE =NUCLEI     WHERE =NUCLEI  
 OUTPUT=BOTH       OUTPUT=BOTH       OUTPUT=BOTH       OUTPUT=BOTH    
 IEMINT=       0   IEFINT=       0                     IEDINT=       0
                                                       MORB  =       0
          EXTRAPOLATION IN EFFECT
          DIIS IN EFFECT
 ORBITAL PRINTING OPTION: NPREO=     1    80     2     1

     -------------------------------
     INTEGRAL TRANSFORMATION OPTIONS
     -------------------------------
     NWORD  =            0
     CUTOFF = 1.0E-09     MPTRAN =       0
     DIRTRF =       F     AOINTS =DUP     

          ----------------------
          INTEGRAL INPUT OPTIONS
          ----------------------
 NOPK  =       1 NORDER=       0 SCHWRZ=       T

   --- ENCODED Z MATRIX ---
 COORD  TYPE   I   J   K   L   M   N
    1      1    2   1
    2      1    3   2
    3      2    3   2   1
    4      1    4   2
    5      2    4   2   1
    6      3    4   2   1   3
    7      1    5   2
    8      2    5   2   1
    9      3    5   2   1   3
   10      1    6   1
   11      2    6   1   2
   12      3    6   1   2   3
   13      1    7   1
   14      2    7   1   2
   15      3    7   1   2   6
   16      1    8   1
   17      2    8   1   2
   18      3    8   1   2   6

 THE DETERMINANT OF THE G MATRIX IS 10**(   -12)


                     --------------------
                     INTERNAL COORDINATES
                     --------------------

                 - - ATOMS - -         COORDINATE      COORDINATE
 NO.   TYPE    I  J  K  L  M  N        (BOHR,RAD)       (ANG,DEG)
 ----------------------------------------------------------------
   1 STRETCH   2  1                     2.8345890       1.5000000
   2 STRETCH   3  2                     2.6456164       1.4000000
   3 BEND      3  2  1                  1.9118710     109.5421400
   4 STRETCH   4  2                     2.0786986       1.1000000
   5 BEND      4  2  1                  1.9118710     109.5421400
   6 TORSION   4  2  1  3               2.0943951     120.0000000
   7 STRETCH   5  2                     2.0786986       1.1000000
   8 BEND      5  2  1                  1.9118710     109.5421400
   9 TORSION   5  2  1  3              -2.0943951    -120.0000000
  10 STRETCH   6  1                     2.8345890       1.5000000
  11 BEND      6  1  2                  1.9118710     109.5421400
  12 TORSION   6  1  2  3               0.0000000       0.0000000
  13 STRETCH   7  1                     2.0786986       1.1000000
  14 BEND      7  1  2                  1.9118710     109.5421400
  15 TORSION   7  1  2  6               2.0943951     120.0000000
  16 STRETCH   8  1                     2.0786986       1.1000000
  17 BEND      8  1  2                  1.9118710     109.5421400
  18 TORSION   8  1  2  6              -2.0943951    -120.0000000

     ------------------------------------------
     THE POINT GROUP IS C1 , NAXIS= 0, ORDER= 1
     ------------------------------------------

 -- VARIATIONAL SPACE WILL BE RESTRICTED TO PURE SPHERICAL HARMONICS ONLY --
 AFTER EXCLUDING CONTAMINANT COMBINATIONS FROM THE CARTESIAN GAUSSIAN BASIS
 SET, THE NUMBER OF SPHERICAL HARMONICS KEPT IN THE VARIATION SPACE IS   76

     DIMENSIONS OF THE SYMMETRY SUBSPACES ARE
 A   =   76

 ..... DONE SETTING UP THE RUN .....
 STEP CPU TIME =     0.01 TOTAL CPU TIME =          0.0 (      0.0 MIN)
 TOTAL WALL CLOCK TIME=          0.0 SECONDS, CPU UTILIZATION IS    25.00%


          -----------------------------
          STATIONARY POINT LOCATION RUN
          -----------------------------

 OBTAINING INITIAL HESSIAN, HESS=GUESS   
 DIAGONAL GUESS HESSIAN IN INTERNAL COORDS IS
     1  0.3892     2  0.3267     3  0.2379     4  0.3397     5  0.2253
     6  0.2500     7  0.3397     8  0.2253     9  0.2500    10  0.2690
    11  0.2315    12  0.2500    13  0.3397    14  0.2253    15  0.2500
    16  0.3397    17  0.2253    18  0.2500

          PARAMETERS CONTROLLING GEOMETRY SEARCH ARE
          METHOD =QA                  UPHESS =BFGS    
          NNEG   =         0          NFRZ   =         1
          NSTEP  =        50          IFOLOW =         1
          HESS   =GUESS               RESTAR =         F
          IHREP  =         0          HSSEND =         F
          NPRT   =         0          NPUN   =         0
          OPTTOL = 1.000E-04          RMIN   = 1.500E-03
          RMAX   = 1.000E-01          RLIM   = 7.000E-02
          DXMAX  = 3.000E-01          PURIFY =         F
          MOVIE  =         F          TRUPD  =         T
          TRMAX  = 5.000E-01          TRMIN  = 5.000E-02
          ITBMAT =         5          STPT   =         F
          STSTEP = 1.000E-02          PROJCT=          T
          FROZEN COORD(S)=  12

 BEGINNING GEOMETRY SEARCH POINT NSERCH=   0 ...

 COORDINATES OF ALL ATOMS ARE (ANGS)
   ATOM   CHARGE       X              Y              Z
 ------------------------------------------------------------
 C           6.0  -0.6925072820  -0.7988605244   0.0000000000
 C           6.0   0.8046473489  -0.7065132927   0.0000000000
 F           9.0   1.1908333207   0.6391688374   0.0000000000
 H           1.0   1.2038095841  -1.2011949591   0.8977525043
 H           1.0   1.2038095841  -1.2011949591  -0.8977525043
 F           9.0  -1.2803332391   0.5811614480   0.0000000000
 H           1.0  -1.0278492503  -1.3388477513  -0.8977525043
 H           1.0  -1.0278492503  -1.3388477513   0.8977525043


                     --------------------
                     INTERNAL COORDINATES
                     --------------------

                 - - ATOMS - -         COORDINATE      COORDINATE
 NO.   TYPE    I  J  K  L  M  N        (BOHR,RAD)       (ANG,DEG)
 ----------------------------------------------------------------
   1 STRETCH   2  1                     2.8345890       1.5000000
   2 STRETCH   3  2                     2.6456164       1.4000000
   3 BEND      3  2  1                  1.9118710     109.5421400
   4 STRETCH   4  2                     2.0786986       1.1000000
   5 BEND      4  2  1                  1.9118710     109.5421400
   6 TORSION   4  2  1  3               2.0943951     120.0000000
   7 STRETCH   5  2                     2.0786986       1.1000000
   8 BEND      5  2  1                  1.9118710     109.5421400
   9 TORSION   5  2  1  3              -2.0943951    -120.0000000
  10 STRETCH   6  1                     2.8345890       1.5000000
  11 BEND      6  1  2                  1.9118710     109.5421400
  12 TORSION   6  1  2  3               0.0000000       0.0000000
  13 STRETCH   7  1                     2.0786986       1.1000000
  14 BEND      7  1  2                  1.9118710     109.5421400
  15 TORSION   7  1  2  6               2.0943951     120.0000000
  16 STRETCH   8  1                     2.0786986       1.1000000
  17 BEND      8  1  2                  1.9118710     109.5421400
  18 TORSION   8  1  2  6              -2.0943951    -120.0000000

 THE CURRENT FULLY SUBSTITUTED Z-MATRIX IS
 C   
 C      1   1.5000000
 F      2   1.4000000  1   109.5421400
 H      2   1.1000000  1   109.5421400  3   120.0000000  0
 H      2   1.1000000  1   109.5421400  3  -120.0000000  0
 F      1   1.5000000  2   109.5421400  3     0.0000000  0
 H      1   1.1000000  2   109.5421400  6   120.0000000  0
 H      1   1.1000000  2   109.5421400  6  -120.0000000  0

          ********************
          1 ELECTRON INTEGRALS
          ********************
 ...... END OF ONE-ELECTRON INTEGRALS ......
 STEP CPU TIME =     0.02 TOTAL CPU TIME =          0.0 (      0.0 MIN)
 TOTAL WALL CLOCK TIME=          0.0 SECONDS, CPU UTILIZATION IS    60.00%

          -------------
          GUESS OPTIONS
          -------------
          GUESS =HUCKEL            NORB  =       0          NORDER=       0
          MIX   =       F          PRTMO =       F          PUNMO =       F
          TOLZ  = 1.0E-08          TOLE  = 1.0E-05
          SYMDEN=       F          PURIFY=       F

 INITIAL GUESS ORBITALS GENERATED BY HUCKEL   ROUTINE.
 HUCKEL GUESS REQUIRES     54920 WORDS.

 STATISTICS FOR GENERATION OF SYMMETRY ORBITAL -Q- MATRIX
 NUMBER OF CARTESIAN ATOMIC ORBITALS=         80
 NUMBER OF SPHERICAL CONTAMINANTS DROPPED=     4
 NUMBER OF LINEARLY DEPENDENT MOS DROPPED=     0
 TOTAL NUMBER OF MOS IN VARIATION SPACE=      76

 SYMMETRIES FOR INITIAL GUESS ORBITALS FOLLOW.   BOTH SET(S).
    17 ORBITALS ARE OCCUPIED (    4 CORE ORBITALS).
     5=A        6=A        7=A        8=A        9=A       10=A       11=A   
    12=A       13=A       14=A       15=A       16=A       17=A       18=A   
    19=A       20=A       21=A       22=A       23=A       24=A       25=A   
    26=A       27=A   
 ...... END OF INITIAL ORBITAL SELECTION ......
 STEP CPU TIME =     0.01 TOTAL CPU TIME =          0.0 (      0.0 MIN)
 TOTAL WALL CLOCK TIME=          0.1 SECONDS, CPU UTILIZATION IS    66.67%

                    ----------------------
                    AO INTEGRAL TECHNOLOGY
                    ----------------------
     S,P,L SHELL ROTATED AXIS INTEGRALS, REPROGRAMMED BY
        KAZUYA ISHIMURA (IMS) AND JOSE SIERRA (SYNSTAR).
     S,P,D,L SHELL ROTATED AXIS INTEGRALS PROGRAMMED BY
        KAZUYA ISHIMURA (INSTITUTE FOR MOLECULAR SCIENCE).
     S,P,D,F,G SHELL TO TOTAL QUARTET ANGULAR MOMENTUM SUM 5,
        ERIC PROGRAM BY GRAHAM FLETCHER (ELORET AND NASA ADVANCED
        SUPERCOMPUTING DIVISION, AMES RESEARCH CENTER).
     S,P,D,F,G,L SHELL GENERAL RYS QUADRATURE PROGRAMMED BY
        MICHEL DUPUIS (PACIFIC NORTHWEST NATIONAL LABORATORY).

          --------------------
          2 ELECTRON INTEGRALS
          --------------------

 THE -PK- OPTION IS OFF, THE INTEGRALS ARE NOT IN SUPERMATRIX FORM.
 STORING   15000 INTEGRALS/RECORD ON DISK, USING 12 BYTES/INTEGRAL.
 TWO ELECTRON INTEGRAL EVALUATION REQUIRES   91062 WORDS OF MEMORY.
 SCHWARZ INEQUALITY OVERHEAD:      3237 INTEGRALS, T=        0.00
 II,JST,KST,LST =  1  1  1  1 NREC =         1 INTLOC =    1
 II,JST,KST,LST =  2  1  1  1 NREC =         1 INTLOC =    2
 II,JST,KST,LST =  3  1  1  1 NREC =         1 INTLOC =    7
 II,JST,KST,LST =  4  1  1  1 NREC =         1 INTLOC =   22
 II,JST,KST,LST =  5  1  1  1 NREC =         1 INTLOC =   67
 II,JST,KST,LST =  6  1  1  1 NREC =         1 INTLOC =  214
 II,JST,KST,LST =  7  1  1  1 NREC =         1 INTLOC = 1189
 II,JST,KST,LST =  8  1  1  1 NREC =         1 INTLOC = 2348
 II,JST,KST,LST =  9  1  1  1 NREC =         1 INTLOC = 3785
 II,JST,KST,LST = 10  1  1  1 NREC =         1 INTLOC = 5522
 II,JST,KST,LST = 11  1  1  1 NREC =         1 INTLOC =11883
 II,JST,KST,LST = 12  1  1  1 NREC =         2 INTLOC = 6271
 II,JST,KST,LST = 13  1  1  1 NREC =         4 INTLOC = 6986
 II,JST,KST,LST = 14  1  1  1 NREC =         4 INTLOC =14077
 II,JST,KST,LST = 15  1  1  1 NREC =         5 INTLOC = 7989
 II,JST,KST,LST = 16  1  1  1 NREC =         6 INTLOC = 3188
 II,JST,KST,LST = 17  1  1  1 NREC =         8 INTLOC = 5799
 II,JST,KST,LST = 18  1  1  1 NREC =        11 INTLOC = 3198
 II,JST,KST,LST = 19  1  1  1 NREC =        18 INTLOC =13839
 II,JST,KST,LST = 20  1  1  1 NREC =        22 INTLOC = 1866
 II,JST,KST,LST = 21  1  1  1 NREC =        25 INTLOC = 8258
 II,JST,KST,LST = 22  1  1  1 NREC =        37 INTLOC =  478
 II,JST,KST,LST = 23  1  1  1 NREC =        41 INTLOC = 5570
 II,JST,KST,LST = 24  1  1  1 NREC =        45 INTLOC =14775
 II,JST,KST,LST = 25  1  1  1 NREC =        61 INTLOC = 2943
 II,JST,KST,LST = 26  1  1  1 NREC =        63 INTLOC = 6944
 II,JST,KST,LST = 27  1  1  1 NREC =        67 INTLOC =  369
 II,JST,KST,LST = 28  1  1  1 NREC =        71 INTLOC =11138
 II,JST,KST,LST = 29  1  1  1 NREC =        83 INTLOC = 7786
 II,JST,KST,LST = 30  1  1  1 NREC =       100 INTLOC = 7149
 II,JST,KST,LST = 31  1  1  1 NREC =       136 INTLOC = 8610
 II,JST,KST,LST = 32  1  1  1 NREC =       147 INTLOC = 8770
 II,JST,KST,LST = 33  1  1  1 NREC =       159 INTLOC = 6948
 II,JST,KST,LST = 34  1  1  1 NREC =       193 INTLOC = 1191
 II,JST,KST,LST = 35  1  1  1 NREC =       206 INTLOC = 7986
 II,JST,KST,LST = 36  1  1  1 NREC =       221 INTLOC =  311
 SCHWARZ INEQUALITY TEST SKIPPED       14849 INTEGRAL BLOCKS.
 TOTAL NUMBER OF NONZERO TWO-ELECTRON INTEGRALS =             3912528
        261 INTEGRAL RECORDS WERE STORED ON DISK FILE  8.
  ...... END OF TWO-ELECTRON INTEGRALS .....
 STEP CPU TIME =     0.47 TOTAL CPU TIME =          0.5 (      0.0 MIN)
 TOTAL WALL CLOCK TIME=          0.5 SECONDS, CPU UTILIZATION IS    94.44%

          --------------------------
               R-PBE SCF CALCULATION
          --------------------------

     NUCLEAR ENERGY =       127.3160891021
     MAXIT =   30     NPUNCH=    2
     EXTRAP=T  DAMP=F  SHIFT=F  RSTRCT=F  DIIS=T  DEM=F  SOSCF=F
         DENSITY MATRIX CONVERGENCE THRESHOLD=  1.00E-05
     COARSE -> FINE DFT GRID SWITCH THRESHOLD=  3.00E-04 (SWITCH IN $DFT)
                   HF -> DFT SWITCH THRESHOLD=  5.00E-03 (SWOFF IN $DFT)
     MEMORY REQUIRED FOR RHF ITERS=    365468 WORDS.

 DFT CODE IS SWITCHING FROM THE FINE GRID NRAD= 96,  NLEB=  302
                      TO THE COARSE GRID NRAD0= 24, NLEB0=  110

     EXCHANGE FUNCTIONAL   =PBE       
     CORRELATION FUNCTIONAL=PBE       
     DFT THRESHOLD         =.172E-07
     GRID CHANGE THRESHOLD =.300E-03
 FOR AN EULER-MACLAURIN QUADRATURE USING  96 RADIAL POINTS:
 SMALLEST GAUSSIAN PRIMITIVE EXPONENT=        0.1061000000 OF TYPE -S-
 ON ATOM NUMBER   4 HAS RADIAL NORMALIZATION=  1.000000
  LARGEST GAUSSIAN PRIMITIVE EXPONENT=     2931.5500000000 OF TYPE -S-
 ON ATOM NUMBER   3 HAS RADIAL NORMALIZATION=  1.000000
 DFT IS SWITCHED OFF, PERFORMING PURE SCF UNTIL SWOFF THRESHOLD IS REACHED.

 ITER EX DEM     TOTAL ENERGY        E CHANGE  DENSITY CHANGE    DIIS ERROR
   1  0  0     -276.1121352783  -276.1121352783   0.193412330   0.728559922
          * * *   INITIATING DIIS PROCEDURE   * * *
   2  1  0     -276.7616762013    -0.6495409230   0.091085288   0.095181457
   3  2  0     -276.8031716067    -0.0414954054   0.048543173   0.055786334
   4  3  0     -276.8183877032    -0.0152160964   0.009058627   0.013607164
   5  4  0     -276.8191188853    -0.0007311822   0.002300630   0.002012119
 CONVERGED TO SWOFF, SO DFT CALCULATION IS NOW SWITCHED ON.
          * * *   INITIATING DIIS PROCEDURE   * * *
   6  5  0     -277.8886523979    -1.0695335126   0.112981350   0.089943119
   7  6  0     -277.9019230643    -0.0132706664   0.094038916   0.054057237
   8  7  0     -277.9000274535     0.0018956108   0.056336277   0.060802754
   9  8  0     -277.9173305060    -0.0173030525   0.007120874   0.005651979
  10  9  0     -277.9175839299    -0.0002534239   0.002191738   0.001437180
  11 10  0     -277.9175988713    -0.0000149414   0.000653912   0.000493033
  12 11  0     -277.9176011338    -0.0000022625   0.000095426   0.000102232
 DFT CODE IS SWITCHING BACK TO THE FINE GRID
          * * *   INITIATING DIIS PROCEDURE   * * *
  13 12  0     -277.9163055236     0.0012956102   0.004760972   0.004281011
  14 13  0     -277.9163499322    -0.0000444087   0.005126016   0.002182461
  15 14  0     -277.9163437481     0.0000061842   0.002941602   0.002244103
  16 15  0     -277.9163742170    -0.0000304689   0.000314544   0.000211264
  17 16  0     -277.9163744544    -0.0000002375   0.000143294   0.000107994
  18 17  0     -277.9163745284    -0.0000000739   0.000032526   0.000027545
  19 18  0     -277.9163745322    -0.0000000039   0.000006481   0.000006173
  20 19  0     -277.9163745324    -0.0000000002   0.000000712   0.000000314

          -----------------
          DENSITY CONVERGED
          -----------------
     TIME TO FORM FOCK OPERATORS=       9.5 SECONDS (       0.5 SEC/ITER)
     TIME TO SOLVE SCF EQUATIONS=       0.1 SECONDS (       0.0 SEC/ITER)

 FINAL R-PBE ENERGY IS     -277.9163745324 AFTER  20 ITERATIONS
 DFT EXCHANGE + CORRELATION ENERGY =       -32.9012169924
 TOTAL ELECTRON NUMBER             =        33.9999031257

          ------------
          EIGENVECTORS
          ------------

                      1          2          3          4          5
                  -24.2326   -24.2235    -9.9732    -9.9717    -1.0951
                     A          A          A          A          A   
    1  C  1  S    0.000060  -0.000185   0.992687  -0.036369  -0.020858
    2  C  1  S    0.000149  -0.000979   0.036700  -0.002479   0.037365
    3  C  1  S   -0.004137   0.008946  -0.021865   0.006985   0.026841
    4  C  1  X   -0.000316  -0.000494  -0.000440  -0.000966   0.011114
    5  C  1  Y   -0.000134   0.000846   0.000097  -0.000178   0.021739
    6  C  1  Z    0.000000  -0.000000   0.000000  -0.000000   0.000000
    7  C  1  X   -0.001644   0.000266  -0.002696   0.002822   0.007792
    8  C  1  Y   -0.001636   0.004246   0.000890   0.000184   0.003822
    9  C  1  Z   -0.000000  -0.000000  -0.000000  -0.000000  -0.000000
   10  C  1 XX   -0.000019  -0.000196  -0.000368  -0.000972   0.002524
   11  C  1 YY    0.000049   0.000512   0.000014   0.000480   0.001429
   12  C  1 ZZ   -0.000030  -0.000316   0.000353   0.000492  -0.003953
   13  C  1 XY   -0.000128  -0.000378   0.000093  -0.000130  -0.000301
   14  C  1 XZ    0.000000   0.000000  -0.000000   0.000000   0.000000
   15  C  1 YZ    0.000000   0.000000   0.000000   0.000000   0.000000
   16  C  2  S   -0.000138   0.000056   0.036554   0.992637  -0.065218
   17  C  2  S   -0.000616   0.000163   0.000192   0.037081   0.122985
   18  C  2  S    0.010067  -0.003847   0.005723  -0.021622   0.017837
   19  C  2  X    0.000475   0.000266   0.001018   0.000458   0.019461
   20  C  2  Y    0.001098  -0.000121  -0.000021   0.000639   0.096511
   21  C  2  Z    0.000000   0.000000  -0.000000  -0.000000  -0.000000
   22  C  2  X   -0.000822   0.001711  -0.002711   0.002725   0.004635
   23  C  2  Y    0.004231  -0.001441  -0.000037   0.001392   0.008061
   24  C  2  Z    0.000000   0.000000   0.000000   0.000000   0.000000
   25  C  2 XX   -0.000164  -0.000009  -0.001007  -0.000370  -0.006287
   26  C  2 YY    0.000295   0.000032   0.000500   0.000217   0.018083
   27  C  2 ZZ   -0.000131  -0.000023   0.000507   0.000152  -0.011796
   28  C  2 XY    0.000111   0.000139  -0.000050   0.000014   0.009028
   29  C  2 XZ    0.000000   0.000000   0.000000  -0.000000   0.000000
   30  C  2 YZ   -0.000000   0.000000   0.000000   0.000000  -0.000000
   31  F  3  S    0.993080   0.002891   0.000008   0.000063  -0.230956
   32  F  3  S    0.034010  -0.000244  -0.000166   0.000427   0.469951
   33  F  3  S   -0.016883   0.001017  -0.000013  -0.000641   0.481461
   34  F  3  X   -0.000302   0.000082   0.000084   0.000109  -0.027945
   35  F  3  Y   -0.001191   0.000001   0.000051   0.000281  -0.095026
   36  F  3  Z   -0.000000   0.000000   0.000000   0.000000  -0.000000
   37  F  3  X    0.001048  -0.000145  -0.000325   0.000303  -0.012607
   38  F  3  Y    0.003693  -0.000263   0.000162   0.001929  -0.043989
   39  F  3  Z    0.000000   0.000000  -0.000000  -0.000000  -0.000000
   40  F  3 XX    0.000228  -0.000053   0.000192   0.000457  -0.004499
   41  F  3 YY   -0.000419   0.000021  -0.000138  -0.001118   0.010784
   42  F  3 ZZ    0.000191   0.000032  -0.000054   0.000661  -0.006285
   43  F  3 XY   -0.000226   0.000000   0.000025  -0.000565   0.005980
   44  F  3 XZ    0.000000   0.000000   0.000000   0.000000   0.000000
   45  F  3 YZ    0.000000   0.000000   0.000000   0.000000   0.000000
   46  H  4  S   -0.000984   0.000207  -0.000376  -0.001221   0.022140
   47  H  4  S   -0.000123  -0.000148   0.000394   0.003448   0.001530
   48  H  4  X    0.000016  -0.000063  -0.000119   0.000359  -0.001552
   49  H  4  Y   -0.000420   0.000084  -0.000054  -0.000637   0.003218
   50  H  4  Z    0.000033  -0.000004   0.000061   0.001056  -0.004005
   51  H  5  S   -0.000984   0.000207  -0.000376  -0.001221   0.022140
   52  H  5  S   -0.000123  -0.000148   0.000394   0.003448   0.001530
   53  H  5  X    0.000016  -0.000063  -0.000119   0.000359  -0.001552
   54  H  5  Y   -0.000420   0.000084  -0.000054  -0.000637   0.003218
   55  H  5  Z   -0.000033   0.000004  -0.000061  -0.001056   0.004005
   56  F  6  S   -0.002889   0.993087   0.000046   0.000004  -0.051170
   57  F  6  S   -0.000432   0.033663   0.000358  -0.000179   0.102945
   58  F  6  S    0.001037  -0.015872   0.000097   0.000042   0.107051
   59  F  6  X   -0.000089   0.000420  -0.000057  -0.000089   0.011871
   60  F  6  Y    0.000023  -0.001072   0.000054   0.000030  -0.017386
   61  F  6  Z    0.000000   0.000000   0.000000   0.000000  -0.000000
   62  F  6  X    0.000209  -0.001402  -0.000284   0.000305   0.006869
   63  F  6  Y   -0.000332   0.003317   0.001320   0.000039  -0.007713
   64  F  6  Z    0.000000  -0.000000   0.000000   0.000000   0.000000
   65  F  6 XX   -0.000053   0.000160   0.000311   0.000145   0.000313
   66  F  6 YY    0.000028  -0.000352  -0.000928  -0.000061   0.001635
   67  F  6 ZZ    0.000025   0.000192   0.000617  -0.000084  -0.001948
   68  F  6 XY   -0.000012   0.000303   0.000714  -0.000037  -0.001971
   69  F  6 XZ    0.000000   0.000000   0.000000   0.000000   0.000000
   70  F  6 YZ    0.000000   0.000000   0.000000   0.000000  -0.000000
   71  H  7  S    0.000224  -0.000801  -0.001232  -0.000263   0.005064
   72  H  7  S   -0.000151   0.000003   0.003534   0.000158  -0.000158
   73  H  7  X    0.000046   0.000068  -0.000268   0.000146   0.000205
   74  H  7  Y    0.000093  -0.000392  -0.000689   0.000012   0.000795
   75  H  7  Z    0.000003   0.000035  -0.001077   0.000016   0.001081
   76  H  8  S    0.000224  -0.000801  -0.001232  -0.000263   0.005064
   77  H  8  S   -0.000151   0.000003   0.003534   0.000158  -0.000158
   78  H  8  X    0.000046   0.000068  -0.000268   0.000146   0.000205
   79  H  8  Y    0.000093  -0.000392  -0.000689   0.000012   0.000795
   80  H  8  Z   -0.000003  -0.000035   0.001077  -0.000016  -0.001081

                      6          7          8          9         10
                   -1.0541    -0.7160    -0.5747    -0.4695    -0.4625
                     A          A          A          A          A   
    1  C  1  S   -0.050210  -0.153811   0.128264  -0.000000  -0.007650
    2  C  1  S    0.096905   0.314440  -0.279099  -0.000000   0.032373
    3  C  1  S    0.016183   0.175590  -0.144725   0.000002  -0.011341
    4  C  1  X   -0.031162   0.106649   0.118905   0.000000   0.048980
    5  C  1  Y    0.071641  -0.041140   0.048146   0.000000   0.228596
    6  C  1  Z    0.000000   0.000000  -0.000000   0.294173  -0.000000
    7  C  1  X   -0.009082   0.032228   0.042815  -0.000001   0.019905
    8  C  1  Y    0.010300  -0.022498   0.041679  -0.000001   0.068010
    9  C  1  Z   -0.000000  -0.000002   0.000001   0.119786   0.000002
   10  C  1 XX   -0.004220   0.009811   0.009503  -0.000000  -0.001229
   11  C  1 YY    0.012391  -0.005525  -0.005721  -0.000000   0.009104
   12  C  1 ZZ   -0.008171  -0.004286  -0.003781   0.000000  -0.007875
   13  C  1 XY   -0.009840  -0.000270   0.000971   0.000000   0.006200
   14  C  1 XZ    0.000000   0.000000  -0.000000   0.006928  -0.000000
   15  C  1 YZ    0.000000   0.000000  -0.000000  -0.002805  -0.000000
   16  C  2  S    0.007242  -0.148726  -0.128797   0.000000   0.003622
   17  C  2  S   -0.016047   0.304174   0.282083   0.000000   0.010384
   18  C  2  S    0.014257   0.164295   0.133022  -0.000003  -0.051708
   19  C  2  X   -0.021778  -0.106038   0.136726   0.000000  -0.102556
   20  C  2  Y   -0.020762  -0.055236  -0.019047   0.000000   0.304981
   21  C  2  Z   -0.000000  -0.000000  -0.000000   0.333268  -0.000000
   22  C  2  X   -0.008752  -0.030882   0.049955  -0.000001  -0.044706
   23  C  2  Y   -0.002284  -0.028959  -0.039890   0.000001   0.072901
   24  C  2  Z    0.000000   0.000002   0.000001   0.135531  -0.000002
   25  C  2 XX    0.004725   0.009914  -0.009755   0.000000  -0.003088
   26  C  2 YY   -0.005698  -0.005794   0.006629   0.000000   0.016066
   27  C  2 ZZ    0.000973  -0.004120   0.003126  -0.000000  -0.012978
   28  C  2 XY   -0.003468   0.001615   0.000798   0.000000  -0.004386
   29  C  2 XZ   -0.000000   0.000000   0.000000  -0.003690  -0.000000
   30  C  2 YZ    0.000000  -0.000000  -0.000000   0.000332   0.000000
   31  F  3  S    0.057922   0.056836   0.052969   0.000000   0.040815
   32  F  3  S   -0.119362  -0.122784  -0.117699  -0.000000  -0.083883
   33  F  3  S   -0.122594  -0.143942  -0.138929  -0.000000  -0.131357
   34  F  3  X    0.000565  -0.037892  -0.015572  -0.000000  -0.242355
   35  F  3  Y    0.021873  -0.077518  -0.200735  -0.000000  -0.300915
   36  F  3  Z    0.000000   0.000000  -0.000000   0.204966  -0.000000
   37  F  3  X   -0.001363  -0.015289  -0.014646  -0.000000  -0.147944
   38  F  3  Y    0.011485  -0.046094  -0.119856  -0.000000  -0.182667
   39  F  3  Z   -0.000000  -0.000000  -0.000000   0.120519   0.000000
   40  F  3 XX    0.002208  -0.001605  -0.005277  -0.000000   0.000318
   41  F  3 YY   -0.003033   0.004307   0.009662   0.000000   0.005976
   42  F  3 ZZ    0.000825  -0.002702  -0.004385  -0.000000  -0.006294
   43  F  3 XY   -0.001012   0.003513   0.001221   0.000000   0.012067
   44  F  3 XZ   -0.000000   0.000000   0.000000  -0.003203  -0.000000
   45  F  3 YZ    0.000000   0.000000   0.000000  -0.011574  -0.000000
   46  H  4  S   -0.004512   0.111406   0.164326   0.187885  -0.126181
   47  H  4  S   -0.001025  -0.003581   0.007813   0.026163  -0.033206
   48  H  4  X    0.000277  -0.005838  -0.002579  -0.007133   0.001840
   49  H  4  Y   -0.000660   0.003916   0.005486   0.005776   0.002789
   50  H  4  Z    0.000654  -0.009289  -0.011562  -0.003841   0.007066
   51  H  5  S   -0.004512   0.111406   0.164327  -0.187885  -0.126182
   52  H  5  S   -0.001025  -0.003578   0.007815  -0.026159  -0.033209
   53  H  5  X    0.000277  -0.005838  -0.002579   0.007133   0.001840
   54  H  5  Y   -0.000660   0.003916   0.005486  -0.005776   0.002788
   55  H  5  Z   -0.000654   0.009289   0.011562  -0.003841  -0.007066
   56  F  6  S   -0.237105   0.050375  -0.043336   0.000000   0.031666
   57  F  6  S    0.483028  -0.108889   0.097601   0.000000  -0.065872
   58  F  6  S    0.504357  -0.126804   0.110808  -0.000000  -0.102451
   59  F  6  X    0.029789   0.037090  -0.035969   0.000000   0.178365
   60  F  6  Y   -0.073549  -0.062485   0.146665  -0.000000  -0.185352
   61  F  6  Z    0.000000  -0.000000   0.000000   0.128598  -0.000000
   62  F  6  X    0.014799   0.015986  -0.027681   0.000000   0.109897
   63  F  6  Y   -0.038834  -0.039266   0.090645   0.000000  -0.115970
   64  F  6  Z    0.000000   0.000000  -0.000000   0.074750  -0.000000
   65  F  6 XX   -0.003411  -0.001097   0.003492   0.000000   0.001943
   66  F  6 YY    0.009262   0.003517  -0.007224  -0.000000   0.002553
   67  F  6 ZZ   -0.005851  -0.002421   0.003732   0.000000  -0.004495
   68  F  6 XY   -0.007623  -0.003638   0.003045  -0.000000  -0.008379
   69  F  6 XZ    0.000000   0.000000  -0.000000   0.003144  -0.000000
   70  F  6 YZ   -0.000000  -0.000000   0.000000  -0.007010   0.000000
   71  H  7  S    0.018885   0.116303  -0.165589  -0.168536  -0.079029
   72  H  7  S    0.002035  -0.003759  -0.008528  -0.022161  -0.021604
   73  H  7  X    0.000840   0.005427  -0.002115  -0.006114  -0.002113
   74  H  7  Y    0.002912   0.004873  -0.005613  -0.005602   0.002474
   75  H  7  Z    0.003185   0.009802  -0.011609  -0.003410  -0.004451
   76  H  8  S    0.018885   0.116304  -0.165590   0.168535  -0.079030
   77  H  8  S    0.002035  -0.003757  -0.008530   0.022158  -0.021606
   78  H  8  X    0.000840   0.005427  -0.002115   0.006114  -0.002113
   79  H  8  Y    0.002912   0.004873  -0.005614   0.005602   0.002474
   80  H  8  Z   -0.003185  -0.009802   0.011609  -0.003410   0.004451

                     11         12         13         14         15
                   -0.4329    -0.4055    -0.3881    -0.3081    -0.3076
                     A          A          A          A          A   
    1  C  1  S    0.008169  -0.012061   0.000000   0.000000  -0.026732
    2  C  1  S   -0.019348   0.017815   0.000000  -0.000000   0.057418
    3  C  1  S   -0.017443   0.044330  -0.000002  -0.000003   0.164857
    4  C  1  X    0.323274   0.034966  -0.000000  -0.000001   0.103971
    5  C  1  Y    0.035889  -0.285320  -0.000000  -0.000000  -0.002777
    6  C  1  Z   -0.000000  -0.000000  -0.305050  -0.092211  -0.000001
    7  C  1  X    0.121095  -0.006082   0.000001  -0.000001   0.141933
    8  C  1  Y    0.030495  -0.076727   0.000001   0.000001  -0.025974
    9  C  1  Z    0.000001  -0.000001  -0.140632   0.005333   0.000000
   10  C  1 XX    0.007400   0.002360   0.000000   0.000000  -0.009412
   11  C  1 YY   -0.003352  -0.015125   0.000000  -0.000000   0.006824
   12  C  1 ZZ   -0.004048   0.012764  -0.000000  -0.000000   0.002588
   13  C  1 XY    0.006448   0.017428  -0.000000  -0.000000   0.009277
   14  C  1 XZ   -0.000000   0.000000   0.014358  -0.009947  -0.000000
   15  C  1 YZ   -0.000000   0.000000   0.002288   0.019520   0.000000
   16  C  2  S   -0.010506   0.015457   0.000000  -0.000000   0.018114
   17  C  2  S    0.019535  -0.030075   0.000000   0.000000  -0.033359
   18  C  2  S    0.040396  -0.051879  -0.000002   0.000004  -0.141753
   19  C  2  X   -0.313588  -0.067349   0.000000   0.000000  -0.025162
   20  C  2  Y   -0.095755   0.189197  -0.000000  -0.000000   0.041158
   21  C  2  Z    0.000000  -0.000000   0.226415  -0.150893  -0.000002
   22  C  2  X   -0.118093  -0.044093  -0.000000   0.000000   0.084092
   23  C  2  Y   -0.006906   0.041732   0.000000  -0.000001   0.056322
   24  C  2  Z   -0.000001  -0.000001   0.107725  -0.036460  -0.000001
   25  C  2 XX    0.007222  -0.004861   0.000000  -0.000000   0.014876
   26  C  2 YY   -0.009032   0.015775   0.000000   0.000000  -0.009051
   27  C  2 ZZ    0.001810  -0.010914  -0.000000   0.000000  -0.005825
   28  C  2 XY   -0.014433   0.014409   0.000000  -0.000000   0.017087
   29  C  2 XZ   -0.000000  -0.000000   0.017423   0.004319   0.000000
   30  C  2 YZ    0.000000   0.000000   0.007426   0.023900   0.000000
   31  F  3  S   -0.019889   0.014571  -0.000000  -0.000000   0.005841
   32  F  3  S    0.039449  -0.027600  -0.000000   0.000000  -0.011941
   33  F  3  S    0.062378  -0.044261   0.000000   0.000000  -0.028343
   34  F  3  X   -0.174650  -0.148820   0.000000  -0.000005   0.489842
   35  F  3  Y    0.324863  -0.248975  -0.000000   0.000002  -0.158012
   36  F  3  Z    0.000000  -0.000000   0.321932   0.429966   0.000005
   37  F  3  X   -0.107972  -0.092809   0.000000  -0.000004   0.323511
   38  F  3  Y    0.201429  -0.151262  -0.000000   0.000001  -0.099175
   39  F  3  Z    0.000000   0.000000   0.207747   0.304021   0.000003
   40  F  3 XX    0.009716  -0.001872  -0.000000   0.000000  -0.002922
   41  F  3 YY   -0.012960   0.005223   0.000000  -0.000000   0.004324
   42  F  3 ZZ    0.003244  -0.003351   0.000000   0.000000  -0.001402
   43  F  3 XY    0.006803   0.006043  -0.000000   0.000000  -0.011898
   44  F  3 XZ   -0.000000   0.000000  -0.002274  -0.003512  -0.000000
   45  F  3 YZ   -0.000000  -0.000000  -0.013466  -0.008112  -0.000000
   46  H  4  S   -0.040901  -0.111132   0.148738  -0.146117  -0.066400
   47  H  4  S   -0.008732  -0.033951   0.045212  -0.071809  -0.029175
   48  H  4  X   -0.004913  -0.000248  -0.001733   0.005053   0.000123
   49  H  4  Y   -0.003748   0.001764   0.005361  -0.000490   0.000505
   50  H  4  Z    0.002804   0.005518  -0.002399   0.001194   0.002384
   51  H  5  S   -0.040901  -0.111133  -0.148738   0.146118  -0.066397
   52  H  5  S   -0.008734  -0.033952  -0.045210   0.071807  -0.029175
   53  H  5  X   -0.004913  -0.000248   0.001733  -0.005053   0.000123
   54  H  5  Y   -0.003748   0.001764  -0.005361   0.000490   0.000505
   55  H  5  Z   -0.002804  -0.005518  -0.002399   0.001194  -0.002384
   56  F  6  S   -0.011994  -0.030972  -0.000000   0.000000  -0.005759
   57  F  6  S    0.024816   0.063320  -0.000000  -0.000000   0.012798
   58  F  6  S    0.036429   0.094886   0.000000  -0.000000   0.022431
   59  F  6  X    0.128967  -0.206923  -0.000000  -0.000004   0.408895
   60  F  6  Y    0.217722   0.410175   0.000000  -0.000002   0.206192
   61  F  6  Z    0.000000  -0.000000  -0.262588   0.468091   0.000005
   62  F  6  X    0.078765  -0.131862  -0.000000  -0.000003   0.264135
   63  F  6  Y    0.139768   0.260219  -0.000000  -0.000001   0.130247
   64  F  6  Z   -0.000000   0.000000  -0.166566   0.326072   0.000004
   65  F  6 XX    0.008498   0.002982  -0.000000  -0.000000   0.004649
   66  F  6 YY   -0.010296  -0.009236   0.000000   0.000000  -0.005874
   67  F  6 ZZ    0.001798   0.006253  -0.000000  -0.000000   0.001224
   68  F  6 XY   -0.003022   0.008918   0.000000   0.000000  -0.009316
   69  F  6 XZ   -0.000000   0.000000  -0.003167   0.004466   0.000000
   70  F  6 YZ    0.000000  -0.000000   0.010996  -0.008558  -0.000000
   71  H  7  S   -0.102516   0.120337   0.208850   0.095220   0.015324
   72  H  7  S   -0.023933   0.037648   0.061914   0.053438   0.003084
   73  H  7  X    0.004669   0.002478   0.003202   0.004537   0.002227
   74  H  7  Y   -0.002818  -0.004432   0.006667  -0.000243  -0.000309
   75  H  7  Z   -0.005926   0.006019   0.003230   0.000448   0.000178
   76  H  8  S   -0.102516   0.120338  -0.208850  -0.095220   0.015322
   77  H  8  S   -0.023935   0.037649  -0.061911  -0.053436   0.003083
   78  H  8  X    0.004669   0.002478  -0.003202  -0.004537   0.002227
   79  H  8  Y   -0.002818  -0.004432  -0.006667   0.000243  -0.000309
   80  H  8  Z    0.005926  -0.006019   0.003230   0.000448  -0.000178

                     16         17         18         19         20
                   -0.2923    -0.2779    -0.0282     0.0131     0.0370
                     A          A          A          A          A   
    1  C  1  S    0.017508   0.000000  -0.055473  -0.085720   0.000000
    2  C  1  S   -0.053183   0.000000   0.161737   0.159579   0.000000
    3  C  1  S   -0.045510  -0.000002   0.195496   1.162053  -0.000009
    4  C  1  X   -0.262458  -0.000000  -0.136832  -0.152678   0.000000
    5  C  1  Y   -0.082015  -0.000000   0.379978  -0.080000   0.000000
    6  C  1  Z    0.000000  -0.202028   0.000000  -0.000001   0.289331
    7  C  1  X   -0.069912   0.000001  -0.201541  -0.346680   0.000001
    8  C  1  Y   -0.027577   0.000001   0.508248  -0.184676   0.000003
    9  C  1  Z   -0.000002  -0.037656   0.000000  -0.000003   0.665464
   10  C  1 XX   -0.019875   0.000000   0.006409   0.011477   0.000000
   11  C  1 YY    0.013260   0.000000  -0.030310  -0.002497  -0.000000
   12  C  1 ZZ    0.006615  -0.000000   0.023901  -0.008981  -0.000000
   13  C  1 XY    0.010796  -0.000000   0.035298  -0.000850   0.000000
   14  C  1 XZ    0.000000   0.007876  -0.000000   0.000000   0.024726
   15  C  1 YZ    0.000000   0.019291  -0.000000   0.000000   0.019072
   16  C  2  S    0.018923   0.000000  -0.022808  -0.074248  -0.000000
   17  C  2  S   -0.055679   0.000000   0.080331   0.129438  -0.000001
   18  C  2  S   -0.076313  -0.000003   0.023787   1.119463   0.000007
   19  C  2  X    0.273743   0.000000   0.057910   0.142260  -0.000000
   20  C  2  Y   -0.042806  -0.000000   0.247835  -0.112738  -0.000000
   21  C  2  Z   -0.000000   0.210385  -0.000000   0.000002   0.289524
   22  C  2  X    0.102373  -0.000001   0.108978   0.329972   0.000001
   23  C  2  Y   -0.007238   0.000001   0.388914  -0.209752  -0.000003
   24  C  2  Z    0.000002   0.046265  -0.000000   0.000004   0.661505
   25  C  2 XX   -0.015674   0.000000   0.012763   0.010099  -0.000000
   26  C  2 YY    0.009786   0.000000  -0.033849   0.000312   0.000000
   27  C  2 ZZ    0.005888  -0.000000   0.021086  -0.010410   0.000000
   28  C  2 XY   -0.013089   0.000000  -0.032892   0.002134   0.000000
   29  C  2 XZ    0.000000   0.009783  -0.000000   0.000000  -0.026858
   30  C  2 YZ   -0.000000  -0.020200   0.000000  -0.000000   0.016034
   31  F  3  S    0.004027   0.000000   0.046296   0.000183  -0.000000
   32  F  3  S   -0.012652  -0.000000  -0.088929   0.004108   0.000000
   33  F  3  S   -0.001604   0.000000  -0.340837  -0.023973   0.000000
   34  F  3  X   -0.326099  -0.000000   0.089994  -0.032091   0.000000
   35  F  3  Y    0.062815   0.000000   0.219542   0.066216  -0.000000
   36  F  3  Z    0.000000  -0.375267   0.000000  -0.000000  -0.064529
   37  F  3  X   -0.242528   0.000000   0.097124  -0.051154   0.000000
   38  F  3  Y    0.046850  -0.000000   0.204274   0.088592   0.000000
   39  F  3  Z   -0.000000  -0.256824   0.000000  -0.000001  -0.086299
   40  F  3 XX    0.003189  -0.000000  -0.000558  -0.000356   0.000000
   41  F  3 YY   -0.002672   0.000000   0.000601   0.003324  -0.000000
   42  F  3 ZZ   -0.000517   0.000000  -0.000043  -0.002968   0.000000
   43  F  3 XY    0.002660  -0.000000   0.000635  -0.001980  -0.000000
   44  F  3 XZ    0.000000   0.001560   0.000000  -0.000000  -0.005075
   45  F  3 YZ    0.000000   0.004614   0.000000  -0.000000  -0.004343
   46  H  4  S    0.106127   0.208208   0.061475  -0.043408  -0.093762
   47  H  4  S    0.059779   0.109358   0.170412  -0.730593  -1.023615
   48  H  4  X    0.004630  -0.002805   0.007171   0.002180  -0.007027
   49  H  4  Y   -0.000630   0.002569   0.009829   0.004475   0.009912
   50  H  4  Z   -0.004604  -0.001770   0.006631  -0.014116  -0.010249
   51  H  5  S    0.106128  -0.208208   0.061475  -0.043408   0.093762
   52  H  5  S    0.059782  -0.109355   0.170412  -0.730584   1.023606
   53  H  5  X    0.004630   0.002805   0.007171   0.002180   0.007027
   54  H  5  Y   -0.000630  -0.002568   0.009829   0.004475  -0.009912
   55  H  5  Z    0.004604  -0.001770  -0.006631   0.014117  -0.010249
   56  F  6  S    0.002457   0.000000   0.059006   0.006325   0.000000
   57  F  6  S   -0.009417  -0.000000  -0.112280  -0.009081  -0.000000
   58  F  6  S    0.005596   0.000000  -0.417419  -0.060414  -0.000000
   59  F  6  X    0.430472   0.000000  -0.151247   0.007610   0.000000
   60  F  6  Y    0.154831   0.000000   0.314619   0.101607   0.000000
   61  F  6  Z   -0.000000   0.407072  -0.000000   0.000000  -0.054178
   62  F  6  X    0.308287  -0.000000  -0.154082   0.023920   0.000000
   63  F  6  Y    0.107610  -0.000000   0.293511   0.118808  -0.000000
   64  F  6  Z    0.000000   0.277254  -0.000000   0.000000  -0.071511
   65  F  6 XX    0.004929  -0.000000  -0.000996  -0.000948  -0.000000
   66  F  6 YY   -0.004551   0.000000   0.001422   0.004138   0.000000
   67  F  6 ZZ   -0.000378   0.000000  -0.000426  -0.003191   0.000000
   68  F  6 XY   -0.004065   0.000000  -0.001651   0.000634  -0.000000
   69  F  6 XZ    0.000000   0.002049   0.000000  -0.000000   0.004697
   70  F  6 YZ   -0.000000  -0.004569  -0.000000   0.000000  -0.003284
   71  H  7  S    0.110511   0.198274   0.036385  -0.054162   0.099785
   72  H  7  S    0.062605   0.103772   0.091210  -0.766697   1.029594
   73  H  7  X   -0.004597   0.002295  -0.009264  -0.003416  -0.005592
   74  H  7  Y   -0.001502   0.002498   0.014058   0.006619  -0.011188
   75  H  7  Z    0.004667   0.001667  -0.007870   0.013839  -0.010135
   76  H  8  S    0.110512  -0.198273   0.036385  -0.054162  -0.099784
   77  H  8  S    0.062608  -0.103770   0.091209  -0.766692  -1.029582
   78  H  8  X   -0.004597  -0.002295  -0.009264  -0.003416   0.005592
   79  H  8  Y   -0.001502  -0.002498   0.014058   0.006619   0.011188
   80  H  8  Z   -0.004667   0.001666   0.007871  -0.013840  -0.010134

                     21         22         23         24         25
                    0.0677     0.1152     0.1244     0.1873     0.3427
                     A          A          A          A          A   
    1  C  1  S    0.093162   0.026958   0.000000  -0.076139   0.004225
    2  C  1  S   -0.159161  -0.122455  -0.000002   0.105888   0.021737
    3  C  1  S   -1.479314   0.473379  -0.000003   1.753525   0.561998
    4  C  1  X    0.041413   0.207328   0.000000   0.349614   0.453822
    5  C  1  Y    0.092085  -0.342933   0.000002   0.199672  -0.190188
    6  C  1  Z   -0.000000  -0.000000  -0.315106  -0.000000   0.000000
    7  C  1  X   -0.011002   0.559221  -0.000003   1.968200  -0.895894
    8  C  1  Y    0.296972  -0.655235   0.000001   0.755964   0.142907
    9  C  1  Z   -0.000001  -0.000002  -1.084362  -0.000001   0.000000
   10  C  1 XX    0.004960  -0.016454  -0.000000  -0.044417   0.058259
   11  C  1 YY   -0.004771   0.023444  -0.000000   0.007853  -0.002153
   12  C  1 ZZ   -0.000189  -0.006989   0.000000   0.036563  -0.056107
   13  C  1 XY    0.004565   0.007166   0.000000  -0.009873  -0.008055
   14  C  1 XZ   -0.000000   0.000000   0.001426   0.000000   0.000000
   15  C  1 YZ   -0.000000   0.000000  -0.007775  -0.000000   0.000000
   16  C  2  S   -0.102666  -0.044844   0.000000   0.079173   0.007656
   17  C  2  S    0.183625   0.160866  -0.000002  -0.115359   0.034341
   18  C  2  S    1.586788  -0.205794   0.000002  -1.814240   0.411131
   19  C  2  X    0.063812   0.174495  -0.000002   0.389284  -0.431788
   20  C  2  Y   -0.055005   0.397596   0.000000  -0.150460  -0.214547
   21  C  2  Z   -0.000001   0.000001   0.319811   0.000000  -0.000000
   22  C  2  X    0.073464   0.613606  -0.000002   2.010394   1.044607
   23  C  2  Y   -0.209752   0.944627  -0.000002  -0.606781  -0.021751
   24  C  2  Z   -0.000004   0.000003   1.089640  -0.000000   0.000000
   25  C  2 XX   -0.002400   0.021419  -0.000000   0.044067   0.053829
   26  C  2 YY   -0.001696  -0.038107   0.000000  -0.004984   0.009850
   27  C  2 ZZ    0.004096   0.016688   0.000000  -0.039083  -0.063679
   28  C  2 XY   -0.000978   0.001069  -0.000000  -0.002933   0.016419
   29  C  2 XZ    0.000000  -0.000000   0.000900  -0.000000  -0.000000
   30  C  2 YZ   -0.000000   0.000000   0.008367   0.000000  -0.000000
   31  F  3  S    0.009851   0.068882  -0.000000  -0.020639  -0.000715
   32  F  3  S   -0.015265  -0.129651   0.000000   0.026396   0.021807
   33  F  3  S   -0.094117  -0.596767   0.000001   0.257329  -0.120485
   34  F  3  X    0.053197  -0.006504   0.000000  -0.132696  -0.109045
   35  F  3  Y    0.095569   0.289185  -0.000001  -0.047928  -0.081106
   36  F  3  Z    0.000000  -0.000000  -0.037497  -0.000000  -0.000000
   37  F  3  X    0.053903   0.006255   0.000000  -0.208388  -0.167629
   38  F  3  Y    0.121186   0.320432  -0.000001  -0.094747   0.043627
   39  F  3  Z    0.000000  -0.000000  -0.090521  -0.000000  -0.000000
   40  F  3 XX   -0.001696  -0.004659   0.000000   0.002874   0.014389
   41  F  3 YY    0.004040   0.006736  -0.000000   0.002074  -0.017298
   42  F  3 ZZ   -0.002344  -0.002077   0.000000  -0.004948   0.002909
   43  F  3 XY    0.000329   0.001099   0.000000  -0.011174  -0.008515
   44  F  3 XZ    0.000000  -0.000000  -0.003382  -0.000000  -0.000000
   45  F  3 YZ    0.000000  -0.000000  -0.005731  -0.000000   0.000000
   46  H  4  S   -0.046738  -0.015006  -0.026015  -0.098806  -0.239959
   47  H  4  S   -0.998176   0.024869  -1.530675  -0.628488  -0.019027
   48  H  4  X   -0.007707   0.009270  -0.010384   0.014249   0.017281
   49  H  4  Y    0.005975   0.022386   0.007993  -0.003321  -0.010158
   50  H  4  Z   -0.008100   0.006568  -0.009869  -0.018514  -0.013600
   51  H  5  S   -0.046738  -0.015006   0.026014  -0.098805  -0.239959
   52  H  5  S   -0.998188   0.024879   1.530676  -0.628489  -0.019028
   53  H  5  X   -0.007707   0.009270   0.010384   0.014249   0.017281
   54  H  5  Y    0.005975   0.022386  -0.007993  -0.003321  -0.010158
   55  H  5  Z    0.008100  -0.006568  -0.009869   0.018515   0.013601
   56  F  6  S    0.000382  -0.045128   0.000000   0.013926   0.007154
   57  F  6  S   -0.002131   0.088801  -0.000000  -0.019604   0.010159
   58  F  6  S   -0.001087   0.360153  -0.000001  -0.160748  -0.221123
   59  F  6  X    0.047166   0.005613  -0.000000  -0.129042   0.121852
   60  F  6  Y   -0.047074  -0.227126   0.000000   0.026458  -0.054030
   61  F  6  Z   -0.000000   0.000000   0.031278  -0.000000  -0.000000
   62  F  6  X    0.044144   0.010124   0.000000  -0.180566   0.113761
   63  F  6  Y   -0.058452  -0.224091   0.000001   0.046807   0.104883
   64  F  6  Z    0.000000   0.000000   0.074710  -0.000000  -0.000000
   65  F  6 XX    0.001153   0.004751   0.000000   0.000075   0.007890
   66  F  6 YY   -0.003374  -0.007208  -0.000000  -0.003107  -0.013148
   67  F  6 ZZ    0.002222   0.002457   0.000000   0.003032   0.005257
   68  F  6 XY    0.001473   0.003012  -0.000000  -0.010669   0.014917
   69  F  6 XZ   -0.000000  -0.000000  -0.003573  -0.000000   0.000000
   70  F  6 YZ    0.000000   0.000000   0.004260  -0.000000  -0.000000
   71  H  7  S    0.056576   0.045401  -0.031433   0.092676  -0.210572
   72  H  7  S    0.972078  -0.088309  -1.519945   0.624606   0.049444
   73  H  7  X   -0.008509   0.008319   0.009039   0.014618  -0.015351
   74  H  7  Y   -0.004519  -0.015759   0.009626   0.002845  -0.007931
   75  H  7  Z   -0.008757   0.005429   0.009657  -0.017645   0.011448
   76  H  8  S    0.056576   0.045402   0.031433   0.092675  -0.210573
   77  H  8  S    0.972084  -0.088304   1.519949   0.624610   0.049444
   78  H  8  X   -0.008509   0.008319  -0.009039   0.014618  -0.015351
   79  H  8  Y   -0.004519  -0.015759  -0.009626   0.002845  -0.007931
   80  H  8  Z    0.008758  -0.005429   0.009657   0.017645  -0.011448

                     26         27         28         29         30
                    0.3638     0.3780     0.4146     0.4892     0.5203
                     A          A          A          A          A   
    1  C  1  S    0.000000   0.030028  -0.017099   0.074518   0.053390
    2  C  1  S    0.000000  -0.277551   0.146720  -0.551725  -0.315068
    3  C  1  S   -0.000002  -0.078066   0.006677   1.738757   0.382614
    4  C  1  X   -0.000001   0.043397  -0.185566  -0.627456   0.423153
    5  C  1  Y   -0.000001  -0.595300   0.434274  -0.009951   0.292479
    6  C  1  Z   -0.055107  -0.000000   0.000000   0.000000  -0.000003
    7  C  1  X    0.000000   0.119644   0.282117   1.897612  -0.515285
    8  C  1  Y    0.000002   1.089461  -1.381001   0.658743  -0.333964
    9  C  1  Z    0.582023   0.000000   0.000001  -0.000001  -0.000002
   10  C  1 XX    0.000000  -0.032814   0.015041   0.059631  -0.046051
   11  C  1 YY    0.000000  -0.001921  -0.008118  -0.059076  -0.016252
   12  C  1 ZZ   -0.000000   0.034735  -0.006922  -0.000555   0.062303
   13  C  1 XY    0.000000  -0.050167  -0.002626   0.012207   0.065996
   14  C  1 XZ    0.075263  -0.000000   0.000000  -0.000000  -0.000000
   15  C  1 YZ    0.076553  -0.000000   0.000000  -0.000000  -0.000001
   16  C  2  S    0.000000   0.033254   0.028777  -0.063627   0.071814
   17  C  2  S   -0.000001  -0.263197  -0.250220   0.481776  -0.447232
   18  C  2  S    0.000002  -0.001026   0.064106  -1.655335   0.693817
   19  C  2  X   -0.000001   0.078818  -0.129512  -0.679831  -0.329907
   20  C  2  Y    0.000002  -0.466246  -0.670603  -0.016312   0.165841
   21  C  2  Z   -0.056777   0.000000   0.000000   0.000001  -0.000004
   22  C  2  X   -0.000001  -0.350511   0.098171   1.996751   0.137495
   23  C  2  Y   -0.000002   0.459763   1.628541  -0.456096  -0.073948
   24  C  2  Z    0.562926  -0.000001   0.000001  -0.000001   0.000013
   25  C  2 XX   -0.000000  -0.039120  -0.030516  -0.067241  -0.020889
   26  C  2 YY   -0.000000   0.020300   0.037410   0.050062  -0.036137
   27  C  2 ZZ    0.000000   0.018820  -0.006894   0.017179   0.057025
   28  C  2 XY   -0.000000   0.046580   0.025961  -0.023722  -0.063368
   29  C  2 XZ   -0.084614   0.000000  -0.000000   0.000000   0.000000
   30  C  2 YZ    0.060445   0.000000   0.000000  -0.000000  -0.000000
   31  F  3  S    0.000000   0.004997   0.011427   0.007505  -0.025655
   32  F  3  S   -0.000000   0.030978   0.063537  -0.049403   0.101189
   33  F  3  S    0.000000  -0.243578  -0.636427   0.114185   0.022970
   34  F  3  X    0.000000   0.007503  -0.141932   0.008139   0.011321
   35  F  3  Y    0.000000  -0.205287  -0.237681   0.027852  -0.061940
   36  F  3  Z   -0.146696   0.000000  -0.000000   0.000000  -0.000001
   37  F  3  X    0.000000   0.151796   0.020385  -0.105867  -0.066700
   38  F  3  Y    0.000000   0.005965   0.081079  -0.004504  -0.055200
   39  F  3  Z   -0.079350   0.000000  -0.000000   0.000000  -0.000001
   40  F  3 XX   -0.000000   0.009798   0.012202   0.017038   0.007152
   41  F  3 YY    0.000000  -0.030697  -0.042744  -0.009651  -0.007786
   42  F  3 ZZ   -0.000000   0.020899   0.030542  -0.007387   0.000633
   43  F  3 XY    0.000000  -0.018057  -0.024092   0.019282   0.010704
   44  F  3 XZ   -0.011073  -0.000000  -0.000000   0.000000   0.000000
   45  F  3 YZ   -0.003684   0.000000  -0.000000  -0.000000   0.000000
   46  H  4  S   -0.537382   0.149235   0.111034  -0.193529   0.571338
   47  H  4  S    0.127513   0.080785   0.141233  -0.439992  -0.431437
   48  H  4  X   -0.025510  -0.013191  -0.021747  -0.023079   0.017914
   49  H  4  Y    0.014152   0.007147   0.002942  -0.011954  -0.017103
   50  H  4  Z    0.005340   0.000082  -0.003459  -0.011771   0.056170
   51  H  5  S    0.537382   0.149234   0.111036  -0.193529   0.571340
   52  H  5  S   -0.127514   0.080785   0.141233  -0.439994  -0.431425
   53  H  5  X    0.025510  -0.013191  -0.021747  -0.023079   0.017913
   54  H  5  Y   -0.014152   0.007147   0.002942  -0.011954  -0.017102
   55  H  5  Z    0.005340  -0.000083   0.003459   0.011772  -0.056170
   56  F  6  S   -0.000000   0.019541  -0.011854  -0.010714  -0.021058
   57  F  6  S    0.000000   0.012754  -0.042189   0.064251   0.079589
   58  F  6  S   -0.000000  -0.463119   0.505360  -0.098101   0.056545
   59  F  6  X    0.000000   0.038962  -0.135584  -0.002079  -0.009100
   60  F  6  Y   -0.000000  -0.203252   0.116490  -0.038420  -0.035664
   61  F  6  Z   -0.149248  -0.000000  -0.000000   0.000000   0.000001
   62  F  6  X   -0.000000  -0.165000   0.025911  -0.102737   0.086238
   63  F  6  Y   -0.000000   0.086556  -0.116314  -0.008141  -0.027031
   64  F  6  Z   -0.068875  -0.000000  -0.000000   0.000000   0.000000
   65  F  6 XX   -0.000000   0.006764  -0.001757  -0.014995   0.011208
   66  F  6 YY   -0.000000  -0.030955   0.021710   0.006990  -0.009090
   67  F  6 ZZ    0.000000   0.024192  -0.019953   0.008005  -0.002119
   68  F  6 XY    0.000000   0.024188  -0.018562   0.010818  -0.009796
   69  F  6 XZ    0.010312  -0.000000   0.000000  -0.000000   0.000000
   70  F  6 YZ   -0.005470   0.000000  -0.000000   0.000000   0.000000
   71  H  7  S    0.563821   0.215924  -0.138046   0.313220   0.518778
   72  H  7  S   -0.156193   0.110802  -0.092962   0.342153  -0.543345
   73  H  7  X   -0.022939   0.017926  -0.015379  -0.026224  -0.013110
   74  H  7  Y   -0.019032   0.016068  -0.005367   0.006082  -0.019939
   75  H  7  Z    0.005350  -0.003240   0.002109  -0.023025  -0.054241
   76  H  8  S   -0.563821   0.215924  -0.138048   0.313222   0.518784
   77  H  8  S    0.156193   0.110802  -0.092961   0.342152  -0.543352
   78  H  8  X    0.022939   0.017926  -0.015379  -0.026224  -0.013110
   79  H  8  Y    0.019032   0.016068  -0.005367   0.006082  -0.019939
   80  H  8  Z    0.005350   0.003240  -0.002109   0.023025   0.054241

                     31         32         33         34         35
                    0.5321     0.5386     0.5770     0.5958     0.7522
                     A          A          A          A          A   
    1  C  1  S   -0.000000  -0.000000  -0.071073  -0.000000   0.025765
    2  C  1  S    0.000001   0.000002   0.532552  -0.000002  -1.233086
    3  C  1  S   -0.000003  -0.000005  -0.089289   0.000004   2.366325
    4  C  1  X   -0.000001  -0.000001  -0.314383  -0.000001  -0.109656
    5  C  1  Y   -0.000001  -0.000001  -0.347813  -0.000000   0.121912
    6  C  1  Z   -0.392074  -0.817081  -0.000001   0.375131  -0.000002
    7  C  1  X    0.000000   0.000000   1.304524   0.000002  -0.361644
    8  C  1  Y    0.000000   0.000000   0.566896   0.000001  -0.377029
    9  C  1  Z    0.709287   1.234748   0.000002  -2.632395   0.000008
   10  C  1 XX    0.000000   0.000000   0.043035  -0.000000  -0.065661
   11  C  1 YY    0.000000   0.000000   0.025452   0.000000   0.069537
   12  C  1 ZZ   -0.000000  -0.000000  -0.068487  -0.000000  -0.003876
   13  C  1 XY   -0.000000  -0.000000  -0.018678  -0.000000  -0.002579
   14  C  1 XZ   -0.050209  -0.042554  -0.000000   0.020639  -0.000000
   15  C  1 YZ   -0.012567  -0.116975  -0.000000  -0.055018   0.000000
   16  C  2  S   -0.000000  -0.000000   0.074721   0.000000   0.019037
   17  C  2  S    0.000002   0.000001  -0.573691  -0.000003  -1.217387
   18  C  2  S   -0.000001  -0.000001   0.142106   0.000003   2.613184
   19  C  2  X    0.000001   0.000001  -0.358409   0.000001   0.111256
   20  C  2  Y   -0.000001  -0.000001   0.297310   0.000000   0.191053
   21  C  2  Z   -0.863174   0.276356  -0.000001  -0.363698   0.000002
   22  C  2  X   -0.000002  -0.000002   1.369523   0.000001   0.312860
   23  C  2  Y    0.000001   0.000001  -0.400039  -0.000001  -0.385370
   24  C  2  Z    1.453931  -0.289799  -0.000000   2.670252  -0.000008
   25  C  2 XX    0.000000   0.000000  -0.044410  -0.000000  -0.062913
   26  C  2 YY    0.000000   0.000000  -0.024873   0.000000   0.074021
   27  C  2 ZZ   -0.000000  -0.000000   0.069284  -0.000000  -0.011108
   28  C  2 XY    0.000000   0.000000  -0.020873   0.000000  -0.009835
   29  C  2 XZ    0.077696  -0.007265   0.000000  -0.000757   0.000000
   30  C  2 YZ   -0.086196   0.072121  -0.000000   0.049820  -0.000000
   31  F  3  S    0.000000   0.000000  -0.006099   0.000000   0.042179
   32  F  3  S   -0.000000  -0.000000   0.029445  -0.000001  -0.186748
   33  F  3  S   -0.000001  -0.000000  -0.013648  -0.000001  -0.176523
   34  F  3  X   -0.000000  -0.000000   0.003378   0.000000   0.111802
   35  F  3  Y    0.000000   0.000000  -0.031819  -0.000000  -0.075709
   36  F  3  Z   -0.002029  -0.137304   0.000000  -0.238539   0.000001
   37  F  3  X    0.000000   0.000000  -0.062914   0.000000  -0.065257
   38  F  3  Y    0.000000   0.000000   0.027200   0.000001   0.307942
   39  F  3  Z   -0.111992   0.041119  -0.000000  -0.146772   0.000000
   40  F  3 XX   -0.000000  -0.000000   0.011561   0.000000   0.025753
   41  F  3 YY    0.000000   0.000000  -0.011534  -0.000000  -0.033203
   42  F  3 ZZ    0.000000   0.000000  -0.000027   0.000000   0.007451
   43  F  3 XY   -0.000000  -0.000000   0.006326  -0.000000  -0.009757
   44  F  3 XZ    0.000348  -0.009541   0.000000   0.006847  -0.000000
   45  F  3 YZ    0.024230  -0.018141   0.000000  -0.012350   0.000000
   46  H  4  S    0.380974  -0.370999   0.472399  -0.418976  -0.342861
   47  H  4  S   -1.434556   0.614524  -1.078014  -1.159404  -0.646976
   48  H  4  X    0.027985  -0.018807   0.013203   0.026659  -0.004406
   49  H  4  Y   -0.046419   0.037373  -0.013762   0.029467  -0.041422
   50  H  4  Z    0.057729  -0.011696   0.069465   0.030023   0.011206
   51  H  5  S   -0.380980   0.370996   0.472396   0.418972  -0.342863
   52  H  5  S    1.434561  -0.614520  -1.078012   1.159402  -0.646985
   53  H  5  X   -0.027985   0.018807   0.013203  -0.026660  -0.004406
   54  H  5  Y    0.046419  -0.037373  -0.013761  -0.029467  -0.041422
   55  H  5  Z    0.057731  -0.011696  -0.069465   0.030024  -0.011205
   56  F  6  S    0.000000   0.000000   0.005394   0.000000   0.039445
   57  F  6  S   -0.000000  -0.000000  -0.027253  -0.000001  -0.181446
   58  F  6  S    0.000000   0.000000   0.006917  -0.000001  -0.124734
   59  F  6  X   -0.000000   0.000000  -0.004858  -0.000000  -0.104224
   60  F  6  Y    0.000000   0.000000   0.021152  -0.000000  -0.062244
   61  F  6  Z   -0.095971   0.078195  -0.000000   0.243054  -0.000001
   62  F  6  X   -0.000000  -0.000000  -0.057119  -0.000000   0.045569
   63  F  6  Y   -0.000000  -0.000000  -0.037403   0.000001   0.263874
   64  F  6  Z   -0.034340  -0.110968  -0.000000   0.109771  -0.000000
   65  F  6 XX   -0.000000  -0.000000  -0.010106   0.000000   0.021711
   66  F  6 YY    0.000000   0.000000   0.009641  -0.000000  -0.028283
   67  F  6 ZZ   -0.000000  -0.000000   0.000465   0.000000   0.006572
   68  F  6 XY    0.000000   0.000000   0.000565   0.000000   0.015651
   69  F  6 XZ    0.006826  -0.007470  -0.000000   0.002380  -0.000000
   70  F  6 YZ    0.001237   0.023957  -0.000000   0.018193  -0.000000
   71  H  7  S   -0.013098  -0.522181  -0.461952  -0.390427  -0.305277
   72  H  7  S    0.511890   1.445844   1.057966  -1.156165  -0.649639
   73  H  7  X    0.005360   0.024346   0.012180  -0.035609   0.009833
   74  H  7  Y    0.006621   0.062415   0.013978   0.026016  -0.038489
   75  H  7  Z    0.030897   0.050294   0.067905  -0.030192  -0.013388
   76  H  8  S    0.013096   0.522178  -0.461952   0.390422  -0.305278
   77  H  8  S   -0.511888  -1.445841   1.057964   1.156167  -0.649648
   78  H  8  X   -0.005360  -0.024346   0.012180   0.035609   0.009833
   79  H  8  Y   -0.006621  -0.062414   0.013978  -0.026016  -0.038489
   80  H  8  Z    0.030897   0.050294  -0.067904  -0.030194   0.013387

                     36         37         38         39         40
                    0.8819     0.9599     0.9865     1.0224     1.1483
                     A          A          A          A          A   
    1  C  1  S    0.001247  -0.000000  -0.013008   0.027609   0.026418
    2  C  1  S   -0.277860  -0.000003  -0.798837   0.128065   1.309687
    3  C  1  S    0.414920   0.000013   3.412090  -2.168654  -5.122669
    4  C  1  X   -0.034885   0.000000  -0.010487   0.046706  -0.159276
    5  C  1  Y    0.085173   0.000000   0.041924  -0.308318   0.159277
    6  C  1  Z    0.000000   0.080245  -0.000001   0.000000   0.000001
    7  C  1  X    0.091290   0.000004   0.960715  -0.615995  -1.694795
    8  C  1  Y    0.043765  -0.000000  -0.123407   0.052032   0.101385
    9  C  1  Z   -0.000001  -0.354940   0.000002  -0.000001  -0.000001
   10  C  1 XX   -0.018391   0.000000   0.003752   0.015532  -0.063175
   11  C  1 YY   -0.079222   0.000000   0.068217  -0.136600   0.061285
   12  C  1 ZZ    0.097613  -0.000000  -0.071969   0.121068   0.001889
   13  C  1 XY   -0.165099   0.000000   0.024590   0.102858  -0.006752
   14  C  1 XZ    0.000000  -0.215840   0.000001  -0.000000  -0.000000
   15  C  1 YZ   -0.000000   0.098485  -0.000000   0.000000   0.000000
   16  C  2  S    0.002132   0.000000   0.023210  -0.006877  -0.034600
   17  C  2  S   -0.299434   0.000002   0.306519  -0.740262  -1.282326
   18  C  2  S    0.611587  -0.000012  -3.241872   2.298355   5.159887
   19  C  2  X    0.023725   0.000000  -0.027357  -0.025525  -0.115501
   20  C  2  Y    0.108532  -0.000001  -0.347721  -0.138758  -0.112705
   21  C  2  Z   -0.000000   0.059848  -0.000001   0.000000   0.000001
   22  C  2  X   -0.155524   0.000004   0.898982  -0.678467  -1.670810
   23  C  2  Y    0.025723   0.000001   0.196331  -0.180895  -0.331357
   24  C  2  Z    0.000001  -0.337886   0.000001  -0.000001  -0.000001
   25  C  2 XX   -0.061832   0.000000   0.031821   0.041818   0.072337
   26  C  2 YY   -0.025125  -0.000000  -0.183528  -0.048394  -0.069321
   27  C  2 ZZ    0.086957   0.000000   0.151707   0.006575  -0.003016
   28  C  2 XY    0.149191  -0.000000  -0.057057  -0.072716   0.005049
   29  C  2 XZ    0.000000   0.201210  -0.000001   0.000000   0.000000
   30  C  2 YZ    0.000000   0.112111  -0.000000   0.000000   0.000000
   31  F  3  S    0.004806  -0.000000  -0.072301  -0.005748   0.009725
   32  F  3  S    0.031882   0.000001   0.339215   0.030028  -0.041038
   33  F  3  S   -0.177260   0.000001   0.158815  -0.123941  -0.270446
   34  F  3  X   -0.555611   0.000000   0.121914   0.051428   0.024798
   35  F  3  Y    0.100357   0.000001   0.589603   0.269861   0.303208
   36  F  3  Z   -0.000000  -0.545147   0.000001  -0.000000  -0.000000
   37  F  3  X    0.656568  -0.000001  -0.311413  -0.026153   0.046560
   38  F  3  Y    0.002054  -0.000003  -1.155846  -0.371452  -0.305347
   39  F  3  Z    0.000000   0.655325  -0.000002   0.000000   0.000000
   40  F  3 XX   -0.028004   0.000000   0.022081   0.017607  -0.011119
   41  F  3 YY    0.009345  -0.000000  -0.028512  -0.046396  -0.056184
   42  F  3 ZZ    0.018659  -0.000000   0.006431   0.028789   0.067303
   43  F  3 XY   -0.002178  -0.000000  -0.014880  -0.012891  -0.045221
   44  F  3 XZ    0.000000   0.004149  -0.000000   0.000000   0.000000
   45  F  3 YZ   -0.000000  -0.020400   0.000000  -0.000000  -0.000000
   46  H  4  S   -0.038071   0.051052   0.241333  -0.272127  -0.523118
   47  H  4  S   -0.131007   0.168338   0.197668  -0.142268  -0.219303
   48  H  4  X   -0.045843   0.096790  -0.008298   0.018404   0.009786
   49  H  4  Y    0.043594   0.071778   0.075780  -0.006889  -0.006365
   50  H  4  Z    0.049364  -0.015302   0.021344  -0.002167   0.011338
   51  H  5  S   -0.038071  -0.051049   0.241333  -0.272127  -0.523119
   52  H  5  S   -0.131006  -0.168337   0.197669  -0.142269  -0.219304
   53  H  5  X   -0.045843  -0.096790  -0.008298   0.018403   0.009786
   54  H  5  Y    0.043594  -0.071777   0.075781  -0.006890  -0.006365
   55  H  5  Z   -0.049363  -0.015302  -0.021345   0.002168  -0.011336
   56  F  6  S    0.001862   0.000000   0.034845  -0.067635  -0.007278
   57  F  6  S    0.037896  -0.000001  -0.171474   0.379041   0.005158
   58  F  6  S   -0.139513  -0.000001  -0.121036  -0.054830   0.277829
   59  F  6  X    0.530351   0.000000   0.068335  -0.194616   0.095136
   60  F  6  Y    0.174294  -0.000001  -0.091558   0.610974  -0.401017
   61  F  6  Z    0.000000  -0.523204   0.000001  -0.000000   0.000000
   62  F  6  X   -0.618098  -0.000001  -0.215112   0.381494  -0.012298
[...]
   27  C  2 ZZ   -0.001312  -0.000000   0.010003   0.037654  -0.000000
   28  C  2 XY   -0.000859  -0.000000   0.003806   0.003454   0.000000
   29  C  2 XZ   -0.000000   0.000711  -0.000000   0.000000   0.086518
   30  C  2 YZ    0.000000   0.008903   0.000000  -0.000000  -0.055559
   31  F  3  S    0.001090  -0.000000   0.058962   0.027618  -0.000000
   32  F  3  S   -0.005306   0.000000  -0.111335  -0.043463   0.000000
   33  F  3  S    0.004581   0.000000  -0.523720  -0.301662   0.000001
   34  F  3  X   -0.054808   0.000000  -0.024508   0.136511  -0.000001
   35  F  3  Y   -0.045689  -0.000000   0.250272   0.072433  -0.000001
   36  F  3  Z   -0.000000  -0.039384  -0.000000   0.000000   0.135360
   37  F  3  X   -0.053845   0.000000  -0.014808   0.209368  -0.000001
   38  F  3  Y   -0.067986  -0.000000   0.280586   0.109926  -0.000001
   39  F  3  Z   -0.000000  -0.091025  -0.000000   0.000000   0.089286
   40  F  3 XX    0.001141   0.000000  -0.005348  -0.002001   0.000000
   41  F  3 YY   -0.003176  -0.000000   0.007901  -0.002259  -0.000000
   42  F  3 ZZ    0.002034  -0.000000  -0.002553   0.004260   0.000000
   43  F  3 XY   -0.000739   0.000000   0.000102   0.011989  -0.000000
   44  F  3 XZ   -0.000000  -0.003930  -0.000000  -0.000000   0.010757
   45  F  3 YZ   -0.000000  -0.005772  -0.000000   0.000000   0.001437
   46  H  4  S    0.052085  -0.032011  -0.023980   0.072290   0.542335
   47  H  4  S    0.945781  -1.471722  -0.170371   0.590534  -0.132678
   48  H  4  X    0.009720  -0.010259   0.008775  -0.014079   0.025684
   49  H  4  Y   -0.002493   0.007824   0.020593   0.005378  -0.011421
   50  H  4  Z    0.008606  -0.009625   0.002654   0.017681  -0.005979
   51  H  5  S    0.052086   0.032010  -0.023981   0.072288  -0.542336
   52  H  5  S    0.945792   1.471725  -0.170365   0.590540   0.132677
   53  H  5  X    0.009720   0.010259   0.008775  -0.014080  -0.025684
   54  H  5  Y   -0.002494  -0.007824   0.020593   0.005378   0.011421
   55  H  5  Z   -0.008607  -0.009624  -0.002654  -0.017682  -0.005979
   56  F  6  S   -0.000950   0.000000  -0.059017  -0.027686   0.000000
   57  F  6  S    0.005051  -0.000000   0.111396   0.043511  -0.000000
   58  F  6  S   -0.005790  -0.000001   0.524534   0.302755  -0.000001
   59  F  6  X   -0.058831  -0.000000  -0.002761   0.142251  -0.000001
   60  F  6  Y    0.041313   0.000000  -0.251489  -0.060380   0.000000
   61  F  6  Z   -0.000000   0.039312   0.000000   0.000000   0.135393
   62  F  6  X   -0.059880   0.000000   0.009558   0.218202  -0.000001
   63  F  6  Y    0.063702   0.000000  -0.281037  -0.091668   0.000001
   64  F  6  Z   -0.000000   0.091013   0.000000   0.000000   0.089231
   65  F  6 XX   -0.001001   0.000000   0.005230   0.000223  -0.000000
   66  F  6 YY    0.003041  -0.000000  -0.007778   0.004056   0.000000
   67  F  6 ZZ   -0.002039  -0.000000   0.002548  -0.004279  -0.000000
   68  F  6 XY   -0.001160  -0.000000   0.001409   0.011775  -0.000000
   69  F  6 XZ    0.000000  -0.004414  -0.000000   0.000000  -0.010851
   70  F  6 YZ   -0.000000   0.005412  -0.000000   0.000000   0.000481
   71  H  7  S   -0.052018  -0.031929   0.023700  -0.072502  -0.541983
   72  H  7  S   -0.946012  -1.471855   0.170853  -0.590569   0.132266
   73  H  7  X    0.009448   0.009548   0.010540  -0.013560   0.024615
   74  H  7  Y    0.003354   0.008672  -0.019771  -0.006612   0.013602
   75  H  7  Z    0.008600   0.009628   0.002647   0.017692  -0.005977
   76  H  8  S   -0.052019   0.031928   0.023701  -0.072501   0.541984
   77  H  8  S   -0.946020   1.471858   0.170854  -0.590576  -0.132265
   78  H  8  X    0.009448  -0.009548   0.010540  -0.013561  -0.024615
   79  H  8  Y    0.003354  -0.008672  -0.019771  -0.006612  -0.013601
   80  H  8  Z   -0.008601   0.009627  -0.002647  -0.017692  -0.005977

                     26         27
                    0.3604     0.3946
                     A          A   
    1  C  1  S    0.006576  -0.034212
    2  C  1  S   -0.008834   0.284383
    3  C  1  S    0.588500   0.042582
    4  C  1  X    0.469825   0.021489
    5  C  1  Y   -0.185087   0.569843
    6  C  1  Z    0.000001   0.000002
    7  C  1  X   -0.983371  -0.253780
    8  C  1  Y   -0.005702  -0.768742
    9  C  1  Z   -0.000004  -0.000005
   10  C  1 XX    0.058408   0.037550
   11  C  1 YY    0.007888  -0.019476
   12  C  1 ZZ   -0.066296  -0.018074
   13  C  1 XY   -0.013059   0.061031
   14  C  1 XZ    0.000000   0.000000
   15  C  1 YZ    0.000000   0.000000
   16  C  2  S    0.006661  -0.034034
   17  C  2  S   -0.009762   0.283142
   18  C  2  S    0.591233   0.046133
   19  C  2  X   -0.451468  -0.069766
   20  C  2  Y   -0.225883   0.564980
   21  C  2  Z   -0.000001  -0.000002
   22  C  2  X    0.977485   0.316130
   23  C  2  Y    0.082592  -0.743523
   24  C  2  Z    0.000004   0.000004
   25  C  2 XX    0.056107   0.046397
   26  C  2 YY    0.010167  -0.028157
   27  C  2 ZZ   -0.066274  -0.018240
   28  C  2 XY    0.017974  -0.054361
   29  C  2 XZ    0.000000   0.000000
   30  C  2 YZ   -0.000000  -0.000000
   31  F  3  S    0.001412  -0.008046
   32  F  3  S    0.027207  -0.030014
   33  F  3  S   -0.195248   0.326099
   34  F  3  X   -0.121839   0.011513
   35  F  3  Y   -0.088998   0.234244
   36  F  3  Z   -0.000000  -0.000000
   37  F  3  X   -0.154435  -0.141137
   38  F  3  Y    0.068145  -0.011721
   39  F  3  Z   -0.000000  -0.000000
   40  F  3 XX    0.014464  -0.011505
   41  F  3 YY   -0.019663   0.036316
   42  F  3 ZZ    0.005200  -0.024811
   43  F  3 XY   -0.011395   0.023537
   44  F  3 XZ    0.000000   0.000000
   45  F  3 YZ    0.000000   0.000000
   46  H  4  S   -0.229948  -0.144637
   47  H  4  S   -0.028182  -0.110475
   48  H  4  X    0.019199   0.018426
   49  H  4  Y   -0.011010  -0.007466
   50  H  4  Z   -0.011760   0.001289
   51  H  5  S   -0.229948  -0.144636
   52  H  5  S   -0.028183  -0.110474
   53  H  5  X    0.019199   0.018426
   54  H  5  Y   -0.011010  -0.007466
   55  H  5  Z    0.011761  -0.001289
   56  F  6  S    0.001365  -0.007969
   57  F  6  S    0.027165  -0.030324
   58  F  6  S   -0.193966   0.326210
   59  F  6  X    0.128920  -0.031909
   60  F  6  Y   -0.077915   0.232913
   61  F  6  Z    0.000000   0.000000
   62  F  6  X    0.148339   0.141646
   63  F  6  Y    0.081002   0.000932
   64  F  6  Z    0.000001   0.000001
   65  F  6 XX    0.012548  -0.007587
   66  F  6 YY   -0.017695   0.032451
   67  F  6 ZZ    0.005147  -0.024865
   68  F  6 XY    0.014566  -0.028039
   69  F  6 XZ    0.000000   0.000000
   70  F  6 YZ   -0.000000  -0.000000
   71  H  7  S   -0.230393  -0.144709
   72  H  7  S   -0.028980  -0.110968
   73  H  7  X   -0.018174  -0.017670
   74  H  7  Y   -0.012674  -0.008980
   75  H  7  Z    0.011775  -0.001318
   76  H  8  S   -0.230392  -0.144708
   77  H  8  S   -0.028981  -0.110967
   78  H  8  X   -0.018174  -0.017670
   79  H  8  Y   -0.012673  -0.008980
   80  H  8  Z   -0.011776   0.001318

     ---------------------------------------------------------------------
     PROPERTIES FOR THE PBE      DFT FUNCTIONAL (RHF  TYPE) DENSITY MATRIX
     ---------------------------------------------------------------------

          -----------------
          ENERGY COMPONENTS
          -----------------

         WAVEFUNCTION NORMALIZATION =       1.0000000000

                ONE ELECTRON ENERGY =    -637.8727433232
                TWO ELECTRON ENERGY =     231.9367950030
           NUCLEAR REPULSION ENERGY =     128.0106004757
                                      ------------------
                       TOTAL ENERGY =    -277.9253478444

 ELECTRON-ELECTRON POTENTIAL ENERGY =     231.9367950030
  NUCLEUS-ELECTRON POTENTIAL ENERGY =    -914.9374670775
   NUCLEUS-NUCLEUS POTENTIAL ENERGY =     128.0106004757
                                      ------------------
             TOTAL POTENTIAL ENERGY =    -554.9900715987
               TOTAL KINETIC ENERGY =     277.0647237543
                 VIRIAL RATIO (V/T) =       2.0031062204

          ---------------------------------------
          MULLIKEN AND LOWDIN POPULATION ANALYSES
          ---------------------------------------

     ATOMIC MULLIKEN POPULATION IN EACH MOLECULAR ORBITAL

                      1          2          3          4          5

                  2.000000   2.000000   2.000000   2.000000   2.000000

    1             0.001209  -0.000028   1.290449   0.709386   0.118907
    2             0.000098   0.001082   0.709068   1.290765   0.116562
    3             0.211154   1.787683  -0.000196  -0.000339   0.865009
    4             0.000000  -0.000008   0.000211   0.000140   0.002979
    5             0.000000  -0.000008   0.000211   0.000140   0.002979
    6             1.787552   0.211284  -0.000353  -0.000183   0.887446
    7            -0.000006  -0.000003   0.000305   0.000046   0.003059
    8            -0.000006  -0.000003   0.000305   0.000046   0.003059

                      6          7          8          9         10

                  2.000000   2.000000   2.000000   2.000000   2.000000

    1             0.083718   0.701683   0.464946   0.526940   0.332656
    2             0.085813   0.701970   0.464823   0.525304   0.331474
    3             0.921188   0.148161   0.292694   0.211531   0.550797
    4             0.002752   0.074952   0.121040   0.130553   0.057858
    5             0.002752   0.074955   0.121042   0.130553   0.057858
    6             0.898412   0.148461   0.293372   0.213047   0.553130
    7             0.002683   0.074908   0.121041   0.131038   0.058111
    8             0.002683   0.074911   0.121043   0.131034   0.058116

                     11         12         13         14         15

                  2.000000   2.000000   2.000000   2.000000   2.000000

    1             0.454199   0.275794   0.308893   0.051920   0.088683
    2             0.454078   0.276815   0.310812   0.052156   0.088299
    3             0.509629   0.569008   0.463098   0.928486   0.761995
    4             0.017997   0.077996   0.114028   0.010000   0.074658
    5             0.017998   0.077997   0.114026   0.010000   0.074657
    6             0.510175   0.566888   0.462441   0.927288   0.761974
    7             0.017962   0.077750   0.113352   0.010075   0.074868
    8             0.017963   0.077751   0.113350   0.010075   0.074867

                     16         17

                  2.000000   2.000000

    1             0.301395   0.168562
    2             0.301478   0.168659
    3             0.576299   0.517275
    4             0.061248   0.157271
    5             0.061254   0.157265
    6             0.575939   0.516397
    7             0.061191   0.157289
    8             0.061197   0.157282

               ----- POPULATIONS IN EACH AO -----
                             MULLIKEN      LOWDIN
              1  C  1  S      1.99337     1.97156
              2  C  1  S      0.75830     0.38529
              3  C  1  S      0.37450     0.28344
              4  C  1  X      0.71741     0.65803
              5  C  1  Y      0.56500     0.51770
              6  C  1  Z      0.77688     0.69718
              7  C  1  X      0.21909     0.31126
              8  C  1  Y      0.11718     0.22713
              9  C  1  Z      0.29413     0.40145
             10  C  1 XX      0.00853     0.16032
             11  C  1 YY      0.01812     0.16251
             12  C  1 ZZ      0.01473     0.15268
             13  C  1 XY      0.00639     0.02806
             14  C  1 XZ      0.01567     0.01281
             15  C  1 YZ      0.00000     0.03786
             16  C  2  S      1.99337     1.97156
             17  C  2  S      0.75830     0.38535
             18  C  2  S      0.37457     0.28345
             19  C  2  X      0.73058     0.66875
             20  C  2  Y      0.55171     0.50683
             21  C  2  Z      0.77688     0.69720
             22  C  2  X      0.22964     0.32052
             23  C  2  Y      0.10668     0.21788
             24  C  2  Z      0.29415     0.40150
             25  C  2 XX      0.00852     0.15884
             26  C  2 YY      0.01823     0.16379
             27  C  2 ZZ      0.01458     0.15267
             28  C  2 XY      0.00648     0.02835
             29  C  2 XZ      0.01556     0.01377
             30  C  2 YZ      0.00000     0.03685
             31  F  3  S      1.99544     1.97165
             32  F  3  S      0.95049     0.75209
             33  F  3  S      0.99645     0.52493
             34  F  3  X      1.20164     1.17019
             35  F  3  Y      0.96946     0.91959
             36  F  3  Z      1.24092     1.21265
             37  F  3  X      0.68728     0.71011
             38  F  3  Y      0.55061     0.59734
             39  F  3  Z      0.71034     0.73357
             40  F  3 XX      0.00141     0.18940
             41  F  3 YY      0.00366     0.19751
             42  F  3 ZZ      0.00312     0.18819
             43  F  3 XY      0.00019     0.00459
             44  F  3 XZ      0.00244     0.00029
             45  F  3 YZ      0.00000     0.00396
             46  H  4  S      0.77373     0.65534
             47  H  4  S      0.11329     0.21571
             48  H  4  X      0.00414     0.01021
             49  H  4  Y      0.00373     0.00905
             50  H  4  Z      0.00879     0.01810
             51  H  5  S      0.77373     0.65534
             52  H  5  S      0.11329     0.21571
             53  H  5  X      0.00414     0.01021
             54  H  5  Y      0.00373     0.00905
             55  H  5  Z      0.00879     0.01810
             56  F  6  S      1.99544     1.97165
             57  F  6  S      0.95049     0.75200
             58  F  6  S      0.99633     0.52473
             59  F  6  X      1.18468     1.15218
             60  F  6  Y      0.98654     0.93750
             61  F  6  Z      1.24092     1.21266
             62  F  6  X      0.67774     0.70219
             63  F  6  Y      0.55999     0.60542
             64  F  6  Z      0.71029     0.73349
             65  F  6 XX      0.00141     0.18996
             66  F  6 YY      0.00335     0.19654
             67  F  6 ZZ      0.00344     0.18816
             68  F  6 XY      0.00032     0.00481
             69  F  6 XZ      0.00232     0.00049
             70  F  6 YZ      0.00000     0.00376
             71  H  7  S      0.77375     0.65540
             72  H  7  S      0.11327     0.21571
             73  H  7  X      0.00380     0.00957
             74  H  7  Y      0.00407     0.00970
             75  H  7  Z      0.00879     0.01812
             76  H  8  S      0.77375     0.65540
             77  H  8  S      0.11327     0.21571
             78  H  8  X      0.00380     0.00957
             79  H  8  Y      0.00407     0.00970
             80  H  8  Z      0.00879     0.01812

          ----- MULLIKEN ATOMIC OVERLAP POPULATIONS -----
          (OFF-DIAGONAL ELEMENTS NEED TO BE MULTIPLIED BY 2)

             1           2           3           4           5

    1    4.6417000
    2    0.3341301   4.6419918
    3   -0.0455770   0.2588719   9.1548340
    4   -0.0419641   0.3869385  -0.0297906   0.6313594
    5   -0.0419638   0.3869436  -0.0297908  -0.0424295   0.6313570
    6    0.2589502  -0.0456348   0.0008669   0.0020307   0.0020307
    7    0.3870147  -0.0419935   0.0020282   0.0090268  -0.0114968
    8    0.3870198  -0.0419931   0.0020282  -0.0114968   0.0090269

             6           7           8

    6    9.1546878
    7   -0.0298300   0.6313479
    8   -0.0298302  -0.0424275   0.6313450

          TOTAL MULLIKEN AND LOWDIN ATOMIC POPULATIONS
       ATOM         MULL.POP.    CHARGE          LOW.POP.     CHARGE
    1 C             5.879310    0.120690         6.007278   -0.007278
    2 C             5.879254    0.120746         6.007299   -0.007299
    3 F             9.313471   -0.313471         9.176064   -0.176064
    4 H             0.903674    0.096326         0.908409    0.091591
    5 H             0.903677    0.096323         0.908409    0.091591
    6 F             9.313271   -0.313271         9.175551   -0.175551
    7 H             0.903670    0.096330         0.908496    0.091504
    8 H             0.903672    0.096328         0.908495    0.091505

          MULLIKEN SPHERICAL HARMONIC POPULATIONS
       ATOM           S       P       D      F      G      H      I    TOTAL
    1 C             3.13    2.69    0.06   0.00   0.00   0.00   0.00    5.88
    2 C             3.13    2.69    0.06   0.00   0.00   0.00   0.00    5.88
    3 F             3.94    5.36    0.01   0.00   0.00   0.00   0.00    9.31
    4 H             0.89    0.02    0.00   0.00   0.00   0.00   0.00    0.90
    5 H             0.89    0.02    0.00   0.00   0.00   0.00   0.00    0.90
    6 F             3.94    5.36    0.01   0.00   0.00   0.00   0.00    9.31
    7 H             0.89    0.02    0.00   0.00   0.00   0.00   0.00    0.90
    8 H             0.89    0.02    0.00   0.00   0.00   0.00   0.00    0.90

          -------------------------------
          BOND ORDER AND VALENCE ANALYSIS     BOND ORDER THRESHOLD=0.050
          -------------------------------

                   BOND                       BOND                       BOND
  ATOM PAIR DIST  ORDER      ATOM PAIR DIST  ORDER      ATOM PAIR DIST  ORDER
    1   2  1.553  0.991        1   6  1.390  0.947        1   7  1.107  0.950
    1   8  1.107  0.950        2   3  1.390  0.947        2   4  1.107  0.950
    2   5  1.107  0.950

                       TOTAL       BONDED        FREE
      ATOM            VALENCE     VALENCE     VALENCE
    1 C                 3.834       3.834      -0.000
    2 C                 3.834       3.834      -0.000
    3 F                 0.996       0.996      -0.000
    4 H                 0.948       0.948       0.000
    5 H                 0.948       0.948      -0.000
    6 F                 0.996       0.996      -0.000
    7 H                 0.948       0.948       0.000
    8 H                 0.948       0.948      -0.000

          ---------------------
          ELECTROSTATIC MOMENTS
          ---------------------

 POINT   1           X           Y           Z (BOHR)    CHARGE
                -0.000000   -0.000000    0.000000       -0.00 (A.U.)
         DX          DY          DZ         /D/  (DEBYE)
     0.133189   -3.097519    0.000000    3.100381
 ...... END OF PROPERTY EVALUATION ......
 STEP CPU TIME =     0.02 TOTAL CPU TIME =         81.9 (      1.4 MIN)
 TOTAL WALL CLOCK TIME=         82.3 SECONDS, CPU UTILIZATION IS    99.49%
  $VIB   
          IVIB=   0 IATOM=   0 ICOORD=   0 E=     -277.9253478444
 -1.613596918E-05-1.126678301E-05-2.068019385E-08 4.659235892E-05 9.535325515E-07
  1.913913273E-08-1.549847460E-06 6.174458676E-05-5.290678363E-09-8.666298646E-06
 -3.198276098E-05-7.243260752E-07-8.668810653E-06-3.197801345E-05 7.194949804E-07
 -1.439919967E-05 2.774568261E-05 6.405890283E-09 1.412755033E-06-7.611310133E-06
 -3.141260823E-06 1.415011655E-06-7.604934343E-06 3.146517767E-06
  1.331889726E-01-3.097518731E+00 7.488052794E-08
 ......END OF GEOMETRY SEARCH......
 STEP CPU TIME =     0.00 TOTAL CPU TIME =         81.9 (      1.4 MIN)
 TOTAL WALL CLOCK TIME=         82.3 SECONDS, CPU UTILIZATION IS    99.48%
                991181  WORDS OF DYNAMIC MEMORY USED
 EXECUTION OF GAMESS TERMINATED NORMALLY Sun Oct  6 23:20:11 2019
 DDI: 263640 bytes (0.3 MB / 0 MWords) used by master data server.

 ----------------------------------------
 CPU timing information for all processes
 ========================================
 0: 80.530 + 1.366 = 81.896
 ----------------------------------------
 ddikick.x: exited gracefully.
----- accounting info -----
Files used on the master node d12chas543.crc.nd.edu were:
-rw-r--r-- 1 wschnei1 campus 354655 Oct  6 23:20 /scratch365/wschnei1/0-PC1.F07
Sun Oct  6 23:20:14 EDT 2019
0.423u 0.360s 1:26.01 0.9%	0+0k 0+24io 0pf+0w
