----- GAMESS execution script 'rungms' -----
This job is running on host d12chas543.crc.nd.edu
under operating system Linux at Sun Oct 6 23:20:15 EDT 2019
SGE has assigned the following compute nodes to this run:
Available scratch disk space (Kbyte units) at beginning of the job is
Filesystem      1K-blocks     Used  Available Use% Mounted on
/dev/sda2      1949705068 63924636 1885780432   4% /
GAMESS temporary binary files will be written to /tmp/474112.1.debug
GAMESS supplementary output files will be written to /afs/crc.nd.edu/user/w/wschnei1/scr
Copying input file 10-PC1.inp to your run's scratch directory...
reading your own /afs/crc.nd.edu/user/w/wschnei1/.gmsrc

 Distributed Data Interface kickoff program.
 Initiating 1 compute processes on 1 nodes to run the following command:
 /afs/crc.nd.edu/x86_64_linux/g/gamess/nov-2017/gamess/gamess.00.x 10-PC1 

          ******************************************************
          *         GAMESS VERSION = 11 NOV 2017 (R3)         *
          *             FROM IOWA STATE UNIVERSITY             *
          * M.W.SCHMIDT, K.K.BALDRIDGE, J.A.BOATZ, S.T.ELBERT, *
          *   M.S.GORDON, J.H.JENSEN, S.KOSEKI, N.MATSUNAGA,   *
          *          K.A.NGUYEN, S.J.SU, T.L.WINDUS,           *
          *       TOGETHER WITH M.DUPUIS, J.A.MONTGOMERY       *
          *         J.COMPUT.CHEM.  14, 1347-1363(1993)        *
          **************** 64 BIT INTEL VERSION ****************

  SINCE 1993, STUDENTS AND POSTDOCS WORKING AT IOWA STATE UNIVERSITY
  AND ALSO IN THEIR VARIOUS JOBS AFTER LEAVING ISU HAVE MADE IMPORTANT
  CONTRIBUTIONS TO THE CODE:
     IVANA ADAMOVIC, CHRISTINE AIKENS, YURI ALEXEEV, POOJA ARORA,
     ANDREY ASADCHEV, ROB BELL, PRADIPTA BANDYOPADHYAY, JONATHAN BENTZ,
     BRETT BODE, KURT BRORSEN, CALEB CARLIN, GALINA CHABAN, WEI CHEN,
     CHEOL HO CHOI, PAUL DAY, ALBERT DEFUSCO, NUWAN DESILVA, TIM DUDLEY,
     DMITRI FEDOROV, ALEX FINDLATER, GRAHAM FLETCHER, MARK FREITAG,
     KURT GLAESEMANN, ANASTASIA GUININA,
     DAN KEMP, GRANT MERRILL, NORIYUKI MINEZAWA, JONATHAN MULLIN,
     TAKESHI NAGATA, SEAN NEDD, HEATHER NETZLOFF, BOSILJKA NJEGIC, RYAN OLSON,
     MIKE PAK, BUU PHAM,
     SPENCER PRUITT, LUKE ROSKOP, JIM SHOEMAKER, LYUDMILA SLIPCHENKO,
     TONY SMITH, SAROM SOK LEANG, JIE SONG, TETSUYA TAKETSUGU, SIMON WEBB,
     PENG XU, SOOHAENG YOO, FEDERICO ZAHARIEV

  ADDITIONAL CODE HAS BEEN PROVIDED BY COLLABORATORS IN OTHER GROUPS:
     IOWA STATE UNIVERSITY:
          JOE IVANIC, AARON WEST, LAIMUTIS BYTAUTAS, KLAUS RUEDENBERG
     UNIVERSITY OF TOKYO: KIMIHIKO HIRAO, TAKAHITO NAKAJIMA,
          TAKAO TSUNEDA, MUNEAKI KAMIYA, SUSUMU YANAGISAWA,
          KIYOSHI YAGI, MAHITO CHIBA, SEIKEN TOKURA, NAOAKI KAWAKAMI
     UNIVERSITY OF AARHUS: FRANK JENSEN
     UNIVERSITY OF IOWA: VISVALDAS KAIRYS, HUI LI
     NATIONAL INST. OF STANDARDS AND TECHNOLOGY: WALT STEVENS, DAVID GARMER
     UNIVERSITY OF PISA: BENEDETTA MENNUCCI, JACOPO TOMASI
     UNIVERSITY OF MEMPHIS: HENRY KURTZ, PRAKASHAN KORAMBATH
     UNIVERSITY OF ALBERTA: TOBY ZENG, MARIUSZ KLOBUKOWSKI
     UNIVERSITY OF NEW ENGLAND: MARK SPACKMAN
     MIE UNIVERSITY: HIROAKI UMEDA
     NAT. INST. OF ADVANCED INDUSTRIAL SCIENCE AND TECHNOLOGY: KAZUO KITAURA
     MICHIGAN STATE UNIVERSITY:
          KAROL KOWALSKI, MARTA WLOCH, JEFFREY GOUR, JESSE LUTZ,
          WEI LI, PIOTR PIECUCH
     UNIVERSITY OF SILESIA: MONIKA MUSIAL, STANISLAW KUCHARSKI
     FACULTES UNIVERSITAIRES NOTRE-DAME DE LA PAIX:
          OLIVIER QUINET, BENOIT CHAMPAGNE
     UNIVERSITY OF CALIFORNIA - SANTA BARBARA: BERNARD KIRTMAN
     INSTITUTE FOR MOLECULAR SCIENCE:
          KAZUYA ISHIMURA, MICHIO KATOUDA, AND SHIGERU NAGASE
     UNIVERSITY OF NOTRE DAME: ANNA POMOGAEVA, DAN CHIPMAN
     KYUSHU UNIVERSITY:
          HARUYUKI NAKANO,
          FENG LONG GU, JACEK KORCHOWIEC, MARCIN MAKOWSKI, AND YURIKO AOKI,
          HIROTOSHI MORI AND EISAKU MIYOSHI
     PENNSYLVANIA STATE UNIVERSITY:
          TZVETELIN IORDANOV, CHET SWALINA, JONATHAN SKONE,
          SHARON HAMMES-SCHIFFER
     WASEDA UNIVERSITY:
          MASATO KOBAYASHI, TOMOKO AKAMA, TSUGUKI TOUMA,
          TAKESHI YOSHIKAWA, YASUHIRO IKABATA, JUNJI SEINO,
          YUYA NAKAJIMA, HIROMI NAKAI
     NANJING UNIVERSITY: SHUHUA LI
     UNIVERSITY OF NEBRASKA:
          PEIFENG SU, DEJUN SI, NANDUN THELLAMUREGE, YALI WANG, HUI LI
     UNIVERSITY OF ZURICH: ROBERTO PEVERATI, KIM BALDRIDGE
     N. COPERNICUS UNIVERSITY AND JACKSON STATE UNIVERSITY:
          MARIA BARYSZ
     UNIVERSITY OF COPENHAGEN: Jimmy Kromann, CASPER STEINMANN
     TOKYO INSTITUTE OF TECHNOLOGY: HIROYA NAKATA
     NAGOYA UNIVERSITY: YOSHIO NISHIMOTO, STEPHAN IRLE
     MOSCOW STATE UNIVERSITY: VLADIMIR MIRONOV

 EXECUTION OF GAMESS BEGUN Sun Oct  6 23:20:15 2019

            ECHO OF THE FIRST FEW INPUT CARDS -
 INPUT CARD> $CONTRL SCFTYP=RHF DFTTYP=PBE RUNTYP=OPTIMIZE COORD=ZMT NZVAR=18 ISPHER=1 $END 
 INPUT CARD> $BASIS GBASIS=PCseg-1 $END                                                     
 INPUT CARD> $STATPT IFREEZ(1)=12 $END                                                      
 INPUT CARD> $DATA                                                                          
 INPUT CARD>FCH2CH2F eclipsed TS                                                            
 INPUT CARD>C1                                                                              
 INPUT CARD>C                                                                               
 INPUT CARD>C   1   r1                                                                      
 INPUT CARD>F   2   r2   1   A1                                                             
 INPUT CARD>H   2   r3   1   A2   3   D1                                                    
 INPUT CARD>H   2   r4   1   A3   3   D2                                                    
 INPUT CARD>F   1   r5   2   A4   3   D3                                                    
 INPUT CARD>H   1   r6   2   A5   6   D4                                                    
 INPUT CARD>H   1   r7   2   A6   6   D5                                                    
 INPUT CARD>                                                                                
 INPUT CARD>r1=1.5                                                                          
 INPUT CARD>r2=1.4                                                                          
 INPUT CARD>r3=1.1                                                                          
 INPUT CARD>r4=1.1                                                                          
 INPUT CARD>r5=1.5                                                                          
 INPUT CARD>r6=1.1                                                                          
 INPUT CARD>r7=1.1                                                                          
 INPUT CARD>A1=109.54214                                                                    
 INPUT CARD>A2=109.54214                                                                    
 INPUT CARD>A3=109.54214                                                                    
 INPUT CARD>A4=109.54214                                                                    
 INPUT CARD>A5=109.54214                                                                    
 INPUT CARD>A6=109.54214                                                                    
 INPUT CARD>D1=120.                                                                         
 INPUT CARD>D2=-120.                                                                        
 INPUT CARD>D3=10                                                                           
 INPUT CARD>D4=120.                                                                         
 INPUT CARD>D5=-120.                                                                        
 INPUT CARD> $END                                                                           
 INPUT CARD>                                                                                
    1000000 WORDS OF MEMORY AVAILABLE

     BASIS OPTIONS
     -------------
     GBASIS=PCSEG-1      IGAUSS=       0      POLAR=NONE    
     NDFUNC=       0     NFFUNC=       0     DIFFSP=       F
     NPFUNC=       0      DIFFS=       F     BASNAM=        


     RUN TITLE
     ---------
 FCH2CH2F eclipsed TS                                                            

 THE POINT GROUP OF THE MOLECULE IS C1      
 THE ORDER OF THE PRINCIPAL AXIS IS     0

 YOUR FULLY SUBSTITUTED Z-MATRIX IS
 C   
 C      1   1.5000000
 F      2   1.4000000  1  109.5421
 H      2   1.1000000  1  109.5421  3  120.0000  0
 H      2   1.1000000  1  109.5421  3 -120.0000  0
 F      1   1.5000000  2  109.5421  3   10.0000  0
 H      1   1.1000000  2  109.5421  6  120.0000  0
 H      1   1.1000000  2  109.5421  6 -120.0000  0

 THE MOMENTS OF INERTIA ARE (AMU-ANGSTROM**2)
 IXX=    37.487   IYY=    80.429   IZZ=   111.167

 ATOM      ATOMIC                      COORDINATES (BOHR)
           CHARGE         X                   Y                   Z
 C           6.0    -1.3060382366       -1.5033404130        0.1016772362
 C           6.0     1.5156435238       -1.3307022908       -0.1061756358
 F           9.0     2.2615393266        1.2024652739        0.0550310190
 H           1.0     2.3939253931       -2.4087632317        1.4389435761
 H           1.0     2.1277766745       -2.1159428748       -1.9309161775
 F           9.0    -2.4287574825        1.0949488777       -0.0509299444
 H           1.0    -2.0477098123       -2.6683299986       -1.4519347979
 H           1.0    -1.8175152216       -2.3708073923        1.9201601608

          INTERNUCLEAR DISTANCES (ANGS.)
          ------------------------------

                1 C          2 C          3 F          4 H          5 H     

   1 C       0.0000000    1.5000000 *  2.3695781 *  2.1363170 *  2.1363170 *
   2 C       1.5000000 *  0.0000000    1.4000000 *  1.1000000 *  1.1000000 *
   3 F       2.3695781 *  1.4000000 *  0.0000000    2.0476979 *  2.0476979 *
   4 H       2.1363170 *  1.1000000 *  2.0476979 *  0.0000000    1.7955050 *
   5 H       2.1363170 *  1.1000000 *  2.0476979 *  1.7955050 *  0.0000000  
   6 F       1.5000000 *  2.4505612 *  2.4832835 *  3.2514913    3.1129918  
   7 H       1.1000000 *  2.1363170 *  3.1672764    2.8077666 *  2.2431899 *
   8 H       1.1000000 *  2.1363170 *  3.0346214    2.2431899 *  2.9206113 *

                6 F          7 H          8 H     

   1 C       1.5000000 *  1.1000000 *  1.1000000 *
   2 C       2.4505612 *  2.1363170 *  2.1363170 *
   3 F       2.4832835 *  3.1672764    3.0346214  
   4 H       3.2514913    2.8077666 *  2.2431899 *
   5 H       3.1129918    2.2431899 *  2.9206113 *
   6 F       0.0000000    2.1345124 *  2.1345124 *
   7 H       2.1345124 *  0.0000000    1.7955050 *
   8 H       2.1345124 *  1.7955050 *  0.0000000  

  * ... LESS THAN  3.000


     ATOMIC BASIS SET
     ----------------
 THE CONTRACTED PRIMITIVE FUNCTIONS HAVE BEEN UNNORMALIZED
 THE CONTRACTED BASIS FUNCTIONS ARE NOW NORMALIZED TO UNITY

  SHELL TYPE  PRIMITIVE        EXPONENT          CONTRACTION COEFFICIENT(S)

 C         

      1   S       1          1243.2000000    0.005630097702
      1   S       2           187.1450000    0.041950603854
      1   S       3            42.5126000    0.184664360492
      1   S       4            11.7393000    0.466557421368
      1   S       5             3.5054800    0.448234778316

      2   S       6             5.3908900   -0.148114817444
      2   S       7             0.4933410    1.051981714281

      3   S       8             0.1497410    1.000000000000

      4   P       9             9.1805600    0.063992052045
      4   P      10             1.9365800    0.333521296407
      4   P      11             0.5262960    0.741161730513

      5   P      12             0.1363190    1.000000000000

      6   D      13             0.8000000    1.000000000000

 C         

      7   S      14          1243.2000000    0.005630097702
      7   S      15           187.1450000    0.041950603854
      7   S      16            42.5126000    0.184664360492
      7   S      17            11.7393000    0.466557421368
      7   S      18             3.5054800    0.448234778316

      8   S      19             5.3908900   -0.148114817444
      8   S      20             0.4933410    1.051981714281

      9   S      21             0.1497410    1.000000000000

     10   P      22             9.1805600    0.063992052045
     10   P      23             1.9365800    0.333521296407
     10   P      24             0.5262960    0.741161730513

     11   P      25             0.1363190    1.000000000000

     12   D      26             0.8000000    1.000000000000

 F         

     13   S      27          2931.5500000    0.005390132259
     13   S      28           441.1250000    0.040296704072
     13   S      29           100.2320000    0.180202178717
     13   S      30            27.8655000    0.465064284210
     13   S      31             8.4447000    0.452433138251

     14   S      32            13.6123000   -0.151660908297
     14   S      33             1.2612200    1.053515343452

     15   S      34             0.3708000    1.000000000000

     16   P      35            21.9305000    0.070356827475
     16   P      36             4.7855200    0.356742371235
     16   P      37             1.2837800    0.719732016372

     17   P      38             0.3115580    1.000000000000

     18   D      39             1.1000000    1.000000000000

 H         

     19   S      40            12.2518000    0.037217389296
     19   S      41             1.8687100    0.253808206955
     19   S      42             0.4182080    0.797386763917

     20   S      43             0.1061000    1.000000000000

     21   P      44             1.0000000    1.000000000000

 H         

     22   S      45            12.2518000    0.037217389296
     22   S      46             1.8687100    0.253808206955
     22   S      47             0.4182080    0.797386763917

     23   S      48             0.1061000    1.000000000000

     24   P      49             1.0000000    1.000000000000

 F         

     25   S      50          2931.5500000    0.005390132259
     25   S      51           441.1250000    0.040296704072
     25   S      52           100.2320000    0.180202178717
     25   S      53            27.8655000    0.465064284210
     25   S      54             8.4447000    0.452433138251

     26   S      55            13.6123000   -0.151660908297
     26   S      56             1.2612200    1.053515343452

     27   S      57             0.3708000    1.000000000000

     28   P      58            21.9305000    0.070356827475
     28   P      59             4.7855200    0.356742371235
     28   P      60             1.2837800    0.719732016372

     29   P      61             0.3115580    1.000000000000

     30   D      62             1.1000000    1.000000000000

 H         

     31   S      63            12.2518000    0.037217389296
     31   S      64             1.8687100    0.253808206955
     31   S      65             0.4182080    0.797386763917

     32   S      66             0.1061000    1.000000000000

     33   P      67             1.0000000    1.000000000000

 H         

     34   S      68            12.2518000    0.037217389296
     34   S      69             1.8687100    0.253808206955
     34   S      70             0.4182080    0.797386763917

     35   S      71             0.1061000    1.000000000000

     36   P      72             1.0000000    1.000000000000

 TOTAL NUMBER OF BASIS SET SHELLS             =   36
 NUMBER OF CARTESIAN GAUSSIAN BASIS FUNCTIONS =   80
 NOTE: THIS RUN WILL RESTRICT THE MO VARIATION SPACE TO SPHERICAL HARMONICS.
 THE NUMBER OF ORBITALS KEPT IN THE VARIATIONAL SPACE WILL BE PRINTED LATER.
 NUMBER OF ELECTRONS                          =   34
 CHARGE OF MOLECULE                           =    0
 SPIN MULTIPLICITY                            =    1
 NUMBER OF OCCUPIED ORBITALS (ALPHA)          =   17
 NUMBER OF OCCUPIED ORBITALS (BETA )          =   17
 TOTAL NUMBER OF ATOMS                        =    8
 THE NUCLEAR REPULSION ENERGY IS      127.2461029016

     LEBEDEV GRID-BASED DFT OPTIONS
     ------------------------------
     DFTTYP=PBE     
     NRAD  =      96     NLEB  =     302
     NRAD0 =      24     NLEB0 =     110
     SWOFF =    5.00E-03 (PURE SCF -> DFT)
     SWITCH=    3.00E-04 (COARSE -> TIGHT GRID)
     THRESH=    0.00E+00 GTHRE=    1.00E+00

 GRIMME'S EMPIRICAL DISPERSION CORRECTION= F

     $CONTRL OPTIONS
     ---------------
 SCFTYP=RHF          RUNTYP=OPTIMIZE     EXETYP=RUN     
 MPLEVL=       0     CITYP =NONE         CCTYP =NONE         VBTYP =NONE    
 DFTTYP=PBE          TDDFT =NONE    
 MULT  =       1     ICHARG=       0     NZVAR =      18     COORD =ZMT     
 PP    =NONE         RELWFN=NONE         LOCAL =NONE         NUMGRD=       F
 ISPHER=       1     NOSYM =       0     MAXIT =      30     UNITS =ANGS    
 PLTORB=       F     MOLPLT=       F     AIMPAC=       F     FRIEND=        
 NPRINT=       7     IREST =       0     GEOM  =INPUT   
 NORMF =       0     NORMP =       0     ITOL  =      20     ICUT  =       9
 INTTYP=BEST         GRDTYP=BEST         QMTTOL= 1.0E-06

     $SYSTEM OPTIONS
     ---------------
  REPLICATED MEMORY=     1000000 WORDS (ON EVERY NODE).
 DISTRIBUTED MEMDDI=           0 MILLION WORDS IN AGGREGATE,
 MEMDDI DISTRIBUTED OVER   1 PROCESSORS IS           0 WORDS/PROCESSOR.
 TOTAL MEMORY REQUESTED ON EACH PROCESSOR=     1000000 WORDS.
 TIMLIM=      525600.00 MINUTES, OR     365.0 DAYS.
 PARALL= F  BALTYP=  DLB     KDIAG=    0  COREFL= F
 MXSEQ2=     300 MXSEQ3=     150  mem10=         0

          ----------------
          PROPERTIES INPUT
          ----------------

     MOMENTS            FIELD           POTENTIAL          DENSITY
 IEMOM =       1   IEFLD =       0   IEPOT =       0   IEDEN =       0
 WHERE =COMASS     WHERE =NUCLEI     WHERE =NUCLEI     WHERE =NUCLEI  
 OUTPUT=BOTH       OUTPUT=BOTH       OUTPUT=BOTH       OUTPUT=BOTH    
 IEMINT=       0   IEFINT=       0                     IEDINT=       0
                                                       MORB  =       0
          EXTRAPOLATION IN EFFECT
          DIIS IN EFFECT
 ORBITAL PRINTING OPTION: NPREO=     1    80     2     1

     -------------------------------
     INTEGRAL TRANSFORMATION OPTIONS
     -------------------------------
     NWORD  =            0
     CUTOFF = 1.0E-09     MPTRAN =       0
     DIRTRF =       F     AOINTS =DUP     

          ----------------------
          INTEGRAL INPUT OPTIONS
          ----------------------
 NOPK  =       1 NORDER=       0 SCHWRZ=       T

   --- ENCODED Z MATRIX ---
 COORD  TYPE   I   J   K   L   M   N
    1      1    2   1
    2      1    3   2
    3      2    3   2   1
    4      1    4   2
    5      2    4   2   1
    6      3    4   2   1   3
    7      1    5   2
    8      2    5   2   1
    9      3    5   2   1   3
   10      1    6   1
   11      2    6   1   2
   12      3    6   1   2   3
   13      1    7   1
   14      2    7   1   2
   15      3    7   1   2   6
   16      1    8   1
   17      2    8   1   2
   18      3    8   1   2   6

 THE DETERMINANT OF THE G MATRIX IS 10**(   -12)


                     --------------------
                     INTERNAL COORDINATES
                     --------------------

                 - - ATOMS - -         COORDINATE      COORDINATE
 NO.   TYPE    I  J  K  L  M  N        (BOHR,RAD)       (ANG,DEG)
 ----------------------------------------------------------------
   1 STRETCH   2  1                     2.8345890       1.5000000
   2 STRETCH   3  2                     2.6456164       1.4000000
   3 BEND      3  2  1                  1.9118710     109.5421400
   4 STRETCH   4  2                     2.0786986       1.1000000
   5 BEND      4  2  1                  1.9118710     109.5421400
   6 TORSION   4  2  1  3               2.0943951     120.0000000
   7 STRETCH   5  2                     2.0786986       1.1000000
   8 BEND      5  2  1                  1.9118710     109.5421400
   9 TORSION   5  2  1  3              -2.0943951    -120.0000000
  10 STRETCH   6  1                     2.8345890       1.5000000
  11 BEND      6  1  2                  1.9118710     109.5421400
  12 TORSION   6  1  2  3               0.1745329      10.0000000
  13 STRETCH   7  1                     2.0786986       1.1000000
  14 BEND      7  1  2                  1.9118710     109.5421400
  15 TORSION   7  1  2  6               2.0943951     120.0000000
  16 STRETCH   8  1                     2.0786986       1.1000000
  17 BEND      8  1  2                  1.9118710     109.5421400
  18 TORSION   8  1  2  6              -2.0943951    -120.0000000

     ------------------------------------------
     THE POINT GROUP IS C1 , NAXIS= 0, ORDER= 1
     ------------------------------------------

 -- VARIATIONAL SPACE WILL BE RESTRICTED TO PURE SPHERICAL HARMONICS ONLY --
 AFTER EXCLUDING CONTAMINANT COMBINATIONS FROM THE CARTESIAN GAUSSIAN BASIS
 SET, THE NUMBER OF SPHERICAL HARMONICS KEPT IN THE VARIATION SPACE IS   76

     DIMENSIONS OF THE SYMMETRY SUBSPACES ARE
 A   =   76

 ..... DONE SETTING UP THE RUN .....
 STEP CPU TIME =     0.02 TOTAL CPU TIME =          0.0 (      0.0 MIN)
 TOTAL WALL CLOCK TIME=          0.0 SECONDS, CPU UTILIZATION IS   100.00%


          -----------------------------
          STATIONARY POINT LOCATION RUN
          -----------------------------

 OBTAINING INITIAL HESSIAN, HESS=GUESS   
 DIAGONAL GUESS HESSIAN IN INTERNAL COORDS IS
     1  0.3892     2  0.3267     3  0.2379     4  0.3397     5  0.2253
     6  0.2500     7  0.3397     8  0.2253     9  0.2500    10  0.2690
    11  0.2315    12  0.2500    13  0.3397    14  0.2253    15  0.2500
    16  0.3397    17  0.2253    18  0.2500

          PARAMETERS CONTROLLING GEOMETRY SEARCH ARE
          METHOD =QA                  UPHESS =BFGS    
          NNEG   =         0          NFRZ   =         1
          NSTEP  =        50          IFOLOW =         1
          HESS   =GUESS               RESTAR =         F
          IHREP  =         0          HSSEND =         F
          NPRT   =         0          NPUN   =         0
          OPTTOL = 1.000E-04          RMIN   = 1.500E-03
          RMAX   = 1.000E-01          RLIM   = 7.000E-02
          DXMAX  = 3.000E-01          PURIFY =         F
          MOVIE  =         F          TRUPD  =         T
          TRMAX  = 5.000E-01          TRMIN  = 5.000E-02
          ITBMAT =         5          STPT   =         F
          STSTEP = 1.000E-02          PROJCT=          T
          FROZEN COORD(S)=  12

 BEGINNING GEOMETRY SEARCH POINT NSERCH=   0 ...

 COORDINATES OF ALL ATOMS ARE (ANGS)
   ATOM   CHARGE       X              Y              Z
 ------------------------------------------------------------
 C           6.0  -0.6911257214  -0.7955335444   0.0538052802
 C           6.0   0.8020440708  -0.7041773778  -0.0561857309
 F           9.0   1.1967551599   0.6363172660   0.0291211633
 H           1.0   1.2668108544  -1.2746627010   0.7614562034
 H           1.0   1.1259710076  -1.1197088300  -1.0217969113
 F           9.0  -1.2852432037   0.5794220351  -0.0269509679
 H           1.0  -1.0836014457  -1.4120195287  -0.7683308624
 H           1.0  -0.9617877054  -1.2545773344   1.0161050720


                     --------------------
                     INTERNAL COORDINATES
                     --------------------

                 - - ATOMS - -         COORDINATE      COORDINATE
 NO.   TYPE    I  J  K  L  M  N        (BOHR,RAD)       (ANG,DEG)
 ----------------------------------------------------------------
   1 STRETCH   2  1                     2.8345890       1.5000000
   2 STRETCH   3  2                     2.6456164       1.4000000
   3 BEND      3  2  1                  1.9118710     109.5421400
   4 STRETCH   4  2                     2.0786986       1.1000000
   5 BEND      4  2  1                  1.9118710     109.5421400
   6 TORSION   4  2  1  3               2.0943951     120.0000000
   7 STRETCH   5  2                     2.0786986       1.1000000
   8 BEND      5  2  1                  1.9118710     109.5421400
   9 TORSION   5  2  1  3              -2.0943951    -120.0000000
  10 STRETCH   6  1                     2.8345890       1.5000000
  11 BEND      6  1  2                  1.9118710     109.5421400
  12 TORSION   6  1  2  3               0.1745329      10.0000000
  13 STRETCH   7  1                     2.0786986       1.1000000
  14 BEND      7  1  2                  1.9118710     109.5421400
  15 TORSION   7  1  2  6               2.0943951     120.0000000
  16 STRETCH   8  1                     2.0786986       1.1000000
  17 BEND      8  1  2                  1.9118710     109.5421400
  18 TORSION   8  1  2  6              -2.0943951    -120.0000000

 THE CURRENT FULLY SUBSTITUTED Z-MATRIX IS
 C   
 C      1   1.5000000
 F      2   1.4000000  1   109.5421400
 H      2   1.1000000  1   109.5421400  3   120.0000000  0
 H      2   1.1000000  1   109.5421400  3  -120.0000000  0
 F      1   1.5000000  2   109.5421400  3    10.0000000  0
 H      1   1.1000000  2   109.5421400  6   120.0000000  0
 H      1   1.1000000  2   109.5421400  6  -120.0000000  0

          ********************
          1 ELECTRON INTEGRALS
          ********************
 ...... END OF ONE-ELECTRON INTEGRALS ......
 STEP CPU TIME =     0.00 TOTAL CPU TIME =          0.0 (      0.0 MIN)
 TOTAL WALL CLOCK TIME=          0.0 SECONDS, CPU UTILIZATION IS    66.67%

          -------------
          GUESS OPTIONS
          -------------
          GUESS =HUCKEL            NORB  =       0          NORDER=       0
          MIX   =       F          PRTMO =       F          PUNMO =       F
          TOLZ  = 1.0E-08          TOLE  = 1.0E-05
          SYMDEN=       F          PURIFY=       F

 INITIAL GUESS ORBITALS GENERATED BY HUCKEL   ROUTINE.
 HUCKEL GUESS REQUIRES     54920 WORDS.

 STATISTICS FOR GENERATION OF SYMMETRY ORBITAL -Q- MATRIX
 NUMBER OF CARTESIAN ATOMIC ORBITALS=         80
 NUMBER OF SPHERICAL CONTAMINANTS DROPPED=     4
 NUMBER OF LINEARLY DEPENDENT MOS DROPPED=     0
 TOTAL NUMBER OF MOS IN VARIATION SPACE=      76

 SYMMETRIES FOR INITIAL GUESS ORBITALS FOLLOW.   BOTH SET(S).
    17 ORBITALS ARE OCCUPIED (    4 CORE ORBITALS).
     5=A        6=A        7=A        8=A        9=A       10=A       11=A   
    12=A       13=A       14=A       15=A       16=A       17=A       18=A   
    19=A       20=A       21=A       22=A       23=A       24=A       25=A   
    26=A       27=A   
 ...... END OF INITIAL ORBITAL SELECTION ......
 STEP CPU TIME =     0.01 TOTAL CPU TIME =          0.0 (      0.0 MIN)
 TOTAL WALL CLOCK TIME=          0.0 SECONDS, CPU UTILIZATION IS    75.00%

                    ----------------------
                    AO INTEGRAL TECHNOLOGY
                    ----------------------
     S,P,L SHELL ROTATED AXIS INTEGRALS, REPROGRAMMED BY
        KAZUYA ISHIMURA (IMS) AND JOSE SIERRA (SYNSTAR).
     S,P,D,L SHELL ROTATED AXIS INTEGRALS PROGRAMMED BY
        KAZUYA ISHIMURA (INSTITUTE FOR MOLECULAR SCIENCE).
     S,P,D,F,G SHELL TO TOTAL QUARTET ANGULAR MOMENTUM SUM 5,
        ERIC PROGRAM BY GRAHAM FLETCHER (ELORET AND NASA ADVANCED
        SUPERCOMPUTING DIVISION, AMES RESEARCH CENTER).
     S,P,D,F,G,L SHELL GENERAL RYS QUADRATURE PROGRAMMED BY
        MICHEL DUPUIS (PACIFIC NORTHWEST NATIONAL LABORATORY).

          --------------------
          2 ELECTRON INTEGRALS
          --------------------

 THE -PK- OPTION IS OFF, THE INTEGRALS ARE NOT IN SUPERMATRIX FORM.
 STORING   15000 INTEGRALS/RECORD ON DISK, USING 12 BYTES/INTEGRAL.
 TWO ELECTRON INTEGRAL EVALUATION REQUIRES   91062 WORDS OF MEMORY.
 SCHWARZ INEQUALITY OVERHEAD:      3237 INTEGRALS, T=        0.00
 II,JST,KST,LST =  1  1  1  1 NREC =         1 INTLOC =    1
 II,JST,KST,LST =  2  1  1  1 NREC =         1 INTLOC =    2
 II,JST,KST,LST =  3  1  1  1 NREC =         1 INTLOC =    7
 II,JST,KST,LST =  4  1  1  1 NREC =         1 INTLOC =   22
 II,JST,KST,LST =  5  1  1  1 NREC =         1 INTLOC =   67
 II,JST,KST,LST =  6  1  1  1 NREC =         1 INTLOC =  214
 II,JST,KST,LST =  7  1  1  1 NREC =         1 INTLOC = 1189
 II,JST,KST,LST =  8  1  1  1 NREC =         1 INTLOC = 3197
 II,JST,KST,LST =  9  1  1  1 NREC =         1 INTLOC = 5661
 II,JST,KST,LST = 10  1  1  1 NREC =         1 INTLOC = 8585
 II,JST,KST,LST = 11  1  1  1 NREC =         2 INTLOC = 5492
 II,JST,KST,LST = 12  1  1  1 NREC =         3 INTLOC = 8167
 II,JST,KST,LST = 13  1  1  1 NREC =         7 INTLOC = 6063
 II,JST,KST,LST = 14  1  1  1 NREC =         8 INTLOC = 3631
 II,JST,KST,LST = 15  1  1  1 NREC =         9 INTLOC = 4363
 II,JST,KST,LST = 16  1  1  1 NREC =        10 INTLOC = 7183
 II,JST,KST,LST = 17  1  1  1 NREC =        14 INTLOC = 8939
 II,JST,KST,LST = 18  1  1  1 NREC =        19 INTLOC =14782
 II,JST,KST,LST = 19  1  1  1 NREC =        34 INTLOC = 9875
 II,JST,KST,LST = 20  1  1  1 NREC =        37 INTLOC =12986
 II,JST,KST,LST = 21  1  1  1 NREC =        41 INTLOC = 4456
 II,JST,KST,LST = 22  1  1  1 NREC =        52 INTLOC =12187
 II,JST,KST,LST = 23  1  1  1 NREC =        57 INTLOC = 2857
 II,JST,KST,LST = 24  1  1  1 NREC =        61 INTLOC =12651
 II,JST,KST,LST = 25  1  1  1 NREC =        77 INTLOC = 4338
 II,JST,KST,LST = 26  1  1  1 NREC =        80 INTLOC = 6747
 II,JST,KST,LST = 27  1  1  1 NREC =        85 INTLOC = 5113
 II,JST,KST,LST = 28  1  1  1 NREC =        91 INTLOC = 9236
 II,JST,KST,LST = 29  1  1  1 NREC =       108 INTLOC = 7129
 II,JST,KST,LST = 30  1  1  1 NREC =       132 INTLOC = 4169
 II,JST,KST,LST = 31  1  1  1 NREC =       184 INTLOC = 2254
 II,JST,KST,LST = 32  1  1  1 NREC =       195 INTLOC = 2806
 II,JST,KST,LST = 33  1  1  1 NREC =       207 INTLOC = 2244
 II,JST,KST,LST = 34  1  1  1 NREC =       240 INTLOC = 6984
 II,JST,KST,LST = 35  1  1  1 NREC =       254 INTLOC =  875
 II,JST,KST,LST = 36  1  1  1 NREC =       268 INTLOC =10178
 SCHWARZ INEQUALITY TEST SKIPPED       14979 INTEGRAL BLOCKS.
 TOTAL NUMBER OF NONZERO TWO-ELECTRON INTEGRALS =             4644536
        310 INTEGRAL RECORDS WERE STORED ON DISK FILE  8.
  ...... END OF TWO-ELECTRON INTEGRALS .....
 STEP CPU TIME =     0.49 TOTAL CPU TIME =          0.5 (      0.0 MIN)
 TOTAL WALL CLOCK TIME=          0.5 SECONDS, CPU UTILIZATION IS    98.11%

          --------------------------
               R-PBE SCF CALCULATION
          --------------------------

     NUCLEAR ENERGY =       127.2461029016
     MAXIT =   30     NPUNCH=    2
     EXTRAP=T  DAMP=F  SHIFT=F  RSTRCT=F  DIIS=T  DEM=F  SOSCF=F
         DENSITY MATRIX CONVERGENCE THRESHOLD=  1.00E-05
     COARSE -> FINE DFT GRID SWITCH THRESHOLD=  3.00E-04 (SWITCH IN $DFT)
                   HF -> DFT SWITCH THRESHOLD=  5.00E-03 (SWOFF IN $DFT)
     MEMORY REQUIRED FOR RHF ITERS=    365468 WORDS.

 DFT CODE IS SWITCHING FROM THE FINE GRID NRAD= 96,  NLEB=  302
                      TO THE COARSE GRID NRAD0= 24, NLEB0=  110

     EXCHANGE FUNCTIONAL   =PBE       
     CORRELATION FUNCTIONAL=PBE       
     DFT THRESHOLD         =.172E-07
     GRID CHANGE THRESHOLD =.300E-03
 FOR AN EULER-MACLAURIN QUADRATURE USING  96 RADIAL POINTS:
 SMALLEST GAUSSIAN PRIMITIVE EXPONENT=        0.1061000000 OF TYPE -S-
 ON ATOM NUMBER   4 HAS RADIAL NORMALIZATION=  1.000000
  LARGEST GAUSSIAN PRIMITIVE EXPONENT=     2931.5500000000 OF TYPE -S-
 ON ATOM NUMBER   3 HAS RADIAL NORMALIZATION=  1.000000
 DFT IS SWITCHED OFF, PERFORMING PURE SCF UNTIL SWOFF THRESHOLD IS REACHED.

 ITER EX DEM     TOTAL ENERGY        E CHANGE  DENSITY CHANGE    DIIS ERROR
   1  0  0     -276.1129439346  -276.1129439346   0.193353463   0.735190800
          * * *   INITIATING DIIS PROCEDURE   * * *
   2  1  0     -276.7624449508    -0.6495010162   0.091120896   0.093340589
   3  2  0     -276.8039880696    -0.0415431187   0.048585591   0.054536050
   4  3  0     -276.8192525943    -0.0152645248   0.009049346   0.013315767
   5  4  0     -276.8199838648    -0.0007312705   0.002294490   0.001957725
 CONVERGED TO SWOFF, SO DFT CALCULATION IS NOW SWITCHED ON.
          * * *   INITIATING DIIS PROCEDURE   * * *
   6  5  0     -277.8889012208    -1.0689173560   0.111784185   0.089451765
   7  6  0     -277.9023072702    -0.0134060493   0.093483877   0.052705271
   8  7  0     -277.9003453727     0.0019618975   0.056161896   0.059367683
   9  8  0     -277.9176265633    -0.0172811906   0.007106110   0.005526465
  10  9  0     -277.9178818142    -0.0002552509   0.002179168   0.001405056
  11 10  0     -277.9178966430    -0.0000148288   0.000655050   0.000487531
  12 11  0     -277.9178989007    -0.0000022577   0.000095269   0.000100829
 DFT CODE IS SWITCHING BACK TO THE FINE GRID
          * * *   INITIATING DIIS PROCEDURE   * * *
  13 12  0     -277.9171525963     0.0007463044   0.004815445   0.003905734
  14 13  0     -277.9171970062    -0.0000444099   0.005251210   0.002169486
  15 14  0     -277.9171901116     0.0000068945   0.002977519   0.002274462
  16 15  0     -277.9172212632    -0.0000311515   0.000312232   0.000178871
  17 16  0     -277.9172214612    -0.0000001981   0.000144671   0.000100356
  18 17  0     -277.9172215337    -0.0000000724   0.000030262   0.000024180
  19 18  0     -277.9172215368    -0.0000000032   0.000006580   0.000006083
  20 19  0     -277.9172215370    -0.0000000002   0.000000660   0.000000302

          -----------------
          DENSITY CONVERGED
          -----------------
     TIME TO FORM FOCK OPERATORS=       9.7 SECONDS (       0.5 SEC/ITER)
     TIME TO SOLVE SCF EQUATIONS=       0.0 SECONDS (       0.0 SEC/ITER)

 FINAL R-PBE ENERGY IS     -277.9172215370 AFTER  20 ITERATIONS
 DFT EXCHANGE + CORRELATION ENERGY =       -32.9005990359
 TOTAL ELECTRON NUMBER             =        33.9999275061

          ------------
          EIGENVECTORS
          ------------

                      1          2          3          4          5
                  -24.2327   -24.2235    -9.9733    -9.9719    -1.0952
                     A          A          A          A          A   
    1  C  1  S    0.000058  -0.000184   0.992647  -0.037455  -0.020685
    2  C  1  S    0.000137  -0.000974   0.036697  -0.002513   0.037046
    3  C  1  S   -0.004051   0.008868  -0.021862   0.006994   0.026747
    4  C  1  X   -0.000321  -0.000500  -0.000444  -0.000963   0.011137
    5  C  1  Y   -0.000133   0.000841   0.000095  -0.000177   0.021384
    6  C  1  Z    0.000007  -0.000040  -0.000003   0.000073  -0.001670
    7  C  1  X   -0.001581   0.000213  -0.002700   0.002832   0.007884
    8  C  1  Y   -0.001574   0.004228   0.000879   0.000198   0.003855
    9  C  1  Z    0.000267  -0.000294   0.000097  -0.000160  -0.000514
   10  C  1 XX   -0.000024  -0.000191  -0.000366  -0.000963   0.002548
   11  C  1 YY    0.000050   0.000507   0.000018   0.000479   0.001339
   12  C  1 ZZ   -0.000026  -0.000315   0.000347   0.000484  -0.003887
   13  C  1 XY   -0.000128  -0.000384   0.000095  -0.000128  -0.000292
   14  C  1 XZ   -0.000013   0.000030   0.000055   0.000117  -0.000233
   15  C  1 YZ    0.000006  -0.000060   0.000036   0.000013  -0.000382
   16  C  2  S   -0.000137   0.000054   0.037641   0.992597  -0.065251
   17  C  2  S   -0.000610   0.000153   0.000238   0.037080   0.123071
   18  C  2  S    0.009989  -0.003764   0.005683  -0.021630   0.017727
   19  C  2  X    0.000485   0.000270   0.001016   0.000465   0.020197
   20  C  2  Y    0.001091  -0.000117  -0.000021   0.000634   0.096203
   21  C  2  Z    0.000057  -0.000008  -0.000071   0.000048   0.006802
   22  C  2  X   -0.000763   0.001639  -0.002716   0.002738   0.004790
   23  C  2  Y    0.004218  -0.001392  -0.000020   0.001378   0.007997
   24  C  2  Z    0.000303  -0.000215   0.000173  -0.000103   0.000513
   25  C  2 XX   -0.000162  -0.000014  -0.000998  -0.000365  -0.006213
   26  C  2 YY    0.000293   0.000033   0.000499   0.000218   0.017865
   27  C  2 ZZ   -0.000131  -0.000019   0.000499   0.000147  -0.011653
   28  C  2 XY    0.000117   0.000138  -0.000049   0.000014   0.009231
   29  C  2 XZ    0.000020  -0.000016   0.000124   0.000057   0.000374
   30  C  2 YZ    0.000036   0.000000  -0.000003  -0.000003   0.002275
   31  F  3  S    0.993081   0.002651   0.000008   0.000063  -0.231186
   32  F  3  S    0.034009  -0.000226  -0.000164   0.000426   0.470427
   33  F  3  S   -0.016878   0.000959  -0.000017  -0.000638   0.481959
   34  F  3  X   -0.000310   0.000074   0.000085   0.000111  -0.028510
   35  F  3  Y   -0.001187  -0.000000   0.000050   0.000279  -0.094759
   36  F  3  Z   -0.000075   0.000024  -0.000002   0.000014  -0.005492
   37  F  3  X    0.001073  -0.000117  -0.000322   0.000315  -0.012867
   38  F  3  Y    0.003676  -0.000247   0.000164   0.001922  -0.043878
   39  F  3  Z    0.000250  -0.000090   0.000041   0.000145  -0.002393
   40  F  3 XX    0.000224  -0.000056   0.000191   0.000451  -0.004446
   41  F  3 YY   -0.000414   0.000022  -0.000138  -0.001105   0.010670
   42  F  3 ZZ    0.000189   0.000034  -0.000053   0.000654  -0.006224
   43  F  3 XY   -0.000230  -0.000003   0.000023  -0.000575   0.006077
   44  F  3 XZ   -0.000023   0.000015  -0.000019  -0.000031   0.000305
   45  F  3 YZ   -0.000045   0.000001  -0.000012  -0.000131   0.001158
   46  H  4  S   -0.000968   0.000195  -0.000359  -0.001233   0.022216
   47  H  4  S   -0.000058   0.000043   0.000424   0.003442   0.001402
   48  H  4  X    0.000016  -0.000093  -0.000117   0.000441  -0.001842
   49  H  4  Y   -0.000418   0.000090  -0.000063  -0.000731   0.003561
   50  H  4  Z   -0.000004  -0.000000   0.000066   0.000972  -0.003580
   51  H  5  S   -0.000987   0.000208  -0.000390  -0.001209   0.022125
   52  H  5  S   -0.000197  -0.000309   0.000397   0.003441   0.001623
   53  H  5  X    0.000009  -0.000023  -0.000121   0.000265  -0.001213
   54  H  5  Y   -0.000418   0.000072  -0.000046  -0.000538   0.002861
   55  H  5  Z   -0.000069   0.000004  -0.000058  -0.001124   0.004382
   56  F  6  S   -0.002650   0.993088   0.000046   0.000004  -0.050278
   57  F  6  S   -0.000399   0.033662   0.000356  -0.000178   0.101144
   58  F  6  S    0.000977  -0.015869   0.000100   0.000038   0.105148
   59  F  6  X   -0.000081   0.000424  -0.000058  -0.000089   0.011711
   60  F  6  Y    0.000021  -0.001068   0.000054   0.000029  -0.017048
   61  F  6  Z   -0.000021   0.000061   0.000000   0.000004   0.000924
   62  F  6  X    0.000179  -0.001417  -0.000288   0.000303   0.006786
   63  F  6  Y   -0.000316   0.003303   0.001316   0.000039  -0.007566
   64  F  6  Z    0.000073  -0.000205  -0.000098  -0.000027   0.000456
   65  F  6 XX   -0.000056   0.000156   0.000306   0.000144   0.000321
   66  F  6 YY    0.000030  -0.000347  -0.000917  -0.000059   0.001586
   67  F  6 ZZ    0.000026   0.000191   0.000611  -0.000084  -0.001907
   68  F  6 XY   -0.000009   0.000305   0.000720  -0.000037  -0.001949
   69  F  6 XZ    0.000012  -0.000024  -0.000040  -0.000014   0.000112
   70  F  6 YZ    0.000001   0.000036   0.000106   0.000001  -0.000222
   71  H  7  S    0.000216  -0.000788  -0.001244  -0.000240   0.004954
   72  H  7  S    0.000068   0.000054   0.003520   0.000194  -0.000054
   73  H  7  X    0.000075   0.000072  -0.000340   0.000153   0.000257
   74  H  7  Y    0.000104  -0.000385  -0.000787   0.000012   0.000858
   75  H  7  Z   -0.000005   0.000064  -0.000998   0.000007   0.000954
   76  H  8  S    0.000218  -0.000801  -0.001220  -0.000277   0.005113
   77  H  8  S   -0.000342  -0.000058   0.003538   0.000141  -0.000120
   78  H  8  X    0.000008   0.000069  -0.000186   0.000141   0.000145
   79  H  8  Y    0.000074  -0.000396  -0.000586   0.000012   0.000710
   80  H  8  Z   -0.000007  -0.000006   0.001143  -0.000027  -0.001185

                      6          7          8          9         10
                   -1.0543    -0.7160    -0.5749    -0.4694    -0.4626
                     A          A          A          A          A   
    1  C  1  S   -0.050291  -0.153787   0.128274   0.000369  -0.007677
    2  C  1  S    0.097063   0.314410  -0.279061  -0.000423   0.032404
    3  C  1  S    0.016204   0.175635  -0.145088  -0.002254  -0.011140
    4  C  1  X   -0.031467   0.106422   0.118235   0.020347   0.048613
    5  C  1  Y    0.071443  -0.041132   0.047924   0.012894   0.228465
    6  C  1  Z   -0.004577  -0.005710  -0.014023   0.292812  -0.012093
    7  C  1  X   -0.009233   0.032013   0.042037   0.005034   0.019772
    8  C  1  Y    0.010179  -0.022676   0.041061   0.004839   0.067896
    9  C  1  Z   -0.000570  -0.002586  -0.008005   0.119372  -0.002694
   10  C  1 XX   -0.004136   0.009709   0.009373   0.001124  -0.001278
   11  C  1 YY    0.012238  -0.005516  -0.005694  -0.000780   0.008924
   12  C  1 ZZ   -0.008102  -0.004193  -0.003679  -0.000344  -0.007646
   13  C  1 XY   -0.009921  -0.000253   0.000934  -0.000206   0.006107
   14  C  1 XZ    0.000526  -0.001330  -0.001456   0.006844  -0.000851
   15  C  1 YZ   -0.001474   0.000052  -0.000125  -0.002656  -0.001966
   16  C  2  S    0.006954  -0.148741  -0.128766   0.000246   0.003539
   17  C  2  S   -0.015499   0.304221   0.281958   0.000547   0.010491
   18  C  2  S    0.014369   0.164391   0.133374  -0.003094  -0.051183
   19  C  2  X   -0.021830  -0.105840   0.136167   0.022519  -0.103182
   20  C  2  Y   -0.020272  -0.055102  -0.019067   0.006568   0.305419
   21  C  2  Z   -0.001017   0.005913  -0.014001   0.332292  -0.005977
   22  C  2  X   -0.008921  -0.030687   0.049120   0.005120  -0.045086
   23  C  2  Y   -0.002101  -0.029076  -0.039437  -0.001195   0.073326
   24  C  2  Z   -0.000077   0.002497  -0.007960   0.135243  -0.006411
   25  C  2 XX    0.004667   0.009807  -0.009601  -0.001166  -0.003132
   26  C  2 YY   -0.005573  -0.005786   0.006591   0.001492   0.015764
   27  C  2 ZZ    0.000906  -0.004021   0.003010  -0.000326  -0.012632
   28  C  2 XY   -0.003475   0.001566   0.000798  -0.000424  -0.004097
   29  C  2 XZ   -0.000390  -0.001400   0.001598  -0.003632  -0.001098
   30  C  2 YZ   -0.000527  -0.000246   0.000109   0.000681   0.003010
   31  F  3  S    0.056999   0.056887   0.052875   0.005485   0.040504
   32  F  3  S   -0.117461  -0.122936  -0.117422  -0.011172  -0.083301
   33  F  3  S   -0.120693  -0.143995  -0.138866  -0.018814  -0.130196
   34  F  3  X    0.000731  -0.038396  -0.016681  -0.009753  -0.244394
   35  F  3  Y    0.021412  -0.077332  -0.199726  -0.053937  -0.295319
   36  F  3  Z    0.001227  -0.003142  -0.017674   0.201446  -0.033026
   37  F  3  X   -0.001260  -0.015725  -0.015142  -0.006276  -0.149265
   38  F  3  Y    0.011241  -0.045982  -0.119216  -0.031840  -0.179285
   39  F  3  Z    0.000526  -0.002526  -0.010632   0.118499  -0.019401
   40  F  3 XX    0.002154  -0.001559  -0.005267  -0.000525   0.000507
   41  F  3 YY   -0.002948   0.004254   0.009564   0.002509   0.005614
   42  F  3 ZZ    0.000793  -0.002696  -0.004297  -0.001985  -0.006120
   43  F  3 XY   -0.001018   0.003555   0.001316   0.000560   0.012094
   44  F  3 XZ   -0.000031   0.000135   0.000317  -0.003244   0.000775
   45  F  3 YZ   -0.000262   0.000375   0.001290  -0.011278   0.001642
   46  H  4  S   -0.004467   0.112406   0.164489   0.175913  -0.148919
   47  H  4  S   -0.000618  -0.004823   0.008824   0.024700  -0.037598
   48  H  4  X    0.000315  -0.006559  -0.003449  -0.006985   0.003195
   49  H  4  Y   -0.000715   0.004780   0.006428   0.006435   0.001317
   50  H  4  Z    0.000593  -0.008480  -0.010811  -0.002018   0.007430
   51  H  5  S   -0.004305   0.110459   0.164266  -0.197494  -0.102199
   52  H  5  S   -0.001203  -0.002456   0.007053  -0.026950  -0.028765
   53  H  5  X    0.000216  -0.005010  -0.001612   0.006892   0.000502
   54  H  5  Y   -0.000576   0.003051   0.004486  -0.004928   0.004112
   55  H  5  Z   -0.000661   0.009966   0.012168  -0.005548  -0.006285
   56  F  6  S   -0.237293   0.050423  -0.043248  -0.002275   0.031625
   57  F  6  S    0.483395  -0.109030   0.097333   0.004679  -0.065860
   58  F  6  S    0.504768  -0.126838   0.110771   0.008104  -0.102181
   59  F  6  X    0.030195   0.037414  -0.036375  -0.002842   0.179173
   60  F  6  Y   -0.073352  -0.062292   0.145917   0.021142  -0.183638
   61  F  6  Z    0.003828   0.002498  -0.011933   0.127290   0.009465
   62  F  6  X    0.015020   0.016304  -0.027752  -0.002118   0.110551
   63  F  6  Y   -0.038719  -0.039134   0.090165   0.012041  -0.114850
   64  F  6  Z    0.001867   0.002089  -0.007405   0.073999   0.005382
   65  F  6 XX   -0.003343  -0.001054   0.003480   0.000225   0.002040
   66  F  6 YY    0.009156   0.003468  -0.007153  -0.001180   0.002440
   67  F  6 ZZ   -0.005812  -0.002414   0.003672   0.000955  -0.004480
   68  F  6 XY   -0.007676  -0.003658   0.003090   0.000161  -0.008360
   69  F  6 XZ    0.000362   0.000143  -0.000385   0.003155   0.000308
   70  F  6 YZ   -0.000953  -0.000330   0.000886  -0.006885  -0.000411
   71  H  7  S    0.018967   0.117098  -0.165603  -0.165286  -0.085088
   72  H  7  S    0.001857  -0.005025  -0.010101  -0.022853  -0.023452
   73  H  7  X    0.001042   0.006064  -0.002901  -0.006162  -0.002593
   74  H  7  Y    0.003195   0.005780  -0.006576  -0.006063   0.001746
   75  H  7  Z    0.002868   0.008992  -0.010883  -0.002208  -0.004622
   76  H  8  S    0.018839   0.115473  -0.165672   0.170980  -0.072690
   77  H  8  S    0.002079  -0.002631  -0.007241   0.021517  -0.019906
   78  H  8  X    0.000606   0.004694  -0.001260   0.005867  -0.001579
   79  H  8  Y    0.002616   0.003941  -0.004583   0.005075   0.003180
   80  H  8  Z   -0.003467  -0.010483   0.012200  -0.004544   0.004176

                     11         12         13         14         15
                   -0.4328    -0.4056    -0.3883    -0.3102    -0.3060
                     A          A          A          A          A   
    1  C  1  S    0.008161  -0.011975   0.001077  -0.020007  -0.017747
    2  C  1  S   -0.019389   0.017693  -0.001371   0.043354   0.037854
    3  C  1  S   -0.017514   0.043576  -0.005273   0.119195   0.111824
    4  C  1  X    0.323280   0.035273  -0.004221   0.081392   0.063940
    5  C  1  Y    0.036321  -0.285628  -0.007299   0.002172  -0.006786
    6  C  1  Z   -0.011867  -0.001328  -0.305218   0.058447  -0.070680
    7  C  1  X    0.121326  -0.006548  -0.001034   0.100474   0.097523
    8  C  1  Y    0.031029  -0.077136  -0.003186  -0.028137  -0.008259
    9  C  1  Z   -0.002328  -0.002506  -0.140930  -0.011882  -0.006035
   10  C  1 XX    0.007234   0.002337   0.001912  -0.006749  -0.006750
   11  C  1 YY   -0.003398  -0.014835   0.001127   0.004056   0.005696
   12  C  1 ZZ   -0.003836   0.012499  -0.003039   0.002693   0.001055
   13  C  1 XY    0.006341   0.017611   0.000145   0.006005   0.007092
   14  C  1 XZ   -0.001975   0.000117   0.014086   0.006272  -0.007821
   15  C  1 YZ   -0.000285   0.002331   0.002078  -0.013617   0.013622
   16  C  2  S   -0.010606   0.015354   0.001154   0.014163   0.011436
   17  C  2  S    0.019706  -0.029974  -0.001561  -0.027016  -0.020346
   18  C  2  S    0.040588  -0.051038  -0.005398  -0.103932  -0.094698
   19  C  2  X   -0.313315  -0.067352  -0.002419  -0.008904  -0.027474
   20  C  2  Y   -0.095740   0.188921  -0.003984   0.023108   0.036044
   21  C  2  Z    0.015804   0.003292   0.226539   0.102910  -0.110514
   22  C  2  X   -0.118040  -0.044840  -0.001302   0.058464   0.058402
   23  C  2  Y   -0.006689   0.042084  -0.004700   0.048068   0.031132
   24  C  2  Z    0.006252  -0.000863   0.107719   0.019809  -0.032794
   25  C  2 XX    0.006957  -0.004877   0.001970   0.010976   0.010152
   26  C  2 YY   -0.008958   0.015528   0.000527  -0.005080  -0.008076
   27  C  2 ZZ    0.002001  -0.010651  -0.002497  -0.005896  -0.002076
   28  C  2 XY   -0.014472   0.014613   0.000352   0.011264   0.012774
   29  C  2 XZ   -0.002091  -0.000674   0.017164  -0.002952   0.003385
   30  C  2 YZ   -0.000418   0.001692   0.007486  -0.016374   0.017074
   31  F  3  S   -0.019977   0.014435   0.000468   0.004133   0.003878
   32  F  3  S    0.039669  -0.027258  -0.000668  -0.007590  -0.008787
   33  F  3  S    0.062501  -0.043982  -0.000960  -0.024223  -0.014823
   34  F  3  X   -0.171224  -0.150867   0.002500   0.349439   0.340955
   35  F  3  Y    0.324879  -0.244804  -0.042344  -0.093210  -0.134814
   36  F  3  Z    0.037001  -0.030097   0.318504  -0.304830   0.303435
   37  F  3  X   -0.105757  -0.093866   0.002517   0.230850   0.225247
   38  F  3  Y    0.201493  -0.148719  -0.027358  -0.056641  -0.086979
   39  F  3  Z    0.022457  -0.019400   0.205495  -0.213927   0.215619
   40  F  3 XX    0.009750  -0.001784  -0.000322  -0.002172  -0.002183
   41  F  3 YY   -0.012875   0.004995   0.002026   0.002627   0.003660
   42  F  3 ZZ    0.003125  -0.003211  -0.001704  -0.000455  -0.001477
   43  F  3 XY    0.006605   0.006111   0.000206  -0.008711  -0.007923
   44  F  3 XZ    0.000107   0.000558  -0.002367   0.002033  -0.002905
   45  F  3 YZ   -0.001938   0.001179  -0.013227   0.005911  -0.005492
   46  H  4  S   -0.040703  -0.124308   0.134455   0.046805  -0.156796
   47  H  4  S   -0.007362  -0.036956   0.040559   0.031459  -0.078320
   48  H  4  X   -0.004821   0.000471  -0.002000  -0.002949   0.003955
   49  H  4  Y   -0.004060   0.000959   0.005473   0.000672  -0.000157
   50  H  4  Z    0.002872   0.005703  -0.001123   0.001367   0.002219
   51  H  5  S   -0.040365  -0.097416  -0.161412  -0.144742   0.067092
   52  H  5  S   -0.009748  -0.030246  -0.048553  -0.064288   0.028989
   53  H  5  X   -0.005059  -0.000859   0.001287   0.003269  -0.003894
   54  H  5  Y   -0.003424   0.002467  -0.004990   0.000138   0.000727
   55  H  5  Z   -0.002688  -0.005087  -0.003570  -0.002815  -0.000256
   56  F  6  S   -0.012153  -0.030925   0.000908  -0.004057  -0.003817
   57  F  6  S    0.025206   0.063181  -0.001490   0.008098   0.009477
   58  F  6  S    0.036761   0.094832  -0.003520   0.020077   0.010416
   59  F  6  X    0.126654  -0.208921  -0.000045   0.301710   0.274628
   60  F  6  Y    0.218039   0.406855  -0.039204   0.128231   0.167248
   61  F  6  Z   -0.015429  -0.038348  -0.260280  -0.330840   0.327751
   62  F  6  X    0.077190  -0.132998  -0.000696   0.195775   0.176496
   63  F  6  Y    0.139958   0.258180  -0.025318   0.079229   0.107908
   64  F  6  Z   -0.009353  -0.024595  -0.165100  -0.228821   0.229623
   65  F  6 XX    0.008481   0.002902  -0.000369   0.003543   0.003171
   66  F  6 YY   -0.010256  -0.009023   0.001757  -0.003799  -0.004629
   67  F  6 ZZ    0.001775   0.006121  -0.001388   0.000256   0.001458
   68  F  6 XY   -0.002918   0.008976  -0.000381  -0.007015  -0.005982
   69  F  6 XZ    0.000098  -0.000744  -0.003229  -0.002882   0.003370
   70  F  6 YZ    0.000944   0.001586   0.010817   0.006205  -0.005775
   71  H  7  S   -0.110800   0.137257   0.194947  -0.054199   0.079656
   72  H  7  S   -0.023903   0.041999   0.058412  -0.040039   0.043527
   73  H  7  X    0.004153   0.003296   0.003417  -0.001210   0.004801
   74  H  7  Y   -0.003639  -0.003434   0.006970  -0.000235  -0.000483
   75  H  7  Z   -0.006103   0.006324   0.001737   0.000023   0.000192
   76  H  8  S   -0.094044   0.102826  -0.221575   0.076958  -0.057692
   77  H  8  S   -0.023629   0.032709  -0.063909   0.035544  -0.029581
   78  H  8  X    0.005187   0.001792  -0.002796   0.004617  -0.001945
   79  H  8  Y   -0.002032  -0.005315  -0.006119  -0.000302   0.000126
   80  H  8  Z    0.005606  -0.005438   0.004625  -0.000748   0.000397

                     16         17         18         19         20
                   -0.2921    -0.2786    -0.0270     0.0133     0.0377
                     A          A          A          A          A   
    1  C  1  S    0.017549  -0.001625  -0.056151  -0.085350  -0.000057
    2  C  1  S   -0.053096   0.005289   0.163275   0.158382  -0.002355
    3  C  1  S   -0.045765   0.009680   0.203675   1.160961   0.026700
    4  C  1  X   -0.260544   0.023304  -0.139871  -0.151628   0.026180
    5  C  1  Y   -0.083085  -0.007059   0.379097  -0.082173   0.016661
    6  C  1  Z   -0.005378  -0.201574  -0.030677   0.012910   0.287506
    7  C  1  X   -0.068502   0.008962  -0.209657  -0.343579   0.067329
    8  C  1  Y   -0.027588  -0.007480   0.505360  -0.187150   0.077792
    9  C  1  Z    0.009754  -0.036680  -0.071033   0.033829   0.660528
   10  C  1 XX   -0.019527   0.003405   0.006684   0.011261   0.002580
   11  C  1 YY    0.013650   0.002484  -0.029847  -0.002404   0.002105
   12  C  1 ZZ    0.005877  -0.005889   0.023163  -0.008857  -0.004685
   13  C  1 XY    0.010710  -0.001199   0.035546  -0.001074   0.001655
   14  C  1 XZ    0.002244   0.007175   0.001312  -0.001989   0.024417
   15  C  1 YZ    0.001707   0.018897   0.002911  -0.000152   0.018659
   16  C  2  S    0.018915  -0.001404  -0.022968  -0.074079  -0.001256
   17  C  2  S   -0.055544   0.004891   0.080607   0.128752   0.005845
   18  C  2  S   -0.075851   0.009224   0.028255   1.119895  -0.016776
   19  C  2  X    0.271474  -0.020988   0.059768   0.141273   0.029498
   20  C  2  Y   -0.044448  -0.011278   0.245673  -0.114517  -0.008405
   21  C  2  Z    0.002121   0.209391   0.020834  -0.015334   0.288282
   22  C  2  X    0.100273  -0.008024   0.116442   0.326931   0.082929
   23  C  2  Y   -0.007887  -0.009773   0.384154  -0.212820  -0.059113
   24  C  2  Z   -0.012800   0.045329   0.059489  -0.035925   0.658451
   25  C  2 XX   -0.015386   0.003174   0.013155   0.009906  -0.002330
   26  C  2 YY    0.010197   0.003136  -0.033134   0.000428  -0.003321
   27  C  2 ZZ    0.005189  -0.006311   0.019979  -0.010334   0.005651
   28  C  2 XY   -0.013007   0.001168  -0.033272   0.002333   0.000770
   29  C  2 XZ    0.002621   0.009027   0.002789  -0.001490  -0.026407
   30  C  2 YZ   -0.000894  -0.019693  -0.002884   0.000396   0.015543
   31  F  3  S    0.003807  -0.000840   0.046202  -0.000236   0.002661
   32  F  3  S   -0.012255   0.001415  -0.088927   0.004986  -0.006711
   33  F  3  S   -0.000400   0.006343  -0.339960  -0.021172  -0.012558
   34  F  3  X   -0.326571   0.013496   0.090575  -0.032137   0.002382
   35  F  3  Y    0.064469   0.010834   0.218073   0.064515   0.018250
   36  F  3  Z   -0.002508  -0.374232   0.005699   0.012203  -0.062494
   37  F  3  X   -0.242821   0.009436   0.096652  -0.051088  -0.000481
   38  F  3  Y    0.047849   0.007387   0.203333   0.086776   0.017788
   39  F  3  Z    0.000315  -0.256266   0.005169   0.013108  -0.084845
   40  F  3 XX    0.003244   0.000152  -0.000441  -0.000405  -0.000369
   41  F  3 YY   -0.002671  -0.000229   0.000597   0.003322   0.000742
   42  F  3 ZZ   -0.000573   0.000077  -0.000156  -0.002917  -0.000373
   43  F  3 XY    0.002658  -0.000223   0.000616  -0.001911   0.000243
   44  F  3 XZ    0.000436   0.001569   0.000135  -0.000177  -0.005071
   45  F  3 YZ   -0.000269   0.004629  -0.000079   0.000642  -0.004249
   46  H  4  S    0.131896   0.186330   0.078890  -0.041190  -0.094530
   47  H  4  S    0.077445   0.094248   0.168796  -0.753333  -1.027993
   48  H  4  X    0.003878  -0.003593   0.009204   0.000944  -0.006953
   49  H  4  Y    0.000304   0.002686   0.009297   0.005455   0.010836
   50  H  4  Z   -0.004975  -0.000565   0.006636  -0.014096  -0.009184
   51  H  5  S    0.076990  -0.223793   0.042326  -0.045718   0.092194
   52  H  5  S    0.040271  -0.121999   0.164885  -0.712053   1.028563
   53  H  5  X    0.005229   0.001910   0.005225   0.003252   0.007041
   54  H  5  Y   -0.001502  -0.002207   0.010270   0.003430  -0.008784
   55  H  5  Z    0.003903  -0.002765  -0.006196   0.013969  -0.011250
   56  F  6  S    0.002314  -0.000744   0.059255   0.005881  -0.000876
   57  F  6  S   -0.009171   0.001124  -0.112936  -0.008123   0.003177
   58  F  6  S    0.006398   0.005905  -0.419072  -0.057695  -0.001011
   59  F  6  X    0.429777  -0.015984  -0.152571   0.008044   0.001399
   60  F  6  Y    0.156553   0.005220   0.314664   0.099409  -0.010063
   61  F  6  Z    0.013960   0.408475  -0.011385  -0.013791  -0.052643
   62  F  6  X    0.307921  -0.010761  -0.154551   0.024258  -0.001573
   63  F  6  Y    0.108686   0.003075   0.294135   0.116563  -0.008473
   64  F  6  Z    0.008353   0.278402  -0.010210  -0.013701  -0.070556
   65  F  6 XX    0.004971  -0.000003  -0.000920  -0.000973   0.000282
   66  F  6 YY   -0.004556  -0.000054   0.001445   0.004098  -0.000553
   67  F  6 ZZ   -0.000415   0.000057  -0.000525  -0.003125   0.000272
   68  F  6 XY   -0.004017   0.000212  -0.001667   0.000575   0.000330
   69  F  6 XZ    0.000515   0.002088   0.000098   0.000000   0.004680
   70  F  6 YZ    0.000106  -0.004632  -0.000004  -0.000711  -0.003208
   71  H  7  S    0.139109   0.177200   0.046093  -0.054114   0.102339
   72  H  7  S    0.080954   0.089195   0.071996  -0.787582   1.033731
   73  H  7  X   -0.003815   0.003103  -0.010992  -0.002199  -0.005747
   74  H  7  Y   -0.000582   0.002706   0.013535   0.007599  -0.011622
   75  H  7  Z    0.005103   0.000570  -0.008097   0.013632  -0.009313
   76  H  8  S    0.078406  -0.214198   0.024581  -0.053871  -0.097034
   77  H  8  S    0.042487  -0.116770   0.101526  -0.747621  -1.033028
   78  H  8  X   -0.005238  -0.001483  -0.007732  -0.004508   0.005537
   79  H  8  Y   -0.002316  -0.002057   0.014656   0.005524   0.010565
   80  H  8  Z   -0.003912   0.002550   0.007299  -0.013868  -0.010923

                     21         22         23         24         25
                    0.0675     0.1136     0.1226     0.1862     0.3427
                     A          A          A          A          A   
    1  C  1  S    0.092971   0.027235   0.000438  -0.075987   0.004324
    2  C  1  S   -0.159079  -0.121614   0.000355   0.104287   0.021762
    3  C  1  S   -1.473739   0.455540  -0.066705   1.763187   0.561947
    4  C  1  X    0.041469   0.201768  -0.039505   0.346940   0.452482
    5  C  1  Y    0.092808  -0.343054  -0.015368   0.193232  -0.191561
    6  C  1  Z   -0.010735  -0.022607  -0.309511  -0.053128  -0.031693
    7  C  1  X   -0.009025   0.533904  -0.121171   1.966287  -0.890785
    8  C  1  Y    0.297943  -0.661648  -0.009056   0.749172   0.144268
    9  C  1  Z   -0.031769  -0.119486  -1.072957  -0.169968   0.110315
   10  C  1 XX    0.004815  -0.015328   0.000777  -0.044240   0.057525
   11  C  1 YY   -0.004723   0.022979  -0.004820   0.008110  -0.002640
   12  C  1 ZZ   -0.000092  -0.007651   0.004042   0.036130  -0.054884
   13  C  1 XY    0.004614   0.006964  -0.004939  -0.009566  -0.008339
   14  C  1 XZ   -0.000687   0.006239   0.001326   0.004516  -0.011093
   15  C  1 YZ    0.000801  -0.002948  -0.007068   0.004643  -0.004674
   16  C  2  S   -0.102464  -0.045001   0.006035   0.079074   0.007336
   17  C  2  S    0.183600   0.159484  -0.022647  -0.114158   0.036382
   18  C  2  S    1.580361  -0.190572  -0.000119  -1.822749   0.411195
   19  C  2  X    0.064312   0.174221   0.008558   0.385694  -0.431120
   20  C  2  Y   -0.055498   0.392868  -0.070004  -0.146545  -0.212138
   21  C  2  Z   -0.006218   0.030547   0.313916  -0.048321   0.030417
   22  C  2  X    0.076885   0.603362   0.003111   2.007419   1.036413
   23  C  2  Y   -0.210750   0.937875  -0.131056  -0.600416  -0.021078
   24  C  2  Z   -0.011494   0.091345   1.082974  -0.174736  -0.144225
   25  C  2 XX   -0.002214   0.020253  -0.003755   0.043803   0.053350
   26  C  2 YY   -0.001693  -0.037808   0.001355  -0.005349   0.009267
   27  C  2 ZZ    0.003907   0.017554   0.002401  -0.038454  -0.062617
   28  C  2 XY   -0.001009   0.000993   0.004588  -0.002469   0.016632
   29  C  2 XZ    0.000915  -0.004962   0.001926  -0.005220  -0.009473
   30  C  2 YZ    0.000175  -0.004416   0.008203   0.004677   0.004759
   31  F  3  S    0.009918   0.068706  -0.006083  -0.019964  -0.000734
   32  F  3  S   -0.015556  -0.128828   0.013925   0.024675   0.021613
   33  F  3  S   -0.093927  -0.596948   0.040846   0.253072  -0.118886
   34  F  3  X    0.053364  -0.003343  -0.008167  -0.132334  -0.108928
   35  F  3  Y    0.095301   0.286952  -0.027962  -0.046037  -0.079916
   36  F  3  Z   -0.000322   0.023157  -0.041222  -0.001847   0.007565
   37  F  3  X    0.054023   0.009861  -0.008274  -0.208729  -0.166202
   38  F  3  Y    0.120748   0.318997  -0.021114  -0.091888   0.043028
   39  F  3  Z    0.003458   0.021194  -0.093417   0.004423   0.023036
   40  F  3 XX   -0.001699  -0.004686  -0.000515   0.002730   0.014154
   41  F  3 YY    0.003979   0.006523  -0.000159   0.001950  -0.016941
   42  F  3 ZZ   -0.002280  -0.001837   0.000675  -0.004681   0.002787
   43  F  3 XY    0.000347   0.001204  -0.000702  -0.011015  -0.008521
   44  F  3 XZ   -0.000151  -0.000097  -0.003348  -0.002251  -0.001457
   45  F  3 YZ    0.000539   0.000876  -0.005802   0.001610  -0.001556
   46  H  4  S   -0.047298  -0.034955  -0.017231  -0.097380  -0.229067
   47  H  4  S   -1.008730  -0.054114  -1.497647  -0.636470   0.005402
   48  H  4  X   -0.008226   0.007858  -0.012395   0.014050   0.015747
   49  H  4  Y    0.007272   0.021996   0.008029  -0.001257  -0.008800
   50  H  4  Z   -0.007041   0.007792  -0.007532  -0.019507  -0.016693
   51  H  5  S   -0.047326   0.008875   0.033882  -0.101078  -0.251603
   52  H  5  S   -0.985852   0.114387   1.538387  -0.610264  -0.044470
   53  H  5  X   -0.006920   0.010619   0.007260   0.014466   0.018401
   54  H  5  Y    0.004626   0.022484  -0.007985  -0.005088  -0.011258
   55  H  5  Z    0.009153  -0.005953  -0.011897   0.017156   0.010286
   56  F  6  S    0.000391  -0.044832   0.003175   0.013318   0.006938
   57  F  6  S   -0.002020   0.087967  -0.004232  -0.017779   0.010739
   58  F  6  S   -0.001756   0.358260  -0.035637  -0.158194  -0.219685
   59  F  6  X    0.046908   0.008487   0.008518  -0.127956   0.122019
   60  F  6  Y   -0.046691  -0.224248   0.013624   0.024295  -0.054263
   61  F  6  Z   -0.002419   0.023406   0.031256  -0.002124  -0.008460
   62  F  6  X    0.043936   0.013741   0.006808  -0.180663   0.112847
   63  F  6  Y   -0.057916  -0.221017   0.022535   0.044606   0.103335
   64  F  6  Z    0.001029   0.027660   0.073478   0.004733  -0.021519
   65  F  6 XX    0.001165   0.004638  -0.001213   0.000120   0.007691
   66  F  6 YY   -0.003325  -0.006894   0.000917  -0.003030  -0.012967
   67  F  6 ZZ    0.002160   0.002256   0.000296   0.002910   0.005276
   68  F  6 XY    0.001469   0.003108   0.000310  -0.010489   0.014895
   69  F  6 XZ    0.000079  -0.000530  -0.003532   0.001717  -0.001326
   70  F  6 YZ    0.000448   0.001562   0.004138   0.001435   0.001008
   71  H  7  S    0.059388   0.066214  -0.031902   0.091635  -0.211756
   72  H  7  S    0.966295  -0.255739  -1.490765   0.608289   0.075997
   73  H  7  X   -0.009152   0.007384   0.009524   0.015302  -0.012789
   74  H  7  Y   -0.005804  -0.014104   0.012805   0.001281  -0.006361
   75  H  7  Z   -0.007730   0.007483   0.006432  -0.018405   0.014004
   76  H  8  S    0.055019   0.022149   0.037458   0.095222  -0.208545
   77  H  8  S    0.977699   0.072636   1.511125   0.630645   0.019804
   78  H  8  X   -0.007637   0.009464  -0.007900   0.014075  -0.017622
   79  H  8  Y   -0.003095  -0.016511  -0.006243   0.004263  -0.009413
   80  H  8  Z    0.009826  -0.003315   0.012121   0.016711  -0.008551

                     26         27         28         29         30
                    0.3651     0.3782     0.4142     0.4879     0.5184
                     A          A          A          A          A   
    1  C  1  S    0.007931   0.029401  -0.017358   0.073862  -0.050972
    2  C  1  S   -0.058897  -0.272750   0.147825  -0.541989   0.300022
    3  C  1  S   -0.022474  -0.069853  -0.001015   1.709203  -0.363798
    4  C  1  X    0.050237   0.045117  -0.176271  -0.631417  -0.416190
    5  C  1  Y   -0.109074  -0.580133   0.433679  -0.011559  -0.293926
    6  C  1  Z    0.061308   0.088056   0.005910  -0.013563  -0.088994
    7  C  1  X   -0.055919   0.106054   0.262782   1.879180   0.503500
    8  C  1  Y    0.087593   1.075730  -1.385940   0.637859   0.344327
    9  C  1  Z   -0.598035  -0.182398  -0.052835  -0.075633   0.018705
   10  C  1 XX   -0.018024  -0.029931   0.013355   0.058418   0.043333
   11  C  1 YY   -0.006747  -0.000328  -0.008308  -0.058697   0.008885
   12  C  1 ZZ    0.024771   0.030259  -0.005047   0.000279  -0.052217
   13  C  1 XY   -0.011358  -0.047790  -0.003255   0.012308  -0.068389
   14  C  1 XZ   -0.071626   0.015761  -0.007791  -0.014803  -0.010916
   15  C  1 YZ   -0.073919   0.016872  -0.006969   0.002248  -0.031854
   16  C  2  S   -0.001809   0.033398   0.029032  -0.063245  -0.069260
   17  C  2  S    0.004791  -0.263910  -0.250862   0.473554   0.430706
   18  C  2  S    0.007260   0.000440   0.073271  -1.626091  -0.668792
   19  C  2  X    0.054685   0.061111  -0.124793  -0.683409   0.323713
   20  C  2  Y    0.013473  -0.462143  -0.668302  -0.011509  -0.171272
   21  C  2  Z    0.042090  -0.109286  -0.024369  -0.025506   0.096410
   22  C  2  X   -0.121065  -0.309480   0.088822   1.976128  -0.133658
   23  C  2  Y    0.073226   0.442478   1.630405  -0.444527   0.087865
   24  C  2  Z   -0.521915   0.326997   0.020565  -0.059078  -0.043306
   25  C  2 XX    0.011291  -0.039483  -0.028337  -0.065772   0.017542
   26  C  2 YY    0.005264   0.020199   0.037065   0.050934   0.029371
   27  C  2 ZZ   -0.016556   0.019285  -0.008728   0.014838  -0.046913
   28  C  2 XY   -0.002916   0.046104   0.025745  -0.023672   0.066549
   29  C  2 XZ    0.082627  -0.001182   0.009619   0.017080  -0.014249
   30  C  2 YZ   -0.059792   0.002524  -0.003313  -0.000238   0.030904
   31  F  3  S    0.002150   0.004933   0.011192   0.008164   0.025208
   32  F  3  S   -0.003179   0.030962   0.064539  -0.050472  -0.097451
   33  F  3  S   -0.016760  -0.244835  -0.635541   0.104132  -0.030323
   34  F  3  X    0.002394   0.005151  -0.143771   0.008110  -0.017494
   35  F  3  Y   -0.003436  -0.204013  -0.237056   0.025954   0.062013
   36  F  3  Z    0.145174  -0.043961   0.006842  -0.004567  -0.042187
   37  F  3  X    0.029435   0.144406   0.022636  -0.104038   0.070732
   38  F  3  Y    0.003673   0.007954   0.079543  -0.000112   0.055562
   39  F  3  Z    0.074623  -0.036490   0.015125   0.000665   0.010179
   40  F  3 XX   -0.000630   0.010141   0.011694   0.017220  -0.007383
   41  F  3 YY    0.001287  -0.030821  -0.041776  -0.010402   0.008325
   42  F  3 ZZ   -0.000657   0.020680   0.030082  -0.006818  -0.000942
   43  F  3 XY   -0.001647  -0.018241  -0.024684   0.018911  -0.010714
   44  F  3 XZ    0.011139  -0.000931   0.000065  -0.000708  -0.002827
   45  F  3 YZ    0.004182  -0.002992  -0.005187   0.000017  -0.005396
   46  H  4  S    0.529219   0.083156   0.148340  -0.151049  -0.704854
   47  H  4  S   -0.108981   0.055963   0.144760  -0.552596   0.652810
   48  H  4  X    0.024748  -0.008988  -0.023212  -0.018491  -0.028373
   49  H  4  Y   -0.010468   0.006494   0.002556  -0.014190   0.036926
   50  H  4  Z   -0.007782   0.004249  -0.002809  -0.005954  -0.056375
   51  H  5  S   -0.534131   0.215093   0.071954  -0.230114  -0.387451
   52  H  5  S    0.149587   0.099477   0.143207  -0.313833   0.174911
   53  H  5  X   -0.027424  -0.016614  -0.019905  -0.026755  -0.007826
   54  H  5  Y    0.018332   0.006168   0.003847  -0.010065  -0.002055
   55  H  5  Z   -0.001084   0.004662   0.004344   0.017685   0.046770
   56  F  6  S    0.001178   0.019480  -0.011606  -0.011393   0.020683
   57  F  6  S    0.006177   0.012413  -0.042977   0.065190  -0.076313
   58  F  6  S   -0.061454  -0.460387   0.503026  -0.087593  -0.062687
   59  F  6  X    0.005600   0.040702  -0.135442  -0.002757   0.014936
   60  F  6  Y   -0.033529  -0.199514   0.116403  -0.036557   0.036725
   61  F  6  Z    0.152295   0.002893   0.018165  -0.008089   0.039182
   62  F  6  X   -0.009700  -0.161941   0.028691  -0.099529  -0.089915
   63  F  6  Y    0.011408   0.087350  -0.113549  -0.012519   0.027334
   64  F  6  Z    0.068935   0.007971   0.020215   0.003251  -0.011504
   65  F  6 XX    0.001803   0.006659  -0.001319  -0.015036  -0.011369
   66  F  6 YY   -0.006241  -0.030111   0.021064   0.007568   0.009607
   67  F  6 ZZ    0.004438   0.023452  -0.019745   0.007468   0.001762
   68  F  6 XY    0.003294   0.024312  -0.018663   0.010441   0.009795
   69  F  6 XZ   -0.010398   0.001163  -0.000163   0.001449  -0.002645
   70  F  6 YZ    0.006315   0.002470  -0.002436  -0.000171   0.004904
   71  H  7  S   -0.505428   0.272233  -0.184865   0.287141  -0.648953
   72  H  7  S    0.147579   0.071355  -0.093300   0.415076   0.768729
   73  H  7  X    0.024335   0.009579  -0.017815  -0.023570   0.021416
   74  H  7  Y    0.017696   0.011313  -0.004626   0.005895   0.040386
   75  H  7  Z   -0.009605  -0.005698   0.002257  -0.017438   0.055154
   76  H  8  S    0.611439   0.148059  -0.090127   0.327104  -0.336712
   77  H  8  S   -0.156081   0.151908  -0.098216   0.258168   0.277351
   78  H  8  X   -0.019939   0.025365  -0.012604  -0.028061   0.005236
   79  H  8  Y   -0.019786   0.020406  -0.006653   0.006497   0.000375
   80  H  8  Z   -0.001142  -0.001487  -0.001958   0.027652  -0.044200

                     31         32         33         34         35
                    0.5334     0.5403     0.5772     0.5903     0.7546
                     A          A          A          A          A   
    1  C  1  S   -0.014013  -0.012678  -0.071140   0.000234   0.025527
    2  C  1  S    0.119898   0.079179   0.533576   0.042118  -1.236729
    3  C  1  S   -0.300391  -0.039476  -0.092978  -0.019117   2.379115
    4  C  1  X   -0.019825  -0.055165  -0.308147   0.068693  -0.107214
    5  C  1  Y   -0.052260   0.003342  -0.343907   0.086769   0.128175
    6  C  1  Z   -0.415708   0.794080   0.072497   0.365873   0.028228
    7  C  1  X   -0.123329   0.091261   1.287380  -0.237524  -0.375601
    8  C  1  Y   -0.016070  -0.039556   0.550313  -0.189095  -0.391386
    9  C  1  Z    0.759026  -1.209995  -0.211512  -2.563749  -0.131729
   10  C  1 XX   -0.004601   0.019421   0.042701   0.007011  -0.064757
   11  C  1 YY    0.006686   0.022841   0.024415  -0.020073   0.066677
   12  C  1 ZZ   -0.002084  -0.042262  -0.067117   0.013063  -0.001920
   13  C  1 XY   -0.006564   0.000395  -0.019397  -0.006698  -0.006228
   14  C  1 XZ   -0.050138   0.035651  -0.005835   0.020499   0.007016
   15  C  1 YZ   -0.018802   0.108909  -0.011137  -0.050684  -0.009026
   16  C  2  S    0.000091  -0.020331   0.074793   0.000478   0.018850
   17  C  2  S   -0.024466   0.150812  -0.574073   0.046280  -1.221958
   18  C  2  S    0.182024  -0.272304   0.145917  -0.041065   2.630381
   19  C  2  X    0.015815   0.044325  -0.352305  -0.069061   0.108903
   20  C  2  Y    0.058962  -0.011626   0.295313   0.067497   0.196729
   21  C  2  Z   -0.846555  -0.289766   0.071188  -0.352397  -0.022730
   22  C  2  X   -0.122780   0.067906   1.353806   0.255563   0.327446
   23  C  2  Y   -0.058104  -0.052802  -0.388665  -0.170880  -0.399174
   24  C  2  Z    1.456776   0.309971  -0.178399   2.595295   0.135121
   25  C  2 XX    0.017736   0.010284  -0.043897   0.003667  -0.063173
   26  C  2 YY    0.011568   0.020972  -0.024160  -0.017168   0.072230
   27  C  2 ZZ   -0.029303  -0.031255   0.068057   0.013501  -0.009057
   28  C  2 XY   -0.002659   0.000644  -0.021433   0.008128  -0.005976
   29  C  2 XZ    0.072094   0.005179   0.007599  -0.000281   0.004112
   30  C  2 YZ   -0.081137  -0.067556  -0.009454   0.046316   0.010606
   31  F  3  S    0.003379   0.003311  -0.006030  -0.006088   0.041868
   32  F  3  S   -0.009429  -0.020795   0.029412   0.031849  -0.184041
   33  F  3  S   -0.029222   0.032746  -0.015409  -0.007788  -0.180664
   34  F  3  X    0.004971   0.008529   0.002201  -0.078423   0.096947
   35  F  3  Y   -0.002910   0.016054  -0.032203   0.041137  -0.070619
   36  F  3  Z   -0.007958   0.130842  -0.001371  -0.225442  -0.029971
   37  F  3  X    0.010974  -0.014428  -0.061793  -0.002491  -0.053481
   38  F  3  Y    0.025295  -0.001950   0.027368  -0.003183   0.307155
   39  F  3  Z   -0.110444  -0.041539   0.012539  -0.147706   0.024249
   40  F  3 XX   -0.001378  -0.000819   0.011476  -0.005053   0.024688
   41  F  3 YY   -0.003345   0.001253  -0.011371   0.007720  -0.032126
   42  F  3 ZZ    0.004723  -0.000434  -0.000105  -0.002667   0.007439
   43  F  3 XY   -0.001419  -0.000455   0.006046  -0.000139  -0.010223
   44  F  3 XZ    0.000285   0.009149  -0.000265   0.006767  -0.001530
   45  F  3 YZ    0.023045   0.018277  -0.001580  -0.010965  -0.004508
   46  H  4  S    0.332364   0.198139   0.483359  -0.378659  -0.370517
   47  H  4  S   -1.321006  -0.519366  -1.050032  -1.139525  -0.759313
   48  H  4  X    0.031631   0.013418   0.019927   0.027889  -0.004900
   49  H  4  Y   -0.046747  -0.033155  -0.018555   0.028415  -0.040587
   50  H  4  Z    0.048205  -0.007929   0.065196   0.035290   0.011803
   51  H  5  S   -0.382838  -0.525378   0.462491   0.445254  -0.319577
   52  H  5  S    1.486982   0.721716  -1.100870   1.110998  -0.545696
   53  H  5  X   -0.019690  -0.021007   0.005668  -0.025803  -0.006098
   54  H  5  Y    0.041728   0.036733  -0.008499  -0.026968  -0.040954
   55  H  5  Z    0.064831   0.033768  -0.072598   0.024099  -0.012453
   56  F  6  S   -0.000544   0.003720   0.005231  -0.005719   0.039080
   57  F  6  S   -0.005187  -0.017676  -0.026699   0.030625  -0.178672
   58  F  6  S    0.037881   0.002523   0.008353  -0.009451  -0.127870
   59  F  6  X    0.001029  -0.010385  -0.004670   0.072914  -0.090661
   60  F  6  Y    0.012966   0.004609   0.022158   0.045617  -0.055449
   61  F  6  Z   -0.090260  -0.074918   0.004310   0.230043   0.028248
   62  F  6  X    0.018211  -0.000173  -0.056016  -0.002169   0.035018
   63  F  6  Y   -0.018370   0.009669  -0.037471  -0.003976   0.260936
   64  F  6  Z   -0.038738   0.107693   0.013155   0.112361  -0.021934
   65  F  6 XX   -0.000110  -0.001884  -0.010048  -0.005294   0.020549
   66  F  6 YY    0.003116  -0.000703   0.009659   0.008191  -0.027060
   67  F  6 ZZ   -0.003006   0.002587   0.000389  -0.002897   0.006511
   68  F  6 XY   -0.000836   0.001047   0.000410  -0.000464   0.015830
   69  F  6 XZ    0.006259   0.007459   0.000559   0.002514  -0.002029
   70  F  6 YZ    0.001869  -0.023147  -0.000415   0.016606   0.004220
   71  H  7  S   -0.136565   0.365843  -0.481257  -0.345250  -0.330354
   72  H  7  S    0.583926  -1.249936   1.017696  -1.154241  -0.762791
   73  H  7  X    0.012909  -0.023217   0.017712  -0.036275   0.009832
   74  H  7  Y    0.013879  -0.059241   0.019557   0.024846  -0.037624
   75  H  7  Z    0.040640  -0.027731   0.063384  -0.036492  -0.014549
   76  H  8  S   -0.067758  -0.632824  -0.442739   0.419903  -0.283700
   77  H  8  S   -0.547185   1.543819   1.092115   1.100215  -0.546653
   78  H  8  X    0.000510   0.020238   0.005919   0.034752   0.011960
   79  H  8  Y   -0.006667   0.057793   0.007879  -0.023193  -0.037686
   80  H  8  Z    0.023226  -0.069200  -0.071161  -0.023790   0.014128

                     36         37         38         39         40
                    0.8881     0.9622     0.9865     1.0225     1.1454
                     A          A          A          A          A   
    1  C  1  S    0.000790   0.002108  -0.013490   0.027447   0.026078
    2  C  1  S   -0.250777   0.126727  -0.797483   0.119070   1.298098
    3  C  1  S    0.353381  -0.571623   3.428737  -2.129283  -5.087814
    4  C  1  X   -0.037257   0.018090  -0.010302   0.046911  -0.158198
    5  C  1  Y    0.078212  -0.007597   0.044954  -0.305036   0.157624
    6  C  1  Z   -0.027767   0.079341  -0.002382   0.018626  -0.002653
    7  C  1  X    0.119480  -0.202305   0.965265  -0.601254  -1.700238
    8  C  1  Y    0.070185  -0.074960  -0.132651   0.054176   0.104434
    9  C  1  Z    0.241718  -0.335936  -0.082679   0.104494   0.136491
   10  C  1 XX   -0.017899  -0.026766  -0.000887   0.015997  -0.064984
   11  C  1 YY   -0.076443   0.004783   0.069719  -0.134472   0.063905
   12  C  1 ZZ    0.094342   0.021982  -0.068833   0.118475   0.001080
   13  C  1 XY   -0.164935   0.005303   0.020867   0.102405  -0.006647
   14  C  1 XZ    0.004043  -0.213014  -0.039966   0.007934  -0.018593
   15  C  1 YZ    0.037848   0.096752  -0.000242   0.020305   0.012731
   16  C  2  S    0.001665  -0.003271   0.023232  -0.006613  -0.034323
   17  C  2  S   -0.273944  -0.058933   0.319420  -0.740871  -1.269946
   18  C  2  S    0.560947   0.546057  -3.259600   2.262725   5.125395
   19  C  2  X    0.027461   0.018395  -0.027264  -0.026479  -0.115219
   20  C  2  Y    0.101898   0.049069  -0.338115  -0.146027  -0.109685
   21  C  2  Z    0.035013   0.061364  -0.021224  -0.002445  -0.000990
   22  C  2  X   -0.191947  -0.198762   0.897652  -0.676784  -1.676533
   23  C  2  Y    0.052403   0.053469   0.210541  -0.174146  -0.333400
   24  C  2  Z   -0.249764  -0.311080  -0.143505  -0.010637   0.133047
   25  C  2 XX   -0.060504   0.021995   0.034802   0.041229   0.073503
   26  C  2 YY   -0.022581   0.011013  -0.180491  -0.052311  -0.071386
   27  C  2 ZZ    0.083085  -0.033008   0.145690   0.011082  -0.002117
   28  C  2 XY    0.149415   0.014777  -0.055220  -0.071844   0.006140
   29  C  2 XZ    0.012993   0.198469   0.040923  -0.007559   0.016452
   30  C  2 YZ   -0.031113   0.112619  -0.013264  -0.003361   0.016226
   31  F  3  S    0.005438   0.014654  -0.070606  -0.007220   0.009294
   32  F  3  S    0.026863  -0.072448   0.330208   0.037662  -0.038580
   33  F  3  S   -0.169236  -0.029366   0.160750  -0.123660  -0.266499
   34  F  3  X   -0.550259  -0.047831   0.112053   0.051076   0.009545
   35  F  3  Y    0.092817  -0.052764   0.582497   0.282403   0.306260
   36  F  3  Z    0.078862  -0.538402  -0.065724   0.014580   0.037712
   37  F  3  X    0.661841   0.081188  -0.300429  -0.028573   0.067699
   38  F  3  Y    0.003844   0.140022  -1.138101  -0.395080  -0.309784
   39  F  3  Z   -0.048768   0.652839   0.060358  -0.018425  -0.058497
   40  F  3 XX   -0.027548  -0.002649   0.021388   0.017418  -0.010574
   41  F  3 YY    0.008800   0.006949  -0.026538  -0.046523  -0.053639
   42  F  3 ZZ    0.018748  -0.004300   0.005150   0.029105   0.064213
   43  F  3 XY   -0.001419  -0.003097  -0.015225  -0.014265  -0.045244
   44  F  3 XZ   -0.001521   0.004808  -0.003080   0.000685   0.003979
   45  F  3 YZ    0.004379  -0.019387  -0.004413  -0.005000  -0.016187
   46  H  4  S    0.012581   0.012363   0.263766  -0.268925  -0.522978
   47  H  4  S    0.018336   0.149422   0.229746  -0.109160  -0.220119
   48  H  4  X   -0.046086   0.092675   0.008534   0.017250   0.019187
   49  H  4  Y    0.029782   0.065778   0.084772  -0.004733   0.004697
   50  H  4  Z    0.050488  -0.015248   0.025256  -0.003352   0.014135
   51  H  5  S   -0.075512  -0.087250   0.228125  -0.271758  -0.510890
   52  H  5  S   -0.247436  -0.173849   0.165531  -0.166208  -0.201068
   53  H  5  X   -0.046584  -0.098855  -0.027725   0.018291  -0.000243
   54  H  5  Y    0.059733  -0.075905   0.067591  -0.004337  -0.016549
   55  H  5  Z   -0.046245  -0.015167  -0.018079  -0.001344  -0.011031
   56  F  6  S    0.002220  -0.010822   0.034802  -0.066786  -0.006603
   57  F  6  S    0.034131   0.057791  -0.170511   0.374270   0.001450
   58  F  6  S   -0.131451   0.017961  -0.121946  -0.054605   0.274687
   59  F  6  X    0.525244  -0.047525   0.067617  -0.189033   0.080760
   60  F  6  Y    0.167140  -0.005293  -0.103125   0.608844  -0.407118
   61  F  6  Z   -0.086321  -0.514371  -0.076522  -0.000281   0.044422
   62  F  6  X   -0.621205   0.081894  -0.215799   0.373285   0.006658
[...]
   27  C  2 ZZ   -0.001106  -0.003356  -0.011605  -0.037275   0.017056
   28  C  2 XY   -0.000875  -0.005283  -0.003854  -0.003156   0.007161
   29  C  2 XZ   -0.001060  -0.001279   0.007207  -0.003148  -0.084289
   30  C  2 YZ   -0.001059  -0.008392   0.003258   0.004571   0.055364
   31  F  3  S    0.001027   0.001754  -0.059308  -0.025819  -0.004741
   32  F  3  S   -0.004968  -0.005032   0.111518   0.039287   0.013181
   33  F  3  S    0.003999  -0.006379   0.528500   0.288988   0.021252
   34  F  3  X   -0.053853   0.011986   0.019027  -0.136724  -0.002546
   35  F  3  Y   -0.045974   0.008712  -0.249680  -0.065663  -0.024705
   36  F  3  Z    0.005510   0.041244  -0.020744  -0.003246  -0.139186
   37  F  3  X   -0.052736   0.012508   0.007955  -0.210664  -0.018540
   38  F  3  Y   -0.068039   0.001345  -0.280634  -0.102433  -0.014947
   39  F  3  Z    0.002167   0.092062  -0.024528   0.002932  -0.088451
   40  F  3 XX    0.001155   0.000924   0.005340   0.001861   0.001773
   41  F  3 YY   -0.003162  -0.000368  -0.007527   0.002287  -0.004609
   42  F  3 ZZ    0.002007  -0.000556   0.002187  -0.004148   0.002835
   43  F  3 XY   -0.000696   0.000606  -0.000464  -0.011800  -0.000755
   44  F  3 XZ    0.000155   0.003893   0.000206  -0.001905  -0.010946
   45  F  3 YZ   -0.000331   0.005746  -0.001587   0.001591  -0.002304
   46  H  4  S    0.052463   0.028511   0.055803  -0.064269  -0.522924
   47  H  4  S    0.970337   1.446241   0.097873  -0.601102   0.113019
   48  H  4  X    0.010225   0.011606  -0.007040   0.014802  -0.025154
   49  H  4  Y   -0.004130  -0.009514  -0.020027  -0.002984   0.007186
   50  H  4  Z    0.007881   0.006901  -0.005305  -0.018955   0.007882
   51  H  5  S    0.053175  -0.037893  -0.012200  -0.085028   0.557758
   52  H  5  S    0.925901  -1.477088   0.212183  -0.576380  -0.149099
   53  H  5  X    0.008827  -0.008042  -0.010278   0.013658   0.026027
   54  H  5  Y   -0.000885   0.006126  -0.020548  -0.006697  -0.016545
   55  H  5  Z   -0.009391   0.011847   0.000936   0.016167   0.002731
   56  F  6  S   -0.000976   0.001658   0.059431   0.025889   0.004790
   57  F  6  S    0.004875  -0.004845  -0.111733  -0.039364  -0.012195
   58  F  6  S   -0.004434  -0.005588  -0.529855  -0.289986  -0.028222
   59  F  6  X   -0.057662  -0.012669  -0.002438  -0.141962  -0.000236
   60  F  6  Y    0.041338   0.007540   0.250717   0.053795   0.022460
   61  F  6  Z    0.005821  -0.041219  -0.019119  -0.002803  -0.139363
   62  F  6  X   -0.058471  -0.012553  -0.016191  -0.218896  -0.014736
   63  F  6  Y    0.063491   0.000467   0.280856   0.084267   0.016664
   64  F  6  Z    0.002648  -0.092143  -0.022789   0.003543  -0.089192
   65  F  6 XX   -0.001021   0.001014  -0.005174  -0.000127  -0.001170
   66  F  6 YY    0.003033  -0.000393   0.007373  -0.004054   0.003844
   67  F  6 ZZ   -0.002011  -0.000621  -0.002199   0.004180  -0.002673
   68  F  6 XY   -0.001108  -0.000494  -0.001711  -0.011596  -0.000932
   69  F  6 XZ   -0.000134   0.004365  -0.000074   0.001690   0.011039
   70  F  6 YZ   -0.000302  -0.005396  -0.001537   0.001691  -0.001229
   71  H  7  S   -0.052397   0.028511  -0.055772   0.064326   0.515308
   72  H  7  S   -0.970717   1.445481  -0.096020   0.601834  -0.112398
   73  H  7  X    0.009830  -0.010739  -0.008775   0.014474  -0.024993
   74  H  7  Y    0.004957  -0.010458   0.019395   0.004380  -0.009735
   75  H  7  Z    0.007905  -0.006944  -0.005190  -0.018944   0.008354
   76  H  8  S   -0.053099  -0.037907   0.012213   0.085271  -0.565663
   77  H  8  S   -0.925280  -1.477300  -0.214615   0.575263   0.146664
   78  H  8  X    0.008704   0.007492  -0.011996   0.013037   0.023837
   79  H  8  Y    0.001709   0.006835   0.019614   0.007758   0.018199
   80  H  8  Z   -0.009374  -0.011819   0.001050   0.016200   0.002583

                     26         27
                    0.3598     0.3941
                     A          A   
    1  C  1  S   -0.006384  -0.034014
    2  C  1  S    0.004410   0.283394
    3  C  1  S   -0.583932   0.032625
    4  C  1  X   -0.468789   0.006757
    5  C  1  Y    0.181340   0.560732
    6  C  1  Z    0.031478  -0.116025
    7  C  1  X    0.978570  -0.218388
    8  C  1  Y    0.011394  -0.752955
    9  C  1  Z   -0.130974   0.274765
   10  C  1 XX   -0.057751   0.035727
   11  C  1 YY   -0.006977  -0.020353
   12  C  1 ZZ    0.064728  -0.015374
   13  C  1 XY    0.013052   0.060018
   14  C  1 XZ    0.011471  -0.008430
   15  C  1 YZ    0.007619  -0.006801
   16  C  2  S   -0.006166  -0.033921
   17  C  2  S    0.003626   0.282908
   18  C  2  S   -0.586434   0.033624
   19  C  2  X    0.449510  -0.054288
   20  C  2  Y    0.219292   0.557493
   21  C  2  Z   -0.032550   0.119520
   22  C  2  X   -0.972096   0.280950
   23  C  2  Y   -0.079672  -0.731994
   24  C  2  Z    0.151073  -0.279090
   25  C  2 XX   -0.055996   0.044225
   26  C  2 YY   -0.009270  -0.028817
   27  C  2 ZZ    0.065266  -0.015408
   28  C  2 XY   -0.017730  -0.053529
   29  C  2 XZ    0.009036  -0.009418
   30  C  2 YZ   -0.005201   0.006022
   31  F  3  S   -0.001267  -0.008152
   32  F  3  S   -0.026785  -0.030406
   33  F  3  S    0.189821   0.331226
   34  F  3  X    0.121594   0.015684
   35  F  3  Y    0.085799   0.233242
   36  F  3  Z   -0.008616   0.023032
   37  F  3  X    0.154437  -0.135870
   38  F  3  Y   -0.066554  -0.015165
   39  F  3  Z   -0.025964   0.026311
   40  F  3 XX   -0.014112  -0.011621
   41  F  3 YY    0.018871   0.036179
   42  F  3 ZZ   -0.004759  -0.024559
   43  F  3 XY    0.011193   0.023990
   44  F  3 XZ    0.001408  -0.000343
   45  F  3 YZ    0.002013   0.002777
   46  H  4  S    0.216886  -0.145077
   47  H  4  S   -0.003917  -0.059053
   48  H  4  X   -0.017390   0.011429
   49  H  4  Y    0.009305  -0.005179
   50  H  4  Z    0.015470  -0.002177
   51  H  5  S    0.245882  -0.136337
   52  H  5  S    0.060591  -0.160439
   53  H  5  X   -0.020692   0.024438
   54  H  5  Y    0.012321  -0.008870
   55  H  5  Z   -0.007826  -0.006462
   56  F  6  S   -0.001043  -0.008069
   57  F  6  S   -0.027218  -0.030552
   58  F  6  S    0.187652   0.330299
   59  F  6  X   -0.128423  -0.035462
   60  F  6  Y    0.075750   0.231414
   61  F  6  Z    0.004249  -0.021660
   62  F  6  X   -0.149079   0.136448
   63  F  6  Y   -0.078805  -0.002827
   64  F  6  Z    0.022351  -0.026479
   65  F  6 XX   -0.012308  -0.007715
   66  F  6 YY    0.017149   0.032315
   67  F  6 ZZ   -0.004841  -0.024600
   68  F  6 XY   -0.014281  -0.028370
   69  F  6 XZ    0.001876  -0.000288
   70  F  6 YZ   -0.001758  -0.002346
   71  H  7  S    0.235469  -0.144421
   72  H  7  S   -0.007208  -0.059275
   73  H  7  X    0.015657  -0.010922
   74  H  7  Y    0.010548  -0.006122
   75  H  7  Z   -0.015138   0.002116
   76  H  8  S    0.226553  -0.136510
   77  H  8  S    0.065888  -0.160292
   78  H  8  X    0.020388  -0.023532
   79  H  8  Y    0.014675  -0.010914
   80  H  8  Z    0.008022   0.006425

     ---------------------------------------------------------------------
     PROPERTIES FOR THE PBE      DFT FUNCTIONAL (RHF  TYPE) DENSITY MATRIX
     ---------------------------------------------------------------------

          -----------------
          ENERGY COMPONENTS
          -----------------

         WAVEFUNCTION NORMALIZATION =       1.0000000000

                ONE ELECTRON ENERGY =    -637.9157868975
                TWO ELECTRON ENERGY =     231.9554984180
           NUCLEAR REPULSION ENERGY =     128.0342742759
                                      ------------------
                       TOTAL ENERGY =    -277.9260142035

 ELECTRON-ELECTRON POTENTIAL ENERGY =     231.9554984180
  NUCLEUS-ELECTRON POTENTIAL ENERGY =    -914.9816020895
   NUCLEUS-NUCLEUS POTENTIAL ENERGY =     128.0342742759
                                      ------------------
             TOTAL POTENTIAL ENERGY =    -554.9918293956
               TOTAL KINETIC ENERGY =     277.0658151920
                 VIRIAL RATIO (V/T) =       2.0031046739

          ---------------------------------------
          MULLIKEN AND LOWDIN POPULATION ANALYSES
          ---------------------------------------

     ATOMIC MULLIKEN POPULATION IN EACH MOLECULAR ORBITAL

                      1          2          3          4          5

                  2.000000   2.000000   2.000000   2.000000   2.000000

    1             0.001287  -0.000106   1.534769   0.465067   0.119465
    2            -0.000044   0.001223   0.464779   1.535055   0.116227
    3             0.051291   1.947547  -0.000129  -0.000405   0.860506
    4            -0.000000  -0.000003   0.000167   0.000181   0.002807
    5             0.000000  -0.000014   0.000161   0.000192   0.003169
    6             1.947481   0.051356  -0.000419  -0.000118   0.891644
    7            -0.000004   0.000001   0.000336   0.000012   0.002903
    8            -0.000010  -0.000003   0.000336   0.000017   0.003280

                      6          7          8          9         10

                  2.000000   2.000000   2.000000   2.000000   2.000000

    1             0.083319   0.702440   0.464766   0.334797   0.525527
    2             0.086247   0.702682   0.464875   0.332158   0.524629
    3             0.925629   0.148013   0.292485   0.548001   0.213853
    4             0.002639   0.074764   0.121107   0.072365   0.119080
    5             0.002800   0.074522   0.121289   0.043992   0.140512
    6             0.894131   0.148295   0.293258   0.550708   0.216637
    7             0.002541   0.074766   0.121044   0.076194   0.116252
    8             0.002695   0.074519   0.121176   0.041785   0.143509

                     11         12         13         14         15

                  2.000000   2.000000   2.000000   2.000000   2.000000

    1             0.454645   0.276112   0.308580   0.052242   0.088642
    2             0.454667   0.277891   0.310551   0.052622   0.087939
    3             0.508185   0.568061   0.464257   0.925923   0.763455
    4             0.019307   0.098513   0.093862   0.004975   0.081173
    5             0.017033   0.059168   0.132983   0.016552   0.066320
    6             0.510283   0.563194   0.464517   0.925855   0.763794
    7             0.019039   0.098211   0.093071   0.005054   0.081822
    8             0.016841   0.058848   0.132181   0.016776   0.066856

                     16         17

                  2.000000   2.000000

    1             0.295599   0.171941
    2             0.295614   0.172071
    3             0.577350   0.519579
    4             0.101044   0.112119
    5             0.027142   0.197461
    6             0.575184   0.517438
    7             0.100917   0.111979
    8             0.027151   0.197412

               ----- POPULATIONS IN EACH AO -----
                             MULLIKEN      LOWDIN
              1  C  1  S      1.99337     1.97155
              2  C  1  S      0.75825     0.38519
              3  C  1  S      0.37361     0.28309
              4  C  1  X      0.71748     0.65806
              5  C  1  Y      0.56716     0.51937
              6  C  1  Z      0.77540     0.69585
              7  C  1  X      0.21738     0.31022
              8  C  1  Y      0.11878     0.22932
              9  C  1  Z      0.29404     0.40021
             10  C  1 XX      0.00896     0.16042
             11  C  1 YY      0.01809     0.16287
             12  C  1 ZZ      0.01485     0.15317
             13  C  1 XY      0.00635     0.02841
             14  C  1 XZ      0.01538     0.01262
             15  C  1 YZ      0.00000     0.03688
             16  C  2  S      1.99337     1.97156
             17  C  2  S      0.75829     0.38528
             18  C  2  S      0.37381     0.28312
             19  C  2  X      0.73062     0.66876
             20  C  2  Y      0.55403     0.50865
             21  C  2  Z      0.77519     0.69569
             22  C  2  X      0.22785     0.31947
             23  C  2  Y      0.10854     0.22023
             24  C  2  Z      0.29395     0.40006
             25  C  2 XX      0.00898     0.15898
             26  C  2 YY      0.01815     0.16405
             27  C  2 ZZ      0.01472     0.15326
             28  C  2 XY      0.00639     0.02875
             29  C  2 XZ      0.01528     0.01343
             30  C  2 YZ      0.00000     0.03590
             31  F  3  S      1.99544     1.97165
             32  F  3  S      0.95047     0.75209
             33  F  3  S      0.99646     0.52486
             34  F  3  X      1.20094     1.16944
             35  F  3  Y      0.97128     0.92148
             36  F  3  Z      1.23986     1.21150
             37  F  3  X      0.68691     0.70986
             38  F  3  Y      0.55182     0.59838
             39  F  3  Z      0.70959     0.73315
             40  F  3 XX      0.00142     0.18944
             41  F  3 YY      0.00362     0.19741
             42  F  3 ZZ      0.00313     0.18822
             43  F  3 XY      0.00021     0.00459
             44  F  3 XZ      0.00244     0.00032
             45  F  3 YZ      0.00000     0.00394
             46  H  4  S      0.77316     0.65323
             47  H  4  S      0.11424     0.21586
             48  H  4  X      0.00450     0.01079
             49  H  4  Y      0.00443     0.01040
             50  H  4  Z      0.00777     0.01606
             51  H  5  S      0.77402     0.65704
             52  H  5  S      0.11265     0.21581
             53  H  5  X      0.00377     0.00961
             54  H  5  Y      0.00315     0.00789
             55  H  5  Z      0.00970     0.02001
             56  F  6  S      1.99544     1.97165
             57  F  6  S      0.95048     0.75201
             58  F  6  S      0.99630     0.52464
             59  F  6  X      1.18411     1.15154
             60  F  6  Y      0.98809     0.93910
             61  F  6  Z      1.24001     1.21165
             62  F  6  X      0.67734     0.70190
             63  F  6  Y      0.56098     0.60631
             64  F  6  Z      0.70965     0.73316
             65  F  6 XX      0.00142     0.18998
             66  F  6 YY      0.00332     0.19647
             67  F  6 ZZ      0.00345     0.18817
             68  F  6 XY      0.00034     0.00480
             69  F  6 XZ      0.00231     0.00052
             70  F  6 YZ      0.00000     0.00374
             71  H  7  S      0.77317     0.65333
             72  H  7  S      0.11427     0.21589
             73  H  7  X      0.00407     0.01001
             74  H  7  Y      0.00481     0.01112
             75  H  7  Z      0.00781     0.01617
             76  H  8  S      0.77405     0.65706
             77  H  8  S      0.11271     0.21583
             78  H  8  X      0.00351     0.00912
             79  H  8  Y      0.00344     0.00847
             80  H  8  Z      0.00966     0.01994

          ----- MULLIKEN ATOMIC OVERLAP POPULATIONS -----
          (OFF-DIAGONAL ELEMENTS NEED TO BE MULTIPLIED BY 2)

             1           2           3           4           5

    1    4.6398958
    2    0.3369764   4.6404940
    3   -0.0454710   0.2587003   9.1551314
    4   -0.0414579   0.3834215  -0.0288800   0.6338408
    5   -0.0417933   0.3884851  -0.0308712  -0.0423409   0.6299103
    6    0.2589667  -0.0455456   0.0009009   0.0024321   0.0016582
    7    0.3834576  -0.0415000   0.0024293   0.0086024  -0.0115132
    8    0.3885164  -0.0418459   0.0016582  -0.0115193   0.0097480

             6           7           8

    6    9.1546501
    7   -0.0289067   0.6339457
    8   -0.0309189  -0.0423780   0.6301094

          TOTAL MULLIKEN AND LOWDIN ATOMIC POPULATIONS
       ATOM         MULL.POP.    CHARGE          LOW.POP.     CHARGE
    1 C             5.879091    0.120909         6.007225   -0.007225
    2 C             5.879186    0.120814         6.007200   -0.007200
    3 F             9.313598   -0.313598         9.176305   -0.176305
    4 H             0.904099    0.095901         0.906344    0.093656
    5 H             0.903283    0.096717         0.910365    0.089635
    6 F             9.313237   -0.313237         9.175641   -0.175641
    7 H             0.904137    0.095863         0.906507    0.093493
    8 H             0.903370    0.096630         0.910415    0.089585

          MULLIKEN SPHERICAL HARMONIC POPULATIONS
       ATOM           S       P       D      F      G      H      I    TOTAL
    1 C             3.13    2.69    0.06   0.00   0.00   0.00   0.00    5.88
    2 C             3.13    2.69    0.06   0.00   0.00   0.00   0.00    5.88
    3 F             3.94    5.36    0.01   0.00   0.00   0.00   0.00    9.31
    4 H             0.89    0.02    0.00   0.00   0.00   0.00   0.00    0.90
    5 H             0.89    0.02    0.00   0.00   0.00   0.00   0.00    0.90
    6 F             3.94    5.36    0.01   0.00   0.00   0.00   0.00    9.31
    7 H             0.89    0.02    0.00   0.00   0.00   0.00   0.00    0.90
    8 H             0.89    0.02    0.00   0.00   0.00   0.00   0.00    0.90

          -------------------------------
          BOND ORDER AND VALENCE ANALYSIS     BOND ORDER THRESHOLD=0.050
          -------------------------------

                   BOND                       BOND                       BOND
  ATOM PAIR DIST  ORDER      ATOM PAIR DIST  ORDER      ATOM PAIR DIST  ORDER
    1   2  1.550  0.995        1   6  1.390  0.947        1   7  1.107  0.948
    1   8  1.108  0.951        2   3  1.390  0.946        2   4  1.107  0.948
    2   5  1.108  0.951

                       TOTAL       BONDED        FREE
      ATOM            VALENCE     VALENCE     VALENCE
    1 C                 3.837       3.837      -0.000
    2 C                 3.836       3.836      -0.000
    3 F                 0.995       0.995      -0.000
    4 H                 0.948       0.948      -0.000
    5 H                 0.949       0.949      -0.000
    6 F                 0.996       0.996      -0.000
    7 H                 0.948       0.948       0.000
    8 H                 0.949       0.949      -0.000

          ---------------------
          ELECTROSTATIC MOMENTS
          ---------------------

 POINT   1           X           Y           Z (BOHR)    CHARGE
                -0.000000    0.000000    0.000000       -0.00 (A.U.)
         DX          DY          DZ         /D/  (DEBYE)
     0.131196   -3.091575   -0.010382    3.094375
 ...... END OF PROPERTY EVALUATION ......
 STEP CPU TIME =     0.02 TOTAL CPU TIME =         95.0 (      1.6 MIN)
 TOTAL WALL CLOCK TIME=         95.4 SECONDS, CPU UTILIZATION IS    99.52%
  $VIB   
          IVIB=   0 IATOM=   0 ICOORD=   0 E=     -277.9260142035
 -1.803939234E-05 1.592919254E-05 8.473370978E-05 3.455347854E-05-1.177963426E-05
 -7.704198659E-05-8.106011026E-06-3.069619298E-06 2.011470400E-05-1.172444708E-05
  9.006602029E-06 1.343567051E-05-2.979052904E-06-7.650379847E-06 7.237989732E-06
 -7.973662864E-06-2.015162995E-06-2.314610455E-05 1.195903051E-05 9.617233532E-06
 -2.008847363E-05 2.310057163E-06-1.003823170E-05-5.245509248E-06
  1.311957752E-01-3.091575243E+00-1.038235224E-02
 ......END OF GEOMETRY SEARCH......
 STEP CPU TIME =     0.00 TOTAL CPU TIME =         95.0 (      1.6 MIN)
 TOTAL WALL CLOCK TIME=         95.5 SECONDS, CPU UTILIZATION IS    99.51%
                991181  WORDS OF DYNAMIC MEMORY USED
 EXECUTION OF GAMESS TERMINATED NORMALLY Sun Oct  6 23:21:50 2019
 DDI: 263640 bytes (0.3 MB / 0 MWords) used by master data server.

 ----------------------------------------
 CPU timing information for all processes
 ========================================
 0: 93.211 + 1.791 = 95.02
 ----------------------------------------
 ddikick.x: exited gracefully.
----- accounting info -----
Files used on the master node d12chas543.crc.nd.edu were:
-rw-r--r-- 1 wschnei1 campus 378327 Oct  6 23:21 /scratch365/wschnei1/10-PC1.F07
Sun Oct  6 23:21:54 EDT 2019
0.410u 0.315s 1:39.13 0.7%	0+0k 0+32io 0pf+0w
