----- GAMESS execution script 'rungms' -----
This job is running on host d12chas543.crc.nd.edu
under operating system Linux at Sun Oct 6 23:35:02 EDT 2019
SGE has assigned the following compute nodes to this run:
Available scratch disk space (Kbyte units) at beginning of the job is
Filesystem      1K-blocks     Used  Available Use% Mounted on
/dev/sda2      1949705068 64451576 1885253492   4% /
GAMESS temporary binary files will be written to /tmp/474112.1.debug
GAMESS supplementary output files will be written to /afs/crc.nd.edu/user/w/wschnei1/scr
Copying input file 100-PC1.inp to your run's scratch directory...
reading your own /afs/crc.nd.edu/user/w/wschnei1/.gmsrc

 Distributed Data Interface kickoff program.
 Initiating 1 compute processes on 1 nodes to run the following command:
 /afs/crc.nd.edu/x86_64_linux/g/gamess/nov-2017/gamess/gamess.00.x 100-PC1 

          ******************************************************
          *         GAMESS VERSION = 11 NOV 2017 (R3)         *
          *             FROM IOWA STATE UNIVERSITY             *
          * M.W.SCHMIDT, K.K.BALDRIDGE, J.A.BOATZ, S.T.ELBERT, *
          *   M.S.GORDON, J.H.JENSEN, S.KOSEKI, N.MATSUNAGA,   *
          *          K.A.NGUYEN, S.J.SU, T.L.WINDUS,           *
          *       TOGETHER WITH M.DUPUIS, J.A.MONTGOMERY       *
          *         J.COMPUT.CHEM.  14, 1347-1363(1993)        *
          **************** 64 BIT INTEL VERSION ****************

  SINCE 1993, STUDENTS AND POSTDOCS WORKING AT IOWA STATE UNIVERSITY
  AND ALSO IN THEIR VARIOUS JOBS AFTER LEAVING ISU HAVE MADE IMPORTANT
  CONTRIBUTIONS TO THE CODE:
     IVANA ADAMOVIC, CHRISTINE AIKENS, YURI ALEXEEV, POOJA ARORA,
     ANDREY ASADCHEV, ROB BELL, PRADIPTA BANDYOPADHYAY, JONATHAN BENTZ,
     BRETT BODE, KURT BRORSEN, CALEB CARLIN, GALINA CHABAN, WEI CHEN,
     CHEOL HO CHOI, PAUL DAY, ALBERT DEFUSCO, NUWAN DESILVA, TIM DUDLEY,
     DMITRI FEDOROV, ALEX FINDLATER, GRAHAM FLETCHER, MARK FREITAG,
     KURT GLAESEMANN, ANASTASIA GUININA,
     DAN KEMP, GRANT MERRILL, NORIYUKI MINEZAWA, JONATHAN MULLIN,
     TAKESHI NAGATA, SEAN NEDD, HEATHER NETZLOFF, BOSILJKA NJEGIC, RYAN OLSON,
     MIKE PAK, BUU PHAM,
     SPENCER PRUITT, LUKE ROSKOP, JIM SHOEMAKER, LYUDMILA SLIPCHENKO,
     TONY SMITH, SAROM SOK LEANG, JIE SONG, TETSUYA TAKETSUGU, SIMON WEBB,
     PENG XU, SOOHAENG YOO, FEDERICO ZAHARIEV

  ADDITIONAL CODE HAS BEEN PROVIDED BY COLLABORATORS IN OTHER GROUPS:
     IOWA STATE UNIVERSITY:
          JOE IVANIC, AARON WEST, LAIMUTIS BYTAUTAS, KLAUS RUEDENBERG
     UNIVERSITY OF TOKYO: KIMIHIKO HIRAO, TAKAHITO NAKAJIMA,
          TAKAO TSUNEDA, MUNEAKI KAMIYA, SUSUMU YANAGISAWA,
          KIYOSHI YAGI, MAHITO CHIBA, SEIKEN TOKURA, NAOAKI KAWAKAMI
     UNIVERSITY OF AARHUS: FRANK JENSEN
     UNIVERSITY OF IOWA: VISVALDAS KAIRYS, HUI LI
     NATIONAL INST. OF STANDARDS AND TECHNOLOGY: WALT STEVENS, DAVID GARMER
     UNIVERSITY OF PISA: BENEDETTA MENNUCCI, JACOPO TOMASI
     UNIVERSITY OF MEMPHIS: HENRY KURTZ, PRAKASHAN KORAMBATH
     UNIVERSITY OF ALBERTA: TOBY ZENG, MARIUSZ KLOBUKOWSKI
     UNIVERSITY OF NEW ENGLAND: MARK SPACKMAN
     MIE UNIVERSITY: HIROAKI UMEDA
     NAT. INST. OF ADVANCED INDUSTRIAL SCIENCE AND TECHNOLOGY: KAZUO KITAURA
     MICHIGAN STATE UNIVERSITY:
          KAROL KOWALSKI, MARTA WLOCH, JEFFREY GOUR, JESSE LUTZ,
          WEI LI, PIOTR PIECUCH
     UNIVERSITY OF SILESIA: MONIKA MUSIAL, STANISLAW KUCHARSKI
     FACULTES UNIVERSITAIRES NOTRE-DAME DE LA PAIX:
          OLIVIER QUINET, BENOIT CHAMPAGNE
     UNIVERSITY OF CALIFORNIA - SANTA BARBARA: BERNARD KIRTMAN
     INSTITUTE FOR MOLECULAR SCIENCE:
          KAZUYA ISHIMURA, MICHIO KATOUDA, AND SHIGERU NAGASE
     UNIVERSITY OF NOTRE DAME: ANNA POMOGAEVA, DAN CHIPMAN
     KYUSHU UNIVERSITY:
          HARUYUKI NAKANO,
          FENG LONG GU, JACEK KORCHOWIEC, MARCIN MAKOWSKI, AND YURIKO AOKI,
          HIROTOSHI MORI AND EISAKU MIYOSHI
     PENNSYLVANIA STATE UNIVERSITY:
          TZVETELIN IORDANOV, CHET SWALINA, JONATHAN SKONE,
          SHARON HAMMES-SCHIFFER
     WASEDA UNIVERSITY:
          MASATO KOBAYASHI, TOMOKO AKAMA, TSUGUKI TOUMA,
          TAKESHI YOSHIKAWA, YASUHIRO IKABATA, JUNJI SEINO,
          YUYA NAKAJIMA, HIROMI NAKAI
     NANJING UNIVERSITY: SHUHUA LI
     UNIVERSITY OF NEBRASKA:
          PEIFENG SU, DEJUN SI, NANDUN THELLAMUREGE, YALI WANG, HUI LI
     UNIVERSITY OF ZURICH: ROBERTO PEVERATI, KIM BALDRIDGE
     N. COPERNICUS UNIVERSITY AND JACKSON STATE UNIVERSITY:
          MARIA BARYSZ
     UNIVERSITY OF COPENHAGEN: Jimmy Kromann, CASPER STEINMANN
     TOKYO INSTITUTE OF TECHNOLOGY: HIROYA NAKATA
     NAGOYA UNIVERSITY: YOSHIO NISHIMOTO, STEPHAN IRLE
     MOSCOW STATE UNIVERSITY: VLADIMIR MIRONOV

 EXECUTION OF GAMESS BEGUN Sun Oct  6 23:35:02 2019

            ECHO OF THE FIRST FEW INPUT CARDS -
 INPUT CARD> $CONTRL SCFTYP=RHF DFTTYP=PBE RUNTYP=OPTIMIZE COORD=ZMT NZVAR=18 ISPHER=1 $END 
 INPUT CARD> $BASIS GBASIS=PCseg-1 $END                                                     
 INPUT CARD> $STATPT IFREEZ(1)=12 $END                                                      
 INPUT CARD> $DATA                                                                          
 INPUT CARD>FCH2CH2F eclipsed TS                                                            
 INPUT CARD>C1                                                                              
 INPUT CARD>C                                                                               
 INPUT CARD>C   1   r1                                                                      
 INPUT CARD>F   2   r2   1   A1                                                             
 INPUT CARD>H   2   r3   1   A2   3   D1                                                    
 INPUT CARD>H   2   r4   1   A3   3   D2                                                    
 INPUT CARD>F   1   r5   2   A4   3   D3                                                    
 INPUT CARD>H   1   r6   2   A5   6   D4                                                    
 INPUT CARD>H   1   r7   2   A6   6   D5                                                    
 INPUT CARD>                                                                                
 INPUT CARD>r1=1.5                                                                          
 INPUT CARD>r2=1.4                                                                          
 INPUT CARD>r3=1.1                                                                          
 INPUT CARD>r4=1.1                                                                          
 INPUT CARD>r5=1.5                                                                          
 INPUT CARD>r6=1.1                                                                          
 INPUT CARD>r7=1.1                                                                          
 INPUT CARD>A1=109.54214                                                                    
 INPUT CARD>A2=109.54214                                                                    
 INPUT CARD>A3=109.54214                                                                    
 INPUT CARD>A4=109.54214                                                                    
 INPUT CARD>A5=109.54214                                                                    
 INPUT CARD>A6=109.54214                                                                    
 INPUT CARD>D1=120.                                                                         
 INPUT CARD>D2=-120.                                                                        
 INPUT CARD>D3=100                                                                          
 INPUT CARD>D4=120.                                                                         
 INPUT CARD>D5=-120.                                                                        
 INPUT CARD> $END                                                                           
 INPUT CARD>                                                                                
    1000000 WORDS OF MEMORY AVAILABLE

     BASIS OPTIONS
     -------------
     GBASIS=PCSEG-1      IGAUSS=       0      POLAR=NONE    
     NDFUNC=       0     NFFUNC=       0     DIFFSP=       F
     NPFUNC=       0      DIFFS=       F     BASNAM=        


     RUN TITLE
     ---------
 FCH2CH2F eclipsed TS                                                            

 THE POINT GROUP OF THE MOLECULE IS C1      
 THE ORDER OF THE PRINCIPAL AXIS IS     0

 YOUR FULLY SUBSTITUTED Z-MATRIX IS
 C   
 C      1   1.5000000
 F      2   1.4000000  1  109.5421
 H      2   1.1000000  1  109.5421  3  120.0000  0
 H      2   1.1000000  1  109.5421  3 -120.0000  0
 F      1   1.5000000  2  109.5421  3  100.0000  0
 H      1   1.1000000  2  109.5421  6  120.0000  0
 H      1   1.1000000  2  109.5421  6 -120.0000  0

 THE MOMENTS OF INERTIA ARE (AMU-ANGSTROM**2)
 IXX=    26.058   IYY=   120.160   IZZ=   126.377

 ATOM      ATOMIC                      COORDINATES (BOHR)
           CHARGE         X                   Y                   Z
 C           6.0     1.0937175832        1.0035847399        0.7720460430
 C           6.0    -1.2150790789        0.8256733386       -0.8627934601
 F           9.0    -3.0024700864       -0.7420875090        0.2976570369
 H           1.0    -2.0272341838        2.7207297015       -1.1276581062
 H           1.0    -0.6975891166        0.0315040449       -2.7127899696
 F           9.0     3.0953703947       -0.7406043355       -0.2209721773
 H           1.0     1.8085849216        2.9554259756        0.7556664012
 H           1.0     0.6100153076        0.4617405183        2.7197176687

          INTERNUCLEAR DISTANCES (ANGS.)
          ------------------------------

                1 C          2 C          3 F          4 H          5 H     

   1 C       0.0000000    1.5000000 *  2.3695781 *  2.1363170 *  2.1363170 *
   2 C       1.5000000 *  0.0000000    1.4000000 *  1.1000000 *  1.1000000 *
   3 F       2.3695781 *  1.4000000 *  0.0000000    2.0476979 *  2.0476979 *
   4 H       2.1363170 *  1.1000000 *  2.0476979 *  0.0000000    1.7955050 *
   5 H       2.1363170 *  1.1000000 *  2.0476979 *  1.7955050 *  0.0000000  
   6 F       1.5000000 *  2.4505612 *  3.2384885    3.3065741    2.4360466 *
   7 H       1.1000000 *  2.1363170 *  3.2200611    2.2646995 *  2.7425689 *
   8 H       1.1000000 *  2.1363170 *  2.3880867 *  2.7425689 *  2.9656158 *

                6 F          7 H          8 H     

   1 C       1.5000000 *  1.1000000 *  1.1000000 *
   2 C       2.4505612 *  2.1363170 *  2.1363170 *
   3 F       3.2384885    3.2200611    2.3880867 *
   4 H       3.3065741    2.2646995 *  2.7425689 *
   5 H       2.4360466 *  2.7425689 *  2.9656158 *
   6 F       0.0000000    2.1345124 *  2.1345124 *
   7 H       2.1345124 *  0.0000000    1.7955050 *
   8 H       2.1345124 *  1.7955050 *  0.0000000  

  * ... LESS THAN  3.000


     ATOMIC BASIS SET
     ----------------
 THE CONTRACTED PRIMITIVE FUNCTIONS HAVE BEEN UNNORMALIZED
 THE CONTRACTED BASIS FUNCTIONS ARE NOW NORMALIZED TO UNITY

  SHELL TYPE  PRIMITIVE        EXPONENT          CONTRACTION COEFFICIENT(S)

 C         

      1   S       1          1243.2000000    0.005630097702
      1   S       2           187.1450000    0.041950603854
      1   S       3            42.5126000    0.184664360492
      1   S       4            11.7393000    0.466557421368
      1   S       5             3.5054800    0.448234778316

      2   S       6             5.3908900   -0.148114817444
      2   S       7             0.4933410    1.051981714281

      3   S       8             0.1497410    1.000000000000

      4   P       9             9.1805600    0.063992052045
      4   P      10             1.9365800    0.333521296407
      4   P      11             0.5262960    0.741161730513

      5   P      12             0.1363190    1.000000000000

      6   D      13             0.8000000    1.000000000000

 C         

      7   S      14          1243.2000000    0.005630097702
      7   S      15           187.1450000    0.041950603854
      7   S      16            42.5126000    0.184664360492
      7   S      17            11.7393000    0.466557421368
      7   S      18             3.5054800    0.448234778316

      8   S      19             5.3908900   -0.148114817444
      8   S      20             0.4933410    1.051981714281

      9   S      21             0.1497410    1.000000000000

     10   P      22             9.1805600    0.063992052045
     10   P      23             1.9365800    0.333521296407
     10   P      24             0.5262960    0.741161730513

     11   P      25             0.1363190    1.000000000000

     12   D      26             0.8000000    1.000000000000

 F         

     13   S      27          2931.5500000    0.005390132259
     13   S      28           441.1250000    0.040296704072
     13   S      29           100.2320000    0.180202178717
     13   S      30            27.8655000    0.465064284210
     13   S      31             8.4447000    0.452433138251

     14   S      32            13.6123000   -0.151660908297
     14   S      33             1.2612200    1.053515343452

     15   S      34             0.3708000    1.000000000000

     16   P      35            21.9305000    0.070356827475
     16   P      36             4.7855200    0.356742371235
     16   P      37             1.2837800    0.719732016372

     17   P      38             0.3115580    1.000000000000

     18   D      39             1.1000000    1.000000000000

 H         

     19   S      40            12.2518000    0.037217389296
     19   S      41             1.8687100    0.253808206955
     19   S      42             0.4182080    0.797386763917

     20   S      43             0.1061000    1.000000000000

     21   P      44             1.0000000    1.000000000000

 H         

     22   S      45            12.2518000    0.037217389296
     22   S      46             1.8687100    0.253808206955
     22   S      47             0.4182080    0.797386763917

     23   S      48             0.1061000    1.000000000000

     24   P      49             1.0000000    1.000000000000

 F         

     25   S      50          2931.5500000    0.005390132259
     25   S      51           441.1250000    0.040296704072
     25   S      52           100.2320000    0.180202178717
     25   S      53            27.8655000    0.465064284210
     25   S      54             8.4447000    0.452433138251

     26   S      55            13.6123000   -0.151660908297
     26   S      56             1.2612200    1.053515343452

     27   S      57             0.3708000    1.000000000000

     28   P      58            21.9305000    0.070356827475
     28   P      59             4.7855200    0.356742371235
     28   P      60             1.2837800    0.719732016372

     29   P      61             0.3115580    1.000000000000

     30   D      62             1.1000000    1.000000000000

 H         

     31   S      63            12.2518000    0.037217389296
     31   S      64             1.8687100    0.253808206955
     31   S      65             0.4182080    0.797386763917

     32   S      66             0.1061000    1.000000000000

     33   P      67             1.0000000    1.000000000000

 H         

     34   S      68            12.2518000    0.037217389296
     34   S      69             1.8687100    0.253808206955
     34   S      70             0.4182080    0.797386763917

     35   S      71             0.1061000    1.000000000000

     36   P      72             1.0000000    1.000000000000

 TOTAL NUMBER OF BASIS SET SHELLS             =   36
 NUMBER OF CARTESIAN GAUSSIAN BASIS FUNCTIONS =   80
 NOTE: THIS RUN WILL RESTRICT THE MO VARIATION SPACE TO SPHERICAL HARMONICS.
 THE NUMBER OF ORBITALS KEPT IN THE VARIATIONAL SPACE WILL BE PRINTED LATER.
 NUMBER OF ELECTRONS                          =   34
 CHARGE OF MOLECULE                           =    0
 SPIN MULTIPLICITY                            =    1
 NUMBER OF OCCUPIED ORBITALS (ALPHA)          =   17
 NUMBER OF OCCUPIED ORBITALS (BETA )          =   17
 TOTAL NUMBER OF ATOMS                        =    8
 THE NUCLEAR REPULSION ENERGY IS      123.9784720646

     LEBEDEV GRID-BASED DFT OPTIONS
     ------------------------------
     DFTTYP=PBE     
     NRAD  =      96     NLEB  =     302
     NRAD0 =      24     NLEB0 =     110
     SWOFF =    5.00E-03 (PURE SCF -> DFT)
     SWITCH=    3.00E-04 (COARSE -> TIGHT GRID)
     THRESH=    0.00E+00 GTHRE=    1.00E+00

 GRIMME'S EMPIRICAL DISPERSION CORRECTION= F

     $CONTRL OPTIONS
     ---------------
 SCFTYP=RHF          RUNTYP=OPTIMIZE     EXETYP=RUN     
 MPLEVL=       0     CITYP =NONE         CCTYP =NONE         VBTYP =NONE    
 DFTTYP=PBE          TDDFT =NONE    
 MULT  =       1     ICHARG=       0     NZVAR =      18     COORD =ZMT     
 PP    =NONE         RELWFN=NONE         LOCAL =NONE         NUMGRD=       F
 ISPHER=       1     NOSYM =       0     MAXIT =      30     UNITS =ANGS    
 PLTORB=       F     MOLPLT=       F     AIMPAC=       F     FRIEND=        
 NPRINT=       7     IREST =       0     GEOM  =INPUT   
 NORMF =       0     NORMP =       0     ITOL  =      20     ICUT  =       9
 INTTYP=BEST         GRDTYP=BEST         QMTTOL= 1.0E-06

     $SYSTEM OPTIONS
     ---------------
  REPLICATED MEMORY=     1000000 WORDS (ON EVERY NODE).
 DISTRIBUTED MEMDDI=           0 MILLION WORDS IN AGGREGATE,
 MEMDDI DISTRIBUTED OVER   1 PROCESSORS IS           0 WORDS/PROCESSOR.
 TOTAL MEMORY REQUESTED ON EACH PROCESSOR=     1000000 WORDS.
 TIMLIM=      525600.00 MINUTES, OR     365.0 DAYS.
 PARALL= F  BALTYP=  DLB     KDIAG=    0  COREFL= F
 MXSEQ2=     300 MXSEQ3=     150  mem10=         0

          ----------------
          PROPERTIES INPUT
          ----------------

     MOMENTS            FIELD           POTENTIAL          DENSITY
 IEMOM =       1   IEFLD =       0   IEPOT =       0   IEDEN =       0
 WHERE =COMASS     WHERE =NUCLEI     WHERE =NUCLEI     WHERE =NUCLEI  
 OUTPUT=BOTH       OUTPUT=BOTH       OUTPUT=BOTH       OUTPUT=BOTH    
 IEMINT=       0   IEFINT=       0                     IEDINT=       0
                                                       MORB  =       0
          EXTRAPOLATION IN EFFECT
          DIIS IN EFFECT
 ORBITAL PRINTING OPTION: NPREO=     1    80     2     1

     -------------------------------
     INTEGRAL TRANSFORMATION OPTIONS
     -------------------------------
     NWORD  =            0
     CUTOFF = 1.0E-09     MPTRAN =       0
     DIRTRF =       F     AOINTS =DUP     

          ----------------------
          INTEGRAL INPUT OPTIONS
          ----------------------
 NOPK  =       1 NORDER=       0 SCHWRZ=       T

   --- ENCODED Z MATRIX ---
 COORD  TYPE   I   J   K   L   M   N
    1      1    2   1
    2      1    3   2
    3      2    3   2   1
    4      1    4   2
    5      2    4   2   1
    6      3    4   2   1   3
    7      1    5   2
    8      2    5   2   1
    9      3    5   2   1   3
   10      1    6   1
   11      2    6   1   2
   12      3    6   1   2   3
   13      1    7   1
   14      2    7   1   2
   15      3    7   1   2   6
   16      1    8   1
   17      2    8   1   2
   18      3    8   1   2   6

 THE DETERMINANT OF THE G MATRIX IS 10**(   -12)


                     --------------------
                     INTERNAL COORDINATES
                     --------------------

                 - - ATOMS - -         COORDINATE      COORDINATE
 NO.   TYPE    I  J  K  L  M  N        (BOHR,RAD)       (ANG,DEG)
 ----------------------------------------------------------------
   1 STRETCH   2  1                     2.8345890       1.5000000
   2 STRETCH   3  2                     2.6456164       1.4000000
   3 BEND      3  2  1                  1.9118710     109.5421400
   4 STRETCH   4  2                     2.0786986       1.1000000
   5 BEND      4  2  1                  1.9118710     109.5421400
   6 TORSION   4  2  1  3               2.0943951     120.0000000
   7 STRETCH   5  2                     2.0786986       1.1000000
   8 BEND      5  2  1                  1.9118710     109.5421400
   9 TORSION   5  2  1  3              -2.0943951    -120.0000000
  10 STRETCH   6  1                     2.8345890       1.5000000
  11 BEND      6  1  2                  1.9118710     109.5421400
  12 TORSION   6  1  2  3               1.7453293     100.0000000
  13 STRETCH   7  1                     2.0786986       1.1000000
  14 BEND      7  1  2                  1.9118710     109.5421400
  15 TORSION   7  1  2  6               2.0943951     120.0000000
  16 STRETCH   8  1                     2.0786986       1.1000000
  17 BEND      8  1  2                  1.9118710     109.5421400
  18 TORSION   8  1  2  6              -2.0943951    -120.0000000

     ------------------------------------------
     THE POINT GROUP IS C1 , NAXIS= 0, ORDER= 1
     ------------------------------------------

 -- VARIATIONAL SPACE WILL BE RESTRICTED TO PURE SPHERICAL HARMONICS ONLY --
 AFTER EXCLUDING CONTAMINANT COMBINATIONS FROM THE CARTESIAN GAUSSIAN BASIS
 SET, THE NUMBER OF SPHERICAL HARMONICS KEPT IN THE VARIATION SPACE IS   76

     DIMENSIONS OF THE SYMMETRY SUBSPACES ARE
 A   =   76

 ..... DONE SETTING UP THE RUN .....
 STEP CPU TIME =     0.02 TOTAL CPU TIME =          0.0 (      0.0 MIN)
 TOTAL WALL CLOCK TIME=          0.0 SECONDS, CPU UTILIZATION IS    66.67%


          -----------------------------
          STATIONARY POINT LOCATION RUN
          -----------------------------

 OBTAINING INITIAL HESSIAN, HESS=GUESS   
 DIAGONAL GUESS HESSIAN IN INTERNAL COORDS IS
     1  0.3892     2  0.3267     3  0.2379     4  0.3397     5  0.2253
     6  0.2500     7  0.3397     8  0.2253     9  0.2500    10  0.2690
    11  0.2315    12  0.2500    13  0.3397    14  0.2253    15  0.2500
    16  0.3397    17  0.2253    18  0.2500

          PARAMETERS CONTROLLING GEOMETRY SEARCH ARE
          METHOD =QA                  UPHESS =BFGS    
          NNEG   =         0          NFRZ   =         1
          NSTEP  =        50          IFOLOW =         1
          HESS   =GUESS               RESTAR =         F
          IHREP  =         0          HSSEND =         F
          NPRT   =         0          NPUN   =         0
          OPTTOL = 1.000E-04          RMIN   = 1.500E-03
          RMAX   = 1.000E-01          RLIM   = 7.000E-02
          DXMAX  = 3.000E-01          PURIFY =         F
          MOVIE  =         F          TRUPD  =         T
          TRMAX  = 5.000E-01          TRMIN  = 5.000E-02
          ITBMAT =         5          STPT   =         F
          STSTEP = 1.000E-02          PROJCT=          T
          FROZEN COORD(S)=  12

 BEGINNING GEOMETRY SEARCH POINT NSERCH=   0 ...

 COORDINATES OF ALL ATOMS ARE (ANGS)
   ATOM   CHARGE       X              Y              Z
 ------------------------------------------------------------
 C           6.0   0.5787704621   0.5310742120   0.4085492013
 C           6.0  -0.6429922046   0.4369275461  -0.4565706699
 F           9.0  -1.5888388613  -0.3926958267   0.1575133320
 H           1.0  -1.0727662089   1.4397482594  -0.5967310147
 H           1.0  -0.3691482898   0.0166712238  -1.4355467339
 F           9.0   1.6379995908  -0.3919109651  -0.1169334490
 H           1.0   0.9570619938   1.5639441881   0.3998814675
 H           1.0   0.3228062224   0.2443425773   1.4392127146


                     --------------------
                     INTERNAL COORDINATES
                     --------------------

                 - - ATOMS - -         COORDINATE      COORDINATE
 NO.   TYPE    I  J  K  L  M  N        (BOHR,RAD)       (ANG,DEG)
 ----------------------------------------------------------------
   1 STRETCH   2  1                     2.8345890       1.5000000
   2 STRETCH   3  2                     2.6456164       1.4000000
   3 BEND      3  2  1                  1.9118710     109.5421400
   4 STRETCH   4  2                     2.0786986       1.1000000
   5 BEND      4  2  1                  1.9118710     109.5421400
   6 TORSION   4  2  1  3               2.0943951     120.0000000
   7 STRETCH   5  2                     2.0786986       1.1000000
   8 BEND      5  2  1                  1.9118710     109.5421400
   9 TORSION   5  2  1  3              -2.0943951    -120.0000000
  10 STRETCH   6  1                     2.8345890       1.5000000
  11 BEND      6  1  2                  1.9118710     109.5421400
  12 TORSION   6  1  2  3               1.7453293     100.0000000
  13 STRETCH   7  1                     2.0786986       1.1000000
  14 BEND      7  1  2                  1.9118710     109.5421400
  15 TORSION   7  1  2  6               2.0943951     120.0000000
  16 STRETCH   8  1                     2.0786986       1.1000000
  17 BEND      8  1  2                  1.9118710     109.5421400
  18 TORSION   8  1  2  6              -2.0943951    -120.0000000

 THE CURRENT FULLY SUBSTITUTED Z-MATRIX IS
 C   
 C      1   1.5000000
 F      2   1.4000000  1   109.5421400
 H      2   1.1000000  1   109.5421400  3   120.0000000  0
 H      2   1.1000000  1   109.5421400  3  -120.0000000  0
 F      1   1.5000000  2   109.5421400  3   100.0000000  0
 H      1   1.1000000  2   109.5421400  6   120.0000000  0
 H      1   1.1000000  2   109.5421400  6  -120.0000000  0

          ********************
          1 ELECTRON INTEGRALS
          ********************
 ...... END OF ONE-ELECTRON INTEGRALS ......
 STEP CPU TIME =     0.00 TOTAL CPU TIME =          0.0 (      0.0 MIN)
 TOTAL WALL CLOCK TIME=          0.0 SECONDS, CPU UTILIZATION IS    66.67%

          -------------
          GUESS OPTIONS
          -------------
          GUESS =HUCKEL            NORB  =       0          NORDER=       0
          MIX   =       F          PRTMO =       F          PUNMO =       F
          TOLZ  = 1.0E-08          TOLE  = 1.0E-05
          SYMDEN=       F          PURIFY=       F

 INITIAL GUESS ORBITALS GENERATED BY HUCKEL   ROUTINE.
 HUCKEL GUESS REQUIRES     54920 WORDS.

 STATISTICS FOR GENERATION OF SYMMETRY ORBITAL -Q- MATRIX
 NUMBER OF CARTESIAN ATOMIC ORBITALS=         80
 NUMBER OF SPHERICAL CONTAMINANTS DROPPED=     4
 NUMBER OF LINEARLY DEPENDENT MOS DROPPED=     0
 TOTAL NUMBER OF MOS IN VARIATION SPACE=      76

 SYMMETRIES FOR INITIAL GUESS ORBITALS FOLLOW.   BOTH SET(S).
    17 ORBITALS ARE OCCUPIED (    4 CORE ORBITALS).
     5=A        6=A        7=A        8=A        9=A       10=A       11=A   
    12=A       13=A       14=A       15=A       16=A       17=A       18=A   
    19=A       20=A       21=A       22=A       23=A       24=A       25=A   
    26=A       27=A   
 ...... END OF INITIAL ORBITAL SELECTION ......
 STEP CPU TIME =     0.01 TOTAL CPU TIME =          0.0 (      0.0 MIN)
 TOTAL WALL CLOCK TIME=          0.0 SECONDS, CPU UTILIZATION IS    75.00%

                    ----------------------
                    AO INTEGRAL TECHNOLOGY
                    ----------------------
     S,P,L SHELL ROTATED AXIS INTEGRALS, REPROGRAMMED BY
        KAZUYA ISHIMURA (IMS) AND JOSE SIERRA (SYNSTAR).
     S,P,D,L SHELL ROTATED AXIS INTEGRALS PROGRAMMED BY
        KAZUYA ISHIMURA (INSTITUTE FOR MOLECULAR SCIENCE).
     S,P,D,F,G SHELL TO TOTAL QUARTET ANGULAR MOMENTUM SUM 5,
        ERIC PROGRAM BY GRAHAM FLETCHER (ELORET AND NASA ADVANCED
        SUPERCOMPUTING DIVISION, AMES RESEARCH CENTER).
     S,P,D,F,G,L SHELL GENERAL RYS QUADRATURE PROGRAMMED BY
        MICHEL DUPUIS (PACIFIC NORTHWEST NATIONAL LABORATORY).

          --------------------
          2 ELECTRON INTEGRALS
          --------------------

 THE -PK- OPTION IS OFF, THE INTEGRALS ARE NOT IN SUPERMATRIX FORM.
 STORING   15000 INTEGRALS/RECORD ON DISK, USING 12 BYTES/INTEGRAL.
 TWO ELECTRON INTEGRAL EVALUATION REQUIRES   91062 WORDS OF MEMORY.
 SCHWARZ INEQUALITY OVERHEAD:      3229 INTEGRALS, T=        0.00
 II,JST,KST,LST =  1  1  1  1 NREC =         1 INTLOC =    1
 II,JST,KST,LST =  2  1  1  1 NREC =         1 INTLOC =    2
 II,JST,KST,LST =  3  1  1  1 NREC =         1 INTLOC =    7
 II,JST,KST,LST =  4  1  1  1 NREC =         1 INTLOC =   22
 II,JST,KST,LST =  5  1  1  1 NREC =         1 INTLOC =   67
 II,JST,KST,LST =  6  1  1  1 NREC =         1 INTLOC =  214
 II,JST,KST,LST =  7  1  1  1 NREC =         1 INTLOC = 1189
 II,JST,KST,LST =  8  1  1  1 NREC =         1 INTLOC = 3220
 II,JST,KST,LST =  9  1  1  1 NREC =         1 INTLOC = 5685
 II,JST,KST,LST = 10  1  1  1 NREC =         1 INTLOC = 8610
 II,JST,KST,LST = 11  1  1  1 NREC =         2 INTLOC = 5530
 II,JST,KST,LST = 12  1  1  1 NREC =         3 INTLOC = 8215
 II,JST,KST,LST = 13  1  1  1 NREC =         7 INTLOC = 6145
 II,JST,KST,LST = 14  1  1  1 NREC =         8 INTLOC = 4530
 II,JST,KST,LST = 15  1  1  1 NREC =         9 INTLOC = 5312
 II,JST,KST,LST = 16  1  1  1 NREC =        10 INTLOC = 8173
 II,JST,KST,LST = 17  1  1  1 NREC =        14 INTLOC =10136
 II,JST,KST,LST = 18  1  1  1 NREC =        20 INTLOC = 1178
 II,JST,KST,LST = 19  1  1  1 NREC =        34 INTLOC =12727
 II,JST,KST,LST = 20  1  1  1 NREC =        38 INTLOC =  958
 II,JST,KST,LST = 21  1  1  1 NREC =        41 INTLOC = 7531
 II,JST,KST,LST = 22  1  1  1 NREC =        53 INTLOC = 1328
 II,JST,KST,LST = 23  1  1  1 NREC =        57 INTLOC = 7179
 II,JST,KST,LST = 24  1  1  1 NREC =        62 INTLOC = 2124
 II,JST,KST,LST = 25  1  1  1 NREC =        77 INTLOC =10201
 II,JST,KST,LST = 26  1  1  1 NREC =        80 INTLOC =13661
 II,JST,KST,LST = 27  1  1  1 NREC =        85 INTLOC = 3829
 II,JST,KST,LST = 28  1  1  1 NREC =        91 INTLOC = 6176
 II,JST,KST,LST = 29  1  1  1 NREC =       106 INTLOC = 8050
 II,JST,KST,LST = 30  1  1  1 NREC =       129 INTLOC =10464
 II,JST,KST,LST = 31  1  1  1 NREC =       174 INTLOC =12635
 II,JST,KST,LST = 32  1  1  1 NREC =       185 INTLOC = 8771
 II,JST,KST,LST = 33  1  1  1 NREC =       197 INTLOC = 2968
 II,JST,KST,LST = 34  1  1  1 NREC =       229 INTLOC = 7343
 II,JST,KST,LST = 35  1  1  1 NREC =       242 INTLOC =14768
 II,JST,KST,LST = 36  1  1  1 NREC =       257 INTLOC = 3426
 SCHWARZ INEQUALITY TEST SKIPPED       18069 INTEGRAL BLOCKS.
 TOTAL NUMBER OF NONZERO TWO-ELECTRON INTEGRALS =             4498360
        300 INTEGRAL RECORDS WERE STORED ON DISK FILE  8.
  ...... END OF TWO-ELECTRON INTEGRALS .....
 STEP CPU TIME =     0.47 TOTAL CPU TIME =          0.5 (      0.0 MIN)
 TOTAL WALL CLOCK TIME=          0.5 SECONDS, CPU UTILIZATION IS    98.04%

          --------------------------
               R-PBE SCF CALCULATION
          --------------------------

     NUCLEAR ENERGY =       123.9784720646
     MAXIT =   30     NPUNCH=    2
     EXTRAP=T  DAMP=F  SHIFT=F  RSTRCT=F  DIIS=T  DEM=F  SOSCF=F
         DENSITY MATRIX CONVERGENCE THRESHOLD=  1.00E-05
     COARSE -> FINE DFT GRID SWITCH THRESHOLD=  3.00E-04 (SWITCH IN $DFT)
                   HF -> DFT SWITCH THRESHOLD=  5.00E-03 (SWOFF IN $DFT)
     MEMORY REQUIRED FOR RHF ITERS=    365468 WORDS.

 DFT CODE IS SWITCHING FROM THE FINE GRID NRAD= 96,  NLEB=  302
                      TO THE COARSE GRID NRAD0= 24, NLEB0=  110

     EXCHANGE FUNCTIONAL   =PBE       
     CORRELATION FUNCTIONAL=PBE       
     DFT THRESHOLD         =.172E-07
     GRID CHANGE THRESHOLD =.300E-03
 FOR AN EULER-MACLAURIN QUADRATURE USING  96 RADIAL POINTS:
 SMALLEST GAUSSIAN PRIMITIVE EXPONENT=        0.1061000000 OF TYPE -S-
 ON ATOM NUMBER   4 HAS RADIAL NORMALIZATION=  1.000000
  LARGEST GAUSSIAN PRIMITIVE EXPONENT=     2931.5500000000 OF TYPE -S-
 ON ATOM NUMBER   3 HAS RADIAL NORMALIZATION=  1.000000
 DFT IS SWITCHED OFF, PERFORMING PURE SCF UNTIL SWOFF THRESHOLD IS REACHED.

 ITER EX DEM     TOTAL ENERGY        E CHANGE  DENSITY CHANGE    DIIS ERROR
   1  0  0     -276.1288561087  -276.1288561087   0.188897269   0.535993612
          * * *   INITIATING DIIS PROCEDURE   * * *
   2  1  0     -276.7734077689    -0.6445516602   0.087240767   0.074927618
   3  2  0     -276.8160739869    -0.0426662180   0.048618728   0.047703672
   4  3  0     -276.8321806736    -0.0161066867   0.008809318   0.010148837
   5  4  0     -276.8329464005    -0.0007657269   0.002177916   0.001748179
 CONVERGED TO SWOFF, SO DFT CALCULATION IS NOW SWITCHED ON.
          * * *   INITIATING DIIS PROCEDURE   * * *
   6  5  0     -277.8992298526    -1.0662834521   0.086035684   0.067877686
   7  6  0     -277.9144794818    -0.0152496292   0.068271687   0.042925795
   8  7  0     -277.9121140451     0.0023654367   0.045292990   0.049059388
   9  8  0     -277.9280519717    -0.0159379266   0.006964246   0.004954804
  10  9  0     -277.9283163764    -0.0002644047   0.001416881   0.001095687
  11 10  0     -277.9283264519    -0.0000100755   0.000572194   0.000470117
  12 11  0     -277.9283284453    -0.0000019935   0.000090113   0.000067911
 DFT CODE IS SWITCHING BACK TO THE FINE GRID
          * * *   INITIATING DIIS PROCEDURE   * * *
  13 12  0     -277.9294128740    -0.0010844287   0.003365844   0.003076223
  14 13  0     -277.9294568668    -0.0000439928   0.004668347   0.002191324
  15 14  0     -277.9294478767     0.0000089901   0.002577256   0.002774117
  16 15  0     -277.9294819254    -0.0000340486   0.000163994   0.000094954
  17 16  0     -277.9294819768    -0.0000000515   0.000093222   0.000079556
  18 17  0     -277.9294820088    -0.0000000319   0.000013760   0.000014426
  19 18  0     -277.9294820097    -0.0000000009   0.000005064   0.000005137
  20 19  0     -277.9294820098    -0.0000000001   0.000000413   0.000000293

          -----------------
          DENSITY CONVERGED
          -----------------
     TIME TO FORM FOCK OPERATORS=      10.0 SECONDS (       0.5 SEC/ITER)
     TIME TO SOLVE SCF EQUATIONS=       0.0 SECONDS (       0.0 SEC/ITER)

 FINAL R-PBE ENERGY IS     -277.9294820098 AFTER  20 ITERATIONS
 DFT EXCHANGE + CORRELATION ENERGY =       -32.9003101158
 TOTAL ELECTRON NUMBER             =        33.9999791479

          ------------
          EIGENVECTORS
          ------------

                      1          2          3          4          5
                  -24.2367   -24.2245    -9.9740    -9.9730    -1.0990
                     A          A          A          A          A   
    1  C  1  S    0.000040  -0.000175   0.991805  -0.055533  -0.014817
    2  C  1  S    0.000143  -0.000867   0.036698  -0.003142   0.025739
    3  C  1  S   -0.003489   0.007909  -0.022207   0.007338   0.024742
    4  C  1  X    0.000345   0.000778   0.000490   0.000753  -0.012164
    5  C  1  Y    0.000022  -0.000554  -0.000034   0.000126  -0.008528
    6  C  1  Z    0.000186  -0.000249   0.000169   0.000608  -0.007912
    7  C  1  X    0.001477   0.001886   0.002928  -0.002384  -0.008980
    8  C  1  Y    0.000647  -0.002770  -0.000527  -0.000182  -0.001986
    9  C  1  Z   -0.000453  -0.002356   0.000733  -0.002329  -0.010631
   10  C  1 XX   -0.000088   0.000125  -0.000300  -0.000500   0.003082
   11  C  1 YY   -0.000021   0.000052   0.000229   0.000472  -0.001588
   12  C  1 ZZ    0.000110  -0.000178   0.000070   0.000029  -0.001494
   13  C  1 XY   -0.000057  -0.000486   0.000148  -0.000083   0.000117
   14  C  1 XZ   -0.000039  -0.000294  -0.000261  -0.000761   0.002054
   15  C  1 YZ   -0.000088   0.000247  -0.000130  -0.000076   0.001155
   16  C  2  S   -0.000127   0.000040   0.055717   0.991750  -0.065400
   17  C  2  S   -0.000508   0.000205   0.000964   0.037117   0.123758
   18  C  2  S    0.009036  -0.003334   0.005146  -0.022163   0.011291
   19  C  2  X   -0.000908  -0.000289  -0.000826  -0.000736  -0.063859
   20  C  2  Y   -0.000670  -0.000017  -0.000030  -0.000382  -0.059927
   21  C  2  Z    0.000394  -0.000148  -0.000617   0.000174   0.048277
   22  C  2  X   -0.001740  -0.001428   0.002132  -0.003169  -0.011592
   23  C  2  Y   -0.002461   0.000768   0.000225  -0.000882  -0.005007
   24  C  2  Z    0.002789   0.000569   0.002333  -0.000784   0.002104
   25  C  2 XX    0.000013  -0.000091  -0.000518  -0.000155   0.004354
   26  C  2 YY    0.000032  -0.000006   0.000502   0.000185  -0.000330
   27  C  2 ZZ   -0.000046   0.000097   0.000016  -0.000030  -0.004024
   28  C  2 XY    0.000209   0.000071  -0.000086   0.000018   0.014890
   29  C  2 XZ   -0.000200  -0.000009  -0.000796  -0.000299  -0.009794
   30  C  2 YZ   -0.000141   0.000077  -0.000030  -0.000045  -0.009974
   31  F  3  S    0.993082  -0.000863   0.000009   0.000063  -0.236792
   32  F  3  S    0.033995   0.000075  -0.000034   0.000453   0.481564
   33  F  3  S   -0.016780  -0.000046  -0.000320  -0.000727   0.494363
   34  F  3  X    0.000797   0.000067  -0.000083  -0.000238   0.067730
   35  F  3  Y    0.000718  -0.000002  -0.000033  -0.000168   0.059275
   36  F  3  Z   -0.000537   0.000032   0.000033   0.000108  -0.042321
   37  F  3  X   -0.002550  -0.000095   0.000088  -0.001108   0.031810
   38  F  3  Y   -0.002235  -0.000012  -0.000132  -0.001221   0.027678
   39  F  3  Z    0.001640  -0.000186   0.000083   0.001037  -0.018942
   40  F  3 XX   -0.000075  -0.000059   0.000089  -0.000232   0.002427
   41  F  3 YY   -0.000035   0.000008  -0.000081  -0.000021   0.000212
   42  F  3 ZZ    0.000110   0.000051  -0.000007   0.000253  -0.002639
   43  F  3 XY   -0.000314   0.000011  -0.000022  -0.000882   0.008719
   44  F  3 XZ    0.000269  -0.000047   0.000147   0.000621  -0.006182
   45  F  3 YZ    0.000193   0.000015   0.000044   0.000590  -0.005534
   46  H  4  S   -0.000910   0.000174  -0.000371  -0.001217   0.022706
   47  H  4  S   -0.000250   0.000026   0.000403   0.003355   0.000865
   48  H  4  X    0.000181   0.000106   0.000085  -0.000382   0.001329
   49  H  4  Y    0.000279  -0.000055   0.000110   0.001232  -0.005172
   50  H  4  Z   -0.000246  -0.000019   0.000041  -0.000149   0.001116
   51  H  5  S   -0.000932   0.000320  -0.000310  -0.001123   0.022819
   52  H  5  S   -0.000225   0.000774   0.001176   0.003470   0.002232
   53  H  5  X    0.000199  -0.000133   0.000175   0.000430  -0.001877
   54  H  5  Y    0.000222   0.000001  -0.000015  -0.000444   0.001283
   55  H  5  Z   -0.000289  -0.000035   0.000008  -0.001102   0.004935
   56  F  6  S    0.000857   0.993089   0.000047   0.000003  -0.019735
   57  F  6  S    0.000128   0.033659   0.000393  -0.000055   0.040318
   58  F  6  S   -0.000076  -0.015811  -0.000030  -0.000274   0.039019
   59  F  6  X   -0.000072  -0.000780   0.000090   0.000067  -0.006752
   60  F  6  Y   -0.000006   0.000698  -0.000029  -0.000021   0.004668
   61  F  6  Z   -0.000022   0.000403  -0.000004  -0.000014   0.002340
   62  F  6  X    0.000097   0.002501   0.000726  -0.000160  -0.002260
   63  F  6  Y    0.000024  -0.002168  -0.000929  -0.000013   0.002113
   64  F  6  Z    0.000137  -0.001223  -0.000637   0.000018   0.001991
   65  F  6 XX   -0.000049  -0.000104  -0.000273   0.000105   0.000392
   66  F  6 YY    0.000004  -0.000044  -0.000085  -0.000066  -0.000004
   67  F  6 ZZ    0.000045   0.000148   0.000358  -0.000040  -0.000387
   68  F  6 XY   -0.000026   0.000339   0.000889  -0.000048  -0.000906
   69  F  6 XZ   -0.000044   0.000218   0.000496   0.000070  -0.000512
   70  F  6 YZ   -0.000006  -0.000148  -0.000472   0.000020   0.000537
   71  H  7  S    0.000188  -0.000719  -0.001232  -0.000206   0.002954
   72  H  7  S    0.000087  -0.000106   0.003452   0.000072  -0.000594
   73  H  7  X   -0.000103  -0.000234   0.000308  -0.000131  -0.000072
   74  H  7  Y   -0.000052   0.000234   0.001285  -0.000046  -0.000755
   75  H  7  Z    0.000025   0.000211  -0.000042  -0.000059   0.000228
   76  H  8  S    0.000297  -0.000756  -0.001136  -0.000162   0.007082
   77  H  8  S    0.000591  -0.000121   0.003639   0.000717   0.006037
   78  H  8  X    0.000124  -0.000203  -0.000439  -0.000123  -0.000571
   79  H  8  Y    0.000016   0.000284  -0.000306   0.000009   0.000041
   80  H  8  Z    0.000051   0.000185   0.001174  -0.000133  -0.001811

                      6          7          8          9         10
                   -1.0589    -0.7138    -0.5816    -0.4699    -0.4633
                     A          A          A          A          A   
    1  C  1  S   -0.052469  -0.153604   0.127502  -0.001711   0.008573
    2  C  1  S    0.101157   0.314461  -0.276151   0.009941  -0.026389
    3  C  1  S    0.014721   0.180421  -0.149867   0.001277  -0.003835
    4  C  1  X    0.055106  -0.099952  -0.066893  -0.093330  -0.084043
    5  C  1  Y   -0.049042   0.027617  -0.032113  -0.223793   0.138179
    6  C  1  Z   -0.030374  -0.043599  -0.112302   0.105776   0.183257
    7  C  1  X    0.014825  -0.032596  -0.011753  -0.034121  -0.007750
    8  C  1  Y   -0.006811   0.017574  -0.023216  -0.090522   0.035111
    9  C  1  Z   -0.001436  -0.002920  -0.039765   0.065697   0.072723
   10  C  1 XX    0.003851   0.003473   0.002107   0.003040   0.005088
   11  C  1 YY    0.000735  -0.004592  -0.004201  -0.002086  -0.000381
   12  C  1 ZZ   -0.004585   0.001119   0.002094  -0.000953  -0.004707
   13  C  1 XY   -0.012128   0.000510   0.000599   0.003880   0.002528
   14  C  1 XZ   -0.006293   0.008559   0.008330  -0.001759   0.000572
   15  C  1 YZ    0.006412   0.000040   0.001206   0.004118  -0.010519
   16  C  2  S   -0.003132  -0.148950  -0.127857   0.000964   0.000294
   17  C  2  S    0.003697   0.305086   0.278718   0.010895  -0.000132
   18  C  2  S    0.018150   0.168630   0.139618  -0.033924  -0.011581
   19  C  2  X    0.021914   0.102037  -0.087315  -0.045372  -0.208040
   20  C  2  Y    0.003566   0.039736   0.002999  -0.266492   0.178466
   21  C  2  Z    0.000245   0.042239  -0.115254   0.167761   0.193685
   22  C  2  X    0.009967   0.033116  -0.013010   0.016127  -0.058064
   23  C  2  Y    0.001203   0.021592   0.018492  -0.073693   0.092834
   24  C  2  Z    0.009969   0.000716  -0.047937   0.039757   0.089035
   25  C  2 XX    0.002010   0.003039  -0.000904  -0.002917  -0.001081
   26  C  2 YY   -0.001515  -0.004550   0.004468  -0.001912  -0.001068
   27  C  2 ZZ   -0.000494   0.001511  -0.003563   0.004829   0.002150
   28  C  2 XY   -0.002116   0.000552   0.000781   0.006947   0.004801
   29  C  2 XZ    0.003233   0.008937  -0.009011  -0.004896  -0.005184
   30  C  2 YZ    0.000663   0.001404  -0.000559  -0.014084  -0.003839
   31  F  3  S    0.024665   0.059835   0.047267   0.041595   0.018863
   32  F  3  S   -0.050008  -0.130465  -0.103417  -0.086679  -0.038813
   33  F  3  S   -0.054788  -0.150700  -0.126812  -0.132399  -0.061128
   34  F  3  X   -0.004342   0.073587   0.091835   0.345882   0.039742
   35  F  3  Y   -0.005353   0.053680   0.111744   0.135108   0.264936
   36  F  3  Z    0.004162  -0.024112  -0.128092  -0.093234   0.035983
   37  F  3  X   -0.003176   0.041613   0.054798   0.212512   0.023613
   38  F  3  Y   -0.002813   0.030653   0.067729   0.082604   0.160425
   39  F  3  Z    0.000990  -0.016792  -0.077390  -0.052767   0.021349
   40  F  3 XX   -0.000054   0.002396  -0.001475   0.009291  -0.004030
   41  F  3 YY   -0.000136  -0.000177   0.001044  -0.004619   0.009587
   42  F  3 ZZ    0.000190  -0.002218   0.000431  -0.004672  -0.005556
   43  F  3 XY   -0.000674   0.004608   0.004607   0.008588   0.007245
   44  F  3 XZ    0.000495  -0.001998  -0.006535  -0.004990   0.003595
   45  F  3 YZ    0.000409  -0.001695  -0.005956  -0.001215  -0.002800
   46  H  4  S   -0.000715   0.114291   0.159780  -0.174650   0.153671
   47  H  4  S   -0.000418  -0.005068   0.010951  -0.038441   0.019837
   48  H  4  X   -0.000036   0.006502   0.003779  -0.006969   0.000920
   49  H  4  Y    0.000159  -0.009742  -0.012283   0.005074  -0.006488
   50  H  4  Z   -0.000287   0.001969  -0.000685   0.001095   0.006327
   51  H  5  S    0.003247   0.104624   0.173932  -0.040776  -0.202109
   52  H  5  S    0.006265  -0.008757   0.014419  -0.016509  -0.008840
   53  H  5  X    0.000833  -0.001609  -0.004968  -0.000021  -0.002278
   54  H  5  Y    0.000102   0.004922   0.006222  -0.006791  -0.001546
   55  H  5  Z    0.000827   0.009671   0.011308   0.001275  -0.009745
   56  F  6  S   -0.241571   0.053274  -0.037876   0.005386  -0.034998
   57  F  6  S    0.491148  -0.116304   0.083742  -0.011530   0.073482
   58  F  6  S    0.514284  -0.132634   0.099843  -0.016902   0.113738
   59  F  6  X   -0.056965  -0.061804   0.073827  -0.081361   0.239800
   60  F  6  Y    0.049551   0.044472  -0.090140  -0.061761  -0.146694
   61  F  6  Z    0.027136   0.015815  -0.078577   0.065779  -0.011705
   62  F  6  X   -0.030227  -0.035931   0.045941  -0.050972   0.149384
   63  F  6  Y    0.025854   0.026776  -0.057044  -0.035754  -0.090636
   64  F  6  Z    0.013421   0.012066  -0.049142   0.037186  -0.006249
   65  F  6 XX    0.003044   0.002208   0.000473   0.004297  -0.005843
   66  F  6 YY    0.000701  -0.000060  -0.001505  -0.005511   0.000767
   67  F  6 ZZ   -0.003745  -0.002148   0.001032   0.001215   0.005076
   68  F  6 XY   -0.009061  -0.004129   0.004818   0.000696   0.007486
   69  F  6 XZ   -0.004985  -0.001481   0.004808  -0.003689   0.000525
   70  F  6 YZ    0.004495   0.001318  -0.004136   0.000568  -0.000391
   71  H  7  S    0.019618   0.118446  -0.160161  -0.169052   0.060128
   72  H  7  S    0.001166  -0.005008  -0.011356  -0.024660   0.016650
   73  H  7  X   -0.000745  -0.006104   0.003526   0.004315  -0.004268
   74  H  7  Y   -0.004475  -0.010744   0.012097   0.006436  -0.000574
   75  H  7  Z   -0.000376  -0.000429  -0.002487   0.003106   0.003460
   76  H  8  S    0.019048   0.109588  -0.176672   0.127000   0.096561
   77  H  8  S    0.001099  -0.009679  -0.017365  -0.008758   0.008621
   78  H  8  X    0.001787   0.001588  -0.004219  -0.001845  -0.001534
   79  H  8  Y    0.000439   0.003738  -0.004839  -0.002689   0.005074
   80  H  8  Z   -0.004025  -0.010810   0.012226  -0.007319  -0.003064

                     11         12         13         14         15
                   -0.4322    -0.4012    -0.3976    -0.3288    -0.3048
                     A          A          A          A          A   
    1  C  1  S    0.009096  -0.011957  -0.002511   0.030625   0.001854
    2  C  1  S   -0.023034   0.016984  -0.000711  -0.067871  -0.005755
    3  C  1  S   -0.026549   0.047306   0.020317  -0.130866  -0.015765
    4  C  1  X   -0.307329  -0.024453  -0.056315   0.091652   0.023168
    5  C  1  Y   -0.032317   0.268585  -0.128602  -0.009768  -0.052998
    6  C  1  Z   -0.101135   0.069344   0.307371   0.015548   0.132095
    7  C  1  X   -0.102848   0.015845  -0.017727   0.068740   0.035478
    8  C  1  Y   -0.033432   0.086575  -0.063579  -0.024399   0.005737
    9  C  1  Z   -0.056995   0.020225   0.130396   0.038376   0.017760
   10  C  1 XX   -0.001697  -0.007054  -0.009554   0.014351  -0.002482
   11  C  1 YY   -0.004416   0.002348  -0.000213  -0.006624  -0.012945
   12  C  1 ZZ    0.006114   0.004707   0.009767  -0.007726   0.015427
   13  C  1 XY    0.006795   0.020388  -0.001274  -0.003841   0.010535
   14  C  1 XZ    0.009314   0.004499   0.003545   0.002757  -0.008844
   15  C  1 YZ   -0.001660  -0.003684  -0.007280  -0.006632   0.002655
   16  C  2  S   -0.011718   0.008679  -0.012114  -0.023869   0.000558
   17  C  2  S    0.023026  -0.017868   0.018077   0.049527  -0.003219
   18  C  2  S    0.029365  -0.032455   0.048816   0.118242  -0.007251
   19  C  2  X    0.272260   0.046102  -0.015418   0.000144   0.016730
   20  C  2  Y    0.066895  -0.206120   0.042302   0.042325  -0.135790
   21  C  2  Z    0.138032  -0.069774  -0.229596  -0.054308  -0.155965
   22  C  2  X    0.089178   0.033194  -0.028957   0.031545  -0.015581
   23  C  2  Y    0.011202  -0.075404  -0.003239   0.042926  -0.025693
   24  C  2  Z    0.084168  -0.031660  -0.087747  -0.003642  -0.035194
   25  C  2 XX   -0.008366  -0.005670  -0.010546  -0.019585   0.000303
   26  C  2 YY   -0.002412   0.005544   0.002886   0.010143  -0.018943
   27  C  2 ZZ    0.010778   0.000127   0.007660   0.009442   0.018640
   28  C  2 XY   -0.011131   0.017165  -0.012199  -0.005928  -0.008957
   29  C  2 XZ    0.009416   0.001225   0.008716  -0.004567  -0.012275
   30  C  2 YZ    0.000474   0.003497   0.008297  -0.008240   0.003124
   31  F  3  S   -0.017770   0.004186  -0.006598  -0.000494   0.002608
   32  F  3  S    0.036353  -0.007751   0.010417  -0.002637  -0.007780
   33  F  3  S    0.050958  -0.009516   0.016391   0.013007  -0.008556
   34  F  3  X   -0.014599   0.172899  -0.200064   0.308444  -0.126866
   35  F  3  Y   -0.176273  -0.162101  -0.185625  -0.181864   0.317483
   36  F  3  Z    0.309291  -0.193643  -0.045257   0.317297   0.290971
   37  F  3  X   -0.011527   0.109605  -0.122053   0.215355  -0.081648
   38  F  3  Y   -0.109381  -0.106583  -0.117257  -0.125156   0.224094
   39  F  3  Z    0.190165  -0.125880  -0.027834   0.214590   0.206021
   40  F  3 XX    0.007393   0.005391  -0.003844   0.009548  -0.002980
   41  F  3 YY   -0.002058  -0.009991  -0.002876  -0.004190   0.005475
   42  F  3 ZZ   -0.005335   0.004600   0.006720  -0.005358  -0.002495
   43  F  3 XY   -0.001276  -0.001642  -0.006724   0.001873   0.002983
   44  F  3 XZ    0.007227  -0.007475   0.000202   0.001372   0.004637
   45  F  3 YZ    0.009164  -0.000253  -0.000405   0.006430   0.001062
   46  H  4  S   -0.032942  -0.171726   0.081442   0.092002  -0.134424
   47  H  4  S   -0.008687  -0.052215   0.030845   0.020982  -0.075675
   48  H  4  X    0.004492  -0.001048   0.001386   0.002993  -0.004304
   49  H  4  Y    0.004176   0.005319  -0.003147  -0.001968   0.000383
   50  H  4  Z    0.001986  -0.002859  -0.005440  -0.001836  -0.005563
   51  H  5  S   -0.039827   0.105332   0.164897   0.059861   0.229064
   52  H  5  S    0.011117   0.041459   0.045859  -0.004142   0.123910
   53  H  5  X    0.006884  -0.002706  -0.004866  -0.003714   0.000754
   54  H  5  Y   -0.000141  -0.002436   0.005070   0.003662   0.002440
   55  H  5  Z   -0.000855   0.004782   0.003052   0.000277   0.004601
   56  F  6  S   -0.023454  -0.020901  -0.006395   0.001188   0.003055
   57  F  6  S    0.050518   0.042587   0.012088   0.000472  -0.008039
   58  F  6  S    0.067338   0.059995   0.020738  -0.011141  -0.014721
   59  F  6  X    0.073042   0.323818   0.058182   0.254355   0.143120
   60  F  6  Y   -0.237132  -0.122403  -0.232029   0.226075   0.225902
   61  F  6  Z   -0.182238  -0.164981   0.164989   0.315445  -0.272997
   62  F  6  X    0.052427   0.207113   0.034753   0.174537   0.093034
   63  F  6  Y   -0.149345  -0.079321  -0.149417   0.153661   0.157327
   64  F  6  Z   -0.112074  -0.107006   0.104498   0.210774  -0.192319
   65  F  6 XX    0.004793  -0.006414   0.000499  -0.009207  -0.003119
   66  F  6 YY   -0.004915   0.004232  -0.007807   0.005346   0.004490
   67  F  6 ZZ    0.000122   0.002182   0.007308   0.003861  -0.001371
   68  F  6 XY    0.005284   0.006524   0.006311   0.000652  -0.001428
   69  F  6 XZ    0.004834   0.006454  -0.005261  -0.002875   0.004826
   70  F  6 YZ   -0.006816  -0.002720   0.001968   0.006513  -0.001441
   71  H  7  S   -0.118377   0.218692  -0.113818  -0.028742  -0.060488
   72  H  7  S   -0.024608   0.070573  -0.026102   0.008190  -0.044933
   73  H  7  X   -0.003931  -0.004923  -0.000019   0.003399   0.004140
   74  H  7  Y    0.007400  -0.005574   0.004144  -0.000079  -0.000211
   75  H  7  Z   -0.001776   0.002318   0.007614  -0.000838   0.004596
   76  H  8  S   -0.019085   0.015769   0.274239  -0.042454   0.162970
   77  H  8  S    0.013379  -0.001196   0.072883   0.009169   0.107070
   78  H  8  X   -0.008422  -0.000484   0.004661  -0.001100  -0.001330
   79  H  8  Y   -0.001615   0.007219   0.002050  -0.002767   0.001987
   80  H  8  Z   -0.000058   0.001771  -0.008675   0.001033  -0.002751

                     16         17         18         19         20
                   -0.2915    -0.2860     0.0023     0.0201     0.0417
                     A          A          A          A          A   
    1  C  1  S   -0.001124  -0.022151   0.067157   0.057651   0.081173
    2  C  1  S    0.000521   0.061091  -0.184808  -0.092597  -0.169570
    3  C  1  S    0.031837   0.088180  -0.238286  -0.892919  -1.100666
    4  C  1  X   -0.081781  -0.194858  -0.342091  -0.082774  -0.055796
    5  C  1  Y   -0.138788  -0.079572   0.299778  -0.202059   0.105963
    6  C  1  Z    0.092897  -0.140288   0.174765  -0.066463  -0.128196
    7  C  1  X   -0.037781  -0.024602  -0.490247  -0.185057  -0.040395
    8  C  1  Y   -0.024922  -0.014520   0.467559  -0.390542   0.175831
    9  C  1  Z    0.013592  -0.057922   0.270307  -0.125289  -0.394896
   10  C  1 XX    0.008009   0.015329   0.017134  -0.002651  -0.015212
   11  C  1 YY   -0.016495  -0.013257   0.004471   0.013553  -0.013474
   12  C  1 ZZ    0.008485  -0.002071  -0.021605  -0.010902   0.028686
   13  C  1 XY   -0.003879  -0.001232  -0.030173   0.014517  -0.020540
   14  C  1 XZ   -0.012265   0.011196  -0.019222  -0.003227  -0.004902
   15  C  1 YZ   -0.000627  -0.005153   0.019522   0.004221  -0.014309
   16  C  2  S    0.000134  -0.022080  -0.005531   0.056110   0.033171
   17  C  2  S    0.002587   0.061178   0.017005  -0.083688  -0.105641
   18  C  2  S   -0.030156   0.101339  -0.164121  -0.969370  -0.075654
   19  C  2  X   -0.068996   0.206197  -0.084560   0.051242   0.227952
   20  C  2  Y    0.131795  -0.061434  -0.033215  -0.216239   0.216390
   21  C  2  Z    0.077104   0.138053   0.103516   0.122831  -0.132547
   22  C  2  X   -0.043986   0.034868  -0.150644   0.117318   0.426792
   23  C  2  Y    0.033712  -0.003399  -0.056597  -0.424901   0.432707
   24  C  2  Z    0.028136   0.060602   0.253905   0.238090  -0.208451
   25  C  2 XX   -0.005691   0.014989  -0.022615  -0.004820   0.007747
   26  C  2 YY    0.012265  -0.012533  -0.006626   0.009515  -0.000796
   27  C  2 ZZ   -0.006574  -0.002456   0.029241  -0.004695  -0.006951
   28  C  2 XY   -0.004318   0.005013   0.007052  -0.018186   0.035018
   29  C  2 XZ    0.012621   0.009381   0.004727   0.002642  -0.024622
   30  C  2 YZ   -0.003152   0.007530   0.029465  -0.002445  -0.010191
   31  F  3  S    0.002838   0.000221   0.019968   0.018492  -0.047951
   32  F  3  S   -0.007077   0.001143  -0.034411  -0.041710   0.089959
   33  F  3  S   -0.016139  -0.012462  -0.168533  -0.115264   0.396584
   34  F  3  X    0.040311  -0.297089  -0.053464  -0.066325   0.151439
   35  F  3  Y   -0.281866   0.105542  -0.073294   0.018763   0.145864
   36  F  3  Z   -0.214043  -0.213362   0.023630  -0.021917  -0.172572
   37  F  3  X    0.033368  -0.208817  -0.069348  -0.069253   0.148256
   38  F  3  Y   -0.194784   0.069377  -0.069241   0.030017   0.145279
   39  F  3  Z   -0.147320  -0.149382   0.013654  -0.031981  -0.169938
   40  F  3 XX    0.001314  -0.003651  -0.002194   0.003346  -0.002831
   41  F  3 YY   -0.004213   0.001134   0.000439  -0.001881  -0.000626
   42  F  3 ZZ    0.002899   0.002518   0.001755  -0.001465   0.003457
   43  F  3 XY   -0.002711  -0.001027   0.003140  -0.002892  -0.002498
   44  F  3 XZ   -0.001891  -0.000030  -0.000475   0.000069   0.003271
   45  F  3 YZ   -0.000992  -0.002209   0.002623   0.002255   0.002207
   46  H  4  S    0.162851  -0.153557  -0.117375   0.080820  -0.075645
   47  H  4  S    0.066254  -0.097624  -0.209024   1.149557  -0.292993
   48  H  4  X    0.001100   0.001380   0.000879  -0.007673   0.018991
   49  H  4  Y   -0.002392   0.003676  -0.002564   0.018074   0.002296
   50  H  4  Z    0.002038   0.002924   0.008749   0.002523  -0.004226
   51  H  5  S   -0.144775  -0.033339   0.174082   0.014441  -0.009987
   52  H  5  S   -0.035599  -0.045945   0.575582   0.268459  -0.059406
   53  H  5  X    0.000221   0.002802  -0.006084   0.002414   0.011480
   54  H  5  Y   -0.000291  -0.001852  -0.007125  -0.008944   0.013930
   55  H  5  Z   -0.003695   0.001466  -0.007627  -0.001378  -0.001754
   56  F  6  S   -0.002051   0.000227  -0.064822   0.009790  -0.014039
   57  F  6  S    0.004713   0.001883   0.121567  -0.024865   0.028655
   58  F  6  S    0.012817  -0.014614   0.484022  -0.046938   0.097662
   59  F  6  X    0.077447   0.347483  -0.253537   0.040704  -0.091548
   60  F  6  Y    0.356025   0.155036   0.239740   0.044032   0.052311
   61  F  6  Z   -0.323206   0.265228   0.156430   0.032058   0.075047
   62  F  6  X    0.056245   0.244103  -0.254250   0.040787  -0.081456
   63  F  6  Y    0.245909   0.103209   0.229736   0.051192   0.057109
   64  F  6  Z   -0.221768   0.183829   0.147878   0.037311   0.090084
   65  F  6 XX   -0.001952  -0.004892  -0.000845   0.002827  -0.002686
   66  F  6 YY    0.005178   0.002260  -0.000589  -0.002006   0.000284
   67  F  6 ZZ   -0.003226   0.002632   0.001433  -0.000821   0.002403
   68  F  6 XY   -0.003553   0.001302   0.003949   0.003473  -0.000067
   69  F  6 XZ    0.003491  -0.000789   0.002768   0.000102   0.003135
   70  F  6 YZ   -0.001878   0.002997  -0.000958  -0.001837  -0.004819
   71  H  7  S   -0.187823  -0.135655   0.015536   0.095200  -0.088101
   72  H  7  S   -0.084742  -0.085807  -0.026855   1.129046   0.068749
   73  H  7  X    0.001689  -0.001514  -0.017758   0.004336  -0.007272
   74  H  7  Y    0.002749   0.002576   0.005892   0.018761   0.003007
   75  H  7  Z    0.001624  -0.003926   0.010388  -0.003149  -0.006124
   76  H  8  S    0.157329  -0.049844  -0.055642  -0.014099   0.199558
   77  H  8  S    0.050592  -0.046480  -0.151367   0.164714   1.332440
   78  H  8  X   -0.001034  -0.003098  -0.015056  -0.004296  -0.003202
   79  H  8  Y   -0.000233  -0.002403   0.017120  -0.006550   0.000197
   80  H  8  Z   -0.003894  -0.001014  -0.001372   0.001251   0.019700

                     21         22         23         24         25
                    0.0642     0.0900     0.0983     0.1654     0.3509
                     A          A          A          A          A   
    1  C  1  S    0.065540   0.010827   0.023879   0.073807  -0.000859
    2  C  1  S   -0.118387   0.006665  -0.030819  -0.076121  -0.072731
    3  C  1  S   -0.858520  -0.376497  -0.623807  -1.979035  -0.601462
    4  C  1  X   -0.051060   0.149822  -0.038283   0.259577   0.393780
    5  C  1  Y   -0.059275   0.032941  -0.247712   0.119648  -0.088430
    6  C  1  Z   -0.029403  -0.252508   0.176607   0.229905   0.213399
    7  C  1  X   -0.096956   0.465536   0.025653   1.642849  -0.522668
    8  C  1  Y   -0.149748   0.135046  -0.859394   0.617226   0.053424
    9  C  1  Z   -0.048191  -0.716220   0.521225   1.214879  -0.799694
   10  C  1 XX    0.000385   0.011017   0.008365   0.020250  -0.030914
   11  C  1 YY    0.007904  -0.004929   0.000877  -0.021468   0.035866
   12  C  1 ZZ   -0.008289  -0.006088  -0.009242   0.001218  -0.004952
   13  C  1 XY    0.011711   0.008575  -0.001157  -0.004641   0.008824
   14  C  1 XZ    0.002673  -0.002927   0.007357   0.035474  -0.050109
   15  C  1 YZ    0.009245  -0.006789  -0.005104   0.021586  -0.022580
   16  C  2  S   -0.115346  -0.021872  -0.016796  -0.077331   0.008045
   17  C  2  S    0.233982   0.071581   0.012232   0.090663  -0.156932
   18  C  2  S    1.470028   0.007457   0.557037   2.005746  -0.372034
   19  C  2  X   -0.109654  -0.237463  -0.018380   0.261758  -0.331619
   20  C  2  Y   -0.133834   0.061986   0.278002  -0.081076  -0.038304
   21  C  2  Z   -0.104971   0.253292   0.117415   0.260329  -0.280527
   22  C  2  X   -0.165671  -0.706349   0.080958   1.599526   0.561983
   23  C  2  Y   -0.290357   0.199090   0.944105  -0.388096  -0.038816
   24  C  2  Z   -0.328764   0.714074   0.320040   1.351540   1.063203
   25  C  2 XX    0.000705   0.006628  -0.009302  -0.019946  -0.022880
   26  C  2 YY    0.002527  -0.007505  -0.002927   0.025905   0.037467
   27  C  2 ZZ   -0.003232   0.000878   0.012229  -0.005960  -0.014587
   28  C  2 XY   -0.013407  -0.011956   0.000610  -0.013887  -0.021199
   29  C  2 XZ    0.012691   0.003060  -0.009041  -0.033622  -0.052532
   30  C  2 YZ    0.003162   0.016431  -0.003505   0.015405   0.019790
   31  F  3  S    0.034985   0.050650  -0.022677   0.005605   0.008271
   32  F  3  S   -0.064681  -0.095026   0.039416   0.009725  -0.022146
   33  F  3  S   -0.289998  -0.431933   0.208283  -0.141203  -0.053924
   34  F  3  X   -0.146017  -0.083811   0.008327  -0.097272  -0.080631
   35  F  3  Y   -0.101984  -0.126602   0.002718  -0.016617  -0.006656
   36  F  3  Z    0.094098   0.027309  -0.039374  -0.046909  -0.092187
   37  F  3  X   -0.168805  -0.102054   0.045477  -0.207656  -0.119401
   38  F  3  Y   -0.110945  -0.181535  -0.019832  -0.013918  -0.012708
   39  F  3  Z    0.123668   0.034684  -0.077742  -0.092811  -0.133321
   40  F  3 XX    0.000161  -0.004558  -0.000122   0.004641  -0.004193
   41  F  3 YY   -0.001872   0.004333   0.004196   0.003383   0.004224
   42  F  3 ZZ    0.001712   0.000224  -0.004074  -0.008024  -0.000031
   43  F  3 XY    0.001837   0.001564   0.004379   0.003210  -0.001807
   44  F  3 XZ   -0.003640   0.002159   0.002022  -0.006977  -0.005827
   45  F  3 YZ   -0.004967   0.000040   0.000428   0.006560   0.001188
   46  H  4  S   -0.021742  -0.014576  -0.027754   0.106705   0.235798
   47  H  4  S   -0.555897  -0.836271  -1.472899   0.804879  -0.041730
   48  H  4  X   -0.002638  -0.009379   0.014513   0.002709   0.006307
   49  H  4  Y   -0.009280  -0.013546  -0.009228   0.013940   0.005335
   50  H  4  Z    0.003027   0.011686   0.003239   0.017949   0.026176
   51  H  5  S   -0.079237   0.011617   0.027643   0.084386   0.298742
   52  H  5  S   -1.380873   1.171494   0.990829   0.171913   0.235520
   53  H  5  X   -0.009598  -0.000968   0.007034   0.018384   0.016287
   54  H  5  Y   -0.000059  -0.014071   0.001587  -0.012800  -0.012675
   55  H  5  Z    0.018707  -0.010868  -0.012250   0.005753   0.015004
   56  F  6  S   -0.014622   0.031154   0.014733   0.000497   0.005582
   57  F  6  S    0.027483  -0.060804  -0.025399  -0.018626  -0.037590
   58  F  6  S    0.107838  -0.247906  -0.132428   0.067293   0.080109
   59  F  6  X   -0.054952   0.044869  -0.005152  -0.078758   0.126470
   60  F  6  Y    0.041447  -0.067940   0.004934  -0.004051  -0.013368
   61  F  6  Z   -0.030909   0.007617  -0.022037  -0.050860   0.073881
   62  F  6  X   -0.078237   0.053264   0.028470  -0.169465   0.064443
   63  F  6  Y    0.054945  -0.106151   0.023927  -0.022805   0.020903
   64  F  6  Z   -0.016966   0.012595  -0.057743  -0.088580   0.117115
   65  F  6 XX    0.003275  -0.002688  -0.000514  -0.004298   0.003957
   66  F  6 YY   -0.000213   0.003018  -0.003145  -0.000947   0.001339
   67  F  6 ZZ   -0.003062  -0.000331   0.003659   0.005245  -0.005297
   68  F  6 XY    0.001875   0.000032   0.003824   0.003912  -0.006547
   69  F  6 XZ   -0.000477   0.002249  -0.001928   0.005032  -0.006617
   70  F  6 YZ   -0.001464  -0.001004   0.001238   0.007308   0.000778
   71  H  7  S    0.114796   0.020459   0.019311  -0.102880   0.201890
   72  H  7  S    0.897811  -0.377495   1.537864  -0.803725  -0.101071
   73  H  7  X    0.007399   0.010153   0.011051   0.005547  -0.004334
   74  H  7  Y    0.011505  -0.008107   0.012095  -0.011688   0.003364
   75  H  7  Z    0.005202  -0.005788   0.002372   0.019261  -0.019898
   76  H  8  S   -0.010367  -0.020002  -0.019766  -0.089277   0.229886
   77  H  8  S    0.404139   1.253030  -1.042946  -0.140585   0.173655
   78  H  8  X   -0.002503  -0.003978   0.007068   0.019026  -0.017399
   79  H  8  Y   -0.001736  -0.009681  -0.001660   0.013037  -0.013991
   80  H  8  Z    0.004825   0.013072  -0.011825   0.004044  -0.014165

                     26         27         28         29         30
                    0.3727     0.3916     0.4439     0.4729     0.4893
                     A          A          A          A          A   
    1  C  1  S   -0.043109  -0.008195   0.020424   0.070322   0.016077
    2  C  1  S    0.344084   0.070348  -0.059958  -0.482743  -0.041411
    3  C  1  S   -0.184319  -0.082827   0.025499   1.547517  -0.313754
    4  C  1  X    0.459319   0.110707   0.047823   0.571684  -0.002631
    5  C  1  Y   -0.520595  -0.044974  -0.105042   0.024286   0.054569
    6  C  1  Z   -0.329236  -0.117244  -0.209050   0.370696  -0.310764
    7  C  1  X   -0.582084  -0.238212  -0.775296  -1.372652   0.319634
    8  C  1  Y    1.034324   0.042186  -0.210984  -0.233388   0.996431
    9  C  1  Z    0.760489   0.160371   1.058575  -1.202330   0.421621
   10  C  1 XX    0.000608   0.011549  -0.027559   0.028209  -0.056390
   11  C  1 YY   -0.017339  -0.027103   0.078705  -0.043066  -0.063063
   12  C  1 ZZ    0.016732   0.015555  -0.051146   0.014858   0.119454
   13  C  1 XY    0.001141   0.005478   0.059386   0.026011   0.002067
   14  C  1 XZ    0.026874  -0.018754   0.021532   0.052301  -0.026621
   15  C  1 YZ    0.009779  -0.009546   0.030532  -0.023345   0.005116
   16  C  2  S    0.008978  -0.047591   0.022332  -0.068086  -0.009956
   17  C  2  S   -0.054049   0.357526  -0.067917   0.459402   0.011662
   18  C  2  S    0.119930  -0.264659  -0.034624  -1.511617   0.405944
   19  C  2  X    0.112870  -0.538424  -0.025944   0.542434   0.007382
   20  C  2  Y    0.176621  -0.513321  -0.030920   0.005100  -0.122130
   21  C  2  Z   -0.003515   0.408729   0.230605   0.403153  -0.222452
   22  C  2  X   -0.019503   0.644667   0.779064  -1.386582   0.432886
   23  C  2  Y   -0.342062   0.845922  -0.285412   0.065370  -0.948554
   24  C  2  Z   -0.033325  -0.708276  -1.018565  -1.183900   0.376839
   25  C  2 XX    0.011163  -0.007965  -0.023347  -0.033878   0.052370
   26  C  2 YY   -0.024685  -0.020001   0.050975   0.038834   0.063521
   27  C  2 ZZ    0.013522   0.027965  -0.027628  -0.004955  -0.115890
   28  C  2 XY    0.010181  -0.027311  -0.064365   0.002457  -0.007660
   29  C  2 XZ   -0.018665   0.028528   0.027482  -0.058347   0.026099
   30  C  2 YZ    0.015160   0.022225  -0.040249  -0.031049  -0.031581
   31  F  3  S   -0.002732  -0.002912  -0.021096   0.018673   0.008630
   32  F  3  S    0.035067  -0.084977   0.024903  -0.079976   0.009207
   33  F  3  S   -0.113204   0.552226   0.338747   0.002148  -0.226777
   34  F  3  X    0.098701  -0.216522  -0.156145  -0.032218   0.011533
   35  F  3  Y   -0.014671  -0.230239   0.112685  -0.001355   0.123080
   36  F  3  Z   -0.043756   0.136935   0.002925   0.009157   0.159362
   37  F  3  X   -0.027519   0.052266   0.042368   0.066419  -0.117715
   38  F  3  Y    0.014489   0.017513   0.132098  -0.023976   0.010279
   39  F  3  Z    0.006428  -0.006235  -0.003518   0.094521   0.023184
   40  F  3 XX   -0.011094   0.010366   0.015635   0.019143  -0.002360
   41  F  3 YY    0.005472   0.001443  -0.009693  -0.008502  -0.008323
   42  F  3 ZZ    0.005622  -0.011808  -0.005943  -0.010641   0.010683
   43  F  3 XY   -0.001021   0.045466   0.009145   0.005534  -0.011421
   44  F  3 XZ    0.008302  -0.028760  -0.002291   0.010186  -0.015497
   45  F  3 YZ    0.010115  -0.027347  -0.002290   0.009508   0.001955
   46  H  4  S   -0.159437  -0.233738   0.625481  -0.127510   0.545020
   47  H  4  S    0.091522  -0.075228  -0.151947  -0.445210   0.035991
   48  H  4  X    0.016093  -0.015329  -0.001420   0.027503  -0.001920
   49  H  4  Y   -0.004858   0.001959   0.025927   0.002707   0.019330
   50  H  4  Z    0.023382   0.002129  -0.025949   0.002819  -0.013349
   51  H  5  S    0.199630  -0.048962  -0.242549  -0.259782  -0.641731
   52  H  5  S   -0.045989  -0.091877  -0.238492  -0.210604   0.556970
   53  H  5  X   -0.013923  -0.014599  -0.001485   0.021404  -0.011402
   54  H  5  Y    0.005605  -0.005724  -0.020676   0.010037  -0.027262
   55  H  5  Z   -0.021326  -0.015004  -0.015590   0.017617   0.056389
   56  F  6  S   -0.014270  -0.003642  -0.020046  -0.018155  -0.012282
   57  F  6  S   -0.051291   0.000009   0.025790   0.079971   0.002429
   58  F  6  S    0.580531   0.096479   0.304653   0.004957   0.243136
   59  F  6  X    0.175204   0.000687   0.148110  -0.022220   0.028993
   60  F  6  Y   -0.177651  -0.085618   0.127934  -0.009223  -0.085946
   61  F  6  Z   -0.110565   0.017506  -0.042479   0.023771   0.165075
   62  F  6  X   -0.138122   0.003157  -0.060817   0.067626  -0.127300
   63  F  6  Y    0.062313   0.030588   0.121146   0.034457   0.017473
   64  F  6  Z    0.015099   0.008136  -0.012885   0.088487   0.006599
   65  F  6 XX    0.014140  -0.004544   0.017055  -0.015619   0.005474
   66  F  6 YY    0.001708   0.004941  -0.013269   0.010135   0.006991
   67  F  6 ZZ   -0.015848  -0.000397  -0.003786   0.005484  -0.012465
   68  F  6 XY   -0.037753  -0.014337  -0.006049   0.000876  -0.009966
   69  F  6 XZ   -0.019512  -0.000170  -0.004226  -0.009021   0.017045
   70  F  6 YZ    0.021314  -0.000479   0.002696   0.005349  -0.001061
   71  H  7  S   -0.281523  -0.183433   0.690637   0.162971  -0.445098
   72  H  7  S   -0.060022   0.007823  -0.226115   0.360978  -0.078470
   73  H  7  X    0.013203  -0.008845   0.000077   0.031277   0.003465
   74  H  7  Y    0.004543  -0.005719   0.034149   0.004199  -0.014329
   75  H  7  Z    0.014257  -0.023838   0.025896  -0.002315  -0.007731
   76  H  8  S   -0.221630   0.172077  -0.340400   0.334638   0.653156
   77  H  8  S   -0.118950   0.007414  -0.165836   0.201210  -0.663754
   78  H  8  X    0.009617   0.013295   0.004864   0.018913  -0.013716
   79  H  8  Y    0.004393   0.006068  -0.021476  -0.009595   0.031276
   80  H  8  Z    0.009169   0.021062   0.012632   0.022071   0.059614

                     31         32         33         34         35
                    0.5327     0.5432     0.5588     0.5822     0.7927
                     A          A          A          A          A   
    1  C  1  S   -0.008221   0.052395  -0.037513  -0.060630   0.022958
    2  C  1  S    0.074123  -0.387243   0.259711   0.500931  -1.291387
    3  C  1  S   -0.206370   0.557408  -0.041713  -0.351233   2.507609
    4  C  1  X    0.254344  -0.155340   0.304888  -0.078614   0.137472
    5  C  1  Y    0.516015  -0.097145   0.578191  -0.018647  -0.056915
    6  C  1  Z   -0.227481  -0.383549  -0.215948   0.487383  -0.005164
    7  C  1  X   -0.618074   0.461745  -0.893262  -0.222510   0.010186
    8  C  1  Y   -0.780346   0.146697  -1.683569   0.871950   0.229057
    9  C  1  Z    0.709484   0.033589   0.361917  -1.227309   0.644241
   10  C  1 XX    0.005816  -0.021644   0.030553   0.043055  -0.041905
   11  C  1 YY   -0.046834  -0.017166  -0.053980  -0.028261   0.037557
   12  C  1 ZZ    0.041017   0.038810   0.023427  -0.014795   0.004348
   13  C  1 XY   -0.043209   0.036148  -0.029900  -0.020517  -0.034874
   14  C  1 XZ   -0.008961  -0.045549  -0.007557   0.007667  -0.045269
   15  C  1 YZ   -0.031287  -0.049671   0.002967   0.035442   0.011465
   16  C  2  S   -0.019923   0.058646   0.045392   0.061223   0.016593
   17  C  2  S    0.145624  -0.429638  -0.326324  -0.501337  -1.294017
   18  C  2  S   -0.242686   0.677353   0.114594   0.359780   2.806971
   19  C  2  X   -0.326849   0.074975   0.294519  -0.066653  -0.172559
   20  C  2  Y    0.613645   0.082892  -0.470060   0.074785  -0.094896
   21  C  2  Z    0.205736   0.398080  -0.034820   0.450609   0.039038
   22  C  2  X    0.802783  -0.255470  -0.889958  -0.167272   0.078188
   23  C  2  Y   -1.185096  -0.130942   1.488244  -1.051725   0.167039
   24  C  2  Z   -0.686160  -0.032094  -0.008197  -1.100481  -0.620522
   25  C  2 XX    0.009616  -0.018688  -0.030778  -0.040475  -0.038292
   26  C  2 YY   -0.042143  -0.020932   0.046131   0.034742   0.031739
   27  C  2 ZZ    0.032527   0.039620  -0.015353   0.005733   0.006553
   28  C  2 XY    0.047202  -0.036466  -0.027583  -0.026687   0.027860
   29  C  2 XZ   -0.022386  -0.043383   0.001895  -0.008789  -0.051972
   30  C  2 YZ    0.044592   0.057913   0.008797   0.021011  -0.022788
   31  F  3  S    0.006898  -0.012882  -0.005804   0.000200   0.034282
   32  F  3  S   -0.032788   0.071140   0.011642   0.020031  -0.146568
   33  F  3  S    0.033173  -0.100457   0.076651  -0.121392  -0.171339
   34  F  3  X   -0.062821   0.077388  -0.036745   0.021520  -0.027360
   35  F  3  Y    0.051021  -0.059541   0.001886   0.119646   0.055474
   36  F  3  Z    0.022130  -0.039114  -0.081449   0.048204   0.009436
   37  F  3  X   -0.081347   0.016997   0.076815  -0.036581  -0.130845
   38  F  3  Y    0.078600   0.020301  -0.094535   0.021314  -0.181666
   39  F  3  Z    0.026464   0.034443  -0.037952   0.093952   0.115842
   40  F  3 XX   -0.005539   0.000052   0.015524   0.000739   0.005218
   41  F  3 YY    0.012389   0.012180  -0.014822  -0.002443  -0.008594
   42  F  3 ZZ   -0.006849  -0.012232  -0.000702   0.001704   0.003376
   43  F  3 XY    0.000319   0.003422  -0.004952  -0.002874  -0.018284
   44  F  3 XZ    0.009466   0.009402   0.006372   0.000248   0.024760
   45  F  3 YZ   -0.003714   0.008210   0.006510   0.003478   0.018927
   46  H  4  S   -0.307963   0.217334   0.344199   0.528131  -0.378653
   47  H  4  S    1.368270  -0.041915  -1.678350  -0.083803  -0.602958
   48  H  4  X    0.033321  -0.033181  -0.034829  -0.002956   0.031111
   49  H  4  Y   -0.071565   0.023299   0.073480   0.036481   0.037568
   50  H  4  Z    0.012141   0.038724  -0.004429   0.000881  -0.010375
   51  H  5  S    0.051985   0.796078   0.257980   0.195560  -0.388821
   52  H  5  S   -1.040038  -0.789343   0.464573  -1.395320  -0.836185
   53  H  5  X    0.000522   0.026802  -0.005772   0.025047   0.015502
   54  H  5  Y   -0.016200  -0.040442  -0.007899  -0.057023   0.008843
   55  H  5  Z   -0.041127  -0.063110   0.005683  -0.050002  -0.026448
   56  F  6  S    0.003967  -0.009752   0.004364  -0.001615   0.031076
   57  F  6  S   -0.026504   0.059772  -0.004673  -0.015706  -0.138470
   58  F  6  S    0.056136  -0.091038  -0.079467   0.118052  -0.113448
   59  F  6  X    0.070766  -0.062912  -0.031519   0.027806   0.045311
   60  F  6  Y    0.056330  -0.054980   0.000157  -0.100431   0.042496
   61  F  6  Z   -0.008073   0.033724  -0.080436   0.069858  -0.026970
   62  F  6  X    0.046276  -0.012881   0.080898  -0.043433   0.094255
   63  F  6  Y    0.059921  -0.013572   0.096488   0.003659  -0.161208
   64  F  6  Z   -0.019106  -0.039145  -0.049883   0.086049  -0.075423
   65  F  6 XX    0.000565   0.001949  -0.012514   0.000974   0.005218
   66  F  6 YY    0.005452   0.006085   0.013827   0.004130  -0.011736
   67  F  6 ZZ   -0.006017  -0.008035  -0.001313  -0.005103   0.006519
   68  F  6 XY    0.001932  -0.000616  -0.005420  -0.004968   0.019693
   69  F  6 XZ    0.007748   0.008930  -0.005082   0.001599   0.020496
   70  F  6 YZ    0.000172  -0.009365   0.002259   0.001171  -0.013545
   71  H  7  S   -0.255691   0.275499  -0.352069  -0.512876  -0.337369
   72  H  7  S    1.041434  -0.346889   1.857277   0.063281  -0.602028
   73  H  7  X   -0.024087   0.035672  -0.033237  -0.001588  -0.034045
   74  H  7  Y   -0.060557   0.030982  -0.082223  -0.034023   0.037622
   75  H  7  Z   -0.001748  -0.040787  -0.001101   0.011064   0.002450
   76  H  8  S    0.114828   0.734349  -0.122617  -0.243812  -0.350159
   77  H  8  S   -0.871963  -0.600396  -0.751370   1.425621  -0.834250
   78  H  8  X    0.004067  -0.024037  -0.009639   0.021185  -0.013567
   79  H  8  Y   -0.008702  -0.034492  -0.000544   0.053576   0.010447
   80  H  8  Z    0.041443   0.056102   0.022867  -0.062052   0.025870

                     36         37         38         39         40
                    0.9340     0.9626     0.9732     1.0307     1.1396
                     A          A          A          A          A   
    1  C  1  S   -0.011485  -0.000611   0.017419  -0.021023   0.023579
    2  C  1  S   -0.497500  -0.206124   0.528944  -0.070088   1.289983
    3  C  1  S    2.456692   0.773997  -2.685447   1.554883  -4.880413
    4  C  1  X    0.016045  -0.004328  -0.085044   0.150328   0.200835
    5  C  1  Y   -0.097959   0.085103   0.076468  -0.163758  -0.127668
    6  C  1  Z   -0.064293   0.030405  -0.004635  -0.137848  -0.023746
    7  C  1  X   -0.592184  -0.175138   0.669582  -0.331796   1.380567
    8  C  1  Y    0.174703  -0.097681  -0.090575  -0.051405   0.124507
    9  C  1  Z   -0.420373   0.234064   0.706381  -0.089102   0.824039
   10  C  1 XX    0.173674   0.020754   0.019701   0.011840   0.017435
   11  C  1 YY   -0.058636  -0.063080  -0.028042  -0.004071   0.009630
   12  C  1 ZZ   -0.115037   0.042327   0.008341  -0.007768  -0.027066
   13  C  1 XY    0.047542   0.128271   0.122954  -0.104944  -0.014546
   14  C  1 XZ   -0.091425  -0.036063  -0.024340  -0.043568  -0.075073
   15  C  1 YZ   -0.024218   0.178399  -0.040913   0.128590  -0.001668
   16  C  2  S    0.013798   0.005362  -0.018982   0.003579  -0.031698
   17  C  2  S    0.367717  -0.065316  -0.387455   0.513007  -1.252216
   18  C  2  S   -2.395027  -0.317028   2.892327  -1.138439   4.933621
   19  C  2  X    0.041902   0.087301  -0.157396  -0.131500   0.139766
   20  C  2  Y    0.156865   0.112980  -0.114601  -0.114297   0.085181
   21  C  2  Z   -0.128866  -0.063526   0.069993   0.129071  -0.007382
   22  C  2  X   -0.577640  -0.069821   0.687890  -0.364951   1.355896
   23  C  2  Y   -0.267690  -0.182206   0.077548  -0.138193   0.104314
   24  C  2  Z   -0.450365  -0.454186   0.392076  -0.371447   0.819067
   25  C  2 XX   -0.154853   0.068794   0.012877  -0.009842  -0.015071
   26  C  2 YY    0.030001  -0.108156  -0.055244  -0.010415  -0.013860
   27  C  2 ZZ    0.124851   0.039362   0.042367   0.020257   0.028931
   28  C  2 XY   -0.005489  -0.185858   0.075978   0.066247   0.005043
   29  C  2 XZ    0.090225  -0.007049  -0.028482  -0.055969   0.085630
   30  C  2 YZ   -0.009331  -0.077671  -0.169670  -0.081236   0.011508
   31  F  3  S   -0.027776  -0.025430   0.059264   0.025215   0.012443
   32  F  3  S    0.095294   0.114053  -0.288871  -0.131245  -0.055423
   33  F  3  S    0.182965   0.048281  -0.141730   0.097913  -0.286594
   34  F  3  X   -0.508548  -0.097998   0.064759   0.247575  -0.242493
   35  F  3  Y    0.171033  -0.451213   0.251812   0.229374  -0.174216
   36  F  3  Z   -0.065019  -0.264859  -0.510593  -0.255328   0.077405
   37  F  3  X    0.751322   0.230931  -0.340340  -0.402941   0.210301
   38  F  3  Y   -0.015613   0.632427  -0.507481  -0.362315   0.184767
   39  F  3  Z   -0.008076   0.256677   0.746211   0.395474  -0.085470
   40  F  3 XX    0.018620   0.001137  -0.000073   0.021682  -0.032962
   41  F  3 YY   -0.023101   0.008466   0.007224  -0.006592   0.013040
   42  F  3 ZZ    0.004481  -0.009603  -0.007151  -0.015090   0.019922
   43  F  3 XY    0.002408  -0.008453   0.005984   0.040003  -0.065076
   44  F  3 XZ    0.014167   0.027022  -0.010251  -0.014796   0.005157
   45  F  3 YZ    0.009037   0.001684  -0.001664  -0.021796   0.043889
   46  H  4  S    0.191461   0.006386  -0.264958   0.176508  -0.474614
   47  H  4  S    0.317775   0.108926  -0.111852   0.092095  -0.156913
   48  H  4  X    0.052104  -0.093926   0.018082   0.025397   0.004517
   49  H  4  Y    0.002229  -0.057565   0.009327   0.003647   0.017241
   50  H  4  Z   -0.039507  -0.047004  -0.096955  -0.037801  -0.025780
   51  H  5  S    0.150546  -0.056521  -0.300668   0.196512  -0.486429
   52  H  5  S    0.042364  -0.266037  -0.051881  -0.179611  -0.236090
   53  H  5  X   -0.084145   0.078888   0.015007   0.007599  -0.036411
   54  H  5  Y    0.006021   0.054076   0.086075   0.043352  -0.007033
   55  H  5  Z   -0.012152   0.002626  -0.051966  -0.015502  -0.029765
   56  F  6  S    0.020498   0.002639  -0.046826   0.058545  -0.006895
   57  F  6  S   -0.077831  -0.021124   0.242705  -0.335516  -0.001650
   58  F  6  S   -0.123231  -0.010323   0.085463   0.070170   0.305941
   59  F  6  X   -0.412886   0.175304   0.023811  -0.320688  -0.299452
   60  F  6  Y   -0.284762  -0.128973  -0.331850   0.356910   0.287431
   61  F  6  Z    0.006236   0.476451  -0.062153   0.356388   0.110373
   62  F  6  X    0.591696  -0.193353  -0.224061   0.598405   0.250728
[...]
   27  C  2 ZZ   -0.007858   0.005285  -0.010570  -0.004615   0.011150
   28  C  2 XY    0.003658   0.016378   0.000718  -0.011793   0.020791
   29  C  2 XZ   -0.007405  -0.003500   0.007363  -0.034332   0.050575
   30  C  2 YZ   -0.014173  -0.010030   0.005250   0.015367  -0.018892
   31  F  3  S   -0.035872  -0.048028   0.020811   0.001883  -0.007286
   32  F  3  S    0.065224   0.089497  -0.035663   0.013812   0.029848
   33  F  3  S    0.300991   0.416401  -0.192300  -0.091883  -0.002415
   34  F  3  X    0.136271   0.085239  -0.009116  -0.094388   0.100380
   35  F  3  Y    0.105459   0.112594   0.000952  -0.008631   0.008045
   36  F  3  Z   -0.055265  -0.034605   0.036249  -0.056695   0.086343
   37  F  3  X    0.167432   0.101478  -0.047996  -0.200852   0.100725
   38  F  3  Y    0.121461   0.166115   0.026118   0.004674   0.003993
   39  F  3  Z   -0.079425  -0.042267   0.073382  -0.106536   0.133078
   40  F  3 XX    0.002019   0.003094   0.000172   0.004820   0.001638
   41  F  3 YY    0.000643  -0.004002  -0.004167   0.003145  -0.003186
   42  F  3 ZZ   -0.002662   0.000908   0.003995  -0.007965   0.001548
   43  F  3 XY   -0.003109  -0.001083  -0.004413   0.003402  -0.000034
   44  F  3 XZ    0.002174  -0.001977  -0.002274  -0.006274   0.006871
   45  F  3 YZ    0.002675   0.000268  -0.000141   0.006972   0.000460
   46  H  4  S    0.081543  -0.036167   0.025007   0.098479  -0.236765
   47  H  4  S    0.824344   0.641892   1.448691   0.764049   0.051993
   48  H  4  X   -0.002352   0.011515  -0.012975   0.004748  -0.006514
   49  H  4  Y    0.011296   0.011840   0.009735   0.013353  -0.004410
   50  H  4  Z   -0.007549  -0.008714  -0.002081   0.017993  -0.023495
   51  H  5  S    0.001025   0.021632  -0.015630   0.076117  -0.266898
   52  H  5  S    0.786226  -1.069688  -1.035145   0.180799  -0.213841
   53  H  5  X    0.008542  -0.000110  -0.006925   0.019140  -0.019585
   54  H  5  Y    0.001935   0.013773  -0.001546  -0.011915   0.012228
   55  H  5  Z   -0.010477   0.008649   0.012432   0.005040  -0.018417
   56  F  6  S    0.035853  -0.047380  -0.021727  -0.001527  -0.007230
   57  F  6  S   -0.065172   0.088362   0.037374  -0.014248   0.030711
   58  F  6  S   -0.300751   0.410339   0.200199   0.087344  -0.008094
   59  F  6  X    0.139388  -0.088181  -0.011340  -0.093810  -0.102776
   60  F  6  Y   -0.108060   0.112706   0.005840  -0.002706  -0.005529
   61  F  6  Z   -0.040017   0.017789   0.036573  -0.057971  -0.085833
   62  F  6  X    0.171044  -0.105367  -0.049897  -0.199177  -0.099027
   63  F  6  Y   -0.126478   0.166348  -0.014184  -0.026210  -0.017110
   64  F  6  Z   -0.061744   0.017239   0.076694  -0.105723  -0.132235
   65  F  6 XX   -0.001878   0.003000   0.000066  -0.005036   0.001251
   66  F  6 YY   -0.000109  -0.003975   0.003702  -0.001087  -0.003058
   67  F  6 ZZ    0.001987   0.000975  -0.003768   0.006123   0.001808
   68  F  6 XY   -0.003453   0.001107  -0.004188   0.004079   0.001458
   69  F  6 XZ   -0.001790  -0.002186   0.002852   0.005462   0.006908
   70  F  6 YZ    0.003015   0.000507  -0.001311   0.008595   0.000380
   71  H  7  S   -0.082034  -0.036178  -0.026137  -0.097085  -0.235417
   72  H  7  S   -0.831913   0.660096  -1.438442  -0.764734   0.052422
   73  H  7  X   -0.002040  -0.011602  -0.012913   0.005195   0.006583
   74  H  7  Y   -0.012363   0.012624  -0.010084  -0.010727  -0.001115
   75  H  7  Z   -0.006011   0.007070  -0.000629   0.019554   0.023706
   76  H  8  S   -0.000337   0.021449   0.016222  -0.075416  -0.263626
   77  H  8  S   -0.777168  -1.089236   1.019139  -0.181204  -0.214501
   78  H  8  X    0.008547  -0.000052  -0.006995   0.018826   0.019341
   79  H  8  Y   -0.003077   0.012374   0.003236   0.012930   0.015144
   80  H  8  Z   -0.010020  -0.010637   0.011978   0.003317   0.016729

                     26         27
                    0.3907     0.3951
                     A          A   
    1  C  1  S    0.034367  -0.034295
    2  C  1  S   -0.260403   0.264467
    3  C  1  S    0.212776  -0.205119
    4  C  1  X   -0.371113   0.392329
    5  C  1  Y    0.460675  -0.362438
    6  C  1  Z    0.195391  -0.295515
    7  C  1  X    0.335272  -0.528775
    8  C  1  Y   -0.807635   0.547975
    9  C  1  Z   -0.406200   0.490055
   10  C  1 XX    0.013846  -0.002250
   11  C  1 YY   -0.006900  -0.027172
   12  C  1 ZZ   -0.006946   0.029422
   13  C  1 XY   -0.022136   0.023776
   14  C  1 XZ   -0.035461   0.008001
   15  C  1 YZ   -0.001267  -0.013006
   16  C  2  S   -0.033694  -0.035087
   17  C  2  S    0.254809   0.269672
   18  C  2  S   -0.214174  -0.208495
   19  C  2  X   -0.354029  -0.388863
   20  C  2  Y   -0.435863  -0.338714
   21  C  2  Z    0.247004   0.347413
   22  C  2  X    0.307256   0.520182
   23  C  2  Y    0.746992   0.502471
   24  C  2  Z   -0.490657  -0.569099
   25  C  2 XX   -0.012928  -0.001386
   26  C  2 YY    0.006549  -0.024028
   27  C  2 ZZ    0.006378   0.025413
   28  C  2 XY   -0.017813  -0.022109
   29  C  2 XZ    0.037672   0.011350
   30  C  2 YZ   -0.000193   0.021759
   31  F  3  S   -0.000601  -0.002171
   32  F  3  S   -0.070557  -0.057104
   33  F  3  S    0.399986   0.388267
   34  F  3  X   -0.188031  -0.142158
   35  F  3  Y   -0.112409  -0.190740
   36  F  3  Z    0.124856   0.087648
   37  F  3  X    0.064266   0.023572
   38  F  3  Y   -0.004909   0.020318
   39  F  3  Z    0.003803  -0.001085
   40  F  3 XX    0.016058   0.005307
   41  F  3 YY   -0.005231   0.002626
   42  F  3 ZZ   -0.010827  -0.007932
   43  F  3 XY    0.025650   0.037086
   44  F  3 XZ   -0.022880  -0.019511
   45  F  3 YZ   -0.022681  -0.016362
   46  H  4  S   -0.030882  -0.234216
   47  H  4  S   -0.111918  -0.023406
   48  H  4  X   -0.022771  -0.003629
   49  H  4  Y    0.003843  -0.001101
   50  H  4  Z   -0.020255   0.015661
   51  H  5  S   -0.222269   0.060743
   52  H  5  S   -0.045643  -0.067524
   53  H  5  X    0.000822  -0.019369
   54  H  5  Y   -0.005974  -0.003075
   55  H  5  Z    0.008648  -0.022468
   56  F  6  S    0.000765  -0.002281
   57  F  6  S    0.071089  -0.055520
   58  F  6  S   -0.407010   0.381765
   59  F  6  X   -0.193069   0.144167
   60  F  6  Y    0.126242  -0.194022
   61  F  6  Z    0.110393  -0.058982
   62  F  6  X    0.065736  -0.023894
   63  F  6  Y    0.006767   0.019958
   64  F  6  Z    0.004346  -0.001437
   65  F  6 XX   -0.017622   0.007008
   66  F  6 YY    0.001484   0.004217
   67  F  6 ZZ    0.016138  -0.011225
   68  F  6 XY    0.028575  -0.038757
   69  F  6 XZ    0.020000  -0.014344
   70  F  6 YZ   -0.020624   0.013326
   71  H  7  S    0.037839  -0.234456
   72  H  7  S    0.111345  -0.022677
   73  H  7  X   -0.022692   0.003341
   74  H  7  Y   -0.007056  -0.003173
   75  H  7  Z   -0.019485  -0.015660
   76  H  8  S    0.223652   0.065673
   77  H  8  S    0.049701  -0.066633
   78  H  8  X    0.000039   0.019451
   79  H  8  Y    0.006894   0.000713
   80  H  8  Z    0.007116   0.022754

     ---------------------------------------------------------------------
     PROPERTIES FOR THE PBE      DFT FUNCTIONAL (RHF  TYPE) DENSITY MATRIX
     ---------------------------------------------------------------------

          -----------------
          ENERGY COMPONENTS
          -----------------

         WAVEFUNCTION NORMALIZATION =       1.0000000000

                ONE ELECTRON ENERGY =    -632.3325302744
                TWO ELECTRON ENERGY =     229.1317752815
           NUCLEAR REPULSION ENERGY =     125.2655685421
                                      ------------------
                       TOTAL ENERGY =    -277.9351864507

 ELECTRON-ELECTRON POTENTIAL ENERGY =     229.1317752815
  NUCLEUS-ELECTRON POTENTIAL ENERGY =    -909.4075855353
   NUCLEUS-NUCLEUS POTENTIAL ENERGY =     125.2655685421
                                      ------------------
             TOTAL POTENTIAL ENERGY =    -555.0102417117
               TOTAL KINETIC ENERGY =     277.0750552609
                 VIRIAL RATIO (V/T) =       2.0031043256

          ---------------------------------------
          MULLIKEN AND LOWDIN POPULATION ANALYSES
          ---------------------------------------

     ATOMIC MULLIKEN POPULATION IN EACH MOLECULAR ORBITAL

                      1          2          3          4          5

                  2.000000   2.000000   2.000000   2.000000   2.000000

    1            -0.000092   0.001228   0.224130   1.775627   0.107647
    2             0.001222  -0.000084   1.775317   0.224437   0.116136
    3             1.989836   0.009036  -0.000456  -0.000050   0.924115
    4            -0.000013   0.000000   0.000344  -0.000010   0.003191
    5            -0.000006   0.000010   0.000434  -0.000019   0.006299
    6             0.009041   1.989832  -0.000062  -0.000441   0.833546
    7             0.000000  -0.000013   0.000108   0.000226   0.002917
    8             0.000012  -0.000009   0.000185   0.000229   0.006148

                      6          7          8          9         10

                  2.000000   2.000000   2.000000   2.000000   2.000000

    1             0.089997   0.711179   0.475406   0.473499   0.372244
    2             0.081807   0.711448   0.475034   0.397219   0.455033
    3             0.865181   0.155171   0.260279   0.570666   0.248486
    4             0.002409   0.073089   0.118667   0.129989   0.059048
    5             0.000747   0.060899   0.145712   0.010884   0.138497
    6             0.956241   0.154397   0.260019   0.191455   0.618149
    7             0.002699   0.073075   0.118848   0.161879   0.025427
    8             0.000919   0.060741   0.146035   0.064409   0.083116

                     11         12         13         14         15

                  2.000000   2.000000   2.000000   2.000000   2.000000

    1             0.426375   0.299922   0.351522   0.053497   0.126701
    2             0.426377   0.298222   0.347090   0.053049   0.129730
    3             0.546364   0.484875   0.436819   0.916285   0.655376
    4             0.024448   0.201595   0.001894   0.016086   0.050856
    5             0.002522   0.013310   0.207865   0.013729   0.175854
    6             0.547004   0.486331   0.442105   0.917708   0.640115
    7             0.024367   0.203441   0.001818   0.016027   0.048536
    8             0.002543   0.012305   0.210886   0.013618   0.172832

                     16         17

                  2.000000   2.000000

    1             0.144800   0.244494
    2             0.143283   0.242880
    3             0.630945   0.637167
    4             0.132858   0.089851
    5             0.083099   0.027266
    6             0.646934   0.638067
    7             0.130334   0.094885
    8             0.087747   0.025390

               ----- POPULATIONS IN EACH AO -----
                             MULLIKEN      LOWDIN
              1  C  1  S      1.99340     1.97168
              2  C  1  S      0.76019     0.38604
              3  C  1  S      0.37319     0.28063
              4  C  1  X      0.65484     0.59926
              5  C  1  Y      0.67257     0.60734
              6  C  1  Z      0.73745     0.66747
              7  C  1  X      0.15393     0.26400
              8  C  1  Y      0.20996     0.32096
              9  C  1  Z      0.26004     0.35345
             10  C  1 XX      0.01183     0.16220
             11  C  1 YY      0.01541     0.16116
             12  C  1 ZZ      0.01586     0.15893
             13  C  1 XY      0.01331     0.03073
             14  C  1 XZ      0.00620     0.02742
             15  C  1 YZ      0.00000     0.01165
             16  C  2  S      1.99340     1.97167
             17  C  2  S      0.76011     0.38596
             18  C  2  S      0.37311     0.28065
             19  C  2  X      0.66110     0.60449
             20  C  2  Y      0.68399     0.61715
             21  C  2  Z      0.72006     0.65290
             22  C  2  X      0.15845     0.26832
             23  C  2  Y      0.22076     0.33008
             24  C  2  Z      0.24452     0.33984
             25  C  2 XX      0.01138     0.16147
             26  C  2 YY      0.01430     0.15900
             27  C  2 ZZ      0.01515     0.15784
             28  C  2 XY      0.01420     0.02971
             29  C  2 XZ      0.00768     0.02909
             30  C  2 YZ      0.00000     0.01594
             31  F  3  S      1.99544     1.97164
             32  F  3  S      0.94931     0.75182
             33  F  3  S      0.99762     0.52579
             34  F  3  X      1.09721     1.05755
             35  F  3  Y      1.14158     1.10593
             36  F  3  Z      1.17379     1.14011
             37  F  3  X      0.63121     0.66077
             38  F  3  Y      0.65554     0.68831
             39  F  3  Z      0.67807     0.70690
             40  F  3 XX      0.00138     0.19268
             41  F  3 YY      0.00209     0.19132
             42  F  3 ZZ      0.00300     0.19048
             43  F  3 XY      0.00223     0.00375
             44  F  3 XZ      0.00162     0.00293
             45  F  3 YZ      0.00000     0.00224
             46  H  4  S      0.77201     0.65129
             47  H  4  S      0.11548     0.21530
             48  H  4  X      0.00388     0.00886
             49  H  4  Y      0.00978     0.02056
             50  H  4  Z      0.00315     0.00834
             51  H  5  S      0.76307     0.64395
             52  H  5  S      0.10710     0.21673
             53  H  5  X      0.00300     0.00817
             54  H  5  Y      0.00386     0.00855
             55  H  5  Z      0.01007     0.02159
             56  F  6  S      1.99544     1.97164
             57  F  6  S      0.94933     0.75188
             58  F  6  S      0.99775     0.52596
             59  F  6  X      1.08949     1.04932
             60  F  6  Y      1.12915     1.09247
             61  F  6  Z      1.19372     1.16171
             62  F  6  X      0.62694     0.65723
             63  F  6  Y      0.64876     0.68259
             64  F  6  Z      0.68956     0.71659
             65  F  6 XX      0.00137     0.19299
             66  F  6 YY      0.00223     0.19176
             67  F  6 ZZ      0.00334     0.18996
             68  F  6 XY      0.00195     0.00410
             69  F  6 XZ      0.00141     0.00266
             70  F  6 YZ      0.00000     0.00203
             71  H  7  S      0.77210     0.65167
             72  H  7  S      0.11567     0.21535
             73  H  7  X      0.00368     0.00848
             74  H  7  Y      0.01003     0.02106
             75  H  7  Z      0.00310     0.00820
             76  H  8  S      0.76303     0.64463
             77  H  8  S      0.10714     0.21676
             78  H  8  X      0.00292     0.00798
             79  H  8  Y      0.00320     0.00737
             80  H  8  Z      0.01081     0.02303

          ----- MULLIKEN ATOMIC OVERLAP POPULATIONS -----
          (OFF-DIAGONAL ELEMENTS NEED TO BE MULTIPLIED BY 2)

             1           2           3           4           5

    1    4.6238853
    2    0.3877998   4.6239570
    3   -0.0404356   0.2408140   9.1786057
    4   -0.0328638   0.3657119  -0.0300524   0.6242256
    5   -0.0428831   0.3760362  -0.0274006  -0.0296797   0.5933068
    6    0.2408235  -0.0402290   0.0006368   0.0037358   0.0041762
    7    0.3655147  -0.0329841   0.0037626   0.0005803   0.0026857
    8    0.3763360  -0.0429045   0.0041650   0.0026455   0.0108596

             6           7           8

    6    9.1787968
    7   -0.0300448   0.6247540
    8   -0.0274548  -0.0296928   0.5931527

          TOTAL MULLIKEN AND LOWDIN ATOMIC POPULATIONS
       ATOM         MULL.POP.    CHARGE          LOW.POP.     CHARGE
    1 C             5.878177    0.121823         6.002923   -0.002923
    2 C             5.878201    0.121799         6.004100   -0.004100
    3 F             9.330095   -0.330095         9.192216   -0.192216
    4 H             0.904303    0.095697         0.904338    0.095662
    5 H             0.887101    0.112899         0.898991    0.101009
    6 F             9.330440   -0.330440         9.192882   -0.192882
    7 H             0.904576    0.095424         0.904768    0.095232
    8 H             0.887107    0.112893         0.899783    0.100217

          MULLIKEN SPHERICAL HARMONIC POPULATIONS
       ATOM           S       P       D      F      G      H      I    TOTAL
    1 C             3.13    2.69    0.06   0.00   0.00   0.00   0.00    5.88
    2 C             3.13    2.69    0.06   0.00   0.00   0.00   0.00    5.88
    3 F             3.94    5.38    0.01   0.00   0.00   0.00   0.00    9.33
    4 H             0.89    0.02    0.00   0.00   0.00   0.00   0.00    0.90
    5 H             0.87    0.02    0.00   0.00   0.00   0.00   0.00    0.89
    6 F             3.94    5.38    0.01   0.00   0.00   0.00   0.00    9.33
    7 H             0.89    0.02    0.00   0.00   0.00   0.00   0.00    0.90
    8 H             0.87    0.02    0.00   0.00   0.00   0.00   0.00    0.89

          -------------------------------
          BOND ORDER AND VALENCE ANALYSIS     BOND ORDER THRESHOLD=0.050
          -------------------------------

                   BOND                       BOND                       BOND
  ATOM PAIR DIST  ORDER      ATOM PAIR DIST  ORDER      ATOM PAIR DIST  ORDER
    1   2  1.516  1.039        1   6  1.401  0.914        1   7  1.108  0.940
    1   8  1.107  0.937        2   3  1.401  0.914        2   4  1.108  0.940
    2   5  1.107  0.937

                       TOTAL       BONDED        FREE
      ATOM            VALENCE     VALENCE     VALENCE
    1 C                 3.838       3.838      -0.000
    2 C                 3.838       3.838       0.000
    3 F                 0.977       0.977       0.000
    4 H                 0.956       0.956       0.000
    5 H                 0.968       0.968       0.000
    6 F                 0.976       0.976      -0.000
    7 H                 0.956       0.956      -0.000
    8 H                 0.968       0.968      -0.000

          ---------------------
          ELECTROSTATIC MOMENTS
          ---------------------

 POINT   1           X           Y           Z (BOHR)    CHARGE
                -0.000000    0.000000    0.000000       -0.00 (A.U.)
         DX          DY          DZ         /D/  (DEBYE)
    -0.034989    2.100574   -0.143613    2.105768
 ...... END OF PROPERTY EVALUATION ......
 STEP CPU TIME =     0.02 TOTAL CPU TIME =         91.2 (      1.5 MIN)
 TOTAL WALL CLOCK TIME=         91.6 SECONDS, CPU UTILIZATION IS    99.50%
  $VIB   
          IVIB=   0 IATOM=   0 ICOORD=   0 E=     -277.9351864507
  5.620939396E-05 5.909886918E-06-5.386458050E-05-7.707420012E-05 7.927734754E-05
  4.387238819E-05 2.362827679E-05-4.306735254E-05 3.875354985E-06 2.161646793E-05
  3.699268245E-06-2.710882744E-05 1.287069899E-05-2.047453167E-05 9.395932501E-07
 -9.291677204E-06-1.450585548E-05 1.431395457E-05-1.165277535E-05 1.019079639E-06
  1.683874194E-05-1.630618500E-05-1.185784265E-05 1.133374999E-06
 -3.498889487E-02 2.100573794E+00-1.436127208E-01
 ......END OF GEOMETRY SEARCH......
 STEP CPU TIME =     0.01 TOTAL CPU TIME =         91.2 (      1.5 MIN)
 TOTAL WALL CLOCK TIME=         91.6 SECONDS, CPU UTILIZATION IS    99.50%
                991181  WORDS OF DYNAMIC MEMORY USED
 EXECUTION OF GAMESS TERMINATED NORMALLY Sun Oct  6 23:36:34 2019
 DDI: 263640 bytes (0.3 MB / 0 MWords) used by master data server.

 ----------------------------------------
 CPU timing information for all processes
 ========================================
 0: 89.561 + 1.607 = 91.168
 ----------------------------------------
 ddikick.x: exited gracefully.
----- accounting info -----
Files used on the master node d12chas543.crc.nd.edu were:
-rw-r--r-- 1 wschnei1 campus 378327 Oct  6 23:36 /scratch365/wschnei1/100-PC1.F07
Sun Oct  6 23:36:37 EDT 2019
0.454u 0.372s 1:35.36 0.8%	0+0k 0+40io 0pf+0w
