----- GAMESS execution script 'rungms' -----
This job is running on host d12chas543.crc.nd.edu
under operating system Linux at Sun Oct 6 23:36:37 EDT 2019
SGE has assigned the following compute nodes to this run:
Available scratch disk space (Kbyte units) at beginning of the job is
Filesystem      1K-blocks     Used  Available Use% Mounted on
/dev/sda2      1949705068 64509164 1885195904   4% /
GAMESS temporary binary files will be written to /tmp/474112.1.debug
GAMESS supplementary output files will be written to /afs/crc.nd.edu/user/w/wschnei1/scr
Copying input file 110-PC1.inp to your run's scratch directory...
reading your own /afs/crc.nd.edu/user/w/wschnei1/.gmsrc

 Distributed Data Interface kickoff program.
 Initiating 1 compute processes on 1 nodes to run the following command:
 /afs/crc.nd.edu/x86_64_linux/g/gamess/nov-2017/gamess/gamess.00.x 110-PC1 

          ******************************************************
          *         GAMESS VERSION = 11 NOV 2017 (R3)         *
          *             FROM IOWA STATE UNIVERSITY             *
          * M.W.SCHMIDT, K.K.BALDRIDGE, J.A.BOATZ, S.T.ELBERT, *
          *   M.S.GORDON, J.H.JENSEN, S.KOSEKI, N.MATSUNAGA,   *
          *          K.A.NGUYEN, S.J.SU, T.L.WINDUS,           *
          *       TOGETHER WITH M.DUPUIS, J.A.MONTGOMERY       *
          *         J.COMPUT.CHEM.  14, 1347-1363(1993)        *
          **************** 64 BIT INTEL VERSION ****************

  SINCE 1993, STUDENTS AND POSTDOCS WORKING AT IOWA STATE UNIVERSITY
  AND ALSO IN THEIR VARIOUS JOBS AFTER LEAVING ISU HAVE MADE IMPORTANT
  CONTRIBUTIONS TO THE CODE:
     IVANA ADAMOVIC, CHRISTINE AIKENS, YURI ALEXEEV, POOJA ARORA,
     ANDREY ASADCHEV, ROB BELL, PRADIPTA BANDYOPADHYAY, JONATHAN BENTZ,
     BRETT BODE, KURT BRORSEN, CALEB CARLIN, GALINA CHABAN, WEI CHEN,
     CHEOL HO CHOI, PAUL DAY, ALBERT DEFUSCO, NUWAN DESILVA, TIM DUDLEY,
     DMITRI FEDOROV, ALEX FINDLATER, GRAHAM FLETCHER, MARK FREITAG,
     KURT GLAESEMANN, ANASTASIA GUININA,
     DAN KEMP, GRANT MERRILL, NORIYUKI MINEZAWA, JONATHAN MULLIN,
     TAKESHI NAGATA, SEAN NEDD, HEATHER NETZLOFF, BOSILJKA NJEGIC, RYAN OLSON,
     MIKE PAK, BUU PHAM,
     SPENCER PRUITT, LUKE ROSKOP, JIM SHOEMAKER, LYUDMILA SLIPCHENKO,
     TONY SMITH, SAROM SOK LEANG, JIE SONG, TETSUYA TAKETSUGU, SIMON WEBB,
     PENG XU, SOOHAENG YOO, FEDERICO ZAHARIEV

  ADDITIONAL CODE HAS BEEN PROVIDED BY COLLABORATORS IN OTHER GROUPS:
     IOWA STATE UNIVERSITY:
          JOE IVANIC, AARON WEST, LAIMUTIS BYTAUTAS, KLAUS RUEDENBERG
     UNIVERSITY OF TOKYO: KIMIHIKO HIRAO, TAKAHITO NAKAJIMA,
          TAKAO TSUNEDA, MUNEAKI KAMIYA, SUSUMU YANAGISAWA,
          KIYOSHI YAGI, MAHITO CHIBA, SEIKEN TOKURA, NAOAKI KAWAKAMI
     UNIVERSITY OF AARHUS: FRANK JENSEN
     UNIVERSITY OF IOWA: VISVALDAS KAIRYS, HUI LI
     NATIONAL INST. OF STANDARDS AND TECHNOLOGY: WALT STEVENS, DAVID GARMER
     UNIVERSITY OF PISA: BENEDETTA MENNUCCI, JACOPO TOMASI
     UNIVERSITY OF MEMPHIS: HENRY KURTZ, PRAKASHAN KORAMBATH
     UNIVERSITY OF ALBERTA: TOBY ZENG, MARIUSZ KLOBUKOWSKI
     UNIVERSITY OF NEW ENGLAND: MARK SPACKMAN
     MIE UNIVERSITY: HIROAKI UMEDA
     NAT. INST. OF ADVANCED INDUSTRIAL SCIENCE AND TECHNOLOGY: KAZUO KITAURA
     MICHIGAN STATE UNIVERSITY:
          KAROL KOWALSKI, MARTA WLOCH, JEFFREY GOUR, JESSE LUTZ,
          WEI LI, PIOTR PIECUCH
     UNIVERSITY OF SILESIA: MONIKA MUSIAL, STANISLAW KUCHARSKI
     FACULTES UNIVERSITAIRES NOTRE-DAME DE LA PAIX:
          OLIVIER QUINET, BENOIT CHAMPAGNE
     UNIVERSITY OF CALIFORNIA - SANTA BARBARA: BERNARD KIRTMAN
     INSTITUTE FOR MOLECULAR SCIENCE:
          KAZUYA ISHIMURA, MICHIO KATOUDA, AND SHIGERU NAGASE
     UNIVERSITY OF NOTRE DAME: ANNA POMOGAEVA, DAN CHIPMAN
     KYUSHU UNIVERSITY:
          HARUYUKI NAKANO,
          FENG LONG GU, JACEK KORCHOWIEC, MARCIN MAKOWSKI, AND YURIKO AOKI,
          HIROTOSHI MORI AND EISAKU MIYOSHI
     PENNSYLVANIA STATE UNIVERSITY:
          TZVETELIN IORDANOV, CHET SWALINA, JONATHAN SKONE,
          SHARON HAMMES-SCHIFFER
     WASEDA UNIVERSITY:
          MASATO KOBAYASHI, TOMOKO AKAMA, TSUGUKI TOUMA,
          TAKESHI YOSHIKAWA, YASUHIRO IKABATA, JUNJI SEINO,
          YUYA NAKAJIMA, HIROMI NAKAI
     NANJING UNIVERSITY: SHUHUA LI
     UNIVERSITY OF NEBRASKA:
          PEIFENG SU, DEJUN SI, NANDUN THELLAMUREGE, YALI WANG, HUI LI
     UNIVERSITY OF ZURICH: ROBERTO PEVERATI, KIM BALDRIDGE
     N. COPERNICUS UNIVERSITY AND JACKSON STATE UNIVERSITY:
          MARIA BARYSZ
     UNIVERSITY OF COPENHAGEN: Jimmy Kromann, CASPER STEINMANN
     TOKYO INSTITUTE OF TECHNOLOGY: HIROYA NAKATA
     NAGOYA UNIVERSITY: YOSHIO NISHIMOTO, STEPHAN IRLE
     MOSCOW STATE UNIVERSITY: VLADIMIR MIRONOV

 EXECUTION OF GAMESS BEGUN Sun Oct  6 23:36:38 2019

            ECHO OF THE FIRST FEW INPUT CARDS -
 INPUT CARD> $CONTRL SCFTYP=RHF DFTTYP=PBE RUNTYP=OPTIMIZE COORD=ZMT NZVAR=18 ISPHER=1 $END 
 INPUT CARD> $BASIS GBASIS=PCseg-1 $END                                                     
 INPUT CARD> $STATPT IFREEZ(1)=12 $END                                                      
 INPUT CARD> $DATA                                                                          
 INPUT CARD>FCH2CH2F eclipsed TS                                                            
 INPUT CARD>C1                                                                              
 INPUT CARD>C                                                                               
 INPUT CARD>C   1   r1                                                                      
 INPUT CARD>F   2   r2   1   A1                                                             
 INPUT CARD>H   2   r3   1   A2   3   D1                                                    
 INPUT CARD>H   2   r4   1   A3   3   D2                                                    
 INPUT CARD>F   1   r5   2   A4   3   D3                                                    
 INPUT CARD>H   1   r6   2   A5   6   D4                                                    
 INPUT CARD>H   1   r7   2   A6   6   D5                                                    
 INPUT CARD>                                                                                
 INPUT CARD>r1=1.5                                                                          
 INPUT CARD>r2=1.4                                                                          
 INPUT CARD>r3=1.1                                                                          
 INPUT CARD>r4=1.1                                                                          
 INPUT CARD>r5=1.5                                                                          
 INPUT CARD>r6=1.1                                                                          
 INPUT CARD>r7=1.1                                                                          
 INPUT CARD>A1=109.54214                                                                    
 INPUT CARD>A2=109.54214                                                                    
 INPUT CARD>A3=109.54214                                                                    
 INPUT CARD>A4=109.54214                                                                    
 INPUT CARD>A5=109.54214                                                                    
 INPUT CARD>A6=109.54214                                                                    
 INPUT CARD>D1=120.                                                                         
 INPUT CARD>D2=-120.                                                                        
 INPUT CARD>D3=110                                                                          
 INPUT CARD>D4=120.                                                                         
 INPUT CARD>D5=-120.                                                                        
 INPUT CARD> $END                                                                           
 INPUT CARD>                                                                                
    1000000 WORDS OF MEMORY AVAILABLE

     BASIS OPTIONS
     -------------
     GBASIS=PCSEG-1      IGAUSS=       0      POLAR=NONE    
     NDFUNC=       0     NFFUNC=       0     DIFFSP=       F
     NPFUNC=       0      DIFFS=       F     BASNAM=        


     RUN TITLE
     ---------
 FCH2CH2F eclipsed TS                                                            

 THE POINT GROUP OF THE MOLECULE IS C1      
 THE ORDER OF THE PRINCIPAL AXIS IS     0

 YOUR FULLY SUBSTITUTED Z-MATRIX IS
 C   
 C      1   1.5000000
 F      2   1.4000000  1  109.5421
 H      2   1.1000000  1  109.5421  3  120.0000  0
 H      2   1.1000000  1  109.5421  3 -120.0000  0
 F      1   1.5000000  2  109.5421  3  110.0000  0
 H      1   1.1000000  2  109.5421  6  120.0000  0
 H      1   1.1000000  2  109.5421  6 -120.0000  0

 THE MOMENTS OF INERTIA ARE (AMU-ANGSTROM**2)
 IXX=    24.046   IYY=   125.917   IZZ=   128.956

 ATOM      ATOMIC                      COORDINATES (BOHR)
           CHARGE         X                   Y                   Z
 C           6.0     1.0662381300        0.9543950332        0.7620403421
 C           6.0    -1.1814605770        0.6702905017       -0.9414941694
 F           9.0    -3.0959424444       -0.6397140046        0.3304859475
 H           1.0    -1.8788414007        2.5496159868       -1.4917518559
 H           1.0    -0.6339257979       -0.3888182933       -2.6442807207
 F           9.0     3.1835145617       -0.6769247378       -0.1817981035
 H           1.0     1.6794988215        2.9405027081        0.7786367743
 H           1.0     0.5543898528        0.3736610886        2.6912233921

          INTERNUCLEAR DISTANCES (ANGS.)
          ------------------------------

                1 C          2 C          3 F          4 H          5 H     

   1 C       0.0000000    1.5000000 *  2.3695781 *  2.1363170 *  2.1363170 *
   2 C       1.5000000 *  0.0000000    1.4000000 *  1.1000000 *  1.1000000 *
   3 F       2.3695781 *  1.4000000 *  0.0000000    2.0476979 *  2.0476979 *
   4 H       2.1363170 *  1.1000000 *  2.0476979 *  0.0000000    1.7955050 *
   5 H       2.1363170 *  1.1000000 *  2.0476979 *  1.7955050 *  0.0000000  
   6 F       1.5000000 *  2.4505612 *  3.3340434    3.2514913    2.4087551 *
   7 H       1.1000000 *  2.1363170 *  3.1672764    2.2431899 *  2.8077666 *
   8 H       1.1000000 *  2.1363170 *  2.3621074 *  2.8077666 *  2.9206113 *

                6 F          7 H          8 H     

   1 C       1.5000000 *  1.1000000 *  1.1000000 *
   2 C       2.4505612 *  2.1363170 *  2.1363170 *
   3 F       3.3340434    3.1672764    2.3621074 *
   4 H       3.2514913    2.2431899 *  2.8077666 *
   5 H       2.4087551 *  2.8077666 *  2.9206113 *
   6 F       0.0000000    2.1345124 *  2.1345124 *
   7 H       2.1345124 *  0.0000000    1.7955050 *
   8 H       2.1345124 *  1.7955050 *  0.0000000  

  * ... LESS THAN  3.000


     ATOMIC BASIS SET
     ----------------
 THE CONTRACTED PRIMITIVE FUNCTIONS HAVE BEEN UNNORMALIZED
 THE CONTRACTED BASIS FUNCTIONS ARE NOW NORMALIZED TO UNITY

  SHELL TYPE  PRIMITIVE        EXPONENT          CONTRACTION COEFFICIENT(S)

 C         

      1   S       1          1243.2000000    0.005630097702
      1   S       2           187.1450000    0.041950603854
      1   S       3            42.5126000    0.184664360492
      1   S       4            11.7393000    0.466557421368
      1   S       5             3.5054800    0.448234778316

      2   S       6             5.3908900   -0.148114817444
      2   S       7             0.4933410    1.051981714281

      3   S       8             0.1497410    1.000000000000

      4   P       9             9.1805600    0.063992052045
      4   P      10             1.9365800    0.333521296407
      4   P      11             0.5262960    0.741161730513

      5   P      12             0.1363190    1.000000000000

      6   D      13             0.8000000    1.000000000000

 C         

      7   S      14          1243.2000000    0.005630097702
      7   S      15           187.1450000    0.041950603854
      7   S      16            42.5126000    0.184664360492
      7   S      17            11.7393000    0.466557421368
      7   S      18             3.5054800    0.448234778316

      8   S      19             5.3908900   -0.148114817444
      8   S      20             0.4933410    1.051981714281

      9   S      21             0.1497410    1.000000000000

     10   P      22             9.1805600    0.063992052045
     10   P      23             1.9365800    0.333521296407
     10   P      24             0.5262960    0.741161730513

     11   P      25             0.1363190    1.000000000000

     12   D      26             0.8000000    1.000000000000

 F         

     13   S      27          2931.5500000    0.005390132259
     13   S      28           441.1250000    0.040296704072
     13   S      29           100.2320000    0.180202178717
     13   S      30            27.8655000    0.465064284210
     13   S      31             8.4447000    0.452433138251

     14   S      32            13.6123000   -0.151660908297
     14   S      33             1.2612200    1.053515343452

     15   S      34             0.3708000    1.000000000000

     16   P      35            21.9305000    0.070356827475
     16   P      36             4.7855200    0.356742371235
     16   P      37             1.2837800    0.719732016372

     17   P      38             0.3115580    1.000000000000

     18   D      39             1.1000000    1.000000000000

 H         

     19   S      40            12.2518000    0.037217389296
     19   S      41             1.8687100    0.253808206955
     19   S      42             0.4182080    0.797386763917

     20   S      43             0.1061000    1.000000000000

     21   P      44             1.0000000    1.000000000000

 H         

     22   S      45            12.2518000    0.037217389296
     22   S      46             1.8687100    0.253808206955
     22   S      47             0.4182080    0.797386763917

     23   S      48             0.1061000    1.000000000000

     24   P      49             1.0000000    1.000000000000

 F         

     25   S      50          2931.5500000    0.005390132259
     25   S      51           441.1250000    0.040296704072
     25   S      52           100.2320000    0.180202178717
     25   S      53            27.8655000    0.465064284210
     25   S      54             8.4447000    0.452433138251

     26   S      55            13.6123000   -0.151660908297
     26   S      56             1.2612200    1.053515343452

     27   S      57             0.3708000    1.000000000000

     28   P      58            21.9305000    0.070356827475
     28   P      59             4.7855200    0.356742371235
     28   P      60             1.2837800    0.719732016372

     29   P      61             0.3115580    1.000000000000

     30   D      62             1.1000000    1.000000000000

 H         

     31   S      63            12.2518000    0.037217389296
     31   S      64             1.8687100    0.253808206955
     31   S      65             0.4182080    0.797386763917

     32   S      66             0.1061000    1.000000000000

     33   P      67             1.0000000    1.000000000000

 H         

     34   S      68            12.2518000    0.037217389296
     34   S      69             1.8687100    0.253808206955
     34   S      70             0.4182080    0.797386763917

     35   S      71             0.1061000    1.000000000000

     36   P      72             1.0000000    1.000000000000

 TOTAL NUMBER OF BASIS SET SHELLS             =   36
 NUMBER OF CARTESIAN GAUSSIAN BASIS FUNCTIONS =   80
 NOTE: THIS RUN WILL RESTRICT THE MO VARIATION SPACE TO SPHERICAL HARMONICS.
 THE NUMBER OF ORBITALS KEPT IN THE VARIATIONAL SPACE WILL BE PRINTED LATER.
 NUMBER OF ELECTRONS                          =   34
 CHARGE OF MOLECULE                           =    0
 SPIN MULTIPLICITY                            =    1
 NUMBER OF OCCUPIED ORBITALS (ALPHA)          =   17
 NUMBER OF OCCUPIED ORBITALS (BETA )          =   17
 TOTAL NUMBER OF ATOMS                        =    8
 THE NUCLEAR REPULSION ENERGY IS      123.6882989629

     LEBEDEV GRID-BASED DFT OPTIONS
     ------------------------------
     DFTTYP=PBE     
     NRAD  =      96     NLEB  =     302
     NRAD0 =      24     NLEB0 =     110
     SWOFF =    5.00E-03 (PURE SCF -> DFT)
     SWITCH=    3.00E-04 (COARSE -> TIGHT GRID)
     THRESH=    0.00E+00 GTHRE=    1.00E+00

 GRIMME'S EMPIRICAL DISPERSION CORRECTION= F

     $CONTRL OPTIONS
     ---------------
 SCFTYP=RHF          RUNTYP=OPTIMIZE     EXETYP=RUN     
 MPLEVL=       0     CITYP =NONE         CCTYP =NONE         VBTYP =NONE    
 DFTTYP=PBE          TDDFT =NONE    
 MULT  =       1     ICHARG=       0     NZVAR =      18     COORD =ZMT     
 PP    =NONE         RELWFN=NONE         LOCAL =NONE         NUMGRD=       F
 ISPHER=       1     NOSYM =       0     MAXIT =      30     UNITS =ANGS    
 PLTORB=       F     MOLPLT=       F     AIMPAC=       F     FRIEND=        
 NPRINT=       7     IREST =       0     GEOM  =INPUT   
 NORMF =       0     NORMP =       0     ITOL  =      20     ICUT  =       9
 INTTYP=BEST         GRDTYP=BEST         QMTTOL= 1.0E-06

     $SYSTEM OPTIONS
     ---------------
  REPLICATED MEMORY=     1000000 WORDS (ON EVERY NODE).
 DISTRIBUTED MEMDDI=           0 MILLION WORDS IN AGGREGATE,
 MEMDDI DISTRIBUTED OVER   1 PROCESSORS IS           0 WORDS/PROCESSOR.
 TOTAL MEMORY REQUESTED ON EACH PROCESSOR=     1000000 WORDS.
 TIMLIM=      525600.00 MINUTES, OR     365.0 DAYS.
 PARALL= F  BALTYP=  DLB     KDIAG=    0  COREFL= F
 MXSEQ2=     300 MXSEQ3=     150  mem10=         0

          ----------------
          PROPERTIES INPUT
          ----------------

     MOMENTS            FIELD           POTENTIAL          DENSITY
 IEMOM =       1   IEFLD =       0   IEPOT =       0   IEDEN =       0
 WHERE =COMASS     WHERE =NUCLEI     WHERE =NUCLEI     WHERE =NUCLEI  
 OUTPUT=BOTH       OUTPUT=BOTH       OUTPUT=BOTH       OUTPUT=BOTH    
 IEMINT=       0   IEFINT=       0                     IEDINT=       0
                                                       MORB  =       0
          EXTRAPOLATION IN EFFECT
          DIIS IN EFFECT
 ORBITAL PRINTING OPTION: NPREO=     1    80     2     1

     -------------------------------
     INTEGRAL TRANSFORMATION OPTIONS
     -------------------------------
     NWORD  =            0
     CUTOFF = 1.0E-09     MPTRAN =       0
     DIRTRF =       F     AOINTS =DUP     

          ----------------------
          INTEGRAL INPUT OPTIONS
          ----------------------
 NOPK  =       1 NORDER=       0 SCHWRZ=       T

   --- ENCODED Z MATRIX ---
 COORD  TYPE   I   J   K   L   M   N
    1      1    2   1
    2      1    3   2
    3      2    3   2   1
    4      1    4   2
    5      2    4   2   1
    6      3    4   2   1   3
    7      1    5   2
    8      2    5   2   1
    9      3    5   2   1   3
   10      1    6   1
   11      2    6   1   2
   12      3    6   1   2   3
   13      1    7   1
   14      2    7   1   2
   15      3    7   1   2   6
   16      1    8   1
   17      2    8   1   2
   18      3    8   1   2   6

 THE DETERMINANT OF THE G MATRIX IS 10**(   -12)


                     --------------------
                     INTERNAL COORDINATES
                     --------------------

                 - - ATOMS - -         COORDINATE      COORDINATE
 NO.   TYPE    I  J  K  L  M  N        (BOHR,RAD)       (ANG,DEG)
 ----------------------------------------------------------------
   1 STRETCH   2  1                     2.8345890       1.5000000
   2 STRETCH   3  2                     2.6456164       1.4000000
   3 BEND      3  2  1                  1.9118710     109.5421400
   4 STRETCH   4  2                     2.0786986       1.1000000
   5 BEND      4  2  1                  1.9118710     109.5421400
   6 TORSION   4  2  1  3               2.0943951     120.0000000
   7 STRETCH   5  2                     2.0786986       1.1000000
   8 BEND      5  2  1                  1.9118710     109.5421400
   9 TORSION   5  2  1  3              -2.0943951    -120.0000000
  10 STRETCH   6  1                     2.8345890       1.5000000
  11 BEND      6  1  2                  1.9118710     109.5421400
  12 TORSION   6  1  2  3               1.9198622     110.0000000
  13 STRETCH   7  1                     2.0786986       1.1000000
  14 BEND      7  1  2                  1.9118710     109.5421400
  15 TORSION   7  1  2  6               2.0943951     120.0000000
  16 STRETCH   8  1                     2.0786986       1.1000000
  17 BEND      8  1  2                  1.9118710     109.5421400
  18 TORSION   8  1  2  6              -2.0943951    -120.0000000

     ------------------------------------------
     THE POINT GROUP IS C1 , NAXIS= 0, ORDER= 1
     ------------------------------------------

 -- VARIATIONAL SPACE WILL BE RESTRICTED TO PURE SPHERICAL HARMONICS ONLY --
 AFTER EXCLUDING CONTAMINANT COMBINATIONS FROM THE CARTESIAN GAUSSIAN BASIS
 SET, THE NUMBER OF SPHERICAL HARMONICS KEPT IN THE VARIATION SPACE IS   76

     DIMENSIONS OF THE SYMMETRY SUBSPACES ARE
 A   =   76

 ..... DONE SETTING UP THE RUN .....
 STEP CPU TIME =     0.01 TOTAL CPU TIME =          0.0 (      0.0 MIN)
 TOTAL WALL CLOCK TIME=          0.0 SECONDS, CPU UTILIZATION IS    50.00%


          -----------------------------
          STATIONARY POINT LOCATION RUN
          -----------------------------

 OBTAINING INITIAL HESSIAN, HESS=GUESS   
 DIAGONAL GUESS HESSIAN IN INTERNAL COORDS IS
     1  0.3892     2  0.3267     3  0.2379     4  0.3397     5  0.2253
     6  0.2500     7  0.3397     8  0.2253     9  0.2500    10  0.2690
    11  0.2315    12  0.2500    13  0.3397    14  0.2253    15  0.2500
    16  0.3397    17  0.2253    18  0.2500

          PARAMETERS CONTROLLING GEOMETRY SEARCH ARE
          METHOD =QA                  UPHESS =BFGS    
          NNEG   =         0          NFRZ   =         1
          NSTEP  =        50          IFOLOW =         1
          HESS   =GUESS               RESTAR =         F
          IHREP  =         0          HSSEND =         F
          NPRT   =         0          NPUN   =         0
          OPTTOL = 1.000E-04          RMIN   = 1.500E-03
          RMAX   = 1.000E-01          RLIM   = 7.000E-02
          DXMAX  = 3.000E-01          PURIFY =         F
          MOVIE  =         F          TRUPD  =         T
          TRMAX  = 5.000E-01          TRMIN  = 5.000E-02
          ITBMAT =         5          STPT   =         F
          STSTEP = 1.000E-02          PROJCT=          T
          FROZEN COORD(S)=  12

 BEGINNING GEOMETRY SEARCH POINT NSERCH=   0 ...

 COORDINATES OF ALL ATOMS ARE (ANGS)
   ATOM   CHARGE       X              Y              Z
 ------------------------------------------------------------
 C           6.0   0.5642289607   0.5050441383   0.4032544121
 C           6.0  -0.6252020582   0.3547024839  -0.4982172947
 F           9.0  -1.6383023066  -0.3385220972   0.1748856446
 H           1.0  -0.9942401242   1.3491987745  -0.7894011436
 H           1.0  -0.3354591099  -0.2057537949  -1.3992931980
 F           9.0   1.6846434787  -0.3582131707  -0.0962034203
 H           1.0   0.8887525664   1.5560471344   0.4120368664
 H           1.0   0.2933704973   0.1977329470   1.4241341917


                     --------------------
                     INTERNAL COORDINATES
                     --------------------

                 - - ATOMS - -         COORDINATE      COORDINATE
 NO.   TYPE    I  J  K  L  M  N        (BOHR,RAD)       (ANG,DEG)
 ----------------------------------------------------------------
   1 STRETCH   2  1                     2.8345890       1.5000000
   2 STRETCH   3  2                     2.6456164       1.4000000
   3 BEND      3  2  1                  1.9118710     109.5421400
   4 STRETCH   4  2                     2.0786986       1.1000000
   5 BEND      4  2  1                  1.9118710     109.5421400
   6 TORSION   4  2  1  3               2.0943951     120.0000000
   7 STRETCH   5  2                     2.0786986       1.1000000
   8 BEND      5  2  1                  1.9118710     109.5421400
   9 TORSION   5  2  1  3              -2.0943951    -120.0000000
  10 STRETCH   6  1                     2.8345890       1.5000000
  11 BEND      6  1  2                  1.9118710     109.5421400
  12 TORSION   6  1  2  3               1.9198622     110.0000000
  13 STRETCH   7  1                     2.0786986       1.1000000
  14 BEND      7  1  2                  1.9118710     109.5421400
  15 TORSION   7  1  2  6               2.0943951     120.0000000
  16 STRETCH   8  1                     2.0786986       1.1000000
  17 BEND      8  1  2                  1.9118710     109.5421400
  18 TORSION   8  1  2  6              -2.0943951    -120.0000000

 THE CURRENT FULLY SUBSTITUTED Z-MATRIX IS
 C   
 C      1   1.5000000
 F      2   1.4000000  1   109.5421400
 H      2   1.1000000  1   109.5421400  3   120.0000000  0
 H      2   1.1000000  1   109.5421400  3  -120.0000000  0
 F      1   1.5000000  2   109.5421400  3   110.0000000  0
 H      1   1.1000000  2   109.5421400  6   120.0000000  0
 H      1   1.1000000  2   109.5421400  6  -120.0000000  0

          ********************
          1 ELECTRON INTEGRALS
          ********************
 ...... END OF ONE-ELECTRON INTEGRALS ......
 STEP CPU TIME =     0.00 TOTAL CPU TIME =          0.0 (      0.0 MIN)
 TOTAL WALL CLOCK TIME=          0.0 SECONDS, CPU UTILIZATION IS    50.00%

          -------------
          GUESS OPTIONS
          -------------
          GUESS =HUCKEL            NORB  =       0          NORDER=       0
          MIX   =       F          PRTMO =       F          PUNMO =       F
          TOLZ  = 1.0E-08          TOLE  = 1.0E-05
          SYMDEN=       F          PURIFY=       F

 INITIAL GUESS ORBITALS GENERATED BY HUCKEL   ROUTINE.
 HUCKEL GUESS REQUIRES     54920 WORDS.

 STATISTICS FOR GENERATION OF SYMMETRY ORBITAL -Q- MATRIX
 NUMBER OF CARTESIAN ATOMIC ORBITALS=         80
 NUMBER OF SPHERICAL CONTAMINANTS DROPPED=     4
 NUMBER OF LINEARLY DEPENDENT MOS DROPPED=     0
 TOTAL NUMBER OF MOS IN VARIATION SPACE=      76

 SYMMETRIES FOR INITIAL GUESS ORBITALS FOLLOW.   BOTH SET(S).
    17 ORBITALS ARE OCCUPIED (    4 CORE ORBITALS).
     5=A        6=A        7=A        8=A        9=A       10=A       11=A   
    12=A       13=A       14=A       15=A       16=A       17=A       18=A   
    19=A       20=A       21=A       22=A       23=A       24=A       25=A   
    26=A       27=A   
 ...... END OF INITIAL ORBITAL SELECTION ......
 STEP CPU TIME =     0.01 TOTAL CPU TIME =          0.0 (      0.0 MIN)
 TOTAL WALL CLOCK TIME=          0.0 SECONDS, CPU UTILIZATION IS    66.67%

                    ----------------------
                    AO INTEGRAL TECHNOLOGY
                    ----------------------
     S,P,L SHELL ROTATED AXIS INTEGRALS, REPROGRAMMED BY
        KAZUYA ISHIMURA (IMS) AND JOSE SIERRA (SYNSTAR).
     S,P,D,L SHELL ROTATED AXIS INTEGRALS PROGRAMMED BY
        KAZUYA ISHIMURA (INSTITUTE FOR MOLECULAR SCIENCE).
     S,P,D,F,G SHELL TO TOTAL QUARTET ANGULAR MOMENTUM SUM 5,
        ERIC PROGRAM BY GRAHAM FLETCHER (ELORET AND NASA ADVANCED
        SUPERCOMPUTING DIVISION, AMES RESEARCH CENTER).
     S,P,D,F,G,L SHELL GENERAL RYS QUADRATURE PROGRAMMED BY
        MICHEL DUPUIS (PACIFIC NORTHWEST NATIONAL LABORATORY).

          --------------------
          2 ELECTRON INTEGRALS
          --------------------

 THE -PK- OPTION IS OFF, THE INTEGRALS ARE NOT IN SUPERMATRIX FORM.
 STORING   15000 INTEGRALS/RECORD ON DISK, USING 12 BYTES/INTEGRAL.
 TWO ELECTRON INTEGRAL EVALUATION REQUIRES   91062 WORDS OF MEMORY.
 SCHWARZ INEQUALITY OVERHEAD:      3217 INTEGRALS, T=        0.00
 II,JST,KST,LST =  1  1  1  1 NREC =         1 INTLOC =    1
 II,JST,KST,LST =  2  1  1  1 NREC =         1 INTLOC =    2
 II,JST,KST,LST =  3  1  1  1 NREC =         1 INTLOC =    7
 II,JST,KST,LST =  4  1  1  1 NREC =         1 INTLOC =   22
 II,JST,KST,LST =  5  1  1  1 NREC =         1 INTLOC =   67
 II,JST,KST,LST =  6  1  1  1 NREC =         1 INTLOC =  214
 II,JST,KST,LST =  7  1  1  1 NREC =         1 INTLOC = 1189
 II,JST,KST,LST =  8  1  1  1 NREC =         1 INTLOC = 3227
 II,JST,KST,LST =  9  1  1  1 NREC =         1 INTLOC = 5692
 II,JST,KST,LST = 10  1  1  1 NREC =         1 INTLOC = 8617
 II,JST,KST,LST = 11  1  1  1 NREC =         2 INTLOC = 5539
 II,JST,KST,LST = 12  1  1  1 NREC =         3 INTLOC = 8227
 II,JST,KST,LST = 13  1  1  1 NREC =         7 INTLOC = 6162
 II,JST,KST,LST = 14  1  1  1 NREC =         8 INTLOC = 4539
 II,JST,KST,LST = 15  1  1  1 NREC =         9 INTLOC = 5318
 II,JST,KST,LST = 16  1  1  1 NREC =        10 INTLOC = 8176
 II,JST,KST,LST = 17  1  1  1 NREC =        14 INTLOC =10128
 II,JST,KST,LST = 18  1  1  1 NREC =        20 INTLOC = 1142
 II,JST,KST,LST = 19  1  1  1 NREC =        34 INTLOC =12530
 II,JST,KST,LST = 20  1  1  1 NREC =        38 INTLOC =  777
 II,JST,KST,LST = 21  1  1  1 NREC =        41 INTLOC = 7351
 II,JST,KST,LST = 22  1  1  1 NREC =        53 INTLOC = 1329
 II,JST,KST,LST = 23  1  1  1 NREC =        57 INTLOC = 7166
 II,JST,KST,LST = 24  1  1  1 NREC =        62 INTLOC = 2090
 II,JST,KST,LST = 25  1  1  1 NREC =        77 INTLOC = 9866
 II,JST,KST,LST = 26  1  1  1 NREC =        80 INTLOC =13451
 II,JST,KST,LST = 27  1  1  1 NREC =        85 INTLOC = 3456
 II,JST,KST,LST = 28  1  1  1 NREC =        91 INTLOC = 5578
 II,JST,KST,LST = 29  1  1  1 NREC =       106 INTLOC = 7128
 II,JST,KST,LST = 30  1  1  1 NREC =       129 INTLOC =10110
 II,JST,KST,LST = 31  1  1  1 NREC =       174 INTLOC =12332
 II,JST,KST,LST = 32  1  1  1 NREC =       185 INTLOC = 8786
 II,JST,KST,LST = 33  1  1  1 NREC =       197 INTLOC = 2918
 II,JST,KST,LST = 34  1  1  1 NREC =       229 INTLOC =12430
 II,JST,KST,LST = 35  1  1  1 NREC =       243 INTLOC = 4842
 II,JST,KST,LST = 36  1  1  1 NREC =       257 INTLOC = 8724
 SCHWARZ INEQUALITY TEST SKIPPED       18295 INTEGRAL BLOCKS.
 TOTAL NUMBER OF NONZERO TWO-ELECTRON INTEGRALS =             4502965
        301 INTEGRAL RECORDS WERE STORED ON DISK FILE  8.
  ...... END OF TWO-ELECTRON INTEGRALS .....
 STEP CPU TIME =     0.46 TOTAL CPU TIME =          0.5 (      0.0 MIN)
 TOTAL WALL CLOCK TIME=          0.5 SECONDS, CPU UTILIZATION IS    97.96%

          --------------------------
               R-PBE SCF CALCULATION
          --------------------------

     NUCLEAR ENERGY =       123.6882989629
     MAXIT =   30     NPUNCH=    2
     EXTRAP=T  DAMP=F  SHIFT=F  RSTRCT=F  DIIS=T  DEM=F  SOSCF=F
         DENSITY MATRIX CONVERGENCE THRESHOLD=  1.00E-05
     COARSE -> FINE DFT GRID SWITCH THRESHOLD=  3.00E-04 (SWITCH IN $DFT)
                   HF -> DFT SWITCH THRESHOLD=  5.00E-03 (SWOFF IN $DFT)
     MEMORY REQUIRED FOR RHF ITERS=    365468 WORDS.

 DFT CODE IS SWITCHING FROM THE FINE GRID NRAD= 96,  NLEB=  302
                      TO THE COARSE GRID NRAD0= 24, NLEB0=  110

     EXCHANGE FUNCTIONAL   =PBE       
     CORRELATION FUNCTIONAL=PBE       
     DFT THRESHOLD         =.172E-07
     GRID CHANGE THRESHOLD =.300E-03
 FOR AN EULER-MACLAURIN QUADRATURE USING  96 RADIAL POINTS:
 SMALLEST GAUSSIAN PRIMITIVE EXPONENT=        0.1061000000 OF TYPE -S-
 ON ATOM NUMBER   4 HAS RADIAL NORMALIZATION=  1.000000
  LARGEST GAUSSIAN PRIMITIVE EXPONENT=     2931.5500000000 OF TYPE -S-
 ON ATOM NUMBER   3 HAS RADIAL NORMALIZATION=  1.000000
 DFT IS SWITCHED OFF, PERFORMING PURE SCF UNTIL SWOFF THRESHOLD IS REACHED.

 ITER EX DEM     TOTAL ENERGY        E CHANGE  DENSITY CHANGE    DIIS ERROR
   1  0  0     -276.1271619635  -276.1271619635   0.187856297   0.640451304
          * * *   INITIATING DIIS PROCEDURE   * * *
   2  1  0     -276.7723801785    -0.6452182150   0.088727488   0.070556112
   3  2  0     -276.8150159267    -0.0426357482   0.048498509   0.042817367
   4  3  0     -276.8309804427    -0.0159645160   0.008774824   0.010707736
   5  4  0     -276.8317532769    -0.0007728342   0.002216294   0.001763913
 CONVERGED TO SWOFF, SO DFT CALCULATION IS NOW SWITCHED ON.
          * * *   INITIATING DIIS PROCEDURE   * * *
   6  5  0     -277.8986835684    -1.0669302914   0.088541961   0.068028560
   7  6  0     -277.9137743820    -0.0150908136   0.071427277   0.042884057
   8  7  0     -277.9115304214     0.0022439606   0.046533067   0.043915856
   9  8  0     -277.9273809784    -0.0158505570   0.006928739   0.005238279
  10  9  0     -277.9276397515    -0.0002587731   0.001462360   0.001112759
  11 10  0     -277.9276498328    -0.0000100814   0.000576343   0.000486396
  12 11  0     -277.9276518554    -0.0000020226   0.000083560   0.000075156
 DFT CODE IS SWITCHING BACK TO THE FINE GRID
          * * *   INITIATING DIIS PROCEDURE   * * *
  13 12  0     -277.9280958834    -0.0004440279   0.003033713   0.002986766
  14 13  0     -277.9281412628    -0.0000453795   0.004564066   0.001817585
  15 14  0     -277.9281300573     0.0000112056   0.002607355   0.002447182
  16 15  0     -277.9281633146    -0.0000332573   0.000170006   0.000089504
  17 16  0     -277.9281633882    -0.0000000736   0.000092389   0.000072231
  18 17  0     -277.9281634207    -0.0000000325   0.000015289   0.000015225
  19 18  0     -277.9281634218    -0.0000000012   0.000004822   0.000005573
  20 19  0     -277.9281634220    -0.0000000002   0.000000493   0.000000347

          -----------------
          DENSITY CONVERGED
          -----------------
     TIME TO FORM FOCK OPERATORS=       9.8 SECONDS (       0.5 SEC/ITER)
     TIME TO SOLVE SCF EQUATIONS=       0.1 SECONDS (       0.0 SEC/ITER)

 FINAL R-PBE ENERGY IS     -277.9281634220 AFTER  20 ITERATIONS
 DFT EXCHANGE + CORRELATION ENERGY =       -32.9019466121
 TOTAL ELECTRON NUMBER             =        34.0000102754

          ------------
          EIGENVECTORS
          ------------

                      1          2          3          4          5
                  -24.2377   -24.2253    -9.9737    -9.9725    -1.0999
                     A          A          A          A          A   
    1  C  1  S    0.000045  -0.000177   0.992227  -0.047362  -0.014435
    2  C  1  S    0.000180  -0.000877   0.036727  -0.002849   0.024982
    3  C  1  S   -0.003730   0.008136  -0.022273   0.007169   0.024651
    4  C  1  X    0.000320   0.000799   0.000480   0.000733  -0.012277
    5  C  1  Y    0.000017  -0.000516  -0.000017   0.000154  -0.007936
    6  C  1  Z    0.000196  -0.000234   0.000172   0.000633  -0.007664
    7  C  1  X    0.001733   0.002034   0.002937  -0.002269  -0.008841
    8  C  1  Y    0.000871  -0.002752  -0.000433  -0.000248  -0.001627
    9  C  1  Z   -0.000472  -0.002408   0.000835  -0.002384  -0.011031
   10  C  1 XX   -0.000086   0.000180  -0.000293  -0.000460   0.003087
   11  C  1 YY   -0.000030   0.000011   0.000237   0.000465  -0.001702
   12  C  1 ZZ    0.000116  -0.000192   0.000056  -0.000005  -0.001385
   13  C  1 XY   -0.000036  -0.000473   0.000123  -0.000126   0.000255
   14  C  1 XZ   -0.000041  -0.000296  -0.000260  -0.000779   0.002128
   15  C  1 YZ   -0.000079   0.000228  -0.000134  -0.000113   0.001136
   16  C  2  S   -0.000129   0.000044   0.047546   0.992175  -0.065280
   17  C  2  S   -0.000521   0.000238   0.000648   0.037129   0.123464
   18  C  2  S    0.009260  -0.003596   0.005338  -0.022123   0.010847
   19  C  2  X   -0.000945  -0.000263  -0.000795  -0.000768  -0.068895
   20  C  2  Y   -0.000569  -0.000036  -0.000076  -0.000328  -0.049725
   21  C  2  Z    0.000441  -0.000156  -0.000645   0.000196   0.052701
   22  C  2  X   -0.001917  -0.001710   0.002069  -0.003148  -0.011909
   23  C  2  Y   -0.002052   0.001053   0.000471  -0.000872  -0.004568
   24  C  2  Z    0.003110   0.000422   0.002367  -0.000773   0.002213
   25  C  2 XX    0.000045  -0.000087  -0.000472  -0.000134   0.006400
   26  C  2 YY   -0.000017   0.000004   0.000496   0.000172  -0.003808
   27  C  2 ZZ   -0.000028   0.000083  -0.000024  -0.000039  -0.002592
   28  C  2 XY    0.000175   0.000046  -0.000137  -0.000002   0.013423
   29  C  2 XZ   -0.000224  -0.000008  -0.000807  -0.000315  -0.011779
   30  C  2 YZ   -0.000136   0.000087  -0.000074  -0.000065  -0.008997
   31  F  3  S    0.993083  -0.000469   0.000008   0.000064  -0.237030
   32  F  3  S    0.034000   0.000023  -0.000042   0.000459   0.482044
   33  F  3  S   -0.016815   0.000074  -0.000301  -0.000749   0.494894
   34  F  3  X    0.000850   0.000038  -0.000082  -0.000251   0.072596
   35  F  3  Y    0.000598   0.000002  -0.000032  -0.000144   0.049600
   36  F  3  Z   -0.000588   0.000012   0.000032   0.000118  -0.046399
   37  F  3  X   -0.002717   0.000058   0.000084  -0.001220   0.034151
   38  F  3  Y   -0.001868  -0.000044  -0.000081  -0.001008   0.023293
   39  F  3  Z    0.001806  -0.000120   0.000092   0.001139  -0.020730
   40  F  3 XX   -0.000119  -0.000032   0.000078  -0.000359   0.003691
   41  F  3 YY    0.000032  -0.000004  -0.000070   0.000185  -0.001756
   42  F  3 ZZ    0.000087   0.000036  -0.000007   0.000173  -0.001935
   43  F  3 XY   -0.000275   0.000012  -0.000003  -0.000794   0.007844
   44  F  3 XZ    0.000310  -0.000049   0.000148   0.000740  -0.007264
   45  F  3 YZ    0.000179   0.000025   0.000045   0.000539  -0.005051
   46  H  4  S   -0.000925   0.000164  -0.000373  -0.001210   0.022665
   47  H  4  S   -0.000182  -0.000247   0.000331   0.003387   0.001046
   48  H  4  X    0.000205   0.000092   0.000088  -0.000308   0.000992
   49  H  4  Y    0.000236  -0.000049   0.000099   0.001216  -0.005025
   50  H  4  Z   -0.000278  -0.000024   0.000029  -0.000329   0.001842
   51  H  5  S   -0.000933   0.000378  -0.000305  -0.001127   0.022694
   52  H  5  S   -0.000238   0.000961   0.001164   0.003482   0.002241
   53  H  5  X    0.000226  -0.000114   0.000172   0.000451  -0.001995
   54  H  5  Y    0.000174   0.000003  -0.000018  -0.000604   0.002030
   55  H  5  Z   -0.000309  -0.000016   0.000027  -0.001011   0.004613
   56  F  6  S    0.000462   0.993090   0.000047   0.000003  -0.017832
   57  F  6  S    0.000052   0.033666   0.000400  -0.000057   0.036480
   58  F  6  S    0.000041  -0.015849  -0.000047  -0.000260   0.035183
   59  F  6  X   -0.000041  -0.000821   0.000090   0.000068  -0.006412
   60  F  6  Y   -0.000001   0.000652  -0.000028  -0.000025   0.003903
   61  F  6  Z   -0.000007   0.000383  -0.000000  -0.000009   0.001962
   62  F  6  X   -0.000044   0.002636   0.000802  -0.000154  -0.001922
   63  F  6  Y   -0.000004  -0.002030  -0.000874  -0.000000   0.001876
   64  F  6  Z    0.000085  -0.001167  -0.000626   0.000001   0.001896
   65  F  6 XX   -0.000023  -0.000141  -0.000379   0.000102   0.000422
   66  F  6 YY   -0.000014  -0.000015   0.000001  -0.000071  -0.000071
   67  F  6 ZZ    0.000037   0.000156   0.000378  -0.000031  -0.000351
   68  F  6 XY   -0.000029   0.000335   0.000882  -0.000035  -0.000812
   69  F  6 XZ   -0.000043   0.000221   0.000501   0.000078  -0.000477
   70  F  6 YZ   -0.000010  -0.000127  -0.000424   0.000016   0.000455
   71  H  7  S    0.000181  -0.000735  -0.001222  -0.000231   0.002822
   72  H  7  S   -0.000186  -0.000041   0.003478   0.000047  -0.001008
   73  H  7  X   -0.000088  -0.000252   0.000245  -0.000119  -0.000021
   74  H  7  Y   -0.000043   0.000224   0.001298  -0.000041  -0.000754
   75  H  7  Z    0.000034   0.000210  -0.000022  -0.000059   0.000233
   76  H  8  S    0.000352  -0.000755  -0.001137  -0.000173   0.007217
   77  H  8  S    0.000770  -0.000125   0.003637   0.000763   0.006457
   78  H  8  X    0.000105  -0.000226  -0.000457  -0.000126  -0.000644
   79  H  8  Y    0.000012   0.000276  -0.000334  -0.000001   0.000086
   80  H  8  Z    0.000032   0.000181   0.001158  -0.000128  -0.001821

                      6          7          8          9         10
                   -1.0597    -0.7135    -0.5818    -0.4703    -0.4634
                     A          A          A          A          A   
    1  C  1  S   -0.052521  -0.153707   0.127321  -0.001640   0.007891
    2  C  1  S    0.101158   0.314703  -0.275875   0.008766  -0.024727
    3  C  1  S    0.014835   0.180764  -0.148414   0.004495   0.000253
    4  C  1  X    0.058254  -0.099680  -0.061257  -0.087095  -0.090384
    5  C  1  Y   -0.046053   0.021604  -0.036250  -0.226593   0.144490
    6  C  1  Z   -0.029167  -0.047333  -0.114747   0.108907   0.170542
    7  C  1  X    0.015007  -0.033235  -0.010258  -0.034220  -0.009851
    8  C  1  Y   -0.006671   0.014551  -0.025863  -0.093952   0.036390
    9  C  1  Z   -0.001153  -0.003959  -0.040059   0.066818   0.069951
   10  C  1 XX    0.005246   0.002813   0.001364   0.003079   0.004658
   11  C  1 YY   -0.000427  -0.004453  -0.003897  -0.001906  -0.000045
   12  C  1 ZZ   -0.004819   0.001641   0.002533  -0.001173  -0.004614
   13  C  1 XY   -0.011950   0.000991   0.001146   0.004067   0.003071
   14  C  1 XZ   -0.006354   0.008690   0.008380  -0.002039   0.001583
   15  C  1 YZ    0.005809   0.000540   0.001778   0.004058  -0.010515
   16  C  2  S   -0.003769  -0.148930  -0.127827   0.001245   0.001250
   17  C  2  S    0.004939   0.305094   0.278749   0.009592  -0.000082
   18  C  2  S    0.018153   0.168602   0.138254  -0.033778  -0.020836
   19  C  2  X    0.021689   0.102023  -0.081967  -0.046633  -0.214277
   20  C  2  Y    0.002628   0.038987  -0.006959  -0.265238   0.177606
   21  C  2  Z    0.000695   0.042882  -0.119026   0.172432   0.181830
   22  C  2  X    0.009464   0.033968  -0.011022   0.016662  -0.056401
   23  C  2  Y    0.002939   0.018716   0.014586  -0.080394   0.098924
   24  C  2  Z    0.010093  -0.000004  -0.050873   0.038103   0.077929
   25  C  2 XX    0.001800   0.002280   0.000055  -0.001652  -0.000349
   26  C  2 YY   -0.001317  -0.004231   0.004117  -0.005167  -0.002757
   27  C  2 ZZ   -0.000482   0.001951  -0.004171   0.006819   0.003106
   28  C  2 XY   -0.001580   0.001189   0.000188   0.006235   0.005347
   29  C  2 XZ    0.003413   0.009044  -0.009142  -0.006547  -0.007075
   30  C  2 YZ    0.000561   0.001843  -0.001119  -0.011938  -0.004210
   31  F  3  S    0.022543   0.060165   0.046755   0.039308   0.023709
   32  F  3  S   -0.045685  -0.131022  -0.102474  -0.082179  -0.049136
   33  F  3  S   -0.050026  -0.152363  -0.124707  -0.124037  -0.075247
   34  F  3  X   -0.004359   0.078559   0.101491   0.349314   0.099643
   35  F  3  Y   -0.004081   0.046752   0.089783   0.073519   0.277675
   36  F  3  Z    0.004168  -0.027589  -0.138077  -0.098179  -0.013719
   37  F  3  X   -0.003288   0.044394   0.060965   0.214727   0.061100
   38  F  3  Y   -0.002218   0.026154   0.054566   0.045807   0.168118
   39  F  3  Z    0.000947  -0.018836  -0.083491  -0.055586  -0.008509
   40  F  3 XX   -0.000160   0.003032  -0.000638   0.010695  -0.002145
   41  F  3 YY    0.000013  -0.000999  -0.000592  -0.006531   0.007125
   42  F  3 ZZ    0.000147  -0.002033   0.001230  -0.004164  -0.004981
   43  F  3 XY   -0.000560   0.004208   0.004004   0.005914   0.009371
   44  F  3 XZ    0.000526  -0.002427  -0.007550  -0.005665   0.001524
   45  F  3 YZ    0.000351  -0.001636  -0.005280  -0.000092  -0.004853
   46  H  4  S   -0.000484   0.113708   0.159584  -0.190285   0.127637
   47  H  4  S   -0.001078  -0.004388   0.009112  -0.039509   0.011987
   48  H  4  X   -0.000027   0.005890   0.003140  -0.006779  -0.000531
   49  H  4  Y    0.000034  -0.009609  -0.012474   0.005971  -0.004728
   50  H  4  Z   -0.000290   0.003581   0.001110  -0.000955   0.007144
   51  H  5  S    0.003785   0.104131   0.173855  -0.013953  -0.205261
   52  H  5  S    0.006853  -0.009547   0.015543  -0.014109  -0.008871
   53  H  5  X    0.000899  -0.001798  -0.005034  -0.000450  -0.002047
   54  H  5  Y    0.000253   0.006190   0.007863  -0.006074  -0.003623
   55  H  5  Z    0.000900   0.008804   0.010184   0.003340  -0.009119
   56  F  6  S   -0.241727   0.053596  -0.037345   0.004699  -0.034654
   57  F  6  S    0.491462  -0.116830   0.082806  -0.009896   0.073082
   58  F  6  S    0.514512  -0.134221   0.097599  -0.015222   0.111472
   59  F  6  X   -0.060352  -0.065440   0.079285  -0.075040   0.249714
   60  F  6  Y    0.046225   0.041408  -0.086078  -0.070188  -0.126568
   61  F  6  Z    0.025658   0.014267  -0.077097   0.062820  -0.009074
   62  F  6  X   -0.032044  -0.037939   0.049858  -0.046166   0.156078
   63  F  6  Y    0.024093   0.024829  -0.054592  -0.040690  -0.078225
   64  F  6  Z    0.012553   0.011254  -0.048134   0.035276  -0.004511
   65  F  6 XX    0.004109   0.002699  -0.000157   0.004180  -0.006798
   66  F  6 YY   -0.000142  -0.000465  -0.001047  -0.005405   0.001860
   67  F  6 ZZ   -0.003968  -0.002234   0.001204   0.001225   0.004938
   68  F  6 XY   -0.008971  -0.004000   0.005003   0.001481   0.006791
   69  F  6 XZ   -0.004991  -0.001409   0.005035  -0.003551   0.000384
   70  F  6 YZ    0.004004   0.001149  -0.003727   0.000345  -0.000225
   71  H  7  S    0.019612   0.118162  -0.160018  -0.168155   0.069999
   72  H  7  S    0.001458  -0.004137  -0.009274  -0.021845   0.019670
   73  H  7  X   -0.000494  -0.005552   0.002961   0.003829  -0.004388
   74  H  7  Y   -0.004496  -0.010993   0.012323   0.006537  -0.001253
   75  H  7  Z   -0.000415  -0.000734  -0.002347   0.003522   0.002995
   76  H  8  S    0.018979   0.109243  -0.176722   0.130965   0.086420
   77  H  8  S    0.001123  -0.010566  -0.018747  -0.009418   0.003555
   78  H  8  X    0.001880   0.001793  -0.004239  -0.001453  -0.001719
   79  H  8  Y    0.000563   0.003870  -0.005105  -0.002524   0.005134
   80  H  8  Z   -0.003974  -0.010686   0.012084  -0.007492  -0.002576

                     11         12         13         14         15
                   -0.4326    -0.4009    -0.3979    -0.3297    -0.3054
                     A          A          A          A          A   
    1  C  1  S    0.009193  -0.011944  -0.002613   0.031346   0.002401
    2  C  1  S   -0.023605   0.015215   0.007900  -0.068965  -0.008089
    3  C  1  S   -0.025750   0.052081   0.001735  -0.133238  -0.012611
    4  C  1  X   -0.304470  -0.046138   0.041937   0.090902   0.026600
    5  C  1  Y   -0.034779   0.193079   0.221137  -0.009988  -0.048467
    6  C  1  Z   -0.101928   0.191436  -0.254741   0.017924   0.135911
    7  C  1  X   -0.098594   0.007938   0.019858   0.066572   0.030550
    8  C  1  Y   -0.032471   0.055884   0.093307  -0.011015   0.009674
    9  C  1  Z   -0.057983   0.069356  -0.111285   0.038227   0.029264
   10  C  1 XX   -0.003025  -0.011624   0.005405   0.014797  -0.002149
   11  C  1 YY   -0.003848   0.004009   0.001417  -0.007542  -0.011632
   12  C  1 ZZ    0.006873   0.007615  -0.006823  -0.007255   0.013781
   13  C  1 XY    0.007636   0.017345   0.009010  -0.002927   0.011211
   14  C  1 XZ    0.009273   0.004858  -0.001742   0.003404  -0.010416
   15  C  1 YZ   -0.001322  -0.005372   0.005930  -0.006592   0.003378
   16  C  2  S   -0.011553   0.001535   0.014463  -0.024711   0.000982
   17  C  2  S    0.022912  -0.006476  -0.023706   0.050883  -0.005269
   18  C  2  S    0.027207  -0.006050  -0.056977   0.120964  -0.004747
   19  C  2  X    0.265568   0.028766   0.032657   0.003264   0.008737
   20  C  2  Y    0.069979  -0.176011  -0.121612   0.039497  -0.149335
   21  C  2  Z    0.139261  -0.157352   0.181345  -0.061047  -0.138832
   22  C  2  X    0.084335   0.009407   0.040365   0.031418  -0.012341
   23  C  2  Y    0.019495  -0.074406  -0.032940   0.030596  -0.031763
   24  C  2  Z    0.086098  -0.062431   0.062852  -0.006282  -0.041183
   25  C  2 XX   -0.010063  -0.009813   0.007569  -0.020043   0.000323
   26  C  2 YY   -0.001416   0.007748  -0.002224   0.009355  -0.015980
   27  C  2 ZZ    0.011480   0.002065  -0.005345   0.010687   0.015657
   28  C  2 XY   -0.009468   0.009750   0.017900  -0.004903  -0.011975
   29  C  2 XZ    0.009718   0.004446  -0.008395  -0.005146  -0.011496
   30  C  2 YZ    0.001369   0.006895  -0.004313  -0.008232   0.007424
   31  F  3  S   -0.017280  -0.000362   0.006919  -0.000159   0.002513
   32  F  3  S    0.035006  -0.000188  -0.011155  -0.002999  -0.008250
   33  F  3  S    0.050333   0.002353  -0.015962   0.008780  -0.005501
   34  F  3  X   -0.033501   0.035621   0.267081   0.281299  -0.111971
   35  F  3  Y   -0.130512  -0.264992   0.039056  -0.160464   0.351470
   36  F  3  Z    0.327173  -0.161159  -0.052410   0.349861   0.241919
   37  F  3  X   -0.022304   0.025954   0.165822   0.197182  -0.070445
   38  F  3  Y   -0.080993  -0.172107   0.022043  -0.110958   0.248445
   39  F  3  Z    0.201534  -0.104113  -0.035401   0.238004   0.172569
   40  F  3 XX    0.006725   0.002504   0.007066   0.009479  -0.002797
   41  F  3 YY   -0.000021  -0.009382  -0.003214  -0.002910   0.005115
   42  F  3 ZZ   -0.006704   0.006878  -0.003852  -0.006569  -0.002318
   43  F  3 XY   -0.000996  -0.006721   0.003587   0.000866   0.003966
   44  F  3 XZ    0.008444  -0.005900  -0.004078   0.002332   0.004228
   45  F  3 YZ    0.007831   0.002088   0.000883   0.005950  -0.000246
   46  H  4  S   -0.032752  -0.101162  -0.161127   0.099411  -0.123736
   47  H  4  S   -0.010214  -0.029457  -0.054477   0.029550  -0.067023
   48  H  4  X    0.004519   0.000370  -0.001421   0.003096  -0.004123
   49  H  4  Y    0.004100   0.002280   0.006091  -0.002442  -0.000324
   50  H  4  Z    0.001525  -0.005519   0.002391  -0.001431  -0.005668
   51  H  5  S   -0.038673   0.174202  -0.084598   0.056874   0.221276
   52  H  5  S    0.014430   0.060176  -0.020343  -0.010471   0.112701
   53  H  5  X    0.006883  -0.005132   0.002761  -0.003979   0.000431
   54  H  5  Y   -0.000553   0.001474  -0.005606   0.003850   0.003253
   55  H  5  Z   -0.000498   0.005408   0.000720  -0.000439   0.004000
   56  F  6  S   -0.025026  -0.020663  -0.001149   0.001018   0.002911
   57  F  6  S    0.053568   0.041864   0.003158   0.000532  -0.008618
   58  F  6  S    0.072898   0.059316   0.000806  -0.007996  -0.010403
   59  F  6  X    0.107763   0.330645   0.062299   0.228476   0.134288
   60  F  6  Y   -0.239085  -0.173611   0.178814   0.242901   0.248389
   61  F  6  Z   -0.186095  -0.069686  -0.215193   0.321919  -0.284110
   62  F  6  X    0.073686   0.211011   0.042723   0.157434   0.085679
   63  F  6  Y   -0.150237  -0.112344   0.115464   0.165525   0.172886
   64  F  6  Z   -0.114540  -0.046351  -0.137410   0.216193  -0.200849
   65  F  6 XX    0.003606  -0.006889  -0.002919  -0.009003  -0.003158
   66  F  6 YY   -0.004147   0.001809   0.008550   0.005262   0.004634
   67  F  6 ZZ    0.000541   0.005080  -0.005631   0.003742  -0.001477
   68  F  6 XY    0.006351   0.007828  -0.004250  -0.000576  -0.002031
   69  F  6 XZ    0.005577   0.003389   0.007602  -0.003684   0.005143
   70  F  6 YZ   -0.006468  -0.000939  -0.002472   0.006337  -0.001219
   71  H  7  S   -0.109599   0.160838   0.185646  -0.035936  -0.055707
   72  H  7  S   -0.023830   0.055920   0.051297  -0.000711  -0.039114
   73  H  7  X   -0.004452  -0.004317  -0.001132   0.003540   0.004223
   74  H  7  Y    0.006944  -0.003990  -0.006072   0.000169  -0.000187
   75  H  7  Z   -0.001607   0.005143  -0.006126  -0.000835   0.004754
   76  H  8  S   -0.014571   0.123893  -0.245680  -0.039034   0.158676
   77  H  8  S    0.016592   0.030488  -0.067607   0.016373   0.095223
   78  H  8  X   -0.008549   0.001501  -0.004756  -0.001451  -0.001169
   79  H  8  Y   -0.001578   0.007448   0.000569  -0.002875   0.002384
   80  H  8  Z   -0.000321  -0.001822   0.008591   0.000943  -0.002642

                     16         17         18         19         20
                   -0.2906    -0.2867    -0.0034     0.0196     0.0442
                     A          A          A          A          A   
    1  C  1  S   -0.002366  -0.022251   0.061309   0.053670   0.092437
    2  C  1  S    0.003442   0.061129  -0.169431  -0.084957  -0.194966
    3  C  1  S    0.041259   0.088375  -0.171714  -0.851327  -1.199883
    4  C  1  X   -0.088169  -0.182890  -0.349764  -0.060472  -0.095616
    5  C  1  Y   -0.152674  -0.083343   0.260432  -0.218806   0.128707
    6  C  1  Z    0.085667  -0.146839   0.164164  -0.062211  -0.130851
    7  C  1  X   -0.042326  -0.018402  -0.503468  -0.141942  -0.080414
    8  C  1  Y   -0.033938  -0.019631   0.388020  -0.438348   0.233886
    9  C  1  Z    0.002864  -0.056343   0.256717  -0.126868  -0.403570
   10  C  1 XX    0.008551   0.014473   0.022268  -0.003316  -0.011751
   11  C  1 YY   -0.017112  -0.012405   0.003744   0.016094  -0.014463
   12  C  1 ZZ    0.008561  -0.002069  -0.026012  -0.012778   0.026214
   13  C  1 XY   -0.002965   0.001237  -0.027762   0.014902  -0.020247
   14  C  1 XZ   -0.011242   0.012308  -0.017722  -0.002440  -0.007805
   15  C  1 YZ   -0.002811  -0.004244   0.018742   0.003661  -0.011555
   16  C  2  S   -0.000452  -0.022342  -0.012498   0.053776   0.030867
   17  C  2  S    0.004390   0.061183   0.037421  -0.080872  -0.096509
   18  C  2  S   -0.030606   0.105816  -0.140327  -0.926421  -0.108640
   19  C  2  X   -0.061185   0.199893  -0.125931   0.035643   0.214978
   20  C  2  Y    0.153156  -0.060974  -0.047575  -0.208297   0.182432
   21  C  2  Z    0.066381   0.148836   0.126144   0.141394  -0.112637
   22  C  2  X   -0.044313   0.032627  -0.233678   0.082887   0.384850
   23  C  2  Y    0.041219  -0.007970  -0.054402  -0.418872   0.381955
   24  C  2  Z    0.013931   0.061909   0.264859   0.287964  -0.164363
   25  C  2 XX   -0.005231   0.014776  -0.024820  -0.005351   0.008763
   26  C  2 YY    0.010830  -0.011451   0.000186   0.011315  -0.005807
   27  C  2 ZZ   -0.005599  -0.003325   0.024634  -0.005964  -0.002957
   28  C  2 XY   -0.001416   0.003830  -0.000877  -0.017960   0.030559
   29  C  2 XZ    0.013227   0.009641   0.008294   0.005032  -0.026449
   30  C  2 YZ   -0.007827   0.008631   0.033448  -0.007066  -0.002547
   31  F  3  S    0.002939   0.000234   0.029750   0.018135  -0.039376
   32  F  3  S   -0.008085   0.001480  -0.055544  -0.039774   0.073219
   33  F  3  S   -0.013747  -0.014729  -0.233416  -0.118867   0.330656
   34  F  3  X    0.018442  -0.287724  -0.100553  -0.063641   0.138076
   35  F  3  Y   -0.303936   0.110109  -0.092124   0.021992   0.101107
   36  F  3  Z   -0.191037  -0.224021   0.048708  -0.019657  -0.177806
   37  F  3  X    0.019977  -0.202254  -0.109809  -0.066428   0.133977
   38  F  3  Y   -0.210472   0.072290  -0.086117   0.030692   0.097531
   39  F  3  Z   -0.130542  -0.155475   0.040896  -0.030770  -0.174346
   40  F  3 XX    0.000924  -0.003772  -0.001253   0.003189  -0.003520
   41  F  3 YY   -0.003811   0.001049   0.000444  -0.001083   0.000223
   42  F  3 ZZ    0.002888   0.002722   0.000809  -0.002106   0.003297
   43  F  3 XY   -0.003307  -0.000504   0.003156  -0.003528  -0.001689
   44  F  3 XZ   -0.001424  -0.000193  -0.000750   0.000485   0.003886
   45  F  3 YZ   -0.000333  -0.001915   0.002634   0.001776   0.002578
   46  H  4  S    0.166816  -0.159625  -0.094239   0.091645  -0.090614
   47  H  4  S    0.069883  -0.095116  -0.168710   1.167184  -0.349895
   48  H  4  X    0.000816   0.001435  -0.003542  -0.007207   0.018497
   49  H  4  Y   -0.002211   0.004096  -0.001528   0.018875   0.000458
   50  H  4  Z    0.002740   0.002123   0.008912  -0.000261  -0.001746
   51  H  5  S   -0.161913  -0.024670   0.169143   0.004428   0.017079
   52  H  5  S   -0.055741  -0.048106   0.551212   0.194752   0.096067
   53  H  5  X    0.000405   0.002194  -0.007183   0.001801   0.010665
   54  H  5  Y   -0.000609  -0.001785  -0.009436  -0.009105   0.010571
   55  H  5  Z   -0.004087   0.002106  -0.005760   0.001185  -0.004589
   56  F  6  S   -0.002289   0.000386  -0.061846   0.011270  -0.018211
   57  F  6  S    0.006122   0.001606   0.116565  -0.026168   0.034571
   58  F  6  S    0.010478  -0.016564   0.456958  -0.065109   0.137345
   59  F  6  X    0.070049   0.334988  -0.258551   0.043045  -0.111885
   60  F  6  Y    0.349492   0.166018   0.221985   0.040823   0.069050
   61  F  6  Z   -0.303408   0.277206   0.137094   0.021126   0.097033
   62  F  6  X    0.053222   0.234882  -0.257710   0.044346  -0.107614
   63  F  6  Y    0.241541   0.110408   0.209390   0.046920   0.071996
   64  F  6  Z   -0.207577   0.191393   0.128941   0.026949   0.109040
   65  F  6 XX   -0.001721  -0.004940  -0.000916   0.002574  -0.002802
   66  F  6 YY    0.004439   0.002342  -0.000125  -0.001529   0.000156
   67  F  6 ZZ   -0.002718   0.002597   0.001041  -0.001045   0.002646
   68  F  6 XY   -0.003799   0.000901   0.003943   0.003822   0.000833
   69  F  6 XZ    0.003217  -0.001144   0.002321  -0.000183   0.004319
   70  F  6 YZ   -0.001740   0.002940  -0.000239  -0.001554  -0.004998
   71  H  7  S   -0.198256  -0.126806   0.024497   0.101858  -0.073138
   72  H  7  S   -0.090824  -0.077980   0.010933   1.148288   0.109859
   73  H  7  X    0.001134  -0.001535  -0.017513   0.004144  -0.007940
   74  H  7  Y    0.003162   0.002453   0.005122   0.019105   0.003911
   75  H  7  Z    0.001509  -0.003810   0.009919  -0.003456  -0.004698
   76  H  8  S    0.162494  -0.054992  -0.074508  -0.019442   0.191850
   77  H  8  S    0.058999  -0.053333  -0.223650   0.102043   1.402215
   78  H  8  X   -0.000939  -0.002579  -0.014812  -0.003113  -0.006133
   79  H  8  Y   -0.000755  -0.002548   0.015554  -0.007593   0.001126
   80  H  8  Z   -0.004255  -0.001026  -0.002761   0.000068   0.020354

                     21         22         23         24         25
                    0.0640     0.0930     0.1036     0.1688     0.3503
                     A          A          A          A          A   
    1  C  1  S    0.059951   0.004620   0.027592   0.073511   0.003579
    2  C  1  S   -0.106654   0.025655  -0.032832  -0.080049  -0.104696
    3  C  1  S   -0.796807  -0.334034  -0.734773  -1.939024  -0.586441
    4  C  1  X   -0.035228   0.177194  -0.019307   0.245223   0.344344
    5  C  1  Y   -0.072937   0.009263  -0.241897   0.159874  -0.001223
    6  C  1  Z   -0.023581  -0.251203   0.189957   0.230755   0.253218
    7  C  1  X   -0.083968   0.494464   0.128342   1.582120  -0.429746
    8  C  1  Y   -0.190656   0.069868  -0.814216   0.704612  -0.113362
    9  C  1  Z   -0.034941  -0.685354   0.620016   1.211263  -0.870491
   10  C  1 XX   -0.001062   0.010465   0.007872   0.019137  -0.029690
   11  C  1 YY    0.008702  -0.001974  -0.000170  -0.021241   0.040425
   12  C  1 ZZ   -0.007640  -0.008491  -0.007702   0.002104  -0.010735
   13  C  1 XY    0.011443   0.010364  -0.002392  -0.002690   0.003694
   14  C  1 XZ    0.002987   0.000428   0.010687   0.034913  -0.049220
   15  C  1 YZ    0.008899  -0.007154  -0.002040   0.022453  -0.025877
   16  C  2  S   -0.114998  -0.027970  -0.020465  -0.077687   0.009640
   17  C  2  S    0.230606   0.089146   0.013995   0.096366  -0.168442
   18  C  2  S    1.493621   0.053952   0.669362   1.972044  -0.369347
   19  C  2  X   -0.101408  -0.264572   0.003605   0.244830  -0.298806
   20  C  2  Y   -0.139336   0.078087   0.291282  -0.086674  -0.031521
   21  C  2  Z   -0.109927   0.237958   0.097356   0.282976  -0.307320
   22  C  2  X   -0.140459  -0.757435   0.187879   1.517010   0.488236
   23  C  2  Y   -0.309949   0.237216   0.971018  -0.312859   0.025589
   24  C  2  Z   -0.340351   0.643785   0.312900   1.425126   1.118183
   25  C  2 XX    0.000075   0.005395  -0.008532  -0.019173  -0.021197
   26  C  2 YY    0.004244  -0.001086  -0.001678   0.029808   0.046597
   27  C  2 ZZ   -0.004319  -0.004309   0.010210  -0.010635  -0.025400
   28  C  2 XY   -0.011487  -0.014076  -0.002875  -0.015944  -0.021946
   29  C  2 XZ    0.013982   0.008771  -0.012319  -0.030861  -0.049093
   30  C  2 YZ   -0.001034   0.015761   0.000876   0.010737   0.009612
   31  F  3  S    0.031319   0.055970  -0.022847   0.007886   0.008612
   32  F  3  S   -0.057926  -0.104781   0.042939   0.002215  -0.018808
   33  F  3  S   -0.258978  -0.478602   0.195138  -0.145716  -0.080159
   34  F  3  X   -0.146299  -0.108834   0.010209  -0.102223  -0.072094
   35  F  3  Y   -0.072669  -0.117208  -0.011049  -0.022961   0.006137
   36  F  3  Z    0.098393   0.060251  -0.037095  -0.048460  -0.098668
   37  F  3  X   -0.168783  -0.134945   0.039995  -0.209523  -0.116823
   38  F  3  Y   -0.075261  -0.172211  -0.039404  -0.017029  -0.024507
   39  F  3  Z    0.127103   0.074069  -0.075009  -0.096754  -0.134741
   40  F  3 XX    0.000760  -0.004183   0.000144   0.005867  -0.004001
   41  F  3 YY   -0.003145   0.003910   0.004471   0.003868   0.004597
   42  F  3 ZZ    0.002385   0.000273  -0.004614  -0.009735  -0.000596
   43  F  3 XY    0.001106   0.002155   0.005176   0.002045  -0.004734
   44  F  3 XZ   -0.004310   0.001071   0.000860  -0.006440  -0.004171
   45  F  3 YZ   -0.004338  -0.001489  -0.000069   0.005055   0.001062
   46  H  4  S   -0.015062  -0.007848  -0.018770   0.102128   0.264244
   47  H  4  S   -0.561641  -0.781913  -1.447461   0.899120  -0.028701
   48  H  4  X   -0.003095  -0.011747   0.013400   0.000911   0.006874
   49  H  4  Y   -0.008412  -0.011216  -0.008383   0.016655   0.007422
   50  H  4  Z    0.003462   0.012778   0.007362   0.014764   0.023954
   51  H  5  S   -0.088275  -0.002854   0.036601   0.081342   0.278968
   52  H  5  S   -1.445432   1.082216   1.039718   0.091570   0.235874
   53  H  5  X   -0.009640  -0.003143   0.008738   0.017495   0.016239
   54  H  5  Y    0.003879  -0.016316  -0.001817  -0.012579  -0.011695
   55  H  5  Z    0.018947  -0.007324  -0.011988   0.009480   0.019036
   56  F  6  S   -0.014122   0.035376   0.015150  -0.000910   0.006787
   57  F  6  S    0.027908  -0.068248  -0.029328  -0.012404  -0.030007
   58  F  6  S    0.098221  -0.284025  -0.122240   0.062078   0.014584
   59  F  6  X   -0.054469   0.064210  -0.003662  -0.082722   0.105752
   60  F  6  Y    0.024478  -0.070338   0.012183  -0.003641   0.019840
   61  F  6  Z   -0.041915  -0.012535  -0.020796  -0.056522   0.079643
   62  F  6  X   -0.076432   0.077967   0.022192  -0.167876   0.073044
   63  F  6  Y    0.039637  -0.108922   0.030600  -0.031811   0.019045
   64  F  6  Z   -0.028031  -0.004218  -0.059108  -0.093687   0.114470
   65  F  6 XX    0.003095  -0.002339  -0.000713  -0.005373   0.003088
   66  F  6 YY   -0.000073   0.003151  -0.003128  -0.000149   0.000957
   67  F  6 ZZ   -0.003022  -0.000812   0.003841   0.005522  -0.004045
   68  F  6 XY    0.001454  -0.000433   0.004431   0.003572  -0.001951
   69  F  6 XZ   -0.000834   0.001352  -0.001498   0.004329  -0.004700
   70  F  6 YZ   -0.001533  -0.000157   0.002002   0.007454  -0.001142
   71  H  7  S    0.110946   0.024005   0.010778  -0.096411   0.240738
   72  H  7  S    0.908139  -0.296165   1.498819  -0.904810  -0.085280
   73  H  7  X    0.006870   0.011375   0.010038   0.003959  -0.007025
   74  H  7  Y    0.011221  -0.007057   0.012120  -0.012693   0.001528
   75  H  7  Z    0.005106  -0.005375   0.005252   0.018196  -0.020432
   76  H  8  S   -0.011145  -0.036961  -0.027180  -0.088521   0.233540
   77  H  8  S    0.324863   1.172147  -1.077557  -0.052527   0.178406
   78  H  8  X   -0.001705  -0.001966   0.008536   0.018480  -0.016404
   79  H  8  Y   -0.001931  -0.011282   0.000185   0.013805  -0.015664
   80  H  8  Z    0.004012   0.011655  -0.011804   0.005887  -0.015400

                     26         27         28         29         30
                    0.3721     0.3910     0.4371     0.4744     0.5051
                     A          A          A          A          A   
    1  C  1  S   -0.040622  -0.008431   0.014611   0.072054   0.014441
    2  C  1  S    0.324599   0.053064  -0.011671  -0.498894  -0.036202
    3  C  1  S   -0.258808  -0.107174  -0.036087   1.567906  -0.358744
    4  C  1  X    0.543691   0.099167   0.091744   0.534243   0.005490
    5  C  1  Y   -0.485616  -0.039417  -0.145454   0.038229   0.092030
    6  C  1  Z   -0.278322  -0.077722  -0.217248   0.391004  -0.348190
    7  C  1  X   -0.654418  -0.200900  -0.828193  -1.292821   0.343307
    8  C  1  Y    0.996866   0.070798  -0.098213  -0.204721   0.901256
    9  C  1  Z    0.618906   0.007794   1.045786  -1.272513   0.485476
   10  C  1 XX   -0.004835   0.013870  -0.027328   0.022248  -0.050772
   11  C  1 YY   -0.019569  -0.028866   0.077938  -0.041598  -0.066370
   12  C  1 ZZ    0.024404   0.014996  -0.050610   0.019349   0.117142
   13  C  1 XY   -0.000539   0.001292   0.053944   0.032097   0.007976
   14  C  1 XZ    0.021823  -0.026159   0.018736   0.050533  -0.039067
   15  C  1 YZ    0.007465  -0.018658   0.036182  -0.020768   0.002710
   16  C  2  S    0.007187  -0.045612   0.016309  -0.069497  -0.007988
   17  C  2  S   -0.063983   0.335077  -0.020158   0.475341  -0.001971
   18  C  2  S    0.104985  -0.285859  -0.066967  -1.533455   0.461272
   19  C  2  X    0.108722  -0.606782  -0.084268   0.494674   0.024171
   20  C  2  Y    0.129311  -0.431539  -0.057534   0.050470  -0.217447
   21  C  2  Z   -0.037324   0.401976   0.245323   0.433587  -0.240391
   22  C  2  X    0.012960   0.681951   0.859026  -1.276157   0.390309
   23  C  2  Y   -0.232667   0.760777  -0.316160  -0.144112  -0.722766
   24  C  2  Z    0.119346  -0.631714  -0.959201  -1.273223   0.598424
   25  C  2 XX    0.013583  -0.013969  -0.023848  -0.028880   0.046304
   26  C  2 YY   -0.016679  -0.012958   0.041460   0.032744   0.057512
   27  C  2 ZZ    0.003096   0.026928  -0.017612  -0.003864  -0.103817
   28  C  2 XY    0.004709  -0.019920  -0.057940   0.001270   0.004582
   29  C  2 XZ   -0.027753   0.026795   0.035147  -0.058537   0.036467
   30  C  2 YZ    0.026387   0.032709  -0.055743  -0.034843  -0.058505
   31  F  3  S    0.000857  -0.000843  -0.021374   0.018470   0.008284
   32  F  3  S    0.021043  -0.088598   0.019264  -0.080271   0.004515
   33  F  3  S   -0.113315   0.523030   0.385387   0.007872  -0.201687
   34  F  3  X    0.083831  -0.230094  -0.159131  -0.040548  -0.002098
   35  F  3  Y   -0.037875  -0.207585   0.095531   0.012058   0.137540
   36  F  3  Z   -0.058804   0.145914  -0.002783   0.021526   0.127283
   37  F  3  X   -0.046453   0.048663   0.046183   0.061916  -0.106500
   38  F  3  Y    0.003099   0.000322   0.126397  -0.006509   0.002912
   39  F  3  Z   -0.012253  -0.012422  -0.027168   0.103687   0.004868
   40  F  3 XX   -0.011324   0.015190   0.017155   0.018932  -0.001016
   41  F  3 YY    0.007627  -0.007704  -0.011295  -0.007129  -0.008758
   42  F  3 ZZ    0.003697  -0.007486  -0.005860  -0.011802   0.009774
   43  F  3 XY    0.000397   0.040433   0.010489   0.005693  -0.014403
   44  F  3 XZ    0.008196  -0.034452  -0.006317   0.010006  -0.014663
   45  F  3 YZ    0.010119  -0.024526  -0.004019   0.007482   0.006352
   46  H  4  S   -0.159098  -0.271207   0.597523  -0.112935   0.551360
   47  H  4  S    0.092732  -0.063132  -0.180824  -0.384722  -0.060444
   48  H  4  X    0.011822  -0.014637  -0.003354   0.030223  -0.002184
   49  H  4  Y    0.000184   0.002216   0.021700  -0.000320   0.023568
   50  H  4  Z    0.026906   0.004847  -0.030596   0.004283  -0.017408
   51  H  5  S    0.241928   0.011811  -0.281519  -0.291014  -0.626128
   52  H  5  S   -0.012743  -0.067289  -0.173700  -0.239102   0.682797
   53  H  5  X   -0.009919  -0.014120  -0.001267   0.019617  -0.019407
   54  H  5  Y    0.001994  -0.006570  -0.019181   0.009302  -0.017930
   55  H  5  Z   -0.018445  -0.014112  -0.009453   0.016632   0.062796
   56  F  6  S   -0.013713   0.000701  -0.021196  -0.017930  -0.011114
   57  F  6  S   -0.052389  -0.011662   0.021974   0.079153   0.006209
   58  F  6  S    0.572172   0.064243   0.354908   0.005094   0.204226
   59  F  6  X    0.190269   0.004830   0.148308  -0.024801   0.007876
   60  F  6  Y   -0.175431  -0.087630   0.111038  -0.015224  -0.091359
   61  F  6  Z   -0.095977   0.041599  -0.037737   0.038386   0.152693
   62  F  6  X   -0.139903   0.018465  -0.073789   0.064703  -0.115053
   63  F  6  Y    0.051348   0.015886   0.123220   0.033074   0.014236
   64  F  6  Z    0.022125   0.018378  -0.004927   0.093735  -0.009400
   65  F  6 XX    0.017664  -0.003931   0.018354  -0.014996   0.003635
   66  F  6 YY   -0.001108   0.003728  -0.012899   0.010000   0.008668
   67  F  6 ZZ   -0.016556   0.000203  -0.005455   0.004996  -0.012303
   68  F  6 XY   -0.037905  -0.012854  -0.007871  -0.000147  -0.010188
   69  F  6 XZ   -0.019965   0.001298  -0.005131  -0.008501   0.017683
   70  F  6 YZ    0.019178  -0.002174   0.004022   0.003988  -0.000015
   71  H  7  S   -0.304888  -0.212193   0.639277   0.159614  -0.458822
   72  H  7  S   -0.064447   0.023042  -0.252734   0.311371  -0.026379
   73  H  7  X    0.010613  -0.006274   0.000429   0.033823   0.004451
   74  H  7  Y    0.003486  -0.006258   0.032789   0.007956  -0.018702
   75  H  7  Z    0.010477  -0.027787   0.027031  -0.001446  -0.009054
   76  H  8  S   -0.154066   0.228161  -0.362583   0.367559   0.653400
   77  H  8  S   -0.101887   0.033775  -0.121483   0.210603  -0.746151
   78  H  8  X    0.009241   0.010141   0.003842   0.017201  -0.022186
   79  H  8  Y    0.005175   0.005489  -0.017195  -0.007921   0.030261
   80  H  8  Z    0.010137   0.018362   0.010386   0.022830   0.061454

                     31         32         33         34         35
                    0.5340     0.5442     0.5578     0.5786     0.7927
                     A          A          A          A          A   
    1  C  1  S   -0.011199   0.052101   0.034920  -0.062405   0.023131
    2  C  1  S    0.046427  -0.396248  -0.224943   0.512495  -1.295882
    3  C  1  S    0.032932   0.605231  -0.120995  -0.391770   2.512233
    4  C  1  X   -0.159056  -0.211133  -0.302258  -0.087559   0.142252
    5  C  1  Y   -0.449997  -0.279755  -0.600640  -0.003042  -0.028237
    6  C  1  Z    0.381890  -0.278806   0.164865   0.451041  -0.004338
    7  C  1  X    0.385825   0.615185   0.964091  -0.178963  -0.058595
    8  C  1  Y    0.650778   0.359347   1.938523   0.893500   0.198333
    9  C  1  Z   -0.745201  -0.191748  -0.263303  -1.190875   0.690061
   10  C  1 XX    0.004087  -0.025609  -0.037308   0.048512  -0.036465
   11  C  1 YY    0.049704   0.012699   0.051296  -0.036261   0.031657
   12  C  1 ZZ   -0.053791   0.012910  -0.013989  -0.012251   0.004808
   13  C  1 XY    0.020948   0.046648   0.026555  -0.015700  -0.032689
   14  C  1 XZ    0.020837  -0.035956   0.001126   0.002535  -0.050231
   15  C  1 YZ    0.048265  -0.037364   0.001440   0.031609   0.014731
   16  C  2  S   -0.004487   0.063997  -0.039797   0.063608   0.016785
   17  C  2  S    0.012955  -0.475629   0.264385  -0.517717  -1.298331
   18  C  2  S   -0.037079   0.739430   0.094333   0.404333   2.800029
   19  C  2  X    0.251861   0.178199  -0.288003  -0.076069  -0.179490
   20  C  2  Y   -0.644601  -0.129751   0.479864   0.113528  -0.060089
   21  C  2  Z   -0.250869   0.320439  -0.061419   0.410934   0.039818
   22  C  2  X   -0.658195  -0.537479   0.950390  -0.122980   0.145559
   23  C  2  Y    1.268950   0.369108  -1.697409  -1.202918   0.042170
   24  C  2  Z    0.489020   0.151586   0.357660  -0.920700  -0.671671
   25  C  2 XX   -0.004616  -0.025888   0.037246  -0.045531  -0.031481
   26  C  2 YY    0.029152   0.016673  -0.044102   0.044227   0.019333
   27  C  2 ZZ   -0.024536   0.009215   0.006856   0.001304   0.012148
   28  C  2 XY   -0.019143  -0.054466   0.023753  -0.022240   0.017999
   29  C  2 XZ    0.030952  -0.024437  -0.002380  -0.002815  -0.058912
   30  C  2 YZ   -0.075203   0.037795   0.002449   0.010664  -0.025205
   31  F  3  S    0.001880  -0.013173   0.008412   0.000340   0.033277
   32  F  3  S   -0.007195   0.073419  -0.014953   0.018338  -0.144007
   33  F  3  S   -0.015913  -0.113240  -0.121796  -0.120915  -0.162048
   34  F  3  X    0.033332   0.086295   0.033692   0.011389  -0.031024
   35  F  3  Y   -0.033276  -0.072785   0.030004   0.140366   0.038186
   36  F  3  Z   -0.013689  -0.036181   0.077045   0.024383  -0.011469
   37  F  3  X    0.053050   0.041457  -0.101947  -0.034665  -0.138102
   38  F  3  Y   -0.094878  -0.017260   0.099894   0.035178  -0.131401
   39  F  3  Z   -0.018304   0.027771   0.026724   0.090353   0.139701
   40  F  3 XX    0.004459   0.002601  -0.016457   0.000954   0.002156
   41  F  3 YY   -0.013945   0.007208   0.012593  -0.002643  -0.002474
   42  F  3 ZZ    0.009485  -0.009810   0.003864   0.001689   0.000318
   43  F  3 XY   -0.004871   0.002800   0.004160  -0.003795  -0.015776
   44  F  3 XZ   -0.009991   0.006665  -0.008117   0.001001   0.029526
   45  F  3 YZ    0.004994   0.007226  -0.005916   0.004732   0.019050
   46  H  4  S    0.158202   0.349205  -0.272089   0.568783  -0.377280
   47  H  4  S   -1.246426  -0.601005   1.746048  -0.110347  -0.558869
   48  H  4  X   -0.012707  -0.040657   0.032709   0.002120   0.029474
   49  H  4  Y    0.053421   0.057459  -0.068597   0.041341   0.029924
   50  H  4  Z   -0.030591   0.023625   0.016729  -0.005833  -0.019086
   51  H  5  S   -0.318121   0.722656  -0.259547   0.181052  -0.395333
   52  H  5  S    1.248379  -0.334094  -0.472091  -1.332758  -0.883284
   53  H  5  X   -0.010733   0.023018   0.001006   0.017461   0.020784
   54  H  5  Y    0.040478  -0.040309   0.000979  -0.064937   0.005771
   55  H  5  Z    0.055011  -0.037457  -0.007045  -0.040393  -0.027198
   56  F  6  S    0.003969  -0.008909  -0.007012  -0.001900   0.030255
   57  F  6  S   -0.009076   0.060175   0.009938  -0.013730  -0.136123
   58  F  6  S   -0.051486  -0.118069   0.112814   0.117800  -0.106163
   59  F  6  X   -0.043892  -0.075927   0.026084   0.017281   0.051288
   60  F  6  Y   -0.029159  -0.062007  -0.022555  -0.117631   0.031830
   61  F  6  Z    0.003821   0.026191   0.085876   0.067634  -0.007703
   62  F  6  X   -0.014525  -0.020017  -0.103141  -0.042045   0.097866
   63  F  6  Y   -0.061018  -0.039497  -0.097463   0.003938  -0.136077
   64  F  6  Z    0.030068  -0.033150   0.048019   0.085098  -0.089139
   65  F  6 XX   -0.002224   0.001547   0.013191   0.000681   0.002942
   66  F  6 YY   -0.006906   0.002512  -0.011983   0.005319  -0.010084
   67  F  6 ZZ    0.009130  -0.004059  -0.001208  -0.006000   0.007142
   68  F  6 XY    0.000225  -0.000216   0.005405  -0.005954   0.020846
   69  F  6 XZ   -0.009717   0.005911   0.006620   0.001911   0.022618
   70  F  6 YZ    0.002107  -0.008737  -0.001422   0.001308  -0.013268
   71  H  7  S    0.121224   0.384532   0.291032  -0.552124  -0.338580
   72  H  7  S   -0.831105  -0.684392  -1.935933   0.099765  -0.554191
   73  H  7  X    0.004568   0.037515   0.032555   0.003616  -0.032069
   74  H  7  Y    0.045160   0.053717   0.080887  -0.039624   0.033202
   75  H  7  Z    0.014290  -0.037184   0.002995   0.010139   0.008598
   76  H  8  S   -0.369458   0.618219   0.159980  -0.221445  -0.357708
   77  H  8  S    1.072787  -0.238084   0.720938   1.346371  -0.881027
   78  H  8  X    0.007968  -0.021308   0.003488   0.012905  -0.018427
   79  H  8  Y    0.022175  -0.033133   0.005032   0.055039   0.010999
   80  H  8  Z   -0.060271   0.035677  -0.021528  -0.059938   0.026037

                     36         37         38         39         40
                    0.9200     0.9548     0.9739     1.0320     1.1430
                     A          A          A          A          A   
    1  C  1  S   -0.009822   0.000833   0.017831  -0.020902   0.024112
    2  C  1  S   -0.432718  -0.084608   0.573903  -0.072097   1.303490
    3  C  1  S    2.173955   0.340477  -2.855972   1.561738  -4.945963
    4  C  1  X    0.029058  -0.025285  -0.082325   0.164477   0.204030
    5  C  1  Y   -0.095823   0.092384   0.080245  -0.154025  -0.111286
    6  C  1  Z   -0.080958   0.023476  -0.014552  -0.137871  -0.012913
    7  C  1  X   -0.501915  -0.083868   0.669043  -0.308509   1.364263
    8  C  1  Y    0.086728  -0.122944  -0.137193  -0.048774   0.169961
    9  C  1  Z   -0.356416   0.251535   0.708332  -0.100869   0.866673
   10  C  1 XX    0.179004   0.034466   0.002364   0.023867   0.008474
   11  C  1 YY   -0.054363  -0.063801  -0.007294  -0.014947   0.010003
   12  C  1 ZZ   -0.124641   0.029335   0.004931  -0.008920  -0.018477
   13  C  1 XY    0.054187   0.147075   0.100227  -0.110697  -0.018454
   14  C  1 XZ   -0.080412  -0.058520  -0.011525  -0.049516  -0.066890
   15  C  1 YZ   -0.048725   0.169945  -0.067253   0.119440  -0.002940
   16  C  2  S    0.011690   0.002660  -0.020299   0.003756  -0.031965
   17  C  2  S    0.326725  -0.038940  -0.375018   0.501153  -1.270417
   18  C  2  S   -2.141121  -0.112605   2.973980  -1.111987   5.011824
   19  C  2  X    0.054525   0.070472  -0.178134  -0.142814   0.145597
   20  C  2  Y    0.123083   0.094013  -0.130162  -0.078016   0.073555
   21  C  2  Z   -0.155367  -0.059281   0.096202   0.136808  -0.007046
   22  C  2  X   -0.494126   0.000799   0.661968  -0.352688   1.323136
   23  C  2  Y   -0.209562  -0.255655   0.222583  -0.186667   0.174269
   24  C  2  Z   -0.358951  -0.321141   0.485666  -0.361886   0.854340
   25  C  2 XX   -0.162781   0.067806   0.024495  -0.001703  -0.006174
   26  C  2 YY    0.022469  -0.125264  -0.084096  -0.030676  -0.013548
   27  C  2 ZZ    0.140312   0.057458   0.059601   0.032378   0.019722
   28  C  2 XY    0.017553  -0.179569   0.098583   0.062767   0.009586
   29  C  2 XZ    0.075806   0.000500  -0.055702  -0.068861   0.081063
   30  C  2 YZ   -0.013037  -0.080875  -0.135229  -0.063066   0.017199
   31  F  3  S   -0.025385  -0.014877   0.063416   0.025567   0.013641
   32  F  3  S    0.080137   0.059507  -0.306588  -0.135351  -0.064822
   33  F  3  S    0.183793   0.037546  -0.147578   0.099137  -0.281926
   34  F  3  X   -0.496541  -0.082731   0.143924   0.257772  -0.251202
   35  F  3  Y    0.165538  -0.441714   0.230463   0.197673  -0.157285
   36  F  3  Z   -0.156025  -0.286602  -0.500185  -0.263561   0.082775
   37  F  3  X    0.733091   0.179880  -0.471317  -0.420590   0.221417
   38  F  3  Y   -0.042823   0.578590  -0.476320  -0.305618   0.164877
   39  F  3  Z    0.078788   0.295444   0.759725   0.412205  -0.088387
   40  F  3 XX    0.018617  -0.001848   0.001695   0.025769  -0.042036
   41  F  3 YY   -0.019853   0.010888   0.005725  -0.014351   0.030249
   42  F  3 ZZ    0.001236  -0.009040  -0.007420  -0.011417   0.011787
   43  F  3 XY    0.001260  -0.002240   0.006679   0.035837  -0.063922
   44  F  3 XZ    0.015049   0.024976  -0.015649  -0.019149   0.013722
   45  F  3 YZ    0.012715  -0.004990  -0.004705  -0.018988   0.037217
   46  H  4  S    0.155114   0.004836  -0.273635   0.170264  -0.490249
   47  H  4  S    0.273626   0.148260  -0.203060   0.116332  -0.186130
   48  H  4  X    0.053689  -0.098699   0.031244   0.028225   0.001861
   49  H  4  Y   -0.006322  -0.061141   0.004211  -0.001757   0.012923
   50  H  4  Z   -0.043344  -0.050757  -0.085443  -0.035823  -0.021430
   51  H  5  S    0.130801  -0.064146  -0.287005   0.201903  -0.487074
   52  H  5  S    0.114192  -0.240268   0.030861  -0.208391  -0.245600
   53  H  5  X   -0.086773   0.090116   0.014703   0.007910  -0.029304
   54  H  5  Y    0.017668   0.058318   0.073345   0.036565  -0.008898
   55  H  5  Z   -0.026291  -0.006436  -0.062360  -0.019603  -0.028602
   56  F  6  S    0.019679  -0.001780  -0.045696   0.059436  -0.008931
   57  F  6  S   -0.070585  -0.000048   0.235739  -0.342716   0.013676
   58  F  6  S   -0.124593   0.005466   0.087881   0.075977   0.294033
   59  F  6  X   -0.414428   0.140023   0.034268  -0.348335  -0.293632
   60  F  6  Y   -0.283616  -0.188613  -0.278216   0.355817   0.283920
   61  F  6  Z   -0.063865   0.471671  -0.144209   0.338025   0.103246
   62  F  6  X    0.590824  -0.177015  -0.244973   0.642267   0.237134
[...]
   27  C  2 ZZ   -0.002741   0.009306  -0.009362  -0.009247   0.020104
   28  C  2 XY    0.002658   0.018117   0.003643  -0.014253   0.020652
   29  C  2 XZ   -0.006540  -0.009524   0.011164  -0.031976   0.049190
   30  C  2 YZ   -0.011157  -0.007552   0.000499   0.010926  -0.011049
   31  F  3  S   -0.032023  -0.052062   0.022179   0.004559  -0.007643
   32  F  3  S    0.059215   0.096511  -0.041424   0.005549   0.024479
   33  F  3  S    0.262765   0.454157  -0.189547  -0.099814   0.034517
   34  F  3  X    0.134270   0.107820  -0.010943  -0.098023   0.083721
   35  F  3  Y    0.077376   0.102122   0.012475  -0.019051   0.001463
   36  F  3  Z   -0.050437  -0.068392   0.034667  -0.059985   0.092159
   37  F  3  X    0.163304   0.130968  -0.041769  -0.200828   0.097332
   38  F  3  Y    0.088993   0.156284   0.040387  -0.003448   0.020020
   39  F  3  Z   -0.076995  -0.080136   0.072285  -0.111047   0.133068
   40  F  3 XX    0.001566   0.002599  -0.000268   0.005947   0.002286
   41  F  3 YY    0.001614  -0.003698  -0.004377   0.003726  -0.003778
   42  F  3 ZZ   -0.003179   0.001099   0.004645  -0.009673   0.001493
   43  F  3 XY   -0.002279  -0.001722  -0.005289   0.002218   0.002939
   44  F  3 XZ    0.002427  -0.000727  -0.000845  -0.005633   0.005235
   45  F  3 YZ    0.002239   0.002020   0.000183   0.005405   0.000302
   46  H  4  S    0.074139  -0.044731   0.018871   0.086575  -0.237947
   47  H  4  S    0.848562   0.617462   1.374419   0.885437   0.017551
   48  H  4  X   -0.001911   0.013130  -0.012683   0.002902  -0.008592
   49  H  4  Y    0.010108   0.009918   0.008114   0.016547  -0.005756
   50  H  4  Z   -0.007884  -0.009840  -0.006645   0.015122  -0.024080
   51  H  5  S    0.017892   0.037887  -0.028586   0.078902  -0.272680
   52  H  5  S    0.849637  -0.989459  -1.052640   0.064901  -0.198187
   53  H  5  X    0.007672   0.001481  -0.008819   0.018158  -0.017976
   54  H  5  Y   -0.001385   0.015927   0.001833  -0.011180   0.010292
   55  H  5  Z   -0.011142   0.004878   0.011781   0.009116  -0.020641
   56  F  6  S    0.031886  -0.053066  -0.019222  -0.004366  -0.007630
   57  F  6  S   -0.058941   0.098419   0.035950  -0.005779   0.025023
   58  F  6  S   -0.261526   0.462247   0.163625   0.097272   0.031422
   59  F  6  X    0.135724  -0.110610  -0.004776  -0.097728  -0.085388
   60  F  6  Y   -0.084268   0.112730  -0.009417  -0.000269  -0.024119
   61  F  6  Z   -0.027844   0.041392   0.034202  -0.062831  -0.087734
   62  F  6  X    0.165124  -0.136933  -0.033582  -0.199659  -0.097020
   63  F  6  Y   -0.101748   0.166124  -0.030384  -0.031197  -0.018022
   64  F  6  Z   -0.050378   0.040993   0.077905  -0.107812  -0.132903
   65  F  6 XX   -0.001489   0.002548   0.000333  -0.006038   0.002150
   66  F  6 YY   -0.000419  -0.003956   0.003864  -0.000300  -0.003526
   67  F  6 ZZ    0.001908   0.001408  -0.004197   0.006339   0.001377
   68  F  6 XY   -0.002859   0.001351  -0.005069   0.003455  -0.001084
   69  F  6 XZ   -0.001785  -0.001020   0.002308   0.004679   0.005923
   70  F  6 YZ    0.003271  -0.000526  -0.002374   0.008660   0.001340
   71  H  7  S   -0.074831  -0.046174  -0.016643  -0.085902  -0.238375
   72  H  7  S   -0.852165   0.535591  -1.408122  -0.884127   0.017374
   73  H  7  X   -0.001744  -0.014044  -0.011704   0.003354   0.008696
   74  H  7  Y   -0.011881   0.011201  -0.010524  -0.011943   0.000869
   75  H  7  Z   -0.005024   0.006663  -0.004609   0.018829   0.024561
   76  H  8  S   -0.016822   0.039770   0.026050  -0.077253  -0.267604
   77  H  8  S   -0.842957  -0.924582   1.111988  -0.069685  -0.203210
   78  H  8  X    0.007570  -0.002370  -0.008649   0.017924   0.017909
   79  H  8  Y   -0.001344   0.014034   0.000282   0.013544   0.015853
   80  H  8  Z   -0.011055  -0.008091   0.012426   0.005716   0.017544

                     26         27
                    0.3902     0.3943
                     A          A   
    1  C  1  S   -0.030704  -0.034945
    2  C  1  S    0.246399   0.248612
    3  C  1  S   -0.208350  -0.212792
    4  C  1  X    0.429010   0.430060
    5  C  1  Y   -0.418691  -0.339786
    6  C  1  Z   -0.174670  -0.238361
    7  C  1  X   -0.393825  -0.505903
    8  C  1  Y    0.727734   0.566113
    9  C  1  Z    0.371447   0.298030
   10  C  1 XX   -0.019952  -0.003503
   11  C  1 YY    0.006166  -0.030876
   12  C  1 ZZ    0.013786   0.034379
   13  C  1 XY    0.021288   0.014342
   14  C  1 XZ    0.038197   0.002249
   15  C  1 YZ    0.005364  -0.021525
   16  C  2  S    0.030289  -0.035660
   17  C  2  S   -0.243002   0.252722
   18  C  2  S    0.210563  -0.215093
   19  C  2  X    0.416651  -0.427582
   20  C  2  Y    0.366337  -0.280884
   21  C  2  Z   -0.272829   0.322954
   22  C  2  X   -0.376300   0.495864
   23  C  2  Y   -0.609525   0.485289
   24  C  2  Z    0.535498  -0.444149
   25  C  2 XX    0.019575  -0.003074
   26  C  2 YY   -0.004645  -0.017476
   27  C  2 ZZ   -0.014930   0.020550
   28  C  2 XY    0.011473  -0.013033
   29  C  2 XZ   -0.042384   0.005638
   30  C  2 YZ    0.001691   0.037715
   31  F  3  S    0.002668   0.002344
   32  F  3  S    0.062292  -0.067194
   33  F  3  S   -0.397845   0.343132
   34  F  3  X    0.192512  -0.146977
   35  F  3  Y    0.085615  -0.184423
   36  F  3  Z   -0.139046   0.091424
   37  F  3  X   -0.071323   0.010972
   38  F  3  Y    0.001819  -0.004407
   39  F  3  Z   -0.006558  -0.008106
   40  F  3 XX   -0.018612   0.007763
   41  F  3 YY    0.011719  -0.003057
   42  F  3 ZZ    0.006893  -0.004705
   43  F  3 XY   -0.022459   0.032646
   44  F  3 XZ    0.026990  -0.023292
   45  F  3 YZ    0.021371  -0.013793
   46  H  4  S    0.033572  -0.307353
   47  H  4  S    0.105043   0.000071
   48  H  4  X    0.019635  -0.004204
   49  H  4  Y   -0.000388   0.000186
   50  H  4  Z    0.020433   0.020299
   51  H  5  S    0.201325   0.127740
   52  H  5  S    0.052692  -0.038323
   53  H  5  X    0.001714  -0.018181
   54  H  5  Y    0.004592  -0.004372
   55  H  5  Z   -0.006550  -0.020420
   56  F  6  S   -0.002699   0.002177
   57  F  6  S   -0.062859  -0.065944
   58  F  6  S    0.401811   0.339776
   59  F  6  X    0.195663   0.149120
   60  F  6  Y   -0.116832  -0.196580
   61  F  6  Z   -0.113372  -0.038737
   62  F  6  X   -0.072452  -0.010959
   63  F  6  Y   -0.005271  -0.001875
   64  F  6  Z   -0.006609   0.009738
   65  F  6 XX    0.019744   0.009004
   66  F  6 YY   -0.003255   0.001325
   67  F  6 ZZ   -0.016489  -0.010329
   68  F  6 XY   -0.028446  -0.036997
   69  F  6 XZ   -0.020874  -0.014037
   70  F  6 YZ    0.019588   0.010967
   71  H  7  S   -0.040708  -0.306783
   72  H  7  S   -0.104295   0.001794
   73  H  7  X    0.019679   0.003997
   74  H  7  Y    0.005986  -0.005060
   75  H  7  Z    0.019548  -0.019930
   76  H  8  S   -0.202017   0.132963
   77  H  8  S   -0.054102  -0.038465
   78  H  8  X    0.002208   0.018344
   79  H  8  Y   -0.005844   0.001618
   80  H  8  Z   -0.004878   0.020851

     ---------------------------------------------------------------------
     PROPERTIES FOR THE PBE      DFT FUNCTIONAL (RHF  TYPE) DENSITY MATRIX
     ---------------------------------------------------------------------

          -----------------
          ENERGY COMPONENTS
          -----------------

         WAVEFUNCTION NORMALIZATION =       1.0000000000

                ONE ELECTRON ENERGY =    -631.6909482565
                TWO ELECTRON ENERGY =     228.8104451339
           NUCLEAR REPULSION ENERGY =     124.9464445437
                                      ------------------
                       TOTAL ENERGY =    -277.9340585788

 ELECTRON-ELECTRON POTENTIAL ENERGY =     228.8104451339
  NUCLEUS-ELECTRON POTENTIAL ENERGY =    -908.7644322177
   NUCLEUS-NUCLEUS POTENTIAL ENERGY =     124.9464445437
                                      ------------------
             TOTAL POTENTIAL ENERGY =    -555.0075425401
               TOTAL KINETIC ENERGY =     277.0734839613
                 VIRIAL RATIO (V/T) =       2.0031059436

          ---------------------------------------
          MULLIKEN AND LOWDIN POPULATION ANALYSES
          ---------------------------------------

     ATOMIC MULLIKEN POPULATION IN EACH MOLECULAR ORBITAL

                      1          2          3          4          5

                  2.000000   2.000000   2.000000   2.000000   2.000000

    1            -0.000109   0.001248   0.266671   1.733084   0.105418
    2             0.001246  -0.000106   1.732752   0.266996   0.116038
    3             1.997800   0.001065  -0.000443  -0.000061   0.936703
    4            -0.000010  -0.000001   0.000335  -0.000005   0.003162
    5            -0.000008   0.000014   0.000443  -0.000020   0.006665
    6             0.001067   1.997799  -0.000072  -0.000430   0.822755
    7            -0.000001  -0.000010   0.000111   0.000219   0.002805
    8             0.000015  -0.000009   0.000203   0.000218   0.006454

                      6          7          8          9         10

                  2.000000   2.000000   2.000000   2.000000   2.000000

    1             0.091564   0.708324   0.477967   0.470505   0.379998
    2             0.081278   0.708904   0.476496   0.462667   0.394723
    3             0.853049   0.158718   0.256889   0.348253   0.466975
    4             0.002433   0.072548   0.119611   0.192886   0.002968
    5             0.000642   0.060483   0.145783   0.013771   0.130357
    6             0.967372   0.158389   0.256737   0.296262   0.504061
    7             0.002805   0.072439   0.119970   0.191976   0.002209
    8             0.000858   0.060194   0.146547   0.023680   0.118709

                     11         12         13         14         15

                  2.000000   2.000000   2.000000   2.000000   2.000000

    1             0.407814   0.304727   0.350508   0.054245   0.129190
    2             0.406514   0.294081   0.355963   0.053872   0.131773
    3             0.569412   0.477465   0.443967   0.913617   0.669757
    4             0.016935   0.196778   0.003335   0.019517   0.044667
    5             0.003441   0.017870   0.204329   0.012309   0.163571
    6             0.575398   0.487246   0.437286   0.915008   0.657907
    7             0.016854   0.195955   0.005943   0.019167   0.042836
    8             0.003632   0.025879   0.198669   0.012264   0.160301

                     16         17

                  2.000000   2.000000

    1             0.152011   0.246840
    2             0.151712   0.244695
    3             0.602044   0.635918
    4             0.140125   0.087111
    5             0.098111   0.028637
    6             0.617103   0.637917
    7             0.136440   0.092669
    8             0.102454   0.026213

               ----- POPULATIONS IN EACH AO -----
                             MULLIKEN      LOWDIN
              1  C  1  S      1.99340     1.97169
              2  C  1  S      0.76043     0.38635
              3  C  1  S      0.37604     0.28154
              4  C  1  X      0.64026     0.58664
              5  C  1  Y      0.68470     0.61806
              6  C  1  Z      0.73828     0.66866
              7  C  1  X      0.14599     0.25535
              8  C  1  Y      0.21989     0.32940
              9  C  1  Z      0.25899     0.35330
             10  C  1 XX      0.01094     0.16242
             11  C  1 YY      0.01570     0.16153
             12  C  1 ZZ      0.01541     0.15746
             13  C  1 XY      0.01407     0.02945
             14  C  1 XZ      0.00592     0.02924
             15  C  1 YZ      0.00000     0.01124
             16  C  2  S      1.99340     1.97168
             17  C  2  S      0.76028     0.38623
             18  C  2  S      0.37572     0.28147
             19  C  2  X      0.64526     0.59086
             20  C  2  Y      0.71203     0.64164
             21  C  2  Z      0.70637     0.64169
             22  C  2  X      0.14934     0.25875
             23  C  2  Y      0.24558     0.35087
             24  C  2  Z      0.22947     0.32831
             25  C  2 XX      0.00956     0.16190
             26  C  2 YY      0.01382     0.15644
             27  C  2 ZZ      0.01371     0.15443
             28  C  2 XY      0.01605     0.02657
             29  C  2 XZ      0.00902     0.03291
             30  C  2 YZ      0.00000     0.02105
             31  F  3  S      1.99544     1.97164
             32  F  3  S      0.94933     0.75174
             33  F  3  S      0.99745     0.52600
             34  F  3  X      1.08034     1.03927
             35  F  3  Y      1.17099     1.13799
             36  F  3  Z      1.16118     1.12657
             37  F  3  X      0.62153     0.65161
             38  F  3  Y      0.67340     0.70355
             39  F  3  Z      0.67114     0.70040
             40  F  3 XX      0.00137     0.19317
             41  F  3 YY      0.00209     0.19044
             42  F  3 ZZ      0.00268     0.19081
             43  F  3 XY      0.00271     0.00347
             44  F  3 XZ      0.00147     0.00347
             45  F  3 YZ      0.00000     0.00206
             46  H  4  S      0.77214     0.65180
             47  H  4  S      0.11344     0.21493
             48  H  4  X      0.00350     0.00814
             49  H  4  Y      0.00972     0.02042
             50  H  4  Z      0.00359     0.00926
             51  H  5  S      0.76254     0.64314
             52  H  5  S      0.10688     0.21664
             53  H  5  X      0.00308     0.00818
             54  H  5  Y      0.00503     0.01071
             55  H  5  Z      0.00888     0.01934
             56  F  6  S      1.99544     1.97165
             57  F  6  S      0.94930     0.75179
             58  F  6  S      0.99767     0.52619
             59  F  6  X      1.07465     1.03333
             60  F  6  Y      1.14126     1.10576
             61  F  6  Z      1.19640     1.16477
             62  F  6  X      0.61851     0.64918
             63  F  6  Y      0.65656     0.68945
             64  F  6  Z      0.69171     0.71759
             65  F  6 XX      0.00136     0.19343
             66  F  6 YY      0.00231     0.19141
             67  F  6 ZZ      0.00332     0.18989
             68  F  6 XY      0.00208     0.00411
             69  F  6 XZ      0.00122     0.00286
             70  F  6 YZ      0.00000     0.00179
             71  H  7  S      0.77214     0.65260
             72  H  7  S      0.11344     0.21496
             73  H  7  X      0.00335     0.00788
             74  H  7  Y      0.01034     0.02168
             75  H  7  Z      0.00311     0.00829
             76  H  8  S      0.76251     0.64447
             77  H  8  S      0.10680     0.21667
             78  H  8  X      0.00297     0.00794
             79  H  8  Y      0.00339     0.00775
             80  H  8  Z      0.01060     0.02269

          ----- MULLIKEN ATOMIC OVERLAP POPULATIONS -----
          (OFF-DIAGONAL ELEMENTS NEED TO BE MULTIPLIED BY 2)

             1           2           3           4           5

    1    4.6304580
    2    0.3834198   4.6295286
    3   -0.0403296   0.2393761   9.1792160
    4   -0.0326581   0.3688273  -0.0302004   0.6201129
    5   -0.0466863   0.3777712  -0.0263279  -0.0294982   0.5915910
    6    0.2389904  -0.0403084   0.0006061   0.0036450   0.0052429
    7    0.3686688  -0.0326724   0.0036546  -0.0031159   0.0053350
    8    0.3781417  -0.0463378   0.0051302   0.0052819   0.0089710

             6           7           8

    6    9.1802382
    7   -0.0301733   0.6201658
    8   -0.0264373  -0.0294735   0.5910039

          TOTAL MULLIKEN AND LOWDIN ATOMIC POPULATIONS
       ATOM         MULL.POP.    CHARGE          LOW.POP.     CHARGE
    1 C             5.880005    0.119995         6.002329   -0.002329
    2 C             5.879604    0.120396         6.004792   -0.004792
    3 F             9.331125   -0.331125         9.192185   -0.192185
    4 H             0.902395    0.097605         0.904548    0.095452
    5 H             0.886399    0.113601         0.898008    0.101992
    6 F             9.331804   -0.331804         9.193202   -0.193202
    7 H             0.902389    0.097611         0.905418    0.094582
    8 H             0.886280    0.113720         0.899520    0.100480

          MULLIKEN SPHERICAL HARMONIC POPULATIONS
       ATOM           S       P       D      F      G      H      I    TOTAL
    1 C             3.13    2.69    0.06   0.00   0.00   0.00   0.00    5.88
    2 C             3.13    2.69    0.06   0.00   0.00   0.00   0.00    5.88
    3 F             3.94    5.38    0.01   0.00   0.00   0.00   0.00    9.33
    4 H             0.89    0.02    0.00   0.00   0.00   0.00   0.00    0.90
    5 H             0.87    0.02    0.00   0.00   0.00   0.00   0.00    0.89
    6 F             3.94    5.38    0.01   0.00   0.00   0.00   0.00    9.33
    7 H             0.89    0.02    0.00   0.00   0.00   0.00   0.00    0.90
    8 H             0.87    0.02    0.00   0.00   0.00   0.00   0.00    0.89

          -------------------------------
          BOND ORDER AND VALENCE ANALYSIS     BOND ORDER THRESHOLD=0.050
          -------------------------------

                   BOND                       BOND                       BOND
  ATOM PAIR DIST  ORDER      ATOM PAIR DIST  ORDER      ATOM PAIR DIST  ORDER
    1   2  1.522  1.030        1   6  1.402  0.912        1   7  1.107  0.941
    1   8  1.107  0.940        2   3  1.401  0.913        2   4  1.107  0.941
    2   5  1.107  0.940

                       TOTAL       BONDED        FREE
      ATOM            VALENCE     VALENCE     VALENCE
    1 C                 3.829       3.829      -0.000
    2 C                 3.829       3.829      -0.000
    3 F                 0.976       0.976      -0.000
    4 H                 0.955       0.955       0.000
    5 H                 0.969       0.969       0.000
    6 F                 0.975       0.975      -0.000
    7 H                 0.955       0.955       0.000
    8 H                 0.969       0.969       0.000

          ---------------------
          ELECTROSTATIC MOMENTS
          ---------------------

 POINT   1           X           Y           Z (BOHR)    CHARGE
                 0.000000    0.000000    0.000000       -0.00 (A.U.)
         DX          DY          DZ         /D/  (DEBYE)
    -0.025240    1.858071   -0.244612    1.874273
 ...... END OF PROPERTY EVALUATION ......
 STEP CPU TIME =     0.02 TOTAL CPU TIME =         79.6 (      1.3 MIN)
 TOTAL WALL CLOCK TIME=         80.0 SECONDS, CPU UTILIZATION IS    99.51%
  $VIB   
          IVIB=   0 IATOM=   0 ICOORD=   0 E=     -277.9340585788
 -3.255992357E-06-8.585069300E-05 5.126035057E-05-4.667331534E-05 6.907620632E-07
 -5.923640794E-05-8.470134152E-06-1.451112838E-05 5.284883405E-05 3.783277555E-05
  1.395607724E-05-1.886549040E-06 1.980164467E-05 2.445259090E-05-1.942977694E-05
  2.054415727E-05 1.897094850E-05-1.612993800E-05-1.371153229E-05 1.289922138E-05
 -2.099466809E-05-6.067603344E-06 2.939222129E-05 1.356815538E-05
 -2.524009227E-02 1.858071052E+00-2.446121560E-01
 ......END OF GEOMETRY SEARCH......
 STEP CPU TIME =     0.00 TOTAL CPU TIME =         79.6 (      1.3 MIN)
 TOTAL WALL CLOCK TIME=         80.0 SECONDS, CPU UTILIZATION IS    99.50%
                991181  WORDS OF DYNAMIC MEMORY USED
 EXECUTION OF GAMESS TERMINATED NORMALLY Sun Oct  6 23:37:58 2019
 DDI: 263640 bytes (0.3 MB / 0 MWords) used by master data server.

 ----------------------------------------
 CPU timing information for all processes
 ========================================
 0: 78.212 + 1.364 = 79.577
 ----------------------------------------
 ddikick.x: exited gracefully.
----- accounting info -----
Files used on the master node d12chas543.crc.nd.edu were:
-rw-r--r-- 1 wschnei1 campus 354655 Oct  6 23:37 /scratch365/wschnei1/110-PC1.F07
Sun Oct  6 23:38:01 EDT 2019
0.441u 0.336s 1:23.69 0.9%	0+0k 0+32io 0pf+0w
