----- GAMESS execution script 'rungms' -----
This job is running on host d12chas543.crc.nd.edu
under operating system Linux at Sun Oct 6 23:38:01 EDT 2019
SGE has assigned the following compute nodes to this run:
Available scratch disk space (Kbyte units) at beginning of the job is
Filesystem      1K-blocks     Used  Available Use% Mounted on
/dev/sda2      1949705068 64565572 1885139496   4% /
GAMESS temporary binary files will be written to /tmp/474112.1.debug
GAMESS supplementary output files will be written to /afs/crc.nd.edu/user/w/wschnei1/scr
Copying input file 120-PC1.inp to your run's scratch directory...
reading your own /afs/crc.nd.edu/user/w/wschnei1/.gmsrc

 Distributed Data Interface kickoff program.
 Initiating 1 compute processes on 1 nodes to run the following command:
 /afs/crc.nd.edu/x86_64_linux/g/gamess/nov-2017/gamess/gamess.00.x 120-PC1 

          ******************************************************
          *         GAMESS VERSION = 11 NOV 2017 (R3)         *
          *             FROM IOWA STATE UNIVERSITY             *
          * M.W.SCHMIDT, K.K.BALDRIDGE, J.A.BOATZ, S.T.ELBERT, *
          *   M.S.GORDON, J.H.JENSEN, S.KOSEKI, N.MATSUNAGA,   *
          *          K.A.NGUYEN, S.J.SU, T.L.WINDUS,           *
          *       TOGETHER WITH M.DUPUIS, J.A.MONTGOMERY       *
          *         J.COMPUT.CHEM.  14, 1347-1363(1993)        *
          **************** 64 BIT INTEL VERSION ****************

  SINCE 1993, STUDENTS AND POSTDOCS WORKING AT IOWA STATE UNIVERSITY
  AND ALSO IN THEIR VARIOUS JOBS AFTER LEAVING ISU HAVE MADE IMPORTANT
  CONTRIBUTIONS TO THE CODE:
     IVANA ADAMOVIC, CHRISTINE AIKENS, YURI ALEXEEV, POOJA ARORA,
     ANDREY ASADCHEV, ROB BELL, PRADIPTA BANDYOPADHYAY, JONATHAN BENTZ,
     BRETT BODE, KURT BRORSEN, CALEB CARLIN, GALINA CHABAN, WEI CHEN,
     CHEOL HO CHOI, PAUL DAY, ALBERT DEFUSCO, NUWAN DESILVA, TIM DUDLEY,
     DMITRI FEDOROV, ALEX FINDLATER, GRAHAM FLETCHER, MARK FREITAG,
     KURT GLAESEMANN, ANASTASIA GUININA,
     DAN KEMP, GRANT MERRILL, NORIYUKI MINEZAWA, JONATHAN MULLIN,
     TAKESHI NAGATA, SEAN NEDD, HEATHER NETZLOFF, BOSILJKA NJEGIC, RYAN OLSON,
     MIKE PAK, BUU PHAM,
     SPENCER PRUITT, LUKE ROSKOP, JIM SHOEMAKER, LYUDMILA SLIPCHENKO,
     TONY SMITH, SAROM SOK LEANG, JIE SONG, TETSUYA TAKETSUGU, SIMON WEBB,
     PENG XU, SOOHAENG YOO, FEDERICO ZAHARIEV

  ADDITIONAL CODE HAS BEEN PROVIDED BY COLLABORATORS IN OTHER GROUPS:
     IOWA STATE UNIVERSITY:
          JOE IVANIC, AARON WEST, LAIMUTIS BYTAUTAS, KLAUS RUEDENBERG
     UNIVERSITY OF TOKYO: KIMIHIKO HIRAO, TAKAHITO NAKAJIMA,
          TAKAO TSUNEDA, MUNEAKI KAMIYA, SUSUMU YANAGISAWA,
          KIYOSHI YAGI, MAHITO CHIBA, SEIKEN TOKURA, NAOAKI KAWAKAMI
     UNIVERSITY OF AARHUS: FRANK JENSEN
     UNIVERSITY OF IOWA: VISVALDAS KAIRYS, HUI LI
     NATIONAL INST. OF STANDARDS AND TECHNOLOGY: WALT STEVENS, DAVID GARMER
     UNIVERSITY OF PISA: BENEDETTA MENNUCCI, JACOPO TOMASI
     UNIVERSITY OF MEMPHIS: HENRY KURTZ, PRAKASHAN KORAMBATH
     UNIVERSITY OF ALBERTA: TOBY ZENG, MARIUSZ KLOBUKOWSKI
     UNIVERSITY OF NEW ENGLAND: MARK SPACKMAN
     MIE UNIVERSITY: HIROAKI UMEDA
     NAT. INST. OF ADVANCED INDUSTRIAL SCIENCE AND TECHNOLOGY: KAZUO KITAURA
     MICHIGAN STATE UNIVERSITY:
          KAROL KOWALSKI, MARTA WLOCH, JEFFREY GOUR, JESSE LUTZ,
          WEI LI, PIOTR PIECUCH
     UNIVERSITY OF SILESIA: MONIKA MUSIAL, STANISLAW KUCHARSKI
     FACULTES UNIVERSITAIRES NOTRE-DAME DE LA PAIX:
          OLIVIER QUINET, BENOIT CHAMPAGNE
     UNIVERSITY OF CALIFORNIA - SANTA BARBARA: BERNARD KIRTMAN
     INSTITUTE FOR MOLECULAR SCIENCE:
          KAZUYA ISHIMURA, MICHIO KATOUDA, AND SHIGERU NAGASE
     UNIVERSITY OF NOTRE DAME: ANNA POMOGAEVA, DAN CHIPMAN
     KYUSHU UNIVERSITY:
          HARUYUKI NAKANO,
          FENG LONG GU, JACEK KORCHOWIEC, MARCIN MAKOWSKI, AND YURIKO AOKI,
          HIROTOSHI MORI AND EISAKU MIYOSHI
     PENNSYLVANIA STATE UNIVERSITY:
          TZVETELIN IORDANOV, CHET SWALINA, JONATHAN SKONE,
          SHARON HAMMES-SCHIFFER
     WASEDA UNIVERSITY:
          MASATO KOBAYASHI, TOMOKO AKAMA, TSUGUKI TOUMA,
          TAKESHI YOSHIKAWA, YASUHIRO IKABATA, JUNJI SEINO,
          YUYA NAKAJIMA, HIROMI NAKAI
     NANJING UNIVERSITY: SHUHUA LI
     UNIVERSITY OF NEBRASKA:
          PEIFENG SU, DEJUN SI, NANDUN THELLAMUREGE, YALI WANG, HUI LI
     UNIVERSITY OF ZURICH: ROBERTO PEVERATI, KIM BALDRIDGE
     N. COPERNICUS UNIVERSITY AND JACKSON STATE UNIVERSITY:
          MARIA BARYSZ
     UNIVERSITY OF COPENHAGEN: Jimmy Kromann, CASPER STEINMANN
     TOKYO INSTITUTE OF TECHNOLOGY: HIROYA NAKATA
     NAGOYA UNIVERSITY: YOSHIO NISHIMOTO, STEPHAN IRLE
     MOSCOW STATE UNIVERSITY: VLADIMIR MIRONOV

 EXECUTION OF GAMESS BEGUN Sun Oct  6 23:38:01 2019

            ECHO OF THE FIRST FEW INPUT CARDS -
 INPUT CARD> $CONTRL SCFTYP=RHF DFTTYP=PBE RUNTYP=OPTIMIZE COORD=ZMT NZVAR=18 ISPHER=1 $END 
 INPUT CARD> $BASIS GBASIS=PCseg-1 $END                                                     
 INPUT CARD> $STATPT IFREEZ(1)=12 $END                                                      
 INPUT CARD> $DATA                                                                          
 INPUT CARD>FCH2CH2F eclipsed TS                                                            
 INPUT CARD>C1                                                                              
 INPUT CARD>C                                                                               
 INPUT CARD>C   1   r1                                                                      
 INPUT CARD>F   2   r2   1   A1                                                             
 INPUT CARD>H   2   r3   1   A2   3   D1                                                    
 INPUT CARD>H   2   r4   1   A3   3   D2                                                    
 INPUT CARD>F   1   r5   2   A4   3   D3                                                    
 INPUT CARD>H   1   r6   2   A5   6   D4                                                    
 INPUT CARD>H   1   r7   2   A6   6   D5                                                    
 INPUT CARD>                                                                                
 INPUT CARD>r1=1.5                                                                          
 INPUT CARD>r2=1.4                                                                          
 INPUT CARD>r3=1.1                                                                          
 INPUT CARD>r4=1.1                                                                          
 INPUT CARD>r5=1.5                                                                          
 INPUT CARD>r6=1.1                                                                          
 INPUT CARD>r7=1.1                                                                          
 INPUT CARD>A1=109.54214                                                                    
 INPUT CARD>A2=109.54214                                                                    
 INPUT CARD>A3=109.54214                                                                    
 INPUT CARD>A4=109.54214                                                                    
 INPUT CARD>A5=109.54214                                                                    
 INPUT CARD>A6=109.54214                                                                    
 INPUT CARD>D1=120.                                                                         
 INPUT CARD>D2=-120.                                                                        
 INPUT CARD>D3=120                                                                          
 INPUT CARD>D4=120.                                                                         
 INPUT CARD>D5=-120.                                                                        
 INPUT CARD> $END                                                                           
 INPUT CARD>                                                                                
    1000000 WORDS OF MEMORY AVAILABLE

     BASIS OPTIONS
     -------------
     GBASIS=PCSEG-1      IGAUSS=       0      POLAR=NONE    
     NDFUNC=       0     NFFUNC=       0     DIFFSP=       F
     NPFUNC=       0      DIFFS=       F     BASNAM=        


     RUN TITLE
     ---------
 FCH2CH2F eclipsed TS                                                            

 THE POINT GROUP OF THE MOLECULE IS C1      
 THE ORDER OF THE PRINCIPAL AXIS IS     0

 YOUR FULLY SUBSTITUTED Z-MATRIX IS
 C   
 C      1   1.5000000
 F      2   1.4000000  1  109.5421
 H      2   1.1000000  1  109.5421  3  120.0000  0
 H      2   1.1000000  1  109.5421  3 -120.0000  0
 F      1   1.5000000  2  109.5421  3  120.0000  0
 H      1   1.1000000  2  109.5421  6  120.0000  0
 H      1   1.1000000  2  109.5421  6 -120.0000  0

 THE MOMENTS OF INERTIA ARE (AMU-ANGSTROM**2)
 IXX=    22.106   IYY=   131.009   IZZ=   131.738

 ATOM      ATOMIC                      COORDINATES (BOHR)
           CHARGE         X                   Y                   Z
 C           6.0     1.0416598522        1.1722609295        0.0934186597
 C           6.0    -1.1518082457       -0.1664096852       -1.1030567406
 F           9.0    -3.1811305953       -0.2311383502        0.5930998106
 H           1.0    -1.7253130066        0.8424146177       -2.8276881878
 H           1.0    -0.5980094088       -2.1095036466       -1.5916061433
 F           9.0     3.2642705247       -0.5818418404        0.2276571258
 H           1.0     1.5442707476        2.8378371625       -1.0442218429
 H           1.0     0.5233079481        1.7781546229        2.0131040374

          INTERNUCLEAR DISTANCES (ANGS.)
          ------------------------------

                1 C          2 C          3 F          4 H          5 H     

   1 C       0.0000000    1.5000000 *  2.3695781 *  2.1363170 *  2.1363170 *
   2 C       1.5000000 *  0.0000000    1.4000000 *  1.1000000 *  1.1000000 *
   3 F       2.3695781 *  1.4000000 *  0.0000000    2.0476979 *  2.0476979 *
   4 H       2.1363170 *  1.1000000 *  2.0476979 *  0.0000000    1.7955050 *
   5 H       2.1363170 *  1.1000000 *  2.0476979 *  1.7955050 *  0.0000000  
   6 F       1.5000000 *  2.4505612 *  3.4212746    3.1864902    2.3994950 *
   7 H       1.1000000 *  2.1363170 *  3.1050059    2.2359001 *  2.8675927 *
   8 H       1.1000000 *  2.1363170 *  2.3532944 *  2.8675927 *  2.8675927 *

                6 F          7 H          8 H     

   1 C       1.5000000 *  1.1000000 *  1.1000000 *
   2 C       2.4505612 *  2.1363170 *  2.1363170 *
   3 F       3.4212746    3.1050059    2.3532944 *
   4 H       3.1864902    2.2359001 *  2.8675927 *
   5 H       2.3994950 *  2.8675927 *  2.8675927 *
   6 F       0.0000000    2.1345124 *  2.1345124 *
   7 H       2.1345124 *  0.0000000    1.7955050 *
   8 H       2.1345124 *  1.7955050 *  0.0000000  

  * ... LESS THAN  3.000


     ATOMIC BASIS SET
     ----------------
 THE CONTRACTED PRIMITIVE FUNCTIONS HAVE BEEN UNNORMALIZED
 THE CONTRACTED BASIS FUNCTIONS ARE NOW NORMALIZED TO UNITY

  SHELL TYPE  PRIMITIVE        EXPONENT          CONTRACTION COEFFICIENT(S)

 C         

      1   S       1          1243.2000000    0.005630097702
      1   S       2           187.1450000    0.041950603854
      1   S       3            42.5126000    0.184664360492
      1   S       4            11.7393000    0.466557421368
      1   S       5             3.5054800    0.448234778316

      2   S       6             5.3908900   -0.148114817444
      2   S       7             0.4933410    1.051981714281

      3   S       8             0.1497410    1.000000000000

      4   P       9             9.1805600    0.063992052045
      4   P      10             1.9365800    0.333521296407
      4   P      11             0.5262960    0.741161730513

      5   P      12             0.1363190    1.000000000000

      6   D      13             0.8000000    1.000000000000

 C         

      7   S      14          1243.2000000    0.005630097702
      7   S      15           187.1450000    0.041950603854
      7   S      16            42.5126000    0.184664360492
      7   S      17            11.7393000    0.466557421368
      7   S      18             3.5054800    0.448234778316

      8   S      19             5.3908900   -0.148114817444
      8   S      20             0.4933410    1.051981714281

      9   S      21             0.1497410    1.000000000000

     10   P      22             9.1805600    0.063992052045
     10   P      23             1.9365800    0.333521296407
     10   P      24             0.5262960    0.741161730513

     11   P      25             0.1363190    1.000000000000

     12   D      26             0.8000000    1.000000000000

 F         

     13   S      27          2931.5500000    0.005390132259
     13   S      28           441.1250000    0.040296704072
     13   S      29           100.2320000    0.180202178717
     13   S      30            27.8655000    0.465064284210
     13   S      31             8.4447000    0.452433138251

     14   S      32            13.6123000   -0.151660908297
     14   S      33             1.2612200    1.053515343452

     15   S      34             0.3708000    1.000000000000

     16   P      35            21.9305000    0.070356827475
     16   P      36             4.7855200    0.356742371235
     16   P      37             1.2837800    0.719732016372

     17   P      38             0.3115580    1.000000000000

     18   D      39             1.1000000    1.000000000000

 H         

     19   S      40            12.2518000    0.037217389296
     19   S      41             1.8687100    0.253808206955
     19   S      42             0.4182080    0.797386763917

     20   S      43             0.1061000    1.000000000000

     21   P      44             1.0000000    1.000000000000

 H         

     22   S      45            12.2518000    0.037217389296
     22   S      46             1.8687100    0.253808206955
     22   S      47             0.4182080    0.797386763917

     23   S      48             0.1061000    1.000000000000

     24   P      49             1.0000000    1.000000000000

 F         

     25   S      50          2931.5500000    0.005390132259
     25   S      51           441.1250000    0.040296704072
     25   S      52           100.2320000    0.180202178717
     25   S      53            27.8655000    0.465064284210
     25   S      54             8.4447000    0.452433138251

     26   S      55            13.6123000   -0.151660908297
     26   S      56             1.2612200    1.053515343452

     27   S      57             0.3708000    1.000000000000

     28   P      58            21.9305000    0.070356827475
     28   P      59             4.7855200    0.356742371235
     28   P      60             1.2837800    0.719732016372

     29   P      61             0.3115580    1.000000000000

     30   D      62             1.1000000    1.000000000000

 H         

     31   S      63            12.2518000    0.037217389296
     31   S      64             1.8687100    0.253808206955
     31   S      65             0.4182080    0.797386763917

     32   S      66             0.1061000    1.000000000000

     33   P      67             1.0000000    1.000000000000

 H         

     34   S      68            12.2518000    0.037217389296
     34   S      69             1.8687100    0.253808206955
     34   S      70             0.4182080    0.797386763917

     35   S      71             0.1061000    1.000000000000

     36   P      72             1.0000000    1.000000000000

 TOTAL NUMBER OF BASIS SET SHELLS             =   36
 NUMBER OF CARTESIAN GAUSSIAN BASIS FUNCTIONS =   80
 NOTE: THIS RUN WILL RESTRICT THE MO VARIATION SPACE TO SPHERICAL HARMONICS.
 THE NUMBER OF ORBITALS KEPT IN THE VARIATIONAL SPACE WILL BE PRINTED LATER.
 NUMBER OF ELECTRONS                          =   34
 CHARGE OF MOLECULE                           =    0
 SPIN MULTIPLICITY                            =    1
 NUMBER OF OCCUPIED ORBITALS (ALPHA)          =   17
 NUMBER OF OCCUPIED ORBITALS (BETA )          =   17
 TOTAL NUMBER OF ATOMS                        =    8
 THE NUCLEAR REPULSION ENERGY IS      123.4319783376

     LEBEDEV GRID-BASED DFT OPTIONS
     ------------------------------
     DFTTYP=PBE     
     NRAD  =      96     NLEB  =     302
     NRAD0 =      24     NLEB0 =     110
     SWOFF =    5.00E-03 (PURE SCF -> DFT)
     SWITCH=    3.00E-04 (COARSE -> TIGHT GRID)
     THRESH=    0.00E+00 GTHRE=    1.00E+00

 GRIMME'S EMPIRICAL DISPERSION CORRECTION= F

     $CONTRL OPTIONS
     ---------------
 SCFTYP=RHF          RUNTYP=OPTIMIZE     EXETYP=RUN     
 MPLEVL=       0     CITYP =NONE         CCTYP =NONE         VBTYP =NONE    
 DFTTYP=PBE          TDDFT =NONE    
 MULT  =       1     ICHARG=       0     NZVAR =      18     COORD =ZMT     
 PP    =NONE         RELWFN=NONE         LOCAL =NONE         NUMGRD=       F
 ISPHER=       1     NOSYM =       0     MAXIT =      30     UNITS =ANGS    
 PLTORB=       F     MOLPLT=       F     AIMPAC=       F     FRIEND=        
 NPRINT=       7     IREST =       0     GEOM  =INPUT   
 NORMF =       0     NORMP =       0     ITOL  =      20     ICUT  =       9
 INTTYP=BEST         GRDTYP=BEST         QMTTOL= 1.0E-06

     $SYSTEM OPTIONS
     ---------------
  REPLICATED MEMORY=     1000000 WORDS (ON EVERY NODE).
 DISTRIBUTED MEMDDI=           0 MILLION WORDS IN AGGREGATE,
 MEMDDI DISTRIBUTED OVER   1 PROCESSORS IS           0 WORDS/PROCESSOR.
 TOTAL MEMORY REQUESTED ON EACH PROCESSOR=     1000000 WORDS.
 TIMLIM=      525600.00 MINUTES, OR     365.0 DAYS.
 PARALL= F  BALTYP=  DLB     KDIAG=    0  COREFL= F
 MXSEQ2=     300 MXSEQ3=     150  mem10=         0

          ----------------
          PROPERTIES INPUT
          ----------------

     MOMENTS            FIELD           POTENTIAL          DENSITY
 IEMOM =       1   IEFLD =       0   IEPOT =       0   IEDEN =       0
 WHERE =COMASS     WHERE =NUCLEI     WHERE =NUCLEI     WHERE =NUCLEI  
 OUTPUT=BOTH       OUTPUT=BOTH       OUTPUT=BOTH       OUTPUT=BOTH    
 IEMINT=       0   IEFINT=       0                     IEDINT=       0
                                                       MORB  =       0
          EXTRAPOLATION IN EFFECT
          DIIS IN EFFECT
 ORBITAL PRINTING OPTION: NPREO=     1    80     2     1

     -------------------------------
     INTEGRAL TRANSFORMATION OPTIONS
     -------------------------------
     NWORD  =            0
     CUTOFF = 1.0E-09     MPTRAN =       0
     DIRTRF =       F     AOINTS =DUP     

          ----------------------
          INTEGRAL INPUT OPTIONS
          ----------------------
 NOPK  =       1 NORDER=       0 SCHWRZ=       T

   --- ENCODED Z MATRIX ---
 COORD  TYPE   I   J   K   L   M   N
    1      1    2   1
    2      1    3   2
    3      2    3   2   1
    4      1    4   2
    5      2    4   2   1
    6      3    4   2   1   3
    7      1    5   2
    8      2    5   2   1
    9      3    5   2   1   3
   10      1    6   1
   11      2    6   1   2
   12      3    6   1   2   3
   13      1    7   1
   14      2    7   1   2
   15      3    7   1   2   6
   16      1    8   1
   17      2    8   1   2
   18      3    8   1   2   6

 THE DETERMINANT OF THE G MATRIX IS 10**(   -12)


                     --------------------
                     INTERNAL COORDINATES
                     --------------------

                 - - ATOMS - -         COORDINATE      COORDINATE
 NO.   TYPE    I  J  K  L  M  N        (BOHR,RAD)       (ANG,DEG)
 ----------------------------------------------------------------
   1 STRETCH   2  1                     2.8345890       1.5000000
   2 STRETCH   3  2                     2.6456164       1.4000000
   3 BEND      3  2  1                  1.9118710     109.5421400
   4 STRETCH   4  2                     2.0786986       1.1000000
   5 BEND      4  2  1                  1.9118710     109.5421400
   6 TORSION   4  2  1  3               2.0943951     120.0000000
   7 STRETCH   5  2                     2.0786986       1.1000000
   8 BEND      5  2  1                  1.9118710     109.5421400
   9 TORSION   5  2  1  3              -2.0943951    -120.0000000
  10 STRETCH   6  1                     2.8345890       1.5000000
  11 BEND      6  1  2                  1.9118710     109.5421400
  12 TORSION   6  1  2  3               2.0943951     120.0000000
  13 STRETCH   7  1                     2.0786986       1.1000000
  14 BEND      7  1  2                  1.9118710     109.5421400
  15 TORSION   7  1  2  6               2.0943951     120.0000000
  16 STRETCH   8  1                     2.0786986       1.1000000
  17 BEND      8  1  2                  1.9118710     109.5421400
  18 TORSION   8  1  2  6              -2.0943951    -120.0000000

     ------------------------------------------
     THE POINT GROUP IS C1 , NAXIS= 0, ORDER= 1
     ------------------------------------------

 -- VARIATIONAL SPACE WILL BE RESTRICTED TO PURE SPHERICAL HARMONICS ONLY --
 AFTER EXCLUDING CONTAMINANT COMBINATIONS FROM THE CARTESIAN GAUSSIAN BASIS
 SET, THE NUMBER OF SPHERICAL HARMONICS KEPT IN THE VARIATION SPACE IS   76

     DIMENSIONS OF THE SYMMETRY SUBSPACES ARE
 A   =   76

 ..... DONE SETTING UP THE RUN .....
 STEP CPU TIME =     0.01 TOTAL CPU TIME =          0.0 (      0.0 MIN)
 TOTAL WALL CLOCK TIME=          0.0 SECONDS, CPU UTILIZATION IS    33.33%


          -----------------------------
          STATIONARY POINT LOCATION RUN
          -----------------------------

 OBTAINING INITIAL HESSIAN, HESS=GUESS   
 DIAGONAL GUESS HESSIAN IN INTERNAL COORDS IS
     1  0.3892     2  0.3267     3  0.2379     4  0.3397     5  0.2253
     6  0.2500     7  0.3397     8  0.2253     9  0.2500    10  0.2690
    11  0.2315    12  0.2500    13  0.3397    14  0.2253    15  0.2500
    16  0.3397    17  0.2253    18  0.2500

          PARAMETERS CONTROLLING GEOMETRY SEARCH ARE
          METHOD =QA                  UPHESS =BFGS    
          NNEG   =         0          NFRZ   =         1
          NSTEP  =        50          IFOLOW =         1
          HESS   =GUESS               RESTAR =         F
          IHREP  =         0          HSSEND =         F
          NPRT   =         0          NPUN   =         0
          OPTTOL = 1.000E-04          RMIN   = 1.500E-03
          RMAX   = 1.000E-01          RLIM   = 7.000E-02
          DXMAX  = 3.000E-01          PURIFY =         F
          MOVIE  =         F          TRUPD  =         T
          TRMAX  = 5.000E-01          TRMIN  = 5.000E-02
          ITBMAT =         5          STPT   =         F
          STSTEP = 1.000E-02          PROJCT=          T
          FROZEN COORD(S)=  12

 BEGINNING GEOMETRY SEARCH POINT NSERCH=   0 ...

 COORDINATES OF ALL ATOMS ARE (ANGS)
   ATOM   CHARGE       X              Y              Z
 ------------------------------------------------------------
 C           6.0   0.5512226952   0.6203338140   0.0494350294
 C           6.0  -0.6095107191  -0.0880602195  -0.5837125317
 F           9.0  -1.6833819379  -0.1223131563   0.3138549263
 H           1.0  -0.9129963909   0.4457866501  -1.4963482569
 H           1.0  -0.3164529740  -1.1163013370  -0.8422417608
 F           9.0   1.7273776971  -0.3078974646   0.1204709716
 H           1.0   0.8171929463   1.5017188635  -0.5525784424
 H           1.0   0.2769226605   0.9409589721   1.0652888569


                     --------------------
                     INTERNAL COORDINATES
                     --------------------

                 - - ATOMS - -         COORDINATE      COORDINATE
 NO.   TYPE    I  J  K  L  M  N        (BOHR,RAD)       (ANG,DEG)
 ----------------------------------------------------------------
   1 STRETCH   2  1                     2.8345890       1.5000000
   2 STRETCH   3  2                     2.6456164       1.4000000
   3 BEND      3  2  1                  1.9118710     109.5421400
   4 STRETCH   4  2                     2.0786986       1.1000000
   5 BEND      4  2  1                  1.9118710     109.5421400
   6 TORSION   4  2  1  3               2.0943951     120.0000000
   7 STRETCH   5  2                     2.0786986       1.1000000
   8 BEND      5  2  1                  1.9118710     109.5421400
   9 TORSION   5  2  1  3              -2.0943951    -120.0000000
  10 STRETCH   6  1                     2.8345890       1.5000000
  11 BEND      6  1  2                  1.9118710     109.5421400
  12 TORSION   6  1  2  3               2.0943951     120.0000000
  13 STRETCH   7  1                     2.0786986       1.1000000
  14 BEND      7  1  2                  1.9118710     109.5421400
  15 TORSION   7  1  2  6               2.0943951     120.0000000
  16 STRETCH   8  1                     2.0786986       1.1000000
  17 BEND      8  1  2                  1.9118710     109.5421400
  18 TORSION   8  1  2  6              -2.0943951    -120.0000000

 THE CURRENT FULLY SUBSTITUTED Z-MATRIX IS
 C   
 C      1   1.5000000
 F      2   1.4000000  1   109.5421400
 H      2   1.1000000  1   109.5421400  3   120.0000000  0
 H      2   1.1000000  1   109.5421400  3  -120.0000000  0
 F      1   1.5000000  2   109.5421400  3   120.0000000  0
 H      1   1.1000000  2   109.5421400  6   120.0000000  0
 H      1   1.1000000  2   109.5421400  6  -120.0000000  0

          ********************
          1 ELECTRON INTEGRALS
          ********************
 ...... END OF ONE-ELECTRON INTEGRALS ......
 STEP CPU TIME =     0.01 TOTAL CPU TIME =          0.0 (      0.0 MIN)
 TOTAL WALL CLOCK TIME=          0.0 SECONDS, CPU UTILIZATION IS    66.67%

          -------------
          GUESS OPTIONS
          -------------
          GUESS =HUCKEL            NORB  =       0          NORDER=       0
          MIX   =       F          PRTMO =       F          PUNMO =       F
          TOLZ  = 1.0E-08          TOLE  = 1.0E-05
          SYMDEN=       F          PURIFY=       F

 INITIAL GUESS ORBITALS GENERATED BY HUCKEL   ROUTINE.
 HUCKEL GUESS REQUIRES     54920 WORDS.

 STATISTICS FOR GENERATION OF SYMMETRY ORBITAL -Q- MATRIX
 NUMBER OF CARTESIAN ATOMIC ORBITALS=         80
 NUMBER OF SPHERICAL CONTAMINANTS DROPPED=     4
 NUMBER OF LINEARLY DEPENDENT MOS DROPPED=     0
 TOTAL NUMBER OF MOS IN VARIATION SPACE=      76

 SYMMETRIES FOR INITIAL GUESS ORBITALS FOLLOW.   BOTH SET(S).
    17 ORBITALS ARE OCCUPIED (    4 CORE ORBITALS).
     5=A        6=A        7=A        8=A        9=A       10=A       11=A   
    12=A       13=A       14=A       15=A       16=A       17=A       18=A   
    19=A       20=A       21=A       22=A       23=A       24=A       25=A   
    26=A       27=A   
 ...... END OF INITIAL ORBITAL SELECTION ......
 STEP CPU TIME =     0.00 TOTAL CPU TIME =          0.0 (      0.0 MIN)
 TOTAL WALL CLOCK TIME=          0.0 SECONDS, CPU UTILIZATION IS    50.00%

                    ----------------------
                    AO INTEGRAL TECHNOLOGY
                    ----------------------
     S,P,L SHELL ROTATED AXIS INTEGRALS, REPROGRAMMED BY
        KAZUYA ISHIMURA (IMS) AND JOSE SIERRA (SYNSTAR).
     S,P,D,L SHELL ROTATED AXIS INTEGRALS PROGRAMMED BY
        KAZUYA ISHIMURA (INSTITUTE FOR MOLECULAR SCIENCE).
     S,P,D,F,G SHELL TO TOTAL QUARTET ANGULAR MOMENTUM SUM 5,
        ERIC PROGRAM BY GRAHAM FLETCHER (ELORET AND NASA ADVANCED
        SUPERCOMPUTING DIVISION, AMES RESEARCH CENTER).
     S,P,D,F,G,L SHELL GENERAL RYS QUADRATURE PROGRAMMED BY
        MICHEL DUPUIS (PACIFIC NORTHWEST NATIONAL LABORATORY).

          --------------------
          2 ELECTRON INTEGRALS
          --------------------

 THE -PK- OPTION IS OFF, THE INTEGRALS ARE NOT IN SUPERMATRIX FORM.
 STORING   15000 INTEGRALS/RECORD ON DISK, USING 12 BYTES/INTEGRAL.
 TWO ELECTRON INTEGRAL EVALUATION REQUIRES   91062 WORDS OF MEMORY.
 SCHWARZ INEQUALITY OVERHEAD:      3217 INTEGRALS, T=        0.00
 II,JST,KST,LST =  1  1  1  1 NREC =         1 INTLOC =    1
 II,JST,KST,LST =  2  1  1  1 NREC =         1 INTLOC =    2
 II,JST,KST,LST =  3  1  1  1 NREC =         1 INTLOC =    7
 II,JST,KST,LST =  4  1  1  1 NREC =         1 INTLOC =   22
 II,JST,KST,LST =  5  1  1  1 NREC =         1 INTLOC =   67
 II,JST,KST,LST =  6  1  1  1 NREC =         1 INTLOC =  214
 II,JST,KST,LST =  7  1  1  1 NREC =         1 INTLOC = 1189
 II,JST,KST,LST =  8  1  1  1 NREC =         1 INTLOC = 3236
 II,JST,KST,LST =  9  1  1  1 NREC =         1 INTLOC = 5701
 II,JST,KST,LST = 10  1  1  1 NREC =         1 INTLOC = 8626
 II,JST,KST,LST = 11  1  1  1 NREC =         2 INTLOC = 5551
 II,JST,KST,LST = 12  1  1  1 NREC =         3 INTLOC = 8244
 II,JST,KST,LST = 13  1  1  1 NREC =         7 INTLOC = 6183
 II,JST,KST,LST = 14  1  1  1 NREC =         8 INTLOC = 4324
 II,JST,KST,LST = 15  1  1  1 NREC =         9 INTLOC = 5089
 II,JST,KST,LST = 16  1  1  1 NREC =        10 INTLOC = 7938
 II,JST,KST,LST = 17  1  1  1 NREC =        14 INTLOC = 9851
 II,JST,KST,LST = 18  1  1  1 NREC =        20 INTLOC =  827
 II,JST,KST,LST = 19  1  1  1 NREC =        34 INTLOC =12256
 II,JST,KST,LST = 20  1  1  1 NREC =        38 INTLOC =  489
 II,JST,KST,LST = 21  1  1  1 NREC =        41 INTLOC = 7069
 II,JST,KST,LST = 22  1  1  1 NREC =        53 INTLOC =  650
 II,JST,KST,LST = 23  1  1  1 NREC =        57 INTLOC = 6492
 II,JST,KST,LST = 24  1  1  1 NREC =        62 INTLOC = 1434
 II,JST,KST,LST = 25  1  1  1 NREC =        77 INTLOC = 9656
 II,JST,KST,LST = 26  1  1  1 NREC =        80 INTLOC =12301
 II,JST,KST,LST = 27  1  1  1 NREC =        85 INTLOC = 2633
 II,JST,KST,LST = 28  1  1  1 NREC =        91 INTLOC = 4159
 II,JST,KST,LST = 29  1  1  1 NREC =       106 INTLOC = 6622
 II,JST,KST,LST = 30  1  1  1 NREC =       129 INTLOC = 9291
 II,JST,KST,LST = 31  1  1  1 NREC =       174 INTLOC =12397
 II,JST,KST,LST = 32  1  1  1 NREC =       185 INTLOC = 9703
 II,JST,KST,LST = 33  1  1  1 NREC =       197 INTLOC = 4305
 II,JST,KST,LST = 34  1  1  1 NREC =       230 INTLOC = 9070
 II,JST,KST,LST = 35  1  1  1 NREC =       244 INTLOC = 2088
 II,JST,KST,LST = 36  1  1  1 NREC =       258 INTLOC = 6711
 SCHWARZ INEQUALITY TEST SKIPPED       18493 INTEGRAL BLOCKS.
 TOTAL NUMBER OF NONZERO TWO-ELECTRON INTEGRALS =             4519653
        302 INTEGRAL RECORDS WERE STORED ON DISK FILE  8.
  ...... END OF TWO-ELECTRON INTEGRALS .....
 STEP CPU TIME =     0.48 TOTAL CPU TIME =          0.5 (      0.0 MIN)
 TOTAL WALL CLOCK TIME=          0.5 SECONDS, CPU UTILIZATION IS    96.15%

          --------------------------
               R-PBE SCF CALCULATION
          --------------------------

     NUCLEAR ENERGY =       123.4319783376
     MAXIT =   30     NPUNCH=    2
     EXTRAP=T  DAMP=F  SHIFT=F  RSTRCT=F  DIIS=T  DEM=F  SOSCF=F
         DENSITY MATRIX CONVERGENCE THRESHOLD=  1.00E-05
     COARSE -> FINE DFT GRID SWITCH THRESHOLD=  3.00E-04 (SWITCH IN $DFT)
                   HF -> DFT SWITCH THRESHOLD=  5.00E-03 (SWOFF IN $DFT)
     MEMORY REQUIRED FOR RHF ITERS=    365468 WORDS.

 DFT CODE IS SWITCHING FROM THE FINE GRID NRAD= 96,  NLEB=  302
                      TO THE COARSE GRID NRAD0= 24, NLEB0=  110

     EXCHANGE FUNCTIONAL   =PBE       
     CORRELATION FUNCTIONAL=PBE       
     DFT THRESHOLD         =.172E-07
     GRID CHANGE THRESHOLD =.300E-03
 FOR AN EULER-MACLAURIN QUADRATURE USING  96 RADIAL POINTS:
 SMALLEST GAUSSIAN PRIMITIVE EXPONENT=        0.1061000000 OF TYPE -S-
 ON ATOM NUMBER   4 HAS RADIAL NORMALIZATION=  1.000000
  LARGEST GAUSSIAN PRIMITIVE EXPONENT=     2931.5500000000 OF TYPE -S-
 ON ATOM NUMBER   3 HAS RADIAL NORMALIZATION=  1.000000
 DFT IS SWITCHED OFF, PERFORMING PURE SCF UNTIL SWOFF THRESHOLD IS REACHED.

 ITER EX DEM     TOTAL ENERGY        E CHANGE  DENSITY CHANGE    DIIS ERROR
   1  0  0     -276.1254404666  -276.1254404666   0.187054482   0.696057950
          * * *   INITIATING DIIS PROCEDURE   * * *
   2  1  0     -276.7719301476    -0.6464896810   0.089909639   0.075420304
   3  2  0     -276.8144986435    -0.0425684960   0.048308856   0.038301409
   4  3  0     -276.8302679072    -0.0157692636   0.008742211   0.011335117
   5  4  0     -276.8310483538    -0.0007804467   0.002425432   0.001626868
 CONVERGED TO SWOFF, SO DFT CALCULATION IS NOW SWITCHED ON.
          * * *   INITIATING DIIS PROCEDURE   * * *
   6  5  0     -277.8974097140    -1.0663613602   0.090873023   0.072684117
   7  6  0     -277.9125086137    -0.0150988997   0.074105768   0.044982365
   8  7  0     -277.9103213666     0.0021872471   0.047673486   0.043135401
   9  8  0     -277.9261250894    -0.0158037227   0.006899714   0.005016933
  10  9  0     -277.9263790641    -0.0002539748   0.001526901   0.001199467
  11 10  0     -277.9263893961    -0.0000103320   0.000597806   0.000485513
  12 11  0     -277.9263914737    -0.0000020776   0.000076267   0.000079646
 DFT CODE IS SWITCHING BACK TO THE FINE GRID
          * * *   INITIATING DIIS PROCEDURE   * * *
  13 12  0     -277.9272260872    -0.0008346134   0.004176812   0.003229206
  14 13  0     -277.9272704161    -0.0000443289   0.004777547   0.001928242
  15 14  0     -277.9272603007     0.0000101154   0.002659752   0.002456440
  16 15  0     -277.9272931306    -0.0000328299   0.000169976   0.000090755
  17 16  0     -277.9272931991    -0.0000000686   0.000093926   0.000064321
  18 17  0     -277.9272932303    -0.0000000311   0.000016153   0.000014923
  19 18  0     -277.9272932314    -0.0000000012   0.000005102   0.000005361
  20 19  0     -277.9272932316    -0.0000000002   0.000000364   0.000000275

          -----------------
          DENSITY CONVERGED
          -----------------
     TIME TO FORM FOCK OPERATORS=       9.9 SECONDS (       0.5 SEC/ITER)
     TIME TO SOLVE SCF EQUATIONS=       0.1 SECONDS (       0.0 SEC/ITER)

 FINAL R-PBE ENERGY IS     -277.9272932316 AFTER  20 ITERATIONS
 DFT EXCHANGE + CORRELATION ENERGY =       -32.9026672151
 TOTAL ELECTRON NUMBER             =        33.9998741546

          ------------
          EIGENVECTORS
          ------------

                      1          2          3          4          5
                  -24.2391   -24.2265    -9.9735    -9.9722    -1.1011
                     A          A          A          A          A   
    1  C  1  S    0.000048  -0.000179   0.992519  -0.040762  -0.014083
    2  C  1  S    0.000199  -0.000891   0.036744  -0.002604   0.024287
    3  C  1  S   -0.003900   0.008376  -0.022291   0.006999   0.024578
    4  C  1  X    0.000298   0.000819   0.000470   0.000715  -0.012382
    5  C  1  Y    0.000130  -0.000514   0.000098   0.000527  -0.010362
    6  C  1  Z    0.000156   0.000094   0.000137   0.000421  -0.001811
    7  C  1  X    0.001935   0.002150   0.002932  -0.002183  -0.008880
    8  C  1  Y    0.000658  -0.003670   0.000277  -0.001652  -0.007569
    9  C  1  Z   -0.000969  -0.000397   0.000930  -0.001753  -0.008227
   10  C  1 XX   -0.000089   0.000238  -0.000287  -0.000425   0.003089
   11  C  1 YY   -0.000034   0.000083   0.000062   0.000167  -0.000694
   12  C  1 ZZ    0.000123  -0.000321   0.000226   0.000258  -0.002395
   13  C  1 XY   -0.000043  -0.000544  -0.000071  -0.000597   0.001585
   14  C  1 XZ   -0.000026   0.000019  -0.000263  -0.000542   0.001535
   15  C  1 YZ    0.000062  -0.000026  -0.000154  -0.000314   0.000649
   16  C  2  S   -0.000131   0.000048   0.040948   0.992468  -0.065134
   17  C  2  S   -0.000537   0.000253   0.000401   0.037131   0.123114
   18  C  2  S    0.009495  -0.003784   0.005460  -0.022051   0.010521
   19  C  2  X   -0.000981  -0.000239  -0.000768  -0.000796  -0.073419
   20  C  2  Y   -0.000102  -0.000137  -0.000487  -0.000096   0.000541
   21  C  2  Z    0.000651  -0.000097  -0.000467   0.000331   0.067830
   22  C  2  X   -0.002055  -0.001929   0.002027  -0.003124  -0.012081
   23  C  2  Y    0.000626   0.001117   0.001912  -0.001136  -0.002003
   24  C  2  Z    0.003697  -0.000632   0.001501  -0.000132   0.004075
   25  C  2 XX    0.000079  -0.000091  -0.000433  -0.000111   0.008394
   26  C  2 YY   -0.000148   0.000110   0.000205   0.000019  -0.011063
   27  C  2 ZZ    0.000069  -0.000019   0.000228   0.000091   0.002669
   28  C  2 XY   -0.000030   0.000015  -0.000622  -0.000209   0.001457
   29  C  2 XZ   -0.000278  -0.000017  -0.000550  -0.000252  -0.017511
   30  C  2 YZ   -0.000014   0.000056  -0.000332  -0.000136   0.000433
   31  F  3  S    0.993083  -0.000064   0.000007   0.000064  -0.237244
   32  F  3  S    0.034011  -0.000031  -0.000059   0.000465   0.482489
   33  F  3  S   -0.016864   0.000195  -0.000256  -0.000768   0.495434
   34  F  3  X    0.000903   0.000008  -0.000082  -0.000262   0.077022
   35  F  3  Y    0.000023  -0.000002  -0.000010  -0.000024   0.003689
   36  F  3  Z   -0.000778  -0.000011   0.000042   0.000169  -0.062740
   37  F  3  X   -0.002888   0.000203   0.000092  -0.001326   0.036269
   38  F  3  Y   -0.000086  -0.000076   0.000036   0.000066   0.002522
   39  F  3  Z    0.002414   0.000015   0.000102   0.001438  -0.028642
   40  F  3 XX   -0.000163  -0.000006   0.000070  -0.000482   0.004920
   41  F  3 YY    0.000210   0.000027  -0.000006   0.000648  -0.006227
   42  F  3 ZZ   -0.000047  -0.000021  -0.000064  -0.000166   0.001307
   43  F  3 XY    0.000016  -0.000021   0.000098  -0.000061   0.000696
   44  F  3 XZ    0.000411  -0.000044   0.000112   0.001071  -0.010476
   45  F  3 YZ    0.000040   0.000026   0.000046   0.000012  -0.000292
   46  H  4  S   -0.000931   0.000146  -0.000372  -0.001205   0.022582
   47  H  4  S   -0.000086  -0.000508   0.000290   0.003407   0.001132
   48  H  4  X    0.000227   0.000073   0.000092  -0.000229   0.000632
   49  H  4  Y   -0.000022  -0.000051   0.000084   0.000667  -0.002426
   50  H  4  Z   -0.000354  -0.000000  -0.000034  -0.001085   0.004814
   51  H  5  S   -0.000938   0.000408  -0.000304  -0.001131   0.022529
   52  H  5  S   -0.000265   0.001059   0.001135   0.003484   0.002201
   53  H  5  X    0.000251  -0.000100   0.000167   0.000458  -0.002047
   54  H  5  Y   -0.000083   0.000002   0.000010  -0.001133   0.004648
   55  H  5  Z   -0.000335  -0.000010   0.000047  -0.000300   0.001853
   56  F  6  S    0.000057   0.993090   0.000047   0.000003  -0.016204
   57  F  6  S   -0.000025   0.033679   0.000405  -0.000069   0.033148
   58  F  6  S    0.000162  -0.015898  -0.000057  -0.000222   0.032052
   59  F  6  X   -0.000010  -0.000864   0.000089   0.000071  -0.006080
   60  F  6  Y    0.000012   0.000704  -0.000019  -0.000024   0.003605
   61  F  6  Z    0.000005  -0.000047   0.000018   0.000014  -0.000502
   62  F  6  X   -0.000179   0.002776   0.000872  -0.000159  -0.001697
   63  F  6  Y   -0.000025  -0.002180  -0.001023  -0.000004   0.002415
   64  F  6  Z    0.000046   0.000163  -0.000034  -0.000030   0.000481
   65  F  6 XX    0.000001  -0.000179  -0.000482   0.000100   0.000452
   66  F  6 YY   -0.000021  -0.000023  -0.000121  -0.000046   0.000122
   67  F  6 ZZ    0.000020   0.000202   0.000603  -0.000053  -0.000574
   68  F  6 XY   -0.000043   0.000395   0.000994   0.000032  -0.000845
   69  F  6 XZ   -0.000017  -0.000005  -0.000082   0.000082   0.000050
   70  F  6 YZ    0.000027   0.000043   0.000042   0.000034   0.000023
   71  H  7  S    0.000164  -0.000742  -0.001215  -0.000249   0.002728
   72  H  7  S   -0.000450   0.000050   0.003492   0.000041  -0.001249
   73  H  7  X   -0.000067  -0.000267   0.000176  -0.000111   0.000026
   74  H  7  Y   -0.000003   0.000294   0.001061  -0.000065  -0.000488
   75  H  7  Z    0.000051   0.000050  -0.000766  -0.000026   0.000630
   76  H  8  S    0.000381  -0.000757  -0.001139  -0.000186   0.007151
   77  H  8  S    0.000866  -0.000142   0.003628   0.000784   0.006572
   78  H  8  X    0.000091  -0.000250  -0.000462  -0.000127  -0.000684
   79  H  8  Y    0.000020   0.000321   0.000368  -0.000081  -0.000923
   80  H  8  Z    0.000012  -0.000010   0.001143  -0.000094  -0.001549

                      6          7          8          9         10
                   -1.0609    -0.7133    -0.5819    -0.4708    -0.4638
                     A          A          A          A          A   
    1  C  1  S   -0.052532  -0.153814   0.127186  -0.001441   0.006984
    2  C  1  S    0.101091   0.315036  -0.275728   0.007393  -0.022534
    3  C  1  S    0.015048   0.180741  -0.146885   0.006328   0.004230
    4  C  1  X    0.061119  -0.099421  -0.056626  -0.080875  -0.094614
    5  C  1  Y   -0.051238  -0.016806  -0.100318  -0.117683   0.214717
    6  C  1  Z    0.001735  -0.049500  -0.070761   0.226523   0.039741
    7  C  1  X    0.015062  -0.033456  -0.009053  -0.033144  -0.011418
    8  C  1  Y   -0.005674   0.006228  -0.046920  -0.038370   0.069911
    9  C  1  Z    0.002948  -0.010742  -0.016417   0.111670   0.031584
   10  C  1 XX    0.006601   0.002253   0.000729   0.003118   0.004164
   11  C  1 YY    0.001577  -0.001265   0.000501   0.001540  -0.009824
   12  C  1 ZZ   -0.008178  -0.000988  -0.001230  -0.004658   0.005659
   13  C  1 XY   -0.013148   0.006261   0.006209   0.002196   0.004151
   14  C  1 XZ    0.001425   0.006240   0.005816  -0.004334   0.000051
   15  C  1 YZ   -0.000115   0.003806   0.004249   0.001260  -0.005957
   16  C  2  S   -0.004296  -0.148926  -0.127802   0.001654   0.002428
   17  C  2  S    0.005967   0.305194   0.278836   0.007849  -0.000982
   18  C  2  S    0.018121   0.168316   0.136635  -0.033473  -0.028834
   19  C  2  X    0.021412   0.101930  -0.077736  -0.050017  -0.218440
   20  C  2  Y    0.002297   0.056344  -0.083758  -0.108498   0.244507
   21  C  2  Z   -0.000160   0.013372  -0.088543   0.298403   0.034155
   22  C  2  X    0.009151   0.034391  -0.009485   0.016031  -0.053749
   23  C  2  Y    0.009198   0.013076  -0.022658  -0.047477   0.122049
   24  C  2  Z    0.005217  -0.009008  -0.049766   0.082820  -0.005976
   25  C  2 XX    0.001635   0.001624   0.000908  -0.000453   0.000667
   26  C  2 YY   -0.000547   0.000060  -0.000509  -0.009892  -0.004662
   27  C  2 ZZ   -0.001088  -0.001684  -0.000399   0.010345   0.003995
   28  C  2 XY    0.001186   0.006734  -0.005690  -0.000401  -0.001035
   29  C  2 XZ    0.003448   0.006282  -0.007208  -0.009269  -0.010362
   30  C  2 YZ    0.000568   0.004132  -0.005114   0.005463   0.003620
   31  F  3  S    0.020699   0.060452   0.046384   0.036708   0.027550
   32  F  3  S   -0.041991  -0.131443  -0.101883  -0.076977  -0.057294
   33  F  3  S   -0.045722  -0.154103  -0.122924  -0.114859  -0.086468
   34  F  3  X   -0.004339   0.083312   0.110750   0.344641   0.156048
   35  F  3  Y   -0.000073   0.014433  -0.029399  -0.041334   0.187363
   36  F  3  Z    0.005014  -0.047213  -0.156872  -0.082429  -0.205313
   37  F  3  X   -0.003255   0.046957   0.067013   0.212007   0.096371
   38  F  3  Y   -0.000863   0.005600  -0.017541  -0.021515   0.113311
   39  F  3  Z    0.001724  -0.028874  -0.094988  -0.047743  -0.124096
   40  F  3 XX   -0.000236   0.003649   0.000193   0.011606   0.000036
   41  F  3 YY    0.000353  -0.002983  -0.004197  -0.005291  -0.003552
   42  F  3 ZZ   -0.000117  -0.000665   0.004004  -0.006315   0.003516
   43  F  3 XY   -0.000050   0.001360  -0.002299  -0.000933   0.008146
   44  F  3 XZ    0.000699  -0.004394  -0.008657  -0.006276  -0.006680
   45  F  3 YZ    0.000090  -0.000558   0.000626   0.002300  -0.006456
   46  H  4  S   -0.000277   0.113026   0.159647  -0.201155   0.102195
   47  H  4  S   -0.001561  -0.003833   0.007181  -0.039283   0.004865
   48  H  4  X   -0.000026   0.005214   0.002436  -0.006271  -0.001778
   49  H  4  Y   -0.000215  -0.004600  -0.008426   0.003436   0.001995
   50  H  4  Z   -0.000162   0.009496   0.009530  -0.006097   0.007659
   51  H  5  S    0.004067   0.103828   0.173155   0.009829  -0.205294
   52  H  5  S    0.007079  -0.009837   0.016209  -0.011670  -0.009258
   53  H  5  X    0.000922  -0.001828  -0.004972  -0.000958  -0.002013
   54  H  5  Y    0.000863   0.010494   0.012711  -0.001109  -0.009074
   55  H  5  Z    0.000486   0.002133   0.001815   0.006918  -0.003493
   56  F  6  S   -0.241871   0.053857  -0.036952   0.003475  -0.034000
   57  F  6  S    0.491792  -0.117178   0.082225  -0.007239   0.071990
   58  F  6  S    0.514742  -0.135829   0.095625  -0.011441   0.108370
   59  F  6  X   -0.063477  -0.068915   0.084670  -0.063680   0.256839
   60  F  6  Y    0.048928   0.038564  -0.110840  -0.030111  -0.089126
   61  F  6  Z   -0.004706  -0.011226  -0.014311   0.096459   0.052557
   62  F  6  X   -0.033665  -0.039735   0.053866  -0.038458   0.161155
   63  F  6  Y    0.024976   0.024746  -0.069753  -0.018192  -0.054237
   64  F  6  Z   -0.003152  -0.004388  -0.008365   0.055037   0.033257
   65  F  6 XX    0.005148   0.003171  -0.000782   0.003839  -0.007681
   66  F  6 YY    0.000853  -0.000514  -0.002637  -0.002864   0.003432
   67  F  6 ZZ   -0.006001  -0.002656   0.003418  -0.000974   0.004249
   68  F  6 XY   -0.010000  -0.003890   0.007186  -0.000049   0.004953
   69  F  6 XZ    0.000979   0.001069   0.001278  -0.004206  -0.003047
   70  F  6 YZ   -0.000544  -0.000451  -0.000065   0.003631   0.000981
   71  H  7  S    0.019567   0.117772  -0.160177  -0.165860   0.080780
   72  H  7  S    0.001658  -0.003402  -0.007161  -0.019388   0.022622
   73  H  7  X   -0.000223  -0.004931   0.002330   0.003181  -0.004395
   74  H  7  Y   -0.003925  -0.009699   0.008910   0.007661  -0.000182
   75  H  7  Z    0.002251   0.005749  -0.009084  -0.000634   0.003264
   76  H  8  S    0.018898   0.109099  -0.176109   0.136561   0.074974
   77  H  8  S    0.001136  -0.010957  -0.019502  -0.008422  -0.000914
   78  H  8  X    0.001917   0.001839  -0.004162  -0.001161  -0.001943
   79  H  8  Y   -0.001732  -0.002903   0.002548  -0.006350   0.002991
   80  H  8  Z   -0.003606  -0.010946   0.012843  -0.004963  -0.004635

                     11         12         13         14         15
                   -0.4332    -0.4020    -0.3971    -0.3307    -0.3059
                     A          A          A          A          A   
    1  C  1  S    0.009141  -0.010759   0.005575   0.031944   0.002481
    2  C  1  S   -0.023984   0.012413  -0.011677  -0.069856  -0.009248
    3  C  1  S   -0.023933   0.049257  -0.015552  -0.135838  -0.007665
    4  C  1  X   -0.301826  -0.057389  -0.026451   0.090740   0.026796
    5  C  1  Y   -0.089542   0.252784  -0.101363   0.004586   0.041640
    6  C  1  Z   -0.061388   0.136331   0.306719   0.022016   0.137511
    7  C  1  X   -0.095138   0.004347  -0.018795   0.065360   0.023477
    8  C  1  Y   -0.058921   0.080453  -0.035869   0.025362   0.031846
    9  C  1  Z   -0.028911   0.059337   0.134679   0.029179   0.025448
   10  C  1 XX   -0.004359  -0.013668  -0.001329   0.015053  -0.001867
   11  C  1 YY   -0.000228   0.001061  -0.004701  -0.013012   0.000301
   12  C  1 ZZ    0.004587   0.012607   0.006030  -0.002041   0.001566
   13  C  1 XY    0.012095   0.013667  -0.009767   0.000784   0.002943
   14  C  1 XZ    0.002747  -0.003710   0.008207   0.004328  -0.016080
   15  C  1 YZ    0.005394  -0.000371   0.002687  -0.001298   0.013298
   16  C  2  S   -0.011410  -0.003924  -0.013355  -0.025455   0.001038
   17  C  2  S    0.022644   0.002666   0.023187   0.052070  -0.006397
   18  C  2  S    0.026050   0.014155   0.052210   0.123943  -0.000379
   19  C  2  X    0.259556   0.012071  -0.036053   0.006695   0.004301
   20  C  2  Y    0.140340  -0.229605   0.059846  -0.011679  -0.201339
   21  C  2  Z    0.071308  -0.083008  -0.201830  -0.075329  -0.001938
   22  C  2  X    0.080620  -0.010720  -0.038653   0.031713  -0.007203
   23  C  2  Y    0.071904  -0.094352   0.025771   0.011129  -0.059838
   24  C  2  Z    0.053797  -0.022914  -0.068113  -0.014517  -0.012596
   25  C  2 XX   -0.011591  -0.011961  -0.004497  -0.020305   0.000330
   26  C  2 YY    0.005618   0.012795   0.001885   0.003174   0.004491
   27  C  2 ZZ    0.005973  -0.000834   0.002613   0.017131  -0.004821
   28  C  2 XY   -0.000583   0.007181  -0.011100  -0.006775  -0.017544
   29  C  2 XZ    0.012423   0.003469   0.017291  -0.002533   0.000388
   30  C  2 YZ    0.007428  -0.002183   0.001935  -0.000594   0.016805
   31  F  3  S   -0.016842  -0.003388  -0.005343   0.000147   0.002315
   32  F  3  S    0.033766   0.005021   0.008559  -0.003164  -0.008303
   33  F  3  S    0.049944   0.009239   0.011110   0.004457  -0.002505
   34  F  3  X   -0.049702  -0.085663  -0.257364   0.253640  -0.099559
   35  F  3  Y    0.127539  -0.282109   0.137221   0.115707   0.419726
   36  F  3  Z    0.323831   0.071866   0.004067   0.384539  -0.068915
   37  F  3  X   -0.031414  -0.049350  -0.161705   0.177913  -0.061515
   38  F  3  Y    0.078372  -0.182084   0.092055   0.078092   0.298326
   39  F  3  Z    0.200039   0.047196   0.001688   0.263260  -0.046849
   40  F  3 XX    0.006073  -0.001158  -0.008060   0.009172  -0.002624
   41  F  3 YY    0.003417   0.001139   0.002257   0.000475   0.001200
   42  F  3 ZZ   -0.009490   0.000019   0.005803  -0.009647   0.001424
   43  F  3 XY    0.005184  -0.008974   0.004185   0.002199   0.006052
   44  F  3 XZ    0.007961   0.002388   0.003648   0.002658   0.000114
   45  F  3 YZ   -0.003015   0.008313  -0.003373  -0.001582  -0.003912
   46  H  4  S   -0.032635  -0.025283   0.187926   0.105457  -0.118353
   47  H  4  S   -0.011469  -0.005503   0.060830   0.038114  -0.059272
   48  H  4  X    0.004566   0.001210   0.000654   0.003087  -0.003940
   49  H  4  Y    0.003897  -0.004220  -0.004890  -0.002903  -0.003950
   50  H  4  Z   -0.001413  -0.004051   0.004498   0.000882  -0.004053
   51  H  5  S   -0.037853   0.190741   0.007702   0.056042   0.213551
   52  H  5  S    0.016429   0.063954  -0.001307  -0.014941   0.099146
   53  H  5  X    0.006795  -0.005891  -0.000339  -0.004039   0.000144
   54  H  5  Y   -0.000791   0.005824   0.001400   0.002520   0.005069
   55  H  5  Z    0.000402   0.000702  -0.005096  -0.003112   0.000504
   56  F  6  S   -0.026417  -0.019223   0.005186   0.000884   0.002661
   57  F  6  S    0.056212   0.038886  -0.011183   0.000336  -0.008726
   58  F  6  S    0.078027   0.055086  -0.012404  -0.004725  -0.006360
   59  F  6  X    0.141023   0.315195  -0.134632   0.204098   0.124239
   60  F  6  Y   -0.302717  -0.151597   0.007509   0.398611   0.051395
   61  F  6  Z   -0.017244   0.112794   0.265257   0.119562  -0.392313
   62  F  6  X    0.094020   0.200463  -0.089163   0.140484   0.078090
   63  F  6  Y   -0.188659  -0.099391   0.003963   0.270221   0.033447
   64  F  6  Z   -0.009112   0.071699   0.170615   0.079523  -0.275803
   65  F  6 XX    0.002317  -0.007000   0.004602  -0.008654  -0.003111
   66  F  6 YY   -0.006793   0.002744  -0.002700   0.009529   0.001824
   67  F  6 ZZ    0.004476   0.004256  -0.001902  -0.000875   0.001287
   68  F  6 XY    0.009463   0.007072  -0.002146  -0.003918   0.000938
   69  F  6 XZ    0.000935  -0.004135  -0.008585  -0.002649   0.005878
   70  F  6 YZ    0.000246   0.003333   0.007435   0.001273  -0.003708
   71  H  7  S   -0.099683   0.111965  -0.217637  -0.042095  -0.053442
   72  H  7  S   -0.022500   0.040739  -0.062457  -0.010031  -0.032730
   73  H  7  X   -0.004963  -0.003808   0.001453   0.003636   0.004198
   74  H  7  Y    0.004333   0.001628   0.008325  -0.000102   0.002710
   75  H  7  Z   -0.004928   0.006897  -0.000421  -0.000900   0.003880
   76  H  8  S   -0.012474   0.185188   0.202257  -0.035821   0.152258
   77  H  8  S    0.018053   0.050363   0.054379   0.022811   0.080701
   78  H  8  X   -0.008599   0.002681   0.004314  -0.001605  -0.000965
   79  H  8  Y   -0.001502   0.003501  -0.006181  -0.001798   0.000674
   80  H  8  Z    0.000536  -0.007443  -0.005000   0.002347  -0.003585

                     16         17         18         19         20
                   -0.2903    -0.2878    -0.0089     0.0195     0.0475
                     A          A          A          A          A   
    1  C  1  S    0.004096  -0.022010  -0.058301   0.052914   0.098823
    2  C  1  S   -0.008092   0.060531   0.161208  -0.084212  -0.207368
    3  C  1  S   -0.049618   0.085108   0.135349  -0.851007  -1.271896
    4  C  1  X    0.095790  -0.168757   0.357311  -0.040033  -0.111523
    5  C  1  Y    0.094770  -0.156854  -0.272051  -0.220276   0.028918
    6  C  1  Z   -0.159399  -0.082242   0.004639   0.080385  -0.196704
    7  C  1  X    0.042516  -0.011567   0.518586  -0.095122  -0.085202
    8  C  1  Y    0.038323  -0.051799  -0.383023  -0.468057  -0.030110
    9  C  1  Z   -0.016395  -0.031392  -0.012563   0.155895  -0.503402
   10  C  1 XX   -0.009181   0.013378  -0.026148  -0.004433  -0.008971
   11  C  1 YY    0.013160  -0.010410  -0.005659   0.009171  -0.009873
   12  C  1 ZZ   -0.003979  -0.002968   0.031807  -0.004738   0.018844
   13  C  1 XY    0.006740   0.010642   0.030887   0.010163  -0.020164
   14  C  1 XZ    0.007037   0.009149  -0.001643  -0.009986   0.003710
   15  C  1 YZ   -0.013357   0.003109   0.011396  -0.016238   0.018532
   16  C  2  S    0.001897  -0.022326   0.017145   0.053960   0.022995
   17  C  2  S   -0.008157   0.060618  -0.050828  -0.084166  -0.077407
   18  C  2  S    0.024325   0.109126   0.126198  -0.907161  -0.049341
   19  C  2  X    0.044615   0.194373   0.155344   0.027539   0.196024
   20  C  2  Y   -0.170969   0.042934  -0.045049  -0.063031   0.070942
   21  C  2  Z    0.051778   0.167759  -0.137250   0.236989  -0.176119
   22  C  2  X    0.039872   0.031516   0.291739   0.057883   0.334517
   23  C  2  Y   -0.035572   0.028861  -0.124587  -0.118139   0.201445
   24  C  2  Z    0.021469   0.062966  -0.215397   0.503598  -0.327491
   25  C  2 XX    0.004147   0.014578   0.027385  -0.005475   0.010293
   26  C  2 YY    0.005668  -0.000220  -0.039019  -0.004157  -0.002559
   27  C  2 ZZ   -0.009815  -0.014359   0.011634   0.009632  -0.007734
   28  C  2 XY   -0.009057   0.008077  -0.002812  -0.009511   0.004597
   29  C  2 XZ   -0.009918   0.006367  -0.012712   0.013818  -0.036031
   30  C  2 YZ    0.009958   0.006086  -0.017192  -0.013243   0.003852
   31  F  3  S   -0.002913   0.000057  -0.035913   0.016094  -0.031094
   32  F  3  S    0.008406   0.002597   0.070091  -0.034329   0.057041
   33  F  3  S    0.012407  -0.016955   0.268632  -0.110354   0.266455
   34  F  3  X    0.009854  -0.273687   0.138106  -0.051628   0.118612
   35  F  3  Y    0.355069  -0.039928   0.038473   0.007378  -0.049866
   36  F  3  Z   -0.044562  -0.259606  -0.106941  -0.036438  -0.175164
   37  F  3  X   -0.001265  -0.193555   0.139385  -0.055836   0.114060
   38  F  3  Y    0.244535  -0.030533   0.035747   0.005799  -0.051695
   39  F  3  Z   -0.033144  -0.177114  -0.098300  -0.049905  -0.165103
   40  F  3 XX   -0.000380  -0.003810   0.000424   0.002672  -0.004029
   41  F  3 YY    0.001088   0.000297  -0.002341   0.000040   0.003572
   42  F  3 ZZ   -0.000707   0.003513   0.001917  -0.002711   0.000457
   43  F  3 XY    0.003533  -0.000204  -0.001929  -0.002634   0.001793
   44  F  3 XZ   -0.001372  -0.000460   0.002325   0.003228   0.003870
   45  F  3 YZ   -0.003347   0.000444  -0.000669  -0.000810   0.001869
   46  H  4  S   -0.164112  -0.168699   0.072914   0.097610  -0.098231
   47  H  4  S   -0.073569  -0.093703   0.140244   1.173600  -0.453268
   48  H  4  X   -0.000666   0.001651   0.006767  -0.005953   0.017464
   49  H  4  Y   -0.000585   0.004401  -0.004554   0.013917  -0.000874
   50  H  4  Z   -0.003739  -0.001525  -0.006770  -0.013486   0.001425
   51  H  5  S    0.177705  -0.014276  -0.157952  -0.002671   0.030018
   52  H  5  S    0.079065  -0.047589  -0.508664   0.151603   0.172694
   53  H  5  X   -0.000434   0.001732   0.007939   0.001770   0.009713
   54  H  5  Y    0.003379   0.000198   0.010501  -0.005185   0.002789
   55  H  5  Z    0.002873   0.003349  -0.002928   0.007535  -0.009051
   56  F  6  S    0.002356   0.000526   0.060059   0.012072  -0.018971
   57  F  6  S   -0.007039   0.001494  -0.114768  -0.026013   0.034609
   58  F  6  S   -0.007365  -0.018667  -0.435222  -0.078918   0.148422
   59  F  6  X   -0.075308   0.317007   0.268216   0.040155  -0.120583
   60  F  6  Y   -0.127073   0.306588  -0.237072   0.040536   0.118836
   61  F  6  Z    0.426558   0.149147   0.021197  -0.009950   0.043985
   62  F  6  X   -0.058480   0.222164   0.262683   0.044185  -0.121809
   63  F  6  Y   -0.089221   0.207632  -0.221994   0.048986   0.124439
   64  F  6  Z    0.292643   0.105038   0.018390  -0.008246   0.052585
   65  F  6 XX    0.001677  -0.004885   0.001130   0.002056  -0.002976
   66  F  6 YY   -0.000592   0.004779  -0.000631  -0.002286  -0.002829
   67  F  6 ZZ   -0.001085   0.000106  -0.000498   0.000230   0.005805
   68  F  6 XY    0.001530  -0.000451  -0.004138   0.003108   0.004154
   69  F  6 XZ   -0.004694  -0.001654   0.000709  -0.002625   0.003517
   70  F  6 YZ    0.003737   0.001153  -0.000217  -0.000599  -0.000328
   71  H  7  S    0.211939  -0.109145  -0.026871   0.104298  -0.058677
   72  H  7  S    0.102019  -0.064848  -0.049500   1.161163   0.129132
   73  H  7  X   -0.000656  -0.001720   0.017759   0.003629  -0.007788
   74  H  7  Y   -0.003665  -0.000465  -0.008850   0.013338   0.001174
   75  H  7  Z    0.001001  -0.004446  -0.004798  -0.014511  -0.005170
   76  H  8  S   -0.166996  -0.070275   0.081048  -0.017048   0.183312
   77  H  8  S   -0.068731  -0.064954   0.251557   0.094134   1.487127
   78  H  8  X    0.001055  -0.002114   0.014608  -0.002350  -0.007666
   79  H  8  Y    0.003827  -0.002699  -0.009400  -0.007054   0.013003
   80  H  8  Z    0.002971   0.001010   0.010831   0.004721   0.016715

                     21         22         23         24         25
                    0.0638     0.0955     0.1071     0.1725     0.3479
                     A          A          A          A          A   
    1  C  1  S   -0.053478  -0.002531   0.029874   0.073577   0.007575
    2  C  1  S    0.093283   0.046217  -0.033882  -0.086120  -0.132643
    3  C  1  S    0.721703  -0.276669  -0.803951  -1.897181  -0.555775
    4  C  1  X    0.020006   0.206015  -0.004655   0.225363   0.279247
    5  C  1  Y    0.079625  -0.151238  -0.074306   0.296342   0.230717
    6  C  1  Z   -0.043073  -0.188793   0.301829   0.076957   0.185275
    7  C  1  X    0.072460   0.520450   0.199853   1.521357  -0.325404
    8  C  1  Y    0.195936  -0.376412  -0.213062   1.321951  -0.759074
    9  C  1  Z   -0.135655  -0.522244   1.021744   0.526939  -0.586856
   10  C  1 XX    0.002220   0.009365   0.006705   0.019422  -0.028193
   11  C  1 YY   -0.011254  -0.009291  -0.001643   0.005147   0.000272
   12  C  1 ZZ    0.009034  -0.000073  -0.005062  -0.024569   0.027921
   13  C  1 XY   -0.011142   0.011702   0.004675   0.019452  -0.028198
   14  C  1 XZ    0.003989  -0.003592   0.012841   0.027596  -0.037796
   15  C  1 YZ    0.006431  -0.009022  -0.002596   0.019943  -0.042261
   16  C  2  S    0.114108  -0.035346  -0.021869  -0.078621   0.010703
   17  C  2  S   -0.226710   0.108481   0.011900   0.104785  -0.172461
   18  C  2  S   -1.506018   0.126104   0.737766   1.938299  -0.367074
   19  C  2  X    0.093144  -0.292585   0.028296   0.221494  -0.263510
   20  C  2  Y    0.187606   0.206172   0.286090   0.112667  -0.218118
   21  C  2  Z    0.001145   0.120968  -0.117730   0.302583  -0.250175
   22  C  2  X    0.114130  -0.802370   0.281868   1.430844   0.408597
   23  C  2  Y    0.479088   0.564888   0.974807   0.686330   0.737612
   24  C  2  Z    0.077801   0.304641  -0.350151   1.329312   0.877794
   25  C  2 XX    0.000626   0.003109  -0.007295  -0.019914  -0.020185
   26  C  2 YY    0.002773   0.011294   0.005723   0.021294   0.020112
   27  C  2 ZZ   -0.003399  -0.014403   0.001572  -0.001380   0.000074
   28  C  2 XY   -0.000795  -0.003305  -0.013417  -0.029805  -0.043345
   29  C  2 XZ   -0.017722   0.020232  -0.008057  -0.012688  -0.023684
   30  C  2 YZ    0.006311  -0.003248   0.004908  -0.023241  -0.046260
   31  F  3  S   -0.027715   0.059966  -0.023531   0.010117   0.007800
   32  F  3  S    0.051356  -0.111433   0.046833  -0.006092  -0.011490
   33  F  3  S    0.228682  -0.517072   0.189324  -0.146626  -0.101508
   34  F  3  X    0.144694  -0.132481   0.015778  -0.111385  -0.058809
   35  F  3  Y   -0.021007  -0.027123  -0.041217  -0.049934  -0.044075
   36  F  3  Z   -0.108540   0.134012  -0.014798  -0.023219  -0.092036
   37  F  3  X    0.165763  -0.166706   0.038313  -0.210312  -0.111345
   38  F  3  Y   -0.039873  -0.060043  -0.087900  -0.073890  -0.104202
   39  F  3  Z   -0.127839   0.179632  -0.025801  -0.069000  -0.089153
   40  F  3 XX   -0.001419  -0.003614   0.000423   0.007228  -0.004353
   41  F  3 YY    0.004586  -0.000069   0.000856   0.001417   0.003230
   42  F  3 ZZ   -0.003167   0.003683  -0.001279  -0.008645   0.001123
   43  F  3 XY    0.002713   0.001876   0.004595  -0.002447  -0.007027
   44  F  3 XZ    0.004102  -0.001937  -0.003410  -0.005330   0.001896
   45  F  3 YZ   -0.002657  -0.002291  -0.005366  -0.007196  -0.003430
   46  H  4  S    0.008235  -0.001983  -0.012932   0.097313   0.292337
   47  H  4  S    0.543456  -0.761493  -1.403061   0.954427  -0.018773
   48  H  4  X    0.003821  -0.013738   0.011920   0.000055   0.007761
   49  H  4  Y    0.003788   0.000792   0.000376   0.021630   0.019126
   50  H  4  Z   -0.007355   0.016305   0.012603  -0.001849   0.012252
   51  H  5  S    0.095914  -0.014785   0.044428   0.077559   0.250675
   52  H  5  S    1.507936   0.987724   1.068953   0.037146   0.224496
   53  H  5  X    0.009489  -0.005553   0.010232   0.016103   0.015829
   54  H  5  Y   -0.017012  -0.016305  -0.010212  -0.002288   0.005213
   55  H  5  Z   -0.010574   0.007467  -0.006370   0.017041   0.024112
   56  F  6  S    0.013305   0.038719   0.014640  -0.002129   0.007164
   57  F  6  S   -0.027546  -0.073246  -0.030947  -0.005562  -0.018754
   58  F  6  S   -0.087528  -0.316421  -0.106915   0.051584  -0.050555
   59  F  6  X    0.051316   0.082159  -0.001966  -0.090394   0.077805
   60  F  6  Y    0.022834  -0.079430   0.005512  -0.039825   0.087093
   61  F  6  Z    0.045300   0.012057  -0.030691  -0.046281   0.035613
   62  F  6  X    0.071303   0.102580   0.015500  -0.164176   0.082997
   63  F  6  Y    0.000531  -0.102184  -0.003855  -0.090033   0.081081
   64  F  6  Z    0.044731   0.043561  -0.072640  -0.055307   0.078406
   65  F  6 XX   -0.003019  -0.001827  -0.000854  -0.006654   0.001111
   66  F  6 YY    0.002343   0.002153   0.001537   0.008568  -0.002078
   67  F  6 ZZ    0.000676  -0.000326  -0.000683  -0.001914   0.000967
   68  F  6 XY   -0.000152  -0.000793   0.003315   0.004719   0.000195
   69  F  6 XZ    0.001604   0.000697  -0.003974   0.001088  -0.003877
   70  F  6 YZ    0.001941  -0.002328   0.004578   0.005264  -0.003158
   71  H  7  S   -0.108476   0.026922   0.004871  -0.089200   0.283192
   72  H  7  S   -0.931717  -0.210228   1.453079  -0.965685  -0.068556
   73  H  7  X   -0.006466   0.012292   0.008244   0.003324  -0.009318
   74  H  7  Y   -0.012102  -0.007777   0.014497  -0.001332  -0.012244
   75  H  7  Z    0.002241  -0.000826  -0.001059   0.021646  -0.016498
   76  H  8  S    0.015495  -0.051807  -0.032787  -0.086955   0.230121
   77  H  8  S   -0.206310   1.051697  -1.114465   0.006734   0.173541
   78  H  8  X    0.000837   0.000506   0.009699   0.017470  -0.015522
   79  H  8  Y   -0.000031  -0.004721  -0.005264   0.015753  -0.023793
   80  H  8  Z   -0.003278   0.015289  -0.010779  -0.002608  -0.003574

                     26         27         28         29         30
                    0.3725     0.3905     0.4303     0.4762     0.5187
                     A          A          A          A          A   
    1  C  1  S   -0.036945   0.007619   0.008702   0.073271   0.013791
    2  C  1  S    0.296573  -0.026793   0.029119  -0.512849  -0.043027
    3  C  1  S   -0.329883   0.118568  -0.097494   1.587499  -0.327599
    4  C  1  X    0.621168  -0.059419   0.147941   0.493782   0.029264
    5  C  1  Y   -0.473265   0.035135  -0.273391   0.276562  -0.103719
    6  C  1  Z    0.066726   0.022833  -0.067827   0.307986  -0.374633
    7  C  1  X   -0.717187   0.120198  -0.886025  -1.214149   0.296183
    8  C  1  Y    1.015918   0.031212   0.581605  -0.926977   0.887038
    9  C  1  Z   -0.152323   0.165195   0.814950  -0.991221  -0.018372
   10  C  1 XX   -0.008422  -0.015843  -0.025408   0.017412  -0.042453
   11  C  1 YY   -0.002016   0.040037   0.065596  -0.033242  -0.009517
   12  C  1 ZZ    0.010438  -0.024194  -0.040189   0.015830   0.051969
   13  C  1 XY    0.007170   0.021948   0.046645   0.058857  -0.014676
   14  C  1 XZ    0.014935   0.023817  -0.016522   0.018055  -0.047447
   15  C  1 YZ    0.030074  -0.016046  -0.056726   0.025566   0.098458
   16  C  2  S    0.004702   0.042754   0.009647  -0.070661  -0.006542
   17  C  2  S   -0.070945  -0.308720   0.024581   0.491121  -0.008942
   18  C  2  S    0.076734   0.298583  -0.107068  -1.556767   0.445218
   19  C  2  X    0.096417   0.662483  -0.161766   0.444678   0.060087
   20  C  2  Y    0.032719   0.058503   0.086525   0.352047  -0.396331
   21  C  2  Z   -0.090801  -0.500390   0.265839   0.305841   0.013614
   22  C  2  X    0.043054  -0.693427   0.941130  -1.173531   0.272960
   23  C  2  Y    0.076025  -0.231448  -0.776394  -1.066127   0.080071
   24  C  2  Z    0.252530   0.834388  -0.544658  -0.864614   0.787659
   25  C  2 XX    0.014234   0.018585  -0.025233  -0.025057   0.036722
   26  C  2 YY    0.022406  -0.040287  -0.035547  -0.012705  -0.066702
   27  C  2 ZZ   -0.036640   0.021702   0.060780   0.037762   0.029980
   28  C  2 XY   -0.021182  -0.005189  -0.018348  -0.034185   0.038291
   29  C  2 XZ   -0.027874  -0.026787   0.061190  -0.048156   0.022386
   30  C  2 YZ    0.007808  -0.028066  -0.038743  -0.024716  -0.098638
   31  F  3  S    0.004899  -0.000858  -0.020335   0.017801   0.007756
   32  F  3  S    0.004369   0.089151   0.007668  -0.079474  -0.000882
   33  F  3  S   -0.111359  -0.484298   0.432770   0.019266  -0.169317
   34  F  3  X    0.062685   0.237621  -0.170848  -0.047583  -0.014885
   35  F  3  Y   -0.092731   0.056197   0.056406   0.038874   0.171376
   36  F  3  Z   -0.021726  -0.229295  -0.048432   0.008862  -0.011683
   37  F  3  X   -0.063319  -0.045448   0.049230   0.059717  -0.084606
   38  F  3  Y   -0.027180   0.020656   0.063613   0.072549  -0.014532
   39  F  3  Z   -0.015389   0.001009  -0.104846   0.080175   0.003121
   40  F  3 XX   -0.010957  -0.019214   0.019712   0.018833   0.001145
   41  F  3 YY    0.014394   0.027694  -0.015251  -0.004281   0.005947
   42  F  3 ZZ   -0.003437  -0.008480  -0.004461  -0.014552  -0.007093
   43  F  3 XY    0.006321  -0.004825   0.002563   0.010574  -0.021523
   44  F  3 XZ    0.005412   0.050843  -0.015380   0.004114   0.000449
   45  F  3 YZ   -0.001388   0.000688   0.003209  -0.001634   0.011894
   46  H  4  S   -0.165474   0.309467   0.553056  -0.113899   0.561738
   47  H  4  S    0.099420   0.038973  -0.206782  -0.309847  -0.246661
   48  H  4  X    0.008513   0.013000  -0.005837   0.032823  -0.001380
   49  H  4  Y    0.022036  -0.006332  -0.005383   0.000832   0.009364
   50  H  4  Z    0.020549  -0.005194  -0.037606   0.008194  -0.036574
   51  H  5  S    0.293532  -0.070678  -0.304344  -0.308761  -0.612296
   52  H  5  S    0.015275   0.053519  -0.109095  -0.288727   0.825953
   53  H  5  X   -0.006576   0.014212  -0.001303   0.017873  -0.026210
   54  H  5  Y   -0.009943   0.014023  -0.016084   0.015330   0.034654
   55  H  5  Z   -0.011572   0.006946   0.006283   0.006476   0.057594
   56  F  6  S   -0.012926  -0.005587  -0.020955  -0.017210  -0.009715
   57  F  6  S   -0.051859   0.021715   0.013732   0.077437   0.010114
   58  F  6  S    0.551588  -0.010069   0.397043  -0.001435   0.159540
   59  F  6  X    0.200516  -0.001858   0.152210  -0.027541  -0.011040
   60  F  6  Y   -0.183810   0.028063   0.058328   0.013111   0.000703
   61  F  6  Z    0.031744  -0.102301  -0.079083   0.053296   0.166886
   62  F  6  X   -0.136575  -0.037580  -0.082955   0.064341  -0.092383
   63  F  6  Y    0.051099  -0.014616   0.100797   0.081106   0.000390
   64  F  6  Z    0.001482  -0.022015  -0.066967   0.062085  -0.027050
   65  F  6 XX    0.020433   0.004297   0.019915  -0.014561   0.001295
   66  F  6 YY    0.005728   0.000942  -0.006838   0.010221   0.004002
   67  F  6 ZZ   -0.026160  -0.005239  -0.013077   0.004340  -0.005297
   68  F  6 XY   -0.041871   0.005799  -0.011231  -0.005169   0.000978
   69  F  6 XZ    0.004947  -0.008754   0.000401  -0.005984   0.020403
   70  F  6 YZ   -0.001446   0.002215   0.004973  -0.001714  -0.011617
   71  H  7  S   -0.325879   0.240597   0.580551   0.167007  -0.460709
   72  H  7  S   -0.059475  -0.051312  -0.271080   0.249453   0.079229
   73  H  7  X    0.007376   0.004748   0.001270   0.036294   0.005884
   74  H  7  Y    0.004061   0.024451   0.041386   0.010109  -0.025006
   75  H  7  Z    0.003633   0.021777   0.003688  -0.007795   0.004379
   76  H  8  S   -0.077122  -0.295178  -0.376701   0.387203   0.644032
   77  H  8  S   -0.084707  -0.048482  -0.067143   0.243376  -0.814622
   78  H  8  X    0.009302  -0.007380   0.003013   0.015655  -0.028585
   79  H  8  Y    0.011444  -0.013042  -0.006694   0.006860   0.058126
   80  H  8  Z    0.006134  -0.010402   0.014027   0.021737   0.035117

                     31         32         33         34         35
                    0.5344     0.5477     0.5552     0.5734     0.7913
                     A          A          A          A          A   
    1  C  1  S   -0.024747  -0.047076  -0.023718   0.067966   0.023343
    2  C  1  S    0.130571   0.380464   0.126844  -0.535650  -1.294798
    3  C  1  S   -0.085345  -0.629361   0.319722   0.340487   2.506505
    4  C  1  X   -0.078559   0.207123   0.303178   0.051652   0.143573
    5  C  1  Y   -0.014567   0.404314   0.419291  -0.308166  -0.002318
    6  C  1  Z    0.594169  -0.087416  -0.491055  -0.273135  -0.003083
    7  C  1  X    0.183532  -0.615412  -0.995251   0.302190  -0.103955
    8  C  1  Y   -0.026584  -0.110315  -1.680191   0.202577   0.551748
    9  C  1  Z   -0.898383   0.522260   1.588511   1.262870   0.485360
   10  C  1 XX    0.014924   0.026536   0.034935  -0.060837  -0.029396
   11  C  1 YY    0.054497   0.000908  -0.031630   0.015440   0.033577
   12  C  1 ZZ   -0.069421  -0.027443  -0.003305   0.045397  -0.004181
   13  C  1 XY    0.016667  -0.021181  -0.013890   0.011012  -0.056391
   14  C  1 XZ    0.019797   0.045188   0.020441  -0.005955  -0.029471
   15  C  1 YZ   -0.034738   0.033939   0.024730  -0.028664  -0.004655
   16  C  2  S   -0.023547  -0.061708   0.022866  -0.070418   0.016967
   17  C  2  S    0.139821   0.470852  -0.116981   0.551705  -1.296751
   18  C  2  S   -0.264118  -0.691589  -0.371901  -0.358620   2.785523
   19  C  2  X    0.170133  -0.226059   0.269586   0.038231  -0.182999
   20  C  2  Y   -0.647414   0.071868  -0.310103  -0.288112  -0.002705
   21  C  2  Z    0.158728  -0.411698   0.359698  -0.274562   0.042934
   22  C  2  X   -0.494940   0.715037  -0.931501   0.259640   0.190485
   23  C  2  Y    1.158791  -0.751989   1.187858   1.319780  -0.465370
   24  C  2  Z   -0.495361   0.381700  -1.662685   0.101360  -0.505608
   25  C  2 XX    0.003047   0.032926  -0.033680   0.057785  -0.023415
   26  C  2 YY   -0.068909  -0.030872   0.015818  -0.035009  -0.010581
   27  C  2 ZZ    0.065861  -0.002054   0.017862  -0.022777   0.033996
   28  C  2 XY    0.018740   0.050705  -0.015251   0.014349  -0.033186
   29  C  2 XZ    0.018033  -0.024280   0.009084  -0.012194  -0.055589
   30  C  2 YZ   -0.027928   0.020399  -0.016582   0.028487  -0.001199
   31  F  3  S    0.008165   0.010891  -0.010285   0.002037   0.033247
   32  F  3  S   -0.036674  -0.064119   0.014362  -0.020694  -0.146432
   33  F  3  S    0.001601   0.116446   0.175946   0.083434  -0.154734
   34  F  3  X    0.012163  -0.086256  -0.028633   0.003140  -0.033610
   35  F  3  Y   -0.026417   0.083546  -0.102108  -0.107228  -0.014439
   36  F  3  Z    0.006232  -0.022148   0.000092   0.094256  -0.036732
   37  F  3  X    0.027946  -0.047298   0.121472   0.003739  -0.143719
   38  F  3  Y   -0.081666   0.027748  -0.100786  -0.076559   0.036051
   39  F  3  Z    0.049705  -0.055450   0.043896  -0.046614   0.176851
   40  F  3 XX    0.002419  -0.004192   0.016363  -0.003933  -0.001329
   41  F  3 YY    0.000436  -0.005631  -0.006599  -0.002697   0.015637
   42  F  3 ZZ   -0.002856   0.009823  -0.009763   0.006630  -0.014308
   43  F  3 XY   -0.011249  -0.003973   0.003670   0.001607   0.010179
   44  F  3 XZ   -0.002873  -0.004096   0.008131  -0.005760   0.034603
   45  F  3 YZ    0.014162   0.004455   0.003221  -0.004054   0.002749
   46  H  4  S   -0.008882  -0.390250   0.090647  -0.625365  -0.374964
   47  H  4  S   -1.026634   1.013771  -1.693265   0.417143  -0.518465
   48  H  4  X    0.003747   0.038079  -0.030687  -0.003130   0.026088
   49  H  4  Y    0.002886  -0.065029   0.028339  -0.033212   0.001500
   50  H  4  Z   -0.046107   0.041374  -0.049435   0.043883  -0.033127
   51  H  5  S   -0.465632  -0.622869   0.230731  -0.211808  -0.397167
   52  H  5  S    1.277899  -0.048239   0.578389   1.187364  -0.918574
   53  H  5  X   -0.015804  -0.016694   0.005207  -0.010007   0.028071
   54  H  5  Y    0.079783   0.035465   0.017712   0.073050  -0.013345
   55  H  5  Z    0.007805  -0.004873  -0.000059  -0.014962  -0.023728
   56  F  6  S    0.009706   0.005110   0.009478  -0.000203   0.030351
   57  F  6  S   -0.035236  -0.049094  -0.014195   0.015516  -0.138590
   58  F  6  S   -0.045731   0.149726  -0.148797  -0.082449  -0.100430
   59  F  6  X   -0.022485   0.078117  -0.015221  -0.002148   0.055950
   60  F  6  Y   -0.004922   0.033417   0.000727   0.073103   0.028229
   61  F  6  Z    0.007311  -0.040805  -0.118599  -0.112405   0.008658
   62  F  6  X    0.011915   0.003246   0.123424   0.012845   0.100790
   63  F  6  Y   -0.023027   0.061879   0.050757  -0.057480  -0.155997
   64  F  6  Z    0.061480  -0.013859  -0.102957  -0.055562  -0.029885
   65  F  6 XX   -0.003881  -0.000223  -0.013198   0.001896   0.000209
   66  F  6 YY    0.001836   0.006609   0.007535  -0.004348  -0.012904
   67  F  6 ZZ    0.002045  -0.006386   0.005662   0.002452   0.012695
   68  F  6 XY   -0.004709  -0.002748  -0.007695   0.005849   0.032164
   69  F  6 XZ   -0.009524  -0.001586  -0.004269  -0.004699   0.007978
   70  F  6 YZ    0.010331   0.002471  -0.002417   0.006643   0.004462
   71  H  7  S   -0.007255  -0.435824  -0.149386   0.607082  -0.338114
   72  H  7  S   -0.601272   0.818284   1.970088  -0.424525  -0.511701
   73  H  7  X   -0.009825  -0.029429  -0.033532  -0.004957  -0.028275
   74  H  7  Y    0.034779  -0.034046  -0.062788   0.038828   0.031900
   75  H  7  Z    0.000707   0.064603   0.039273  -0.038215  -0.004342
   76  H  8  S   -0.514713  -0.465436  -0.178180   0.233039  -0.360342
   77  H  8  S    1.140967  -0.056135  -0.826701  -1.170074  -0.915604
   78  H  8  X    0.016203   0.012831   0.004944  -0.004724  -0.025450
   79  H  8  Y   -0.013763   0.014139   0.003875  -0.010339   0.024041
   80  H  8  Z   -0.074166  -0.031936   0.031326   0.076013   0.014185

                     36         37         38         39         40
                    0.9115     0.9507     0.9766     1.0327     1.1433
                     A          A          A          A          A   
    1  C  1  S   -0.009961   0.001081   0.017077  -0.020961   0.026003
    2  C  1  S   -0.448616   0.027788   0.553348  -0.065837   1.310214
    3  C  1  S    2.277050   0.022610  -2.721572   1.552507  -5.127308
    4  C  1  X    0.049987  -0.042698  -0.080077   0.175839   0.205892
    5  C  1  Y   -0.127780   0.082741   0.053821  -0.195882  -0.070612
    6  C  1  Z   -0.023531  -0.037638  -0.064773  -0.028861   0.037897
    7  C  1  X   -0.528588  -0.008971   0.602498  -0.285462   1.343560
    8  C  1  Y   -0.254174  -0.002115   0.239373  -0.103643   0.562232
    9  C  1  Z   -0.276755   0.241961   0.654039  -0.072606   0.970965
   10  C  1 XX    0.182665   0.038500   0.002662   0.034106  -0.001875
   11  C  1 YY   -0.128675   0.100148  -0.067594   0.070946   0.009282
   12  C  1 ZZ   -0.053989  -0.138649   0.064931  -0.105051  -0.007407
   13  C  1 XY    0.003940   0.084994   0.070860  -0.124160  -0.048354
   14  C  1 XZ   -0.086937  -0.149067  -0.057714   0.023043  -0.022525
   15  C  1 YZ   -0.064939   0.091457  -0.031807   0.046417  -0.038112
   16  C  2  S    0.011804   0.001267  -0.019831   0.003900  -0.033236
   17  C  2  S    0.347801   0.030659  -0.332178   0.499721  -1.278182
   18  C  2  S   -2.272489  -0.136784   2.800918  -1.114548   5.197119
   19  C  2  X    0.084650   0.070584  -0.189053  -0.149112   0.153916
   20  C  2  Y   -0.030934   0.030053  -0.034302   0.044123   0.039180
   21  C  2  Z   -0.197476  -0.090290   0.159686   0.136113  -0.032782
   22  C  2  X   -0.531828  -0.003574   0.576330  -0.347262   1.277396
   23  C  2  Y   -0.323625  -0.326003   0.535591  -0.386634   1.064946
   24  C  2  Z   -0.235980   0.025199   0.171487  -0.138639   0.411769
   25  C  2 XX   -0.169402   0.068796   0.026863   0.008374   0.001728
   26  C  2 YY    0.061328  -0.120037  -0.127785  -0.050399   0.024263
   27  C  2 ZZ    0.108074   0.051241   0.100922   0.042025  -0.025991
   28  C  2 XY    0.056321  -0.140765   0.036748  -0.001023   0.043130
   29  C  2 XZ    0.036958   0.113559  -0.119815  -0.096083   0.049444
   30  C  2 YZ    0.073440   0.085959   0.075355   0.029193   0.043733
   31  F  3  S   -0.029764  -0.009284   0.062196   0.025570   0.015383
   32  F  3  S    0.097798   0.031193  -0.300807  -0.137605  -0.078490
   33  F  3  S    0.206014   0.031706  -0.135185   0.100997  -0.261383
   34  F  3  X   -0.487070  -0.059636   0.169314   0.269913  -0.255187
   35  F  3  Y   -0.026233  -0.528407  -0.146715  -0.025828   0.128929
   36  F  3  Z   -0.231259   0.056258  -0.529739  -0.310941   0.120678
   37  F  3  X    0.753837   0.139906  -0.511365  -0.437548   0.226164
   38  F  3  Y    0.055347   0.628882   0.137279   0.049664  -0.242141
   39  F  3  Z    0.090341  -0.114665   0.873296   0.480980  -0.103105
   40  F  3 XX    0.018860  -0.004330   0.005933   0.029167  -0.052249
   41  F  3 YY   -0.000505  -0.004649  -0.006373  -0.028647   0.051451
   42  F  3 ZZ   -0.018355   0.008979   0.000440  -0.000520   0.000798
   43  F  3 XY    0.011852   0.014455  -0.005164   0.011380  -0.021412
   44  F  3 XZ    0.013695   0.015130  -0.018289  -0.036332   0.050671
   45  F  3 YZ    0.012559  -0.012843  -0.007397   0.001935  -0.023333
   46  H  4  S    0.144922   0.029769  -0.267580   0.170172  -0.584141
   47  H  4  S    0.211955   0.173590  -0.260820   0.140184  -0.333310
   48  H  4  X    0.049709  -0.106893   0.041137   0.029830  -0.007020
   49  H  4  Y   -0.037471  -0.075186  -0.052431  -0.023837   0.013474
   50  H  4  Z   -0.022454   0.001623  -0.063844  -0.021964  -0.015488
   51  H  5  S    0.148753  -0.036627  -0.262094   0.206522  -0.422757
   52  H  5  S    0.183587  -0.169456   0.081830  -0.221834  -0.140175
   53  H  5  X   -0.084538   0.097401   0.012877   0.008160  -0.019297
   54  H  5  Y   -0.001812   0.036943   0.010482   0.011272  -0.011760
   55  H  5  Z   -0.042451  -0.039242  -0.098290  -0.033637  -0.033955
   56  F  6  S    0.024274  -0.002981  -0.042162   0.059945  -0.011627
   57  F  6  S   -0.091092   0.004711   0.217571  -0.347292   0.035388
   58  F  6  S   -0.140932   0.013301   0.079139   0.080280   0.263125
   59  F  6  X   -0.407569   0.116559   0.025821  -0.369412  -0.280185
   60  F  6  Y   -0.271745   0.099559  -0.319978   0.479031   0.259883
   61  F  6  Z    0.062363   0.505383   0.002352   0.052448   0.128730
   62  F  6  X    0.608640  -0.165297  -0.229217   0.676124   0.214110
[...]
   27  C  2 ZZ    0.005619   0.001541  -0.008729   0.001534   0.002281
   28  C  2 XY   -0.001907  -0.014090  -0.004619   0.029540   0.043726
   29  C  2 XZ   -0.005813  -0.005687   0.023455   0.014501   0.027146
   30  C  2 YZ   -0.000416   0.003480  -0.009389   0.021359   0.040855
   31  F  3  S   -0.028473  -0.019545   0.056428  -0.007303  -0.007505
   32  F  3  S    0.053561   0.039032  -0.103402   0.003688   0.017496
   33  F  3  S    0.228749   0.155155  -0.497982   0.105221   0.067451
   34  F  3  X    0.130959   0.008152  -0.128522   0.105870   0.065455
   35  F  3  Y    0.018370  -0.042110  -0.005190   0.057447   0.053589
   36  F  3  Z   -0.067991  -0.003821   0.132480   0.033230   0.074699
   37  F  3  X    0.157074   0.029629  -0.161941   0.200880   0.094766
   38  F  3  Y    0.008979  -0.089732  -0.036747   0.075066   0.104761
   39  F  3  Z   -0.095157  -0.013651   0.174425   0.085337   0.085611
   40  F  3 XX    0.001190   0.000550  -0.001930  -0.007082   0.003432
   41  F  3 YY    0.001690   0.000724  -0.001409  -0.001659  -0.002026
   42  F  3 ZZ   -0.002880  -0.001274   0.003339   0.008741  -0.001406
   43  F  3 XY    0.000262   0.004654   0.000715   0.001774   0.006157
   44  F  3 XZ    0.003040  -0.003694  -0.001873   0.004684   0.000409
   45  F  3 YZ   -0.002535  -0.005726  -0.002790   0.006952   0.003684
   46  H  4  S    0.069433  -0.011493   0.052727  -0.073627  -0.228182
   47  H  4  S    0.892014  -1.319164  -0.487510  -0.968445  -0.021607
   48  H  4  X   -0.001513   0.010682  -0.015491  -0.001961  -0.010720
   49  H  4  Y    0.002428   0.001079   0.000199  -0.022125  -0.020508
   50  H  4  Z   -0.012345   0.012498   0.012400   0.001799  -0.016479
   51  H  5  S    0.029258   0.036395  -0.052302  -0.080680  -0.279626
   52  H  5  S    0.874924   1.145427   0.792526   0.025149  -0.175587
   53  H  5  X    0.006750   0.010347  -0.004261  -0.016614  -0.015995
   54  H  5  Y   -0.009812  -0.011192  -0.013157   0.000710  -0.006510
   55  H  5  Z   -0.006242  -0.005193   0.010139  -0.015578  -0.022849
   56  F  6  S    0.028214   0.021196   0.055761   0.007459  -0.007544
   57  F  6  S   -0.053112  -0.042093  -0.102073  -0.003876   0.017226
   58  F  6  S   -0.226335  -0.169478  -0.492635  -0.107190   0.069626
   59  F  6  X    0.130320   0.011321   0.129541   0.106436  -0.064456
   60  F  6  Y   -0.062917  -0.009802  -0.130241   0.037416  -0.078696
   61  F  6  Z    0.021219  -0.041463   0.011659   0.053702  -0.047969
   62  F  6  X    0.156724   0.033248   0.163177   0.201201  -0.095695
   63  F  6  Y   -0.090236  -0.023163  -0.169564   0.091352  -0.092515
   64  F  6  Z    0.013302  -0.087757   0.046478   0.067016  -0.098108
   65  F  6 XX   -0.001212  -0.000824  -0.001868   0.007130   0.003694
   66  F  6 YY    0.003042   0.001998   0.002987  -0.009482  -0.001063
   67  F  6 ZZ   -0.001830  -0.001174  -0.001119   0.002352  -0.002631
   68  F  6 XY   -0.003009   0.003409  -0.002045  -0.004652   0.000791
   69  F  6 XZ   -0.000069  -0.004903   0.001002  -0.001529   0.006015
   70  F  6 YZ    0.002269   0.005359  -0.003192  -0.006183   0.003668
   71  H  7  S   -0.071090   0.012533   0.052388   0.074519  -0.229381
   72  H  7  S   -0.896493   1.304411  -0.527832   0.966629  -0.021194
   73  H  7  X   -0.001495   0.010958   0.015358  -0.002264   0.010723
   74  H  7  Y   -0.012251   0.012304  -0.012545   0.000452   0.017765
   75  H  7  Z    0.003110   0.000174   0.000338  -0.022159   0.019360
   76  H  8  S   -0.027542  -0.037701  -0.051561   0.080490  -0.279662
   77  H  8  S   -0.855352  -1.120792   0.826301  -0.022878  -0.176461
   78  H  8  X    0.006580   0.010399   0.004309  -0.016376   0.015768
   79  H  8  Y   -0.006525  -0.005957  -0.009116  -0.015776   0.023439
   80  H  8  Z   -0.009340  -0.010609   0.013969   0.001884   0.004950

                     26         27
                    0.3903     0.3915
                     A          A   
    1  C  1  S   -0.027951   0.033830
    2  C  1  S    0.238050  -0.212388
    3  C  1  S   -0.203750   0.166801
    4  C  1  X    0.506253  -0.410429
    5  C  1  Y   -0.397068   0.319068
    6  C  1  Z    0.090234  -0.018328
    7  C  1  X   -0.477802   0.372705
    8  C  1  Y    0.719697  -0.483116
    9  C  1  Z   -0.097562   0.245773
   10  C  1 XX   -0.025012   0.000902
   11  C  1 YY    0.016119   0.040742
   12  C  1 ZZ    0.008893  -0.041644
   13  C  1 XY    0.040092   0.002228
   14  C  1 XZ    0.020662   0.002244
   15  C  1 YZ    0.012334  -0.033700
   16  C  2  S    0.024744   0.036316
   17  C  2  S   -0.218042  -0.234039
   18  C  2  S    0.187082   0.188436
   19  C  2  X    0.460101   0.449655
   20  C  2  Y    0.072237   0.012423
   21  C  2  Z   -0.378167  -0.361454
   22  C  2  X   -0.432764  -0.401052
   23  C  2  Y   -0.038919  -0.226062
   24  C  2  Z    0.683509   0.569307
   25  C  2 XX    0.024503   0.003172
   26  C  2 YY   -0.006526  -0.045430
   27  C  2 ZZ   -0.017978   0.042258
   28  C  2 XY   -0.022737   0.000661
   29  C  2 XZ   -0.039557  -0.000409
   30  C  2 YZ   -0.010395  -0.029136
   31  F  3  S    0.005295  -0.007191
   32  F  3  S    0.049318   0.075765
   33  F  3  S   -0.382545  -0.279501
   34  F  3  X    0.187575   0.142233
   35  F  3  Y   -0.045078   0.086353
   36  F  3  Z   -0.147255  -0.187802
   37  F  3  X   -0.076863  -0.001924
   38  F  3  Y   -0.008988   0.029308
   39  F  3  Z   -0.003811  -0.019260
   40  F  3 XX   -0.020358  -0.009023
   41  F  3 YY    0.027179   0.013629
   42  F  3 ZZ   -0.006821  -0.004606
   43  F  3 XY    0.003300  -0.007074
   44  F  3 XZ    0.034087   0.036489
   45  F  3 YZ   -0.001608   0.000787
   46  H  4  S    0.016793   0.421766
   47  H  4  S    0.093895  -0.043726
   48  H  4  X    0.016476   0.004302
   49  H  4  Y    0.014705  -0.015545
   50  H  4  Z    0.014598  -0.019876
   51  H  5  S    0.192840  -0.208539
   52  H  5  S    0.055971   0.032619
   53  H  5  X    0.003686   0.018734
   54  H  5  Y    0.000062   0.015008
   55  H  5  Z   -0.005973   0.013355
   56  F  6  S   -0.004574  -0.007620
   57  F  6  S   -0.056133   0.070793
   58  F  6  S    0.405916  -0.243118
   59  F  6  X    0.201348  -0.127975
   60  F  6  Y   -0.162973   0.166395
   61  F  6  Z   -0.030388  -0.098118
   62  F  6  X   -0.076640  -0.006122
   63  F  6  Y   -0.006849   0.016725
   64  F  6  Z   -0.004463  -0.031035
   65  F  6 XX    0.021824  -0.008022
   66  F  6 YY    0.006472  -0.003135
   67  F  6 ZZ   -0.028295   0.011157
   68  F  6 XY   -0.037127   0.032714
   69  F  6 XZ   -0.001387  -0.008916
   70  F  6 YZ   -0.000256   0.001319
   71  H  7  S   -0.056142   0.417339
   72  H  7  S   -0.089122  -0.052393
   73  H  7  X    0.016766  -0.002838
   74  H  7  Y    0.013629   0.022058
   75  H  7  Z    0.012194   0.015699
   76  H  8  S   -0.172406  -0.225837
   77  H  8  S   -0.057819   0.026915
   78  H  8  X    0.005397  -0.018335
   79  H  8  Y   -0.004625  -0.014909
   80  H  8  Z    0.001497  -0.013922

     ---------------------------------------------------------------------
     PROPERTIES FOR THE PBE      DFT FUNCTIONAL (RHF  TYPE) DENSITY MATRIX
     ---------------------------------------------------------------------

          -----------------
          ENERGY COMPONENTS
          -----------------

         WAVEFUNCTION NORMALIZATION =       1.0000000000

                ONE ELECTRON ENERGY =    -631.2444482111
                TWO ELECTRON ENERGY =     228.5839129776
           NUCLEAR REPULSION ENERGY =     124.7271048209
                                      ------------------
                       TOTAL ENERGY =    -277.9334304127

 ELECTRON-ELECTRON POTENTIAL ENERGY =     228.5839129776
  NUCLEUS-ELECTRON POTENTIAL ENERGY =    -908.3166658837
   NUCLEUS-NUCLEUS POTENTIAL ENERGY =     124.7271048209
                                      ------------------
             TOTAL POTENTIAL ENERGY =    -555.0056480852
               TOTAL KINETIC ENERGY =     277.0722176726
                 VIRIAL RATIO (V/T) =       2.0031082609

          ---------------------------------------
          MULLIKEN AND LOWDIN POPULATION ANALYSES
          ---------------------------------------

     ATOMIC MULLIKEN POPULATION IN EACH MOLECULAR ORBITAL

                      1          2          3          4          5

                  2.000000   2.000000   2.000000   2.000000   2.000000

    1             0.001250  -0.000104   1.557236   0.442515   0.109798
    2            -0.000115   0.001261   0.442114   1.557639   0.109701
    3             0.017238   1.981617  -0.000114  -0.000389   0.879840
    4            -0.000003  -0.000003   0.000145   0.000178   0.002909
    5             0.000019  -0.000014   0.000258   0.000169   0.006811
    6             1.981627   0.017229  -0.000395  -0.000107   0.881245
    7            -0.000006  -0.000000   0.000313   0.000010   0.002911
    8            -0.000009   0.000014   0.000442  -0.000015   0.006785

                      6          7          8          9         10

                  2.000000   2.000000   2.000000   2.000000   2.000000

    1             0.086835   0.705676   0.479441   0.488848   0.370595
    2             0.087016   0.705745   0.479437   0.488062   0.370368
    3             0.910476   0.162328   0.254699   0.285247   0.515294
    4             0.002585   0.071415   0.121120   0.197816   0.003017
    5             0.000717   0.060298   0.144968   0.028235   0.110935
    6             0.909075   0.162653   0.254303   0.285054   0.515576
    7             0.002581   0.071541   0.121094   0.198181   0.003107
    8             0.000715   0.060346   0.144939   0.028558   0.111109

                     11         12         13         14         15

                  2.000000   2.000000   2.000000   2.000000   2.000000

    1             0.391901   0.354370   0.298816   0.054340   0.132867
    2             0.391639   0.352797   0.301552   0.054564   0.131568
    3             0.593512   0.443642   0.482758   0.911192   0.676894
    4             0.009839   0.011853   0.186087   0.022976   0.039816
    5             0.004019   0.189889   0.033814   0.011124   0.145785
    6             0.595288   0.444606   0.478517   0.911820   0.685072
    7             0.009766   0.010286   0.187414   0.022851   0.040828
    8             0.004036   0.192558   0.031042   0.011134   0.147171

                     16         17

                  2.000000   2.000000

    1             0.156864   0.249745
    2             0.157708   0.250544
    3             0.583427   0.634422
    4             0.143833   0.086398
    5             0.119925   0.029675
    6             0.576148   0.634456
    7             0.145097   0.084016
    8             0.116997   0.030744

               ----- POPULATIONS IN EACH AO -----
                             MULLIKEN      LOWDIN
              1  C  1  S      1.99340     1.97170
              2  C  1  S      0.76069     0.38649
              3  C  1  S      0.37753     0.28214
              4  C  1  X      0.62519     0.57385
              5  C  1  Y      0.66308     0.60269
              6  C  1  Z      0.77386     0.69678
              7  C  1  X      0.13656     0.24557
              8  C  1  Y      0.19142     0.30171
              9  C  1  Z      0.29749     0.38993
             10  C  1 XX      0.00813     0.16265
             11  C  1 YY      0.01499     0.15688
             12  C  1 ZZ      0.01851     0.15245
             13  C  1 XY      0.01107     0.03580
             14  C  1 XZ      0.00907     0.02289
             15  C  1 YZ      0.00000     0.02209
             16  C  2  S      1.99340     1.97170
             17  C  2  S      0.76066     0.38649
             18  C  2  S      0.37779     0.28214
             19  C  2  X      0.62891     0.57686
             20  C  2  Y      0.77330     0.69668
             21  C  2  Z      0.65991     0.59971
             22  C  2  X      0.13932     0.24815
             23  C  2  Y      0.29626     0.38810
             24  C  2  Z      0.19026     0.30111
             25  C  2 XX      0.01190     0.16233
             26  C  2 YY      0.01167     0.15293
             27  C  2 ZZ      0.01135     0.15817
             28  C  2 XY      0.01843     0.02372
             29  C  2 XZ      0.00843     0.03557
             30  C  2 YZ      0.00000     0.01977
             31  F  3  S      1.99544     1.97164
             32  F  3  S      0.94931     0.75174
             33  F  3  S      0.99756     0.52629
             34  F  3  X      1.06406     1.02222
             35  F  3  Y      1.23593     1.20773
             36  F  3  Z      1.11233     1.07416
             37  F  3  X      0.61232     0.64372
             38  F  3  Y      0.71351     0.73503
             39  F  3  Z      0.64131     0.67640
             40  F  3 XX      0.00179     0.19390
             41  F  3 YY      0.00203     0.18859
             42  F  3 ZZ      0.00147     0.19232
             43  F  3 XY      0.00401     0.00235
             44  F  3 XZ      0.00101     0.00481
             45  F  3 YZ      0.00000     0.00168
             46  H  4  S      0.77199     0.65143
             47  H  4  S      0.11119     0.21473
             48  H  4  X      0.00312     0.00742
             49  H  4  Y      0.00499     0.01163
             50  H  4  Z      0.00869     0.01856
             51  H  5  S      0.76267     0.64517
             52  H  5  S      0.10696     0.21663
             53  H  5  X      0.00307     0.00804
             54  H  5  Y      0.01079     0.02248
             55  H  5  Z      0.00314     0.00805
             56  F  6  S      1.99544     1.97164
             57  F  6  S      0.94931     0.75175
             58  F  6  S      0.99759     0.52631
             59  F  6  X      1.06033     1.01816
             60  F  6  Y      1.11593     1.07807
             61  F  6  Z      1.23605     1.20789
             62  F  6  X      0.61007     0.64169
             63  F  6  Y      0.64364     0.67825
             64  F  6  Z      0.71348     0.73519
             65  F  6 XX      0.00135     0.19403
             66  F  6 YY      0.00247     0.19221
             67  F  6 ZZ      0.00399     0.18858
             68  F  6 XY      0.00150     0.00479
             69  F  6 XZ      0.00101     0.00241
             70  F  6 YZ      0.00000     0.00167
             71  H  7  S      0.77205     0.65126
             72  H  7  S      0.11113     0.21466
             73  H  7  X      0.00302     0.00724
             74  H  7  Y      0.00838     0.01796
             75  H  7  Z      0.00542     0.01239
             76  H  8  S      0.76266     0.64494
             77  H  8  S      0.10691     0.21662
             78  H  8  X      0.00300     0.00789
             79  H  8  Y      0.00338     0.00860
             80  H  8  Z      0.01062     0.02205

          ----- MULLIKEN ATOMIC OVERLAP POPULATIONS -----
          (OFF-DIAGONAL ELEMENTS NEED TO BE MULTIPLIED BY 2)

             1           2           3           4           5

    1    4.6337134
    2    0.3800211   4.6343234
    3   -0.0400681   0.2378908   9.1798993
    4   -0.0321541   0.3716855  -0.0303069   0.6172000
    5   -0.0496344   0.3795503  -0.0257137  -0.0306049   0.5930368
    6    0.2378676  -0.0401708   0.0005912   0.0036034   0.0062139
    7    0.3717267  -0.0321512   0.0035953  -0.0071897   0.0077524
    8    0.3795198  -0.0495509   0.0061946   0.0077457   0.0060252

             6           7           8

    6    9.1800350
    7   -0.0302826   0.6171643
    8   -0.0256909  -0.0306252   0.5929478

          TOTAL MULLIKEN AND LOWDIN ATOMIC POPULATIONS
       ATOM         MULL.POP.    CHARGE          LOW.POP.     CHARGE
    1 C             5.880992    0.119008         6.003611   -0.003611
    2 C             5.881598    0.118402         6.003428   -0.003428
    3 F             9.332083   -0.332083         9.192600   -0.192600
    4 H             0.899979    0.100021         0.903764    0.096236
    5 H             0.886626    0.113374         0.900356    0.099644
    6 F             9.332167   -0.332167         9.192628   -0.192628
    7 H             0.899990    0.100010         0.903521    0.096479
    8 H             0.886566    0.113434         0.900093    0.099907

          MULLIKEN SPHERICAL HARMONIC POPULATIONS
       ATOM           S       P       D      F      G      H      I    TOTAL
    1 C             3.13    2.69    0.06   0.00   0.00   0.00   0.00    5.88
    2 C             3.13    2.69    0.06   0.00   0.00   0.00   0.00    5.88
    3 F             3.94    5.38    0.01   0.00   0.00   0.00   0.00    9.33
    4 H             0.88    0.02    0.00   0.00   0.00   0.00   0.00    0.90
    5 H             0.87    0.02    0.00   0.00   0.00   0.00   0.00    0.89
    6 F             3.94    5.38    0.01   0.00   0.00   0.00   0.00    9.33
    7 H             0.88    0.02    0.00   0.00   0.00   0.00   0.00    0.90
    8 H             0.87    0.02    0.00   0.00   0.00   0.00   0.00    0.89

          -------------------------------
          BOND ORDER AND VALENCE ANALYSIS     BOND ORDER THRESHOLD=0.050
          -------------------------------

                   BOND                       BOND                       BOND
  ATOM PAIR DIST  ORDER      ATOM PAIR DIST  ORDER      ATOM PAIR DIST  ORDER
    1   2  1.526  1.026        1   6  1.402  0.912        1   7  1.107  0.942
    1   8  1.107  0.942        2   3  1.402  0.912        2   4  1.107  0.942
    2   5  1.107  0.942

                       TOTAL       BONDED        FREE
      ATOM            VALENCE     VALENCE     VALENCE
    1 C                 3.824       3.824      -0.000
    2 C                 3.824       3.824      -0.000
    3 F                 0.976       0.976       0.000
    4 H                 0.953       0.953       0.000
    5 H                 0.969       0.969      -0.000
    6 F                 0.976       0.976       0.000
    7 H                 0.953       0.953       0.000
    8 H                 0.969       0.969      -0.000

          ---------------------
          ELECTROSTATIC MOMENTS
          ---------------------

 POINT   1           X           Y           Z (BOHR)    CHARGE
                -0.000000    0.000000    0.000000        0.00 (A.U.)
         DX          DY          DZ         /D/  (DEBYE)
    -0.014561    1.120146   -1.182911    1.629177
 ...... END OF PROPERTY EVALUATION ......
 STEP CPU TIME =     0.02 TOTAL CPU TIME =        102.1 (      1.7 MIN)
 TOTAL WALL CLOCK TIME=        102.8 SECONDS, CPU UTILIZATION IS    99.31%
  $VIB   
          IVIB=   0 IATOM=   0 ICOORD=   0 E=     -277.9334304127
 -4.998209605E-06-1.741567088E-06-5.995358074E-06 9.152164350E-06 2.116186752E-06
  3.295425193E-06-3.365899943E-06 1.132910140E-06 4.042095144E-06-5.585575212E-07
 -2.916496772E-06-2.289461331E-06-2.262100534E-06-3.223084952E-07-4.489640108E-06
  2.584226355E-06-2.249276494E-06 1.452098579E-06-1.198322993E-06 1.350137765E-06
  4.465577296E-06 6.466998903E-07 2.630414192E-06-4.807366982E-07
 -1.456124048E-02 1.120145645E+00-1.182910877E+00
 ......END OF GEOMETRY SEARCH......
 STEP CPU TIME =     0.00 TOTAL CPU TIME =        102.1 (      1.7 MIN)
 TOTAL WALL CLOCK TIME=        102.9 SECONDS, CPU UTILIZATION IS    99.30%
                991181  WORDS OF DYNAMIC MEMORY USED
 EXECUTION OF GAMESS TERMINATED NORMALLY Sun Oct  6 23:39:44 2019
 DDI: 263640 bytes (0.3 MB / 0 MWords) used by master data server.

 ----------------------------------------
 CPU timing information for all processes
 ========================================
 0: 100.348 + 1.808 = 102.156
 ----------------------------------------
 ddikick.x: exited gracefully.
----- accounting info -----
Files used on the master node d12chas543.crc.nd.edu were:
-rw-r--r-- 1 wschnei1 campus 401999 Oct  6 23:39 /scratch365/wschnei1/120-PC1.F07
Sun Oct  6 23:39:47 EDT 2019
0.423u 0.331s 1:46.54 0.7%	0+0k 0+32io 0pf+0w
