----- GAMESS execution script 'rungms' -----
This job is running on host d12chas543.crc.nd.edu
under operating system Linux at Sun Oct 6 23:39:48 EDT 2019
SGE has assigned the following compute nodes to this run:
Available scratch disk space (Kbyte units) at beginning of the job is
Filesystem      1K-blocks     Used  Available Use% Mounted on
/dev/sda2      1949705068 64623176 1885081892   4% /
GAMESS temporary binary files will be written to /tmp/474112.1.debug
GAMESS supplementary output files will be written to /afs/crc.nd.edu/user/w/wschnei1/scr
Copying input file 130-PC1.inp to your run's scratch directory...
reading your own /afs/crc.nd.edu/user/w/wschnei1/.gmsrc

 Distributed Data Interface kickoff program.
 Initiating 1 compute processes on 1 nodes to run the following command:
 /afs/crc.nd.edu/x86_64_linux/g/gamess/nov-2017/gamess/gamess.00.x 130-PC1 

          ******************************************************
          *         GAMESS VERSION = 11 NOV 2017 (R3)         *
          *             FROM IOWA STATE UNIVERSITY             *
          * M.W.SCHMIDT, K.K.BALDRIDGE, J.A.BOATZ, S.T.ELBERT, *
          *   M.S.GORDON, J.H.JENSEN, S.KOSEKI, N.MATSUNAGA,   *
          *          K.A.NGUYEN, S.J.SU, T.L.WINDUS,           *
          *       TOGETHER WITH M.DUPUIS, J.A.MONTGOMERY       *
          *         J.COMPUT.CHEM.  14, 1347-1363(1993)        *
          **************** 64 BIT INTEL VERSION ****************

  SINCE 1993, STUDENTS AND POSTDOCS WORKING AT IOWA STATE UNIVERSITY
  AND ALSO IN THEIR VARIOUS JOBS AFTER LEAVING ISU HAVE MADE IMPORTANT
  CONTRIBUTIONS TO THE CODE:
     IVANA ADAMOVIC, CHRISTINE AIKENS, YURI ALEXEEV, POOJA ARORA,
     ANDREY ASADCHEV, ROB BELL, PRADIPTA BANDYOPADHYAY, JONATHAN BENTZ,
     BRETT BODE, KURT BRORSEN, CALEB CARLIN, GALINA CHABAN, WEI CHEN,
     CHEOL HO CHOI, PAUL DAY, ALBERT DEFUSCO, NUWAN DESILVA, TIM DUDLEY,
     DMITRI FEDOROV, ALEX FINDLATER, GRAHAM FLETCHER, MARK FREITAG,
     KURT GLAESEMANN, ANASTASIA GUININA,
     DAN KEMP, GRANT MERRILL, NORIYUKI MINEZAWA, JONATHAN MULLIN,
     TAKESHI NAGATA, SEAN NEDD, HEATHER NETZLOFF, BOSILJKA NJEGIC, RYAN OLSON,
     MIKE PAK, BUU PHAM,
     SPENCER PRUITT, LUKE ROSKOP, JIM SHOEMAKER, LYUDMILA SLIPCHENKO,
     TONY SMITH, SAROM SOK LEANG, JIE SONG, TETSUYA TAKETSUGU, SIMON WEBB,
     PENG XU, SOOHAENG YOO, FEDERICO ZAHARIEV

  ADDITIONAL CODE HAS BEEN PROVIDED BY COLLABORATORS IN OTHER GROUPS:
     IOWA STATE UNIVERSITY:
          JOE IVANIC, AARON WEST, LAIMUTIS BYTAUTAS, KLAUS RUEDENBERG
     UNIVERSITY OF TOKYO: KIMIHIKO HIRAO, TAKAHITO NAKAJIMA,
          TAKAO TSUNEDA, MUNEAKI KAMIYA, SUSUMU YANAGISAWA,
          KIYOSHI YAGI, MAHITO CHIBA, SEIKEN TOKURA, NAOAKI KAWAKAMI
     UNIVERSITY OF AARHUS: FRANK JENSEN
     UNIVERSITY OF IOWA: VISVALDAS KAIRYS, HUI LI
     NATIONAL INST. OF STANDARDS AND TECHNOLOGY: WALT STEVENS, DAVID GARMER
     UNIVERSITY OF PISA: BENEDETTA MENNUCCI, JACOPO TOMASI
     UNIVERSITY OF MEMPHIS: HENRY KURTZ, PRAKASHAN KORAMBATH
     UNIVERSITY OF ALBERTA: TOBY ZENG, MARIUSZ KLOBUKOWSKI
     UNIVERSITY OF NEW ENGLAND: MARK SPACKMAN
     MIE UNIVERSITY: HIROAKI UMEDA
     NAT. INST. OF ADVANCED INDUSTRIAL SCIENCE AND TECHNOLOGY: KAZUO KITAURA
     MICHIGAN STATE UNIVERSITY:
          KAROL KOWALSKI, MARTA WLOCH, JEFFREY GOUR, JESSE LUTZ,
          WEI LI, PIOTR PIECUCH
     UNIVERSITY OF SILESIA: MONIKA MUSIAL, STANISLAW KUCHARSKI
     FACULTES UNIVERSITAIRES NOTRE-DAME DE LA PAIX:
          OLIVIER QUINET, BENOIT CHAMPAGNE
     UNIVERSITY OF CALIFORNIA - SANTA BARBARA: BERNARD KIRTMAN
     INSTITUTE FOR MOLECULAR SCIENCE:
          KAZUYA ISHIMURA, MICHIO KATOUDA, AND SHIGERU NAGASE
     UNIVERSITY OF NOTRE DAME: ANNA POMOGAEVA, DAN CHIPMAN
     KYUSHU UNIVERSITY:
          HARUYUKI NAKANO,
          FENG LONG GU, JACEK KORCHOWIEC, MARCIN MAKOWSKI, AND YURIKO AOKI,
          HIROTOSHI MORI AND EISAKU MIYOSHI
     PENNSYLVANIA STATE UNIVERSITY:
          TZVETELIN IORDANOV, CHET SWALINA, JONATHAN SKONE,
          SHARON HAMMES-SCHIFFER
     WASEDA UNIVERSITY:
          MASATO KOBAYASHI, TOMOKO AKAMA, TSUGUKI TOUMA,
          TAKESHI YOSHIKAWA, YASUHIRO IKABATA, JUNJI SEINO,
          YUYA NAKAJIMA, HIROMI NAKAI
     NANJING UNIVERSITY: SHUHUA LI
     UNIVERSITY OF NEBRASKA:
          PEIFENG SU, DEJUN SI, NANDUN THELLAMUREGE, YALI WANG, HUI LI
     UNIVERSITY OF ZURICH: ROBERTO PEVERATI, KIM BALDRIDGE
     N. COPERNICUS UNIVERSITY AND JACKSON STATE UNIVERSITY:
          MARIA BARYSZ
     UNIVERSITY OF COPENHAGEN: Jimmy Kromann, CASPER STEINMANN
     TOKYO INSTITUTE OF TECHNOLOGY: HIROYA NAKATA
     NAGOYA UNIVERSITY: YOSHIO NISHIMOTO, STEPHAN IRLE
     MOSCOW STATE UNIVERSITY: VLADIMIR MIRONOV

 EXECUTION OF GAMESS BEGUN Sun Oct  6 23:39:48 2019

            ECHO OF THE FIRST FEW INPUT CARDS -
 INPUT CARD> $CONTRL SCFTYP=RHF DFTTYP=PBE RUNTYP=OPTIMIZE COORD=ZMT NZVAR=18 ISPHER=1 $END 
 INPUT CARD> $BASIS GBASIS=PCseg-1 $END                                                     
 INPUT CARD> $STATPT IFREEZ(1)=12 $END                                                      
 INPUT CARD> $DATA                                                                          
 INPUT CARD>FCH2CH2F eclipsed TS                                                            
 INPUT CARD>C1                                                                              
 INPUT CARD>C                                                                               
 INPUT CARD>C   1   r1                                                                      
 INPUT CARD>F   2   r2   1   A1                                                             
 INPUT CARD>H   2   r3   1   A2   3   D1                                                    
 INPUT CARD>H   2   r4   1   A3   3   D2                                                    
 INPUT CARD>F   1   r5   2   A4   3   D3                                                    
 INPUT CARD>H   1   r6   2   A5   6   D4                                                    
 INPUT CARD>H   1   r7   2   A6   6   D5                                                    
 INPUT CARD>                                                                                
 INPUT CARD>r1=1.5                                                                          
 INPUT CARD>r2=1.4                                                                          
 INPUT CARD>r3=1.1                                                                          
 INPUT CARD>r4=1.1                                                                          
 INPUT CARD>r5=1.5                                                                          
 INPUT CARD>r6=1.1                                                                          
 INPUT CARD>r7=1.1                                                                          
 INPUT CARD>A1=109.54214                                                                    
 INPUT CARD>A2=109.54214                                                                    
 INPUT CARD>A3=109.54214                                                                    
 INPUT CARD>A4=109.54214                                                                    
 INPUT CARD>A5=109.54214                                                                    
 INPUT CARD>A6=109.54214                                                                    
 INPUT CARD>D1=120.                                                                         
 INPUT CARD>D2=-120.                                                                        
 INPUT CARD>D3=130                                                                          
 INPUT CARD>D4=120.                                                                         
 INPUT CARD>D5=-120.                                                                        
 INPUT CARD> $END                                                                           
 INPUT CARD>                                                                                
    1000000 WORDS OF MEMORY AVAILABLE

     BASIS OPTIONS
     -------------
     GBASIS=PCSEG-1      IGAUSS=       0      POLAR=NONE    
     NDFUNC=       0     NFFUNC=       0     DIFFSP=       F
     NPFUNC=       0      DIFFS=       F     BASNAM=        


     RUN TITLE
     ---------
 FCH2CH2F eclipsed TS                                                            

 THE POINT GROUP OF THE MOLECULE IS C1      
 THE ORDER OF THE PRINCIPAL AXIS IS     0

 YOUR FULLY SUBSTITUTED Z-MATRIX IS
 C   
 C      1   1.5000000
 F      2   1.4000000  1  109.5421
 H      2   1.1000000  1  109.5421  3  120.0000  0
 H      2   1.1000000  1  109.5421  3 -120.0000  0
 F      1   1.5000000  2  109.5421  3  130.0000  0
 H      1   1.1000000  2  109.5421  6  120.0000  0
 H      1   1.1000000  2  109.5421  6 -120.0000  0

 THE MOMENTS OF INERTIA ARE (AMU-ANGSTROM**2)
 IXX=    20.313   IYY=   133.566   IZZ=   136.336

 ATOM      ATOMIC                      COORDINATES (BOHR)
           CHARGE         X                   Y                   Z
 C           6.0    -1.0204380678        1.0122058865        0.5070434916
 C           6.0     1.1264772950       -0.8301604013        0.6840620819
 F           9.0     3.2561815170        0.1741300515       -0.5221910665
 H           1.0     1.5705712900       -1.1904348918        2.6825541706
 H           1.0     0.5889595884       -2.6147688790       -0.2363916702
 F           9.0    -3.3357107524       -0.3183310367       -0.4437869805
 H           1.0    -1.4067156574        1.8124317704        2.3862496995
 H           1.0    -0.5162091631        2.5435046921       -0.8051550425

          INTERNUCLEAR DISTANCES (ANGS.)
          ------------------------------

                1 C          2 C          3 F          4 H          5 H     

   1 C       0.0000000    1.5000000 *  2.3695781 *  2.1363170 *  2.1363170 *
   2 C       1.5000000 *  0.0000000    1.4000000 *  1.1000000 *  1.1000000 *
   3 F       2.3695781 *  1.4000000 *  0.0000000    2.0476979 *  2.0476979 *
   4 H       2.1363170 *  1.1000000 *  2.0476979 *  0.0000000    1.7955050 *
   5 H       2.1363170 *  1.1000000 *  2.0476979 *  1.7955050 *  0.0000000  
   6 F       1.5000000 *  2.4505612 *  3.4982462    3.1129918    2.4087551 *
   7 H       1.1000000 *  2.1363170 *  3.0346214    2.2431899 *  2.9206113 *
   8 H       1.1000000 *  2.1363170 *  2.3621074 *  2.9206113 *  2.8077666 *

                6 F          7 H          8 H     

   1 C       1.5000000 *  1.1000000 *  1.1000000 *
   2 C       2.4505612 *  2.1363170 *  2.1363170 *
   3 F       3.4982462    3.0346214    2.3621074 *
   4 H       3.1129918    2.2431899 *  2.9206113 *
   5 H       2.4087551 *  2.9206113 *  2.8077666 *
   6 F       0.0000000    2.1345124 *  2.1345124 *
   7 H       2.1345124 *  0.0000000    1.7955050 *
   8 H       2.1345124 *  1.7955050 *  0.0000000  

  * ... LESS THAN  3.000


     ATOMIC BASIS SET
     ----------------
 THE CONTRACTED PRIMITIVE FUNCTIONS HAVE BEEN UNNORMALIZED
 THE CONTRACTED BASIS FUNCTIONS ARE NOW NORMALIZED TO UNITY

  SHELL TYPE  PRIMITIVE        EXPONENT          CONTRACTION COEFFICIENT(S)

 C         

      1   S       1          1243.2000000    0.005630097702
      1   S       2           187.1450000    0.041950603854
      1   S       3            42.5126000    0.184664360492
      1   S       4            11.7393000    0.466557421368
      1   S       5             3.5054800    0.448234778316

      2   S       6             5.3908900   -0.148114817444
      2   S       7             0.4933410    1.051981714281

      3   S       8             0.1497410    1.000000000000

      4   P       9             9.1805600    0.063992052045
      4   P      10             1.9365800    0.333521296407
      4   P      11             0.5262960    0.741161730513

      5   P      12             0.1363190    1.000000000000

      6   D      13             0.8000000    1.000000000000

 C         

      7   S      14          1243.2000000    0.005630097702
      7   S      15           187.1450000    0.041950603854
      7   S      16            42.5126000    0.184664360492
      7   S      17            11.7393000    0.466557421368
      7   S      18             3.5054800    0.448234778316

      8   S      19             5.3908900   -0.148114817444
      8   S      20             0.4933410    1.051981714281

      9   S      21             0.1497410    1.000000000000

     10   P      22             9.1805600    0.063992052045
     10   P      23             1.9365800    0.333521296407
     10   P      24             0.5262960    0.741161730513

     11   P      25             0.1363190    1.000000000000

     12   D      26             0.8000000    1.000000000000

 F         

     13   S      27          2931.5500000    0.005390132259
     13   S      28           441.1250000    0.040296704072
     13   S      29           100.2320000    0.180202178717
     13   S      30            27.8655000    0.465064284210
     13   S      31             8.4447000    0.452433138251

     14   S      32            13.6123000   -0.151660908297
     14   S      33             1.2612200    1.053515343452

     15   S      34             0.3708000    1.000000000000

     16   P      35            21.9305000    0.070356827475
     16   P      36             4.7855200    0.356742371235
     16   P      37             1.2837800    0.719732016372

     17   P      38             0.3115580    1.000000000000

     18   D      39             1.1000000    1.000000000000

 H         

     19   S      40            12.2518000    0.037217389296
     19   S      41             1.8687100    0.253808206955
     19   S      42             0.4182080    0.797386763917

     20   S      43             0.1061000    1.000000000000

     21   P      44             1.0000000    1.000000000000

 H         

     22   S      45            12.2518000    0.037217389296
     22   S      46             1.8687100    0.253808206955
     22   S      47             0.4182080    0.797386763917

     23   S      48             0.1061000    1.000000000000

     24   P      49             1.0000000    1.000000000000

 F         

     25   S      50          2931.5500000    0.005390132259
     25   S      51           441.1250000    0.040296704072
     25   S      52           100.2320000    0.180202178717
     25   S      53            27.8655000    0.465064284210
     25   S      54             8.4447000    0.452433138251

     26   S      55            13.6123000   -0.151660908297
     26   S      56             1.2612200    1.053515343452

     27   S      57             0.3708000    1.000000000000

     28   P      58            21.9305000    0.070356827475
     28   P      59             4.7855200    0.356742371235
     28   P      60             1.2837800    0.719732016372

     29   P      61             0.3115580    1.000000000000

     30   D      62             1.1000000    1.000000000000

 H         

     31   S      63            12.2518000    0.037217389296
     31   S      64             1.8687100    0.253808206955
     31   S      65             0.4182080    0.797386763917

     32   S      66             0.1061000    1.000000000000

     33   P      67             1.0000000    1.000000000000

 H         

     34   S      68            12.2518000    0.037217389296
     34   S      69             1.8687100    0.253808206955
     34   S      70             0.4182080    0.797386763917

     35   S      71             0.1061000    1.000000000000

     36   P      72             1.0000000    1.000000000000

 TOTAL NUMBER OF BASIS SET SHELLS             =   36
 NUMBER OF CARTESIAN GAUSSIAN BASIS FUNCTIONS =   80
 NOTE: THIS RUN WILL RESTRICT THE MO VARIATION SPACE TO SPHERICAL HARMONICS.
 THE NUMBER OF ORBITALS KEPT IN THE VARIATIONAL SPACE WILL BE PRINTED LATER.
 NUMBER OF ELECTRONS                          =   34
 CHARGE OF MOLECULE                           =    0
 SPIN MULTIPLICITY                            =    1
 NUMBER OF OCCUPIED ORBITALS (ALPHA)          =   17
 NUMBER OF OCCUPIED ORBITALS (BETA )          =   17
 TOTAL NUMBER OF ATOMS                        =    8
 THE NUCLEAR REPULSION ENERGY IS      123.2084613319

     LEBEDEV GRID-BASED DFT OPTIONS
     ------------------------------
     DFTTYP=PBE     
     NRAD  =      96     NLEB  =     302
     NRAD0 =      24     NLEB0 =     110
     SWOFF =    5.00E-03 (PURE SCF -> DFT)
     SWITCH=    3.00E-04 (COARSE -> TIGHT GRID)
     THRESH=    0.00E+00 GTHRE=    1.00E+00

 GRIMME'S EMPIRICAL DISPERSION CORRECTION= F

     $CONTRL OPTIONS
     ---------------
 SCFTYP=RHF          RUNTYP=OPTIMIZE     EXETYP=RUN     
 MPLEVL=       0     CITYP =NONE         CCTYP =NONE         VBTYP =NONE    
 DFTTYP=PBE          TDDFT =NONE    
 MULT  =       1     ICHARG=       0     NZVAR =      18     COORD =ZMT     
 PP    =NONE         RELWFN=NONE         LOCAL =NONE         NUMGRD=       F
 ISPHER=       1     NOSYM =       0     MAXIT =      30     UNITS =ANGS    
 PLTORB=       F     MOLPLT=       F     AIMPAC=       F     FRIEND=        
 NPRINT=       7     IREST =       0     GEOM  =INPUT   
 NORMF =       0     NORMP =       0     ITOL  =      20     ICUT  =       9
 INTTYP=BEST         GRDTYP=BEST         QMTTOL= 1.0E-06

     $SYSTEM OPTIONS
     ---------------
  REPLICATED MEMORY=     1000000 WORDS (ON EVERY NODE).
 DISTRIBUTED MEMDDI=           0 MILLION WORDS IN AGGREGATE,
 MEMDDI DISTRIBUTED OVER   1 PROCESSORS IS           0 WORDS/PROCESSOR.
 TOTAL MEMORY REQUESTED ON EACH PROCESSOR=     1000000 WORDS.
 TIMLIM=      525600.00 MINUTES, OR     365.0 DAYS.
 PARALL= F  BALTYP=  DLB     KDIAG=    0  COREFL= F
 MXSEQ2=     300 MXSEQ3=     150  mem10=         0

          ----------------
          PROPERTIES INPUT
          ----------------

     MOMENTS            FIELD           POTENTIAL          DENSITY
 IEMOM =       1   IEFLD =       0   IEPOT =       0   IEDEN =       0
 WHERE =COMASS     WHERE =NUCLEI     WHERE =NUCLEI     WHERE =NUCLEI  
 OUTPUT=BOTH       OUTPUT=BOTH       OUTPUT=BOTH       OUTPUT=BOTH    
 IEMINT=       0   IEFINT=       0                     IEDINT=       0
                                                       MORB  =       0
          EXTRAPOLATION IN EFFECT
          DIIS IN EFFECT
 ORBITAL PRINTING OPTION: NPREO=     1    80     2     1

     -------------------------------
     INTEGRAL TRANSFORMATION OPTIONS
     -------------------------------
     NWORD  =            0
     CUTOFF = 1.0E-09     MPTRAN =       0
     DIRTRF =       F     AOINTS =DUP     

          ----------------------
          INTEGRAL INPUT OPTIONS
          ----------------------
 NOPK  =       1 NORDER=       0 SCHWRZ=       T

   --- ENCODED Z MATRIX ---
 COORD  TYPE   I   J   K   L   M   N
    1      1    2   1
    2      1    3   2
    3      2    3   2   1
    4      1    4   2
    5      2    4   2   1
    6      3    4   2   1   3
    7      1    5   2
    8      2    5   2   1
    9      3    5   2   1   3
   10      1    6   1
   11      2    6   1   2
   12      3    6   1   2   3
   13      1    7   1
   14      2    7   1   2
   15      3    7   1   2   6
   16      1    8   1
   17      2    8   1   2
   18      3    8   1   2   6

 THE DETERMINANT OF THE G MATRIX IS 10**(   -12)


                     --------------------
                     INTERNAL COORDINATES
                     --------------------

                 - - ATOMS - -         COORDINATE      COORDINATE
 NO.   TYPE    I  J  K  L  M  N        (BOHR,RAD)       (ANG,DEG)
 ----------------------------------------------------------------
   1 STRETCH   2  1                     2.8345890       1.5000000
   2 STRETCH   3  2                     2.6456164       1.4000000
   3 BEND      3  2  1                  1.9118710     109.5421400
   4 STRETCH   4  2                     2.0786986       1.1000000
   5 BEND      4  2  1                  1.9118710     109.5421400
   6 TORSION   4  2  1  3               2.0943951     120.0000000
   7 STRETCH   5  2                     2.0786986       1.1000000
   8 BEND      5  2  1                  1.9118710     109.5421400
   9 TORSION   5  2  1  3              -2.0943951    -120.0000000
  10 STRETCH   6  1                     2.8345890       1.5000000
  11 BEND      6  1  2                  1.9118710     109.5421400
  12 TORSION   6  1  2  3               2.2689280     130.0000000
  13 STRETCH   7  1                     2.0786986       1.1000000
  14 BEND      7  1  2                  1.9118710     109.5421400
  15 TORSION   7  1  2  6               2.0943951     120.0000000
  16 STRETCH   8  1                     2.0786986       1.1000000
  17 BEND      8  1  2                  1.9118710     109.5421400
  18 TORSION   8  1  2  6              -2.0943951    -120.0000000

     ------------------------------------------
     THE POINT GROUP IS C1 , NAXIS= 0, ORDER= 1
     ------------------------------------------

 -- VARIATIONAL SPACE WILL BE RESTRICTED TO PURE SPHERICAL HARMONICS ONLY --
 AFTER EXCLUDING CONTAMINANT COMBINATIONS FROM THE CARTESIAN GAUSSIAN BASIS
 SET, THE NUMBER OF SPHERICAL HARMONICS KEPT IN THE VARIATION SPACE IS   76

     DIMENSIONS OF THE SYMMETRY SUBSPACES ARE
 A   =   76

 ..... DONE SETTING UP THE RUN .....
 STEP CPU TIME =     0.01 TOTAL CPU TIME =          0.0 (      0.0 MIN)
 TOTAL WALL CLOCK TIME=          0.0 SECONDS, CPU UTILIZATION IS    50.00%


          -----------------------------
          STATIONARY POINT LOCATION RUN
          -----------------------------

 OBTAINING INITIAL HESSIAN, HESS=GUESS   
 DIAGONAL GUESS HESSIAN IN INTERNAL COORDS IS
     1  0.3892     2  0.3267     3  0.2379     4  0.3397     5  0.2253
     6  0.2500     7  0.3397     8  0.2253     9  0.2500    10  0.2690
    11  0.2315    12  0.2500    13  0.3397    14  0.2253    15  0.2500
    16  0.3397    17  0.2253    18  0.2500

          PARAMETERS CONTROLLING GEOMETRY SEARCH ARE
          METHOD =QA                  UPHESS =BFGS    
          NNEG   =         0          NFRZ   =         1
          NSTEP  =        50          IFOLOW =         1
          HESS   =GUESS               RESTAR =         F
          IHREP  =         0          HSSEND =         F
          NPRT   =         0          NPUN   =         0
          OPTTOL = 1.000E-04          RMIN   = 1.500E-03
          RMAX   = 1.000E-01          RLIM   = 7.000E-02
          DXMAX  = 3.000E-01          PURIFY =         F
          MOVIE  =         F          TRUPD  =         T
          TRMAX  = 5.000E-01          TRMIN  = 5.000E-02
          ITBMAT =         5          STPT   =         F
          STSTEP = 1.000E-02          PROJCT=          T
          FROZEN COORD(S)=  12

 BEGINNING GEOMETRY SEARCH POINT NSERCH=   0 ...

 COORDINATES OF ALL ATOMS ARE (ANGS)
   ATOM   CHARGE       X              Y              Z
 ------------------------------------------------------------
 C           6.0  -0.5399926098   0.5356363267   0.2683158801
 C           6.0   0.5961061563  -0.4393019976   0.3619900908
 F           9.0   1.7230971782   0.0921456617  -0.2763316321
 H           1.0   0.8311105950  -0.6299510615   1.4195466369
 H           1.0   0.3116640149  -1.3836762028  -0.1250930938
 F           9.0  -1.7651822402  -0.1684535424  -0.2348419736
 H           1.0  -0.7444019220   0.9590976587   1.2627490520
 H           1.0  -0.2731661449   1.3459648164  -0.4260697306


                     --------------------
                     INTERNAL COORDINATES
                     --------------------

                 - - ATOMS - -         COORDINATE      COORDINATE
 NO.   TYPE    I  J  K  L  M  N        (BOHR,RAD)       (ANG,DEG)
 ----------------------------------------------------------------
   1 STRETCH   2  1                     2.8345890       1.5000000
   2 STRETCH   3  2                     2.6456164       1.4000000
   3 BEND      3  2  1                  1.9118710     109.5421400
   4 STRETCH   4  2                     2.0786986       1.1000000
   5 BEND      4  2  1                  1.9118710     109.5421400
   6 TORSION   4  2  1  3               2.0943951     120.0000000
   7 STRETCH   5  2                     2.0786986       1.1000000
   8 BEND      5  2  1                  1.9118710     109.5421400
   9 TORSION   5  2  1  3              -2.0943951    -120.0000000
  10 STRETCH   6  1                     2.8345890       1.5000000
  11 BEND      6  1  2                  1.9118710     109.5421400
  12 TORSION   6  1  2  3               2.2689280     130.0000000
  13 STRETCH   7  1                     2.0786986       1.1000000
  14 BEND      7  1  2                  1.9118710     109.5421400
  15 TORSION   7  1  2  6               2.0943951     120.0000000
  16 STRETCH   8  1                     2.0786986       1.1000000
  17 BEND      8  1  2                  1.9118710     109.5421400
  18 TORSION   8  1  2  6              -2.0943951    -120.0000000

 THE CURRENT FULLY SUBSTITUTED Z-MATRIX IS
 C   
 C      1   1.5000000
 F      2   1.4000000  1   109.5421400
 H      2   1.1000000  1   109.5421400  3   120.0000000  0
 H      2   1.1000000  1   109.5421400  3  -120.0000000  0
 F      1   1.5000000  2   109.5421400  3   130.0000000  0
 H      1   1.1000000  2   109.5421400  6   120.0000000  0
 H      1   1.1000000  2   109.5421400  6  -120.0000000  0

          ********************
          1 ELECTRON INTEGRALS
          ********************
 ...... END OF ONE-ELECTRON INTEGRALS ......
 STEP CPU TIME =     0.00 TOTAL CPU TIME =          0.0 (      0.0 MIN)
 TOTAL WALL CLOCK TIME=          0.0 SECONDS, CPU UTILIZATION IS    50.00%

          -------------
          GUESS OPTIONS
          -------------
          GUESS =HUCKEL            NORB  =       0          NORDER=       0
          MIX   =       F          PRTMO =       F          PUNMO =       F
          TOLZ  = 1.0E-08          TOLE  = 1.0E-05
          SYMDEN=       F          PURIFY=       F

 INITIAL GUESS ORBITALS GENERATED BY HUCKEL   ROUTINE.
 HUCKEL GUESS REQUIRES     54920 WORDS.

 STATISTICS FOR GENERATION OF SYMMETRY ORBITAL -Q- MATRIX
 NUMBER OF CARTESIAN ATOMIC ORBITALS=         80
 NUMBER OF SPHERICAL CONTAMINANTS DROPPED=     4
 NUMBER OF LINEARLY DEPENDENT MOS DROPPED=     0
 TOTAL NUMBER OF MOS IN VARIATION SPACE=      76

 SYMMETRIES FOR INITIAL GUESS ORBITALS FOLLOW.   BOTH SET(S).
    17 ORBITALS ARE OCCUPIED (    4 CORE ORBITALS).
     5=A        6=A        7=A        8=A        9=A       10=A       11=A   
    12=A       13=A       14=A       15=A       16=A       17=A       18=A   
    19=A       20=A       21=A       22=A       23=A       24=A       25=A   
    26=A       27=A   
 ...... END OF INITIAL ORBITAL SELECTION ......
 STEP CPU TIME =     0.01 TOTAL CPU TIME =          0.0 (      0.0 MIN)
 TOTAL WALL CLOCK TIME=          0.0 SECONDS, CPU UTILIZATION IS    66.67%

                    ----------------------
                    AO INTEGRAL TECHNOLOGY
                    ----------------------
     S,P,L SHELL ROTATED AXIS INTEGRALS, REPROGRAMMED BY
        KAZUYA ISHIMURA (IMS) AND JOSE SIERRA (SYNSTAR).
     S,P,D,L SHELL ROTATED AXIS INTEGRALS PROGRAMMED BY
        KAZUYA ISHIMURA (INSTITUTE FOR MOLECULAR SCIENCE).
     S,P,D,F,G SHELL TO TOTAL QUARTET ANGULAR MOMENTUM SUM 5,
        ERIC PROGRAM BY GRAHAM FLETCHER (ELORET AND NASA ADVANCED
        SUPERCOMPUTING DIVISION, AMES RESEARCH CENTER).
     S,P,D,F,G,L SHELL GENERAL RYS QUADRATURE PROGRAMMED BY
        MICHEL DUPUIS (PACIFIC NORTHWEST NATIONAL LABORATORY).

          --------------------
          2 ELECTRON INTEGRALS
          --------------------

 THE -PK- OPTION IS OFF, THE INTEGRALS ARE NOT IN SUPERMATRIX FORM.
 STORING   15000 INTEGRALS/RECORD ON DISK, USING 12 BYTES/INTEGRAL.
 TWO ELECTRON INTEGRAL EVALUATION REQUIRES   91062 WORDS OF MEMORY.
 SCHWARZ INEQUALITY OVERHEAD:      3217 INTEGRALS, T=        0.00
 II,JST,KST,LST =  1  1  1  1 NREC =         1 INTLOC =    1
 II,JST,KST,LST =  2  1  1  1 NREC =         1 INTLOC =    2
 II,JST,KST,LST =  3  1  1  1 NREC =         1 INTLOC =    7
 II,JST,KST,LST =  4  1  1  1 NREC =         1 INTLOC =   22
 II,JST,KST,LST =  5  1  1  1 NREC =         1 INTLOC =   67
 II,JST,KST,LST =  6  1  1  1 NREC =         1 INTLOC =  214
 II,JST,KST,LST =  7  1  1  1 NREC =         1 INTLOC = 1189
 II,JST,KST,LST =  8  1  1  1 NREC =         1 INTLOC = 3222
 II,JST,KST,LST =  9  1  1  1 NREC =         1 INTLOC = 5687
 II,JST,KST,LST = 10  1  1  1 NREC =         1 INTLOC = 8612
 II,JST,KST,LST = 11  1  1  1 NREC =         2 INTLOC = 5534
 II,JST,KST,LST = 12  1  1  1 NREC =         3 INTLOC = 8220
 II,JST,KST,LST = 13  1  1  1 NREC =         7 INTLOC = 6149
 II,JST,KST,LST = 14  1  1  1 NREC =         8 INTLOC = 4572
 II,JST,KST,LST = 15  1  1  1 NREC =         9 INTLOC = 5353
 II,JST,KST,LST = 16  1  1  1 NREC =        10 INTLOC = 8211
 II,JST,KST,LST = 17  1  1  1 NREC =        14 INTLOC =10066
 II,JST,KST,LST = 18  1  1  1 NREC =        20 INTLOC = 1085
 II,JST,KST,LST = 19  1  1  1 NREC =        34 INTLOC =12176
 II,JST,KST,LST = 20  1  1  1 NREC =        38 INTLOC =  400
 II,JST,KST,LST = 21  1  1  1 NREC =        41 INTLOC = 6990
 II,JST,KST,LST = 22  1  1  1 NREC =        53 INTLOC =  942
 II,JST,KST,LST = 23  1  1  1 NREC =        57 INTLOC = 6784
 II,JST,KST,LST = 24  1  1  1 NREC =        62 INTLOC = 1717
 II,JST,KST,LST = 25  1  1  1 NREC =        77 INTLOC = 9374
 II,JST,KST,LST = 26  1  1  1 NREC =        80 INTLOC =11624
 II,JST,KST,LST = 27  1  1  1 NREC =        85 INTLOC = 1906
 II,JST,KST,LST = 28  1  1  1 NREC =        91 INTLOC = 2811
 II,JST,KST,LST = 29  1  1  1 NREC =       106 INTLOC = 3832
 II,JST,KST,LST = 30  1  1  1 NREC =       129 INTLOC = 3520
 II,JST,KST,LST = 31  1  1  1 NREC =       174 INTLOC = 1318
 II,JST,KST,LST = 32  1  1  1 NREC =       184 INTLOC =13964
 II,JST,KST,LST = 33  1  1  1 NREC =       196 INTLOC = 8512
 II,JST,KST,LST = 34  1  1  1 NREC =       230 INTLOC = 8333
 II,JST,KST,LST = 35  1  1  1 NREC =       244 INTLOC =  608
 II,JST,KST,LST = 36  1  1  1 NREC =       258 INTLOC = 5149
 SCHWARZ INEQUALITY TEST SKIPPED       18612 INTEGRAL BLOCKS.
 TOTAL NUMBER OF NONZERO TWO-ELECTRON INTEGRALS =             4514025
        301 INTEGRAL RECORDS WERE STORED ON DISK FILE  8.
  ...... END OF TWO-ELECTRON INTEGRALS .....
 STEP CPU TIME =     0.45 TOTAL CPU TIME =          0.5 (      0.0 MIN)
 TOTAL WALL CLOCK TIME=          0.5 SECONDS, CPU UTILIZATION IS    95.92%

          --------------------------
               R-PBE SCF CALCULATION
          --------------------------

     NUCLEAR ENERGY =       123.2084613319
     MAXIT =   30     NPUNCH=    2
     EXTRAP=T  DAMP=F  SHIFT=F  RSTRCT=F  DIIS=T  DEM=F  SOSCF=F
         DENSITY MATRIX CONVERGENCE THRESHOLD=  1.00E-05
     COARSE -> FINE DFT GRID SWITCH THRESHOLD=  3.00E-04 (SWITCH IN $DFT)
                   HF -> DFT SWITCH THRESHOLD=  5.00E-03 (SWOFF IN $DFT)
     MEMORY REQUIRED FOR RHF ITERS=    365468 WORDS.

 DFT CODE IS SWITCHING FROM THE FINE GRID NRAD= 96,  NLEB=  302
                      TO THE COARSE GRID NRAD0= 24, NLEB0=  110

     EXCHANGE FUNCTIONAL   =PBE       
     CORRELATION FUNCTIONAL=PBE       
     DFT THRESHOLD         =.172E-07
     GRID CHANGE THRESHOLD =.300E-03
 FOR AN EULER-MACLAURIN QUADRATURE USING  96 RADIAL POINTS:
 SMALLEST GAUSSIAN PRIMITIVE EXPONENT=        0.1061000000 OF TYPE -S-
 ON ATOM NUMBER   4 HAS RADIAL NORMALIZATION=  1.000000
  LARGEST GAUSSIAN PRIMITIVE EXPONENT=     2931.5500000000 OF TYPE -S-
 ON ATOM NUMBER   3 HAS RADIAL NORMALIZATION=  1.000000
 DFT IS SWITCHED OFF, PERFORMING PURE SCF UNTIL SWOFF THRESHOLD IS REACHED.

 ITER EX DEM     TOTAL ENERGY        E CHANGE  DENSITY CHANGE    DIIS ERROR
   1  0  0     -276.1239345381  -276.1239345381   0.188360260   0.713775191
          * * *   INITIATING DIIS PROCEDURE   * * *
   2  1  0     -276.7722383099    -0.6483037718   0.090786578   0.080442179
   3  2  0     -276.8147180543    -0.0424797444   0.048089159   0.036245384
   4  3  0     -276.8302598262    -0.0155417718   0.008747924   0.011894053
   5  4  0     -276.8310482623    -0.0007884361   0.002139975   0.001625998
 CONVERGED TO SWOFF, SO DFT CALCULATION IS NOW SWITCHED ON.
          * * *   INITIATING DIIS PROCEDURE   * * *
   6  5  0     -277.8984622955    -1.0674140332   0.095865998   0.074306491
   7  6  0     -277.9134282567    -0.0149659612   0.076729482   0.046354859
   8  7  0     -277.9113666514     0.0020616053   0.048711102   0.044162077
   9  8  0     -277.9270720600    -0.0157054087   0.006946302   0.005280049
  10  9  0     -277.9273206087    -0.0002485487   0.001599898   0.001270280
  11 10  0     -277.9273313989    -0.0000107901   0.000572358   0.000496118
  12 11  0     -277.9273335079    -0.0000021091   0.000067852   0.000081780
 DFT CODE IS SWITCHING BACK TO THE FINE GRID
          * * *   INITIATING DIIS PROCEDURE   * * *
  13 12  0     -277.9271453079     0.0001882000   0.004798709   0.003174372
  14 13  0     -277.9271899866    -0.0000446787   0.005070952   0.002050030
  15 14  0     -277.9271801733     0.0000098133   0.002785627   0.002549914
  16 15  0     -277.9272139440    -0.0000337707   0.000156053   0.000090374
  17 16  0     -277.9272140009    -0.0000000569   0.000087268   0.000061633
  18 17  0     -277.9272140283    -0.0000000274   0.000015709   0.000013065
  19 18  0     -277.9272140293    -0.0000000010   0.000005965   0.000005728
  20 19  0     -277.9272140294    -0.0000000002   0.000000409   0.000000334

          -----------------
          DENSITY CONVERGED
          -----------------
     TIME TO FORM FOCK OPERATORS=       9.8 SECONDS (       0.5 SEC/ITER)
     TIME TO SOLVE SCF EQUATIONS=       0.1 SECONDS (       0.0 SEC/ITER)

 FINAL R-PBE ENERGY IS     -277.9272140294 AFTER  20 ITERATIONS
 DFT EXCHANGE + CORRELATION ENERGY =       -32.9023122697
 TOTAL ELECTRON NUMBER             =        34.0001777104

          ------------
          EIGENVECTORS
          ------------

                      1          2          3          4          5
                  -24.2409   -24.2282    -9.9736    -9.9721    -1.1025
                     A          A          A          A          A   
    1  C  1  S    0.000049  -0.000181   0.992726  -0.035353  -0.013761
    2  C  1  S    0.000196  -0.000904   0.036750  -0.002393   0.023660
    3  C  1  S   -0.003971   0.008593  -0.022269   0.006819   0.024481
    4  C  1  X   -0.000282  -0.000837  -0.000463  -0.000701   0.012471
    5  C  1  Y    0.000197  -0.000354   0.000155   0.000692  -0.009388
    6  C  1  Z   -0.000059  -0.000318  -0.000045  -0.000039  -0.003691
    7  C  1  X   -0.002056  -0.002246  -0.002919   0.002124   0.009077
    8  C  1  Y    0.000216  -0.003325   0.000847  -0.002340  -0.010574
    9  C  1  Z    0.001286  -0.001642  -0.000520   0.000462   0.002731
   10  C  1 XX   -0.000099   0.000296  -0.000282  -0.000395   0.003089
   11  C  1 YY    0.000074  -0.000084  -0.000024  -0.000092  -0.000620
   12  C  1 ZZ    0.000024  -0.000212   0.000307   0.000487  -0.002468
   13  C  1 XY    0.000056   0.000443   0.000207   0.000813  -0.002232
   14  C  1 XZ   -0.000011   0.000288  -0.000149  -0.000085   0.000294
   15  C  1 YZ   -0.000095   0.000201  -0.000024   0.000050   0.000588
   16  C  2  S   -0.000133   0.000049   0.035541   0.992676  -0.064971
   17  C  2  S   -0.000552   0.000247   0.000208   0.037126   0.122711
   18  C  2  S    0.009708  -0.003865   0.005520  -0.021953   0.010380
   19  C  2  X    0.001014   0.000220   0.000746   0.000821   0.077352
   20  C  2  Y    0.000322  -0.000173  -0.000688   0.000136   0.042737
   21  C  2  Z   -0.000501  -0.000009   0.000084  -0.000277  -0.046654
   22  C  2  X    0.002170   0.002058  -0.002008   0.003098   0.012110
   23  C  2  Y    0.002890   0.000272   0.002411  -0.001012   0.000557
   24  C  2  Z   -0.002405   0.001353  -0.000030  -0.000472  -0.003841
   25  C  2 XX    0.000116  -0.000102  -0.000399  -0.000087   0.010251
   26  C  2 YY   -0.000084   0.000108  -0.000096  -0.000082  -0.005304
   27  C  2 ZZ   -0.000032  -0.000006   0.000495   0.000170  -0.004948
   28  C  2 XY    0.000204   0.000002   0.000834   0.000329   0.010371
   29  C  2 XZ   -0.000185  -0.000003  -0.000075  -0.000079  -0.013491
   30  C  2 YZ   -0.000113   0.000052   0.000086  -0.000001  -0.006988
   31  F  3  S    0.993084   0.000309   0.000007   0.000064  -0.237439
   32  F  3  S    0.034024  -0.000081  -0.000083   0.000469   0.482927
   33  F  3  S   -0.016912   0.000304  -0.000191  -0.000783   0.495939
   34  F  3  X   -0.000954   0.000019   0.000084   0.000272  -0.080933
   35  F  3  Y   -0.000466  -0.000030   0.000011   0.000085  -0.035971
   36  F  3  Z    0.000547   0.000016  -0.000039  -0.000130   0.045247
   37  F  3  X    0.003054  -0.000325  -0.000108   0.001421  -0.038131
   38  F  3  Y    0.001443   0.000037   0.000117   0.000961  -0.015680
   39  F  3  Z   -0.001703  -0.000101  -0.000026  -0.000963   0.021133
   40  F  3 XX   -0.000206   0.000016   0.000064  -0.000597   0.006071
   41  F  3 YY    0.000147   0.000019   0.000015   0.000343  -0.003590
   42  F  3 ZZ    0.000059  -0.000035  -0.000079   0.000255  -0.002481
   43  F  3 XY   -0.000281   0.000037  -0.000149  -0.000655   0.006219
   44  F  3 XZ    0.000289  -0.000017   0.000025   0.000813  -0.008009
   45  F  3 YZ    0.000115   0.000025   0.000015   0.000404  -0.003664
   46  H  4  S   -0.000932   0.000123  -0.000368  -0.001202   0.022460
   47  H  4  S    0.000009  -0.000713   0.000286   0.003412   0.001138
   48  H  4  X   -0.000247  -0.000049  -0.000096   0.000147  -0.000264
   49  H  4  Y   -0.000243  -0.000047   0.000046  -0.000199   0.001283
   50  H  4  Z    0.000240  -0.000018   0.000067   0.001267  -0.005249
   51  H  5  S   -0.000944   0.000404  -0.000304  -0.001135   0.022330
   52  H  5  S   -0.000287   0.001045   0.001089   0.003478   0.002085
   53  H  5  X   -0.000275   0.000091  -0.000161  -0.000452   0.002039
   54  H  5  Y   -0.000274  -0.000005   0.000049  -0.001044   0.004686
   55  H  5  Z    0.000190   0.000010  -0.000038  -0.000532   0.001719
   56  F  6  S   -0.000314   0.993090   0.000047   0.000003  -0.014839
   57  F  6  S   -0.000096   0.033691   0.000408  -0.000088   0.030309
   58  F  6  S    0.000270  -0.015940  -0.000061  -0.000164   0.029560
   59  F  6  X   -0.000019   0.000906  -0.000089  -0.000075   0.005763
   60  F  6  Y    0.000032   0.000539  -0.000002  -0.000005   0.002358
   61  F  6  Z    0.000006   0.000374  -0.000023  -0.000029   0.001915
   62  F  6  X    0.000294  -0.002913  -0.000935   0.000173   0.001578
   63  F  6  Y   -0.000077  -0.001664  -0.000858  -0.000049   0.002125
   64  F  6  Z   -0.000073  -0.001167  -0.000470   0.000043   0.000807
   65  F  6 XX    0.000020  -0.000217  -0.000578   0.000097   0.000478
   66  F  6 YY    0.000002   0.000096   0.000168  -0.000016  -0.000085
   67  F  6 ZZ   -0.000022   0.000120   0.000410  -0.000081  -0.000393
   68  F  6 XY    0.000036  -0.000328  -0.000786  -0.000082   0.000628
   69  F  6 XZ    0.000005  -0.000204  -0.000567   0.000041   0.000425
   70  F  6 YZ   -0.000035  -0.000112  -0.000341  -0.000013   0.000286
   71  H  7  S    0.000140  -0.000745  -0.001211  -0.000261   0.002692
   72  H  7  S   -0.000665   0.000137   0.003495   0.000065  -0.001252
   73  H  7  X    0.000041   0.000281  -0.000102   0.000106  -0.000059
   74  H  7  Y    0.000036   0.000268   0.000483  -0.000069  -0.000086
   75  H  7  Z   -0.000032   0.000103   0.001222  -0.000012  -0.000808
   76  H  8  S    0.000377  -0.000760  -0.001141  -0.000199   0.006889
   77  H  8  S    0.000859  -0.000155   0.003613   0.000782   0.006362
   78  H  8  X   -0.000085   0.000273   0.000455   0.000127   0.000688
   79  H  8  Y    0.000022   0.000256   0.000911  -0.000119  -0.001540
   80  H  8  Z   -0.000001   0.000175  -0.000783   0.000024   0.000839

                      6          7          8          9         10
                   -1.0623    -0.7131    -0.5820    -0.4711    -0.4645
                     A          A          A          A          A   
    1  C  1  S   -0.052507  -0.153933   0.127084   0.001158   0.005949
    2  C  1  S    0.100946   0.315437  -0.275632  -0.005982  -0.019881
    3  C  1  S    0.015354   0.180554  -0.145546  -0.006713   0.007328
    4  C  1  X   -0.063627   0.099151   0.053033  -0.074683   0.097631
    5  C  1  Y   -0.040299  -0.045173  -0.124317  -0.035000   0.191472
    6  C  1  Z   -0.026218   0.026475   0.000412   0.256585   0.095768
    7  C  1  X   -0.015017   0.033288   0.007917  -0.030763   0.012451
    8  C  1  Y   -0.002733  -0.003012  -0.049928  -0.030671   0.072949
    9  C  1  Z   -0.005089   0.009833  -0.013868   0.115809   0.016465
   10  C  1 XX    0.007860   0.001795   0.000202  -0.003093   0.003682
   11  C  1 YY   -0.001919   0.002413   0.003844  -0.000084  -0.009574
   12  C  1 ZZ   -0.005941  -0.004208  -0.004047   0.003177   0.005892
   13  C  1 XY    0.010186  -0.008779  -0.008465  -0.000520  -0.004202
   14  C  1 XZ    0.007698   0.001333   0.000969   0.005124  -0.001961
   15  C  1 YZ    0.004448  -0.001281  -0.000364  -0.002792  -0.005581
   16  C  2  S   -0.004718  -0.148922  -0.127795  -0.002151   0.003735
   17  C  2  S    0.006780   0.305360   0.278979  -0.005781  -0.002576
   18  C  2  S    0.018089   0.167657   0.135034   0.032849  -0.035349
   19  C  2  X   -0.021099  -0.101748   0.074594  -0.055132   0.220752
   20  C  2  Y    0.002153   0.054861  -0.121929  -0.082408   0.213822
   21  C  2  Z    0.000824   0.018313   0.019698   0.307404   0.112488
   22  C  2  X   -0.009081  -0.034350   0.008183   0.014228   0.050035
   23  C  2  Y    0.010062   0.005977  -0.050226  -0.007763   0.088613
   24  C  2  Z    0.001949   0.011928   0.025689   0.102330   0.077006
   25  C  2 XX    0.001512   0.001079   0.001644  -0.000600   0.001832
   26  C  2 YY   -0.000232   0.003322  -0.005197  -0.002272   0.002006
   27  C  2 ZZ   -0.001281  -0.004401   0.003552   0.002872  -0.003838
   28  C  2 XY   -0.003066  -0.009186   0.008895  -0.006618   0.008547
   29  C  2 XZ    0.001747   0.000972  -0.002288   0.006452  -0.007902
   30  C  2 YZ    0.000028  -0.000373   0.001472   0.011551  -0.005842
   31  F  3  S    0.019128   0.060684   0.046168  -0.033888   0.030619
   32  F  3  S   -0.038893  -0.131752  -0.101636   0.071232  -0.063762
   33  F  3  S   -0.041919  -0.155758  -0.121627   0.105288  -0.095587
   34  F  3  X    0.004299  -0.087722  -0.119550   0.332497  -0.208133
   35  F  3  Y    0.002823  -0.017977  -0.122042   0.084384   0.003188
   36  F  3  Z   -0.003264   0.040370   0.095158   0.010686   0.268438
   37  F  3  X    0.003123  -0.049308  -0.072797   0.204700  -0.128767
   38  F  3  Y    0.000352  -0.013659  -0.073565   0.047165   0.002225
   39  F  3  Z   -0.001485   0.022821   0.057669   0.006184   0.161918
   40  F  3 XX   -0.000292   0.004226   0.000992  -0.011960   0.002365
   41  F  3 YY    0.000235  -0.002598  -0.000491   0.003242  -0.006403
   42  F  3 ZZ    0.000057  -0.001628  -0.000501   0.008718   0.004038
   43  F  3 XY   -0.000384   0.001758   0.007602  -0.004740  -0.001266
   44  F  3 XZ    0.000509  -0.003886  -0.005232   0.001602  -0.010996
   45  F  3 YZ    0.000200  -0.001057  -0.004181  -0.000682  -0.002805
   46  H  4  S   -0.000069   0.112217   0.159928   0.208337   0.077552
   47  H  4  S   -0.001741  -0.003450   0.005548   0.037914  -0.001008
   48  H  4  X    0.000028  -0.004486  -0.001678  -0.005536   0.002811
   49  H  4  Y   -0.000243   0.002751  -0.000155   0.002216   0.006298
   50  H  4  Z   -0.000098  -0.010450  -0.012879  -0.007576  -0.003462
   51  H  5  S    0.004079   0.103752   0.171923  -0.031175  -0.203158
   52  H  5  S    0.006892  -0.009680   0.016241   0.009115  -0.010365
   53  H  5  X   -0.000898   0.001701   0.004796  -0.001467   0.002163
   54  H  5  Y    0.000971   0.009334   0.010698  -0.004506  -0.008842
   55  H  5  Z    0.000237   0.005221   0.007082   0.005474  -0.003764
   56  F  6  S   -0.242007   0.054057  -0.036695  -0.001806  -0.033066
   57  F  6  S    0.492127  -0.117389   0.081952   0.003735   0.070230
   58  F  6  S    0.514999  -0.137370   0.094048   0.005923   0.104696
   59  F  6  X    0.066272   0.072147  -0.089905  -0.047551  -0.260282
   60  F  6  Y    0.036439   0.024396  -0.098561  -0.023019  -0.038997
   61  F  6  Z    0.027226   0.027027  -0.044680   0.107185  -0.068199
   62  F  6  X    0.035105   0.041342  -0.057774  -0.028116  -0.163876
   63  F  6  Y    0.018134   0.017426  -0.061446  -0.012368  -0.022849
   64  F  6  Z    0.014488   0.015115  -0.028556   0.062031  -0.041998
   65  F  6 XX    0.006124   0.003608  -0.001378  -0.003246  -0.008378
   66  F  6 YY   -0.002055  -0.001662  -0.000543  -0.000723   0.004443
   67  F  6 ZZ   -0.004069  -0.001946   0.001921   0.003969   0.003936
   68  F  6 XY    0.007748   0.002610  -0.006854  -0.001948  -0.002195
   69  F  6 XZ    0.005850   0.002741  -0.002809   0.004389  -0.004067
   70  F  6 YZ    0.003258   0.001111  -0.002713   0.002553  -0.000361
   71  H  7  S    0.019473   0.117283  -0.160606   0.161973   0.091606
   72  H  7  S    0.001713  -0.002928  -0.005409   0.017520   0.024698
   73  H  7  X   -0.000058   0.004261  -0.001643   0.002408   0.004315
   74  H  7  Y   -0.002081  -0.005190   0.002687  -0.006413   0.000939
   75  H  7  Z   -0.004008  -0.010266   0.012591  -0.004582  -0.003466
   76  H  8  S    0.018810   0.109206  -0.174876  -0.143197   0.062931
   77  H  8  S    0.001139  -0.010801  -0.019451   0.005833  -0.004194
   78  H  8  X   -0.001903  -0.001726   0.004001  -0.000988   0.002211
   79  H  8  Y   -0.003365  -0.008329   0.008899   0.008170   0.000452
   80  H  8  Z    0.002180   0.007676  -0.009578  -0.001083   0.005230

                     11         12         13         14         15
                   -0.4339    -0.4038    -0.3961    -0.3318    -0.3063
                     A          A          A          A          A   
    1  C  1  S    0.008923   0.010413  -0.005794   0.032353   0.002138
    2  C  1  S   -0.024132  -0.011660   0.011803  -0.070470  -0.009134
    3  C  1  S   -0.021051  -0.047602   0.016858  -0.137846  -0.001801
    4  C  1  X    0.299474  -0.060921  -0.019866  -0.090906  -0.023826
    5  C  1  Y   -0.109184  -0.294968  -0.059948   0.019155   0.105997
    6  C  1  Z   -0.000074  -0.003084   0.307689  -0.014967  -0.091914
    7  C  1  X    0.092739   0.005799  -0.016965  -0.064310  -0.015651
    8  C  1  Y   -0.063523  -0.101648  -0.035465   0.043372   0.046709
    9  C  1  Z   -0.007116   0.011364   0.136239   0.002238  -0.008250
   10  C  1 XX   -0.005648   0.014572  -0.000229   0.015130  -0.001571
   11  C  1 YY    0.006148  -0.003827  -0.000228  -0.010322   0.009802
   12  C  1 ZZ   -0.000500  -0.010745   0.000457  -0.004808  -0.008232
   13  C  1 XY   -0.011791   0.008888  -0.003364  -0.003889   0.006523
   14  C  1 XZ   -0.004594   0.008617  -0.012420   0.002356  -0.015662
   15  C  1 YZ   -0.004028   0.005450   0.007161  -0.005310  -0.004932
   16  C  2  S   -0.011308   0.006179   0.011520  -0.026082   0.000740
   17  C  2  S    0.022257  -0.006425  -0.020699   0.053154  -0.006410
   18  C  2  S    0.025998  -0.022512  -0.044100   0.126629   0.004996
   19  C  2  X   -0.254463   0.003865  -0.031875  -0.010432  -0.002822
   20  C  2  Y    0.157163   0.240905   0.040266  -0.059739  -0.150340
   21  C  2  Z    0.019169   0.042493  -0.204745   0.051750  -0.128770
   22  C  2  X   -0.078262  -0.021199  -0.033712  -0.031681   0.001598
   23  C  2  Y    0.089497   0.087922   0.004972   0.001031  -0.060521
   24  C  2  Z    0.001138   0.027462  -0.082366   0.006059  -0.033665
   25  C  2 XX   -0.012922   0.012681   0.003288  -0.020363   0.000308
   26  C  2 YY    0.012415  -0.005337  -0.002095   0.008223   0.013277
   27  C  2 ZZ    0.000507  -0.007344  -0.001193   0.012140  -0.013584
   28  C  2 XY   -0.006813   0.008426   0.000425   0.007797   0.012935
   29  C  2 XZ    0.008925  -0.000872  -0.019838   0.000694   0.012588
   30  C  2 YZ   -0.002277  -0.007562   0.003086  -0.007254   0.002621
   31  F  3  S   -0.016469   0.004718   0.003881   0.000408   0.002038
   32  F  3  S    0.032678  -0.007583  -0.005944  -0.003209  -0.007948
   33  F  3  S    0.049821  -0.011571  -0.007455   0.000516   0.000023
   34  F  3  X    0.063176  -0.149089  -0.226651  -0.226366   0.088778
   35  F  3  Y    0.304093   0.156780  -0.128745   0.346048   0.265830
   36  F  3  Z   -0.160394   0.204945  -0.160405  -0.229367   0.331934
   37  F  3  X    0.038968  -0.089177  -0.143218  -0.158442   0.054190
   38  F  3  Y    0.187792   0.100277  -0.085046   0.236514   0.190859
   39  F  3  Z   -0.099416   0.133119  -0.106310  -0.157220   0.233807
   40  F  3 XX    0.005462   0.003628   0.007803   0.008691  -0.002437
   41  F  3 YY   -0.004219  -0.007697   0.000490  -0.004970  -0.001869
   42  F  3 ZZ   -0.001244   0.004069  -0.008293  -0.003721   0.004306
   43  F  3 XY   -0.009765  -0.004756   0.006084  -0.004266  -0.004627
   44  F  3 XZ    0.003348  -0.007618   0.002861   0.001600  -0.004243
   45  F  3 YZ    0.007128   0.001126   0.001932   0.005682   0.000184
   46  H  4  S   -0.032860  -0.015956  -0.187261   0.109778  -0.117530
   47  H  4  S   -0.012248  -0.007013  -0.057553   0.045033  -0.052066
   48  H  4  X   -0.004611   0.001406  -0.000144  -0.002957   0.003696
   49  H  4  Y    0.002107   0.005676  -0.000312  -0.001602  -0.005464
   50  H  4  Z    0.003337   0.001031   0.006523  -0.002848   0.000844
   51  H  5  S   -0.037365  -0.185035   0.030772   0.057566   0.205166
   52  H  5  S    0.016682  -0.062399   0.008916  -0.016581   0.083783
   53  H  5  X   -0.006616  -0.005720   0.001029   0.003859   0.000096
   54  H  5  Y   -0.000201  -0.004165   0.003081  -0.000093   0.004085
   55  H  5  Z   -0.001146  -0.004356  -0.003916   0.004048   0.002847
   56  F  6  S   -0.027572   0.018853  -0.005130   0.000790   0.002313
   57  F  6  S    0.058353  -0.038302   0.010863  -0.000003  -0.008327
   58  F  6  S    0.082514  -0.053443   0.012584  -0.001777  -0.002917
   59  F  6  X   -0.171307   0.320448  -0.138452  -0.182344  -0.113652
   60  F  6  Y   -0.264400   0.036630  -0.140222   0.409540  -0.163316
   61  F  6  Z   -0.142441   0.171243   0.225041   0.121224   0.378422
   62  F  6  X   -0.112525   0.203545  -0.091457  -0.124764  -0.070683
   63  F  6  Y   -0.163932   0.025831  -0.089500   0.277117  -0.117433
   64  F  6  Z   -0.089842   0.110787   0.145404   0.082892   0.263988
   65  F  6 XX    0.001017   0.007813  -0.004784  -0.008231  -0.002984
   66  F  6 YY   -0.002662  -0.006411  -0.002611   0.007231  -0.001154
   67  F  6 ZZ    0.001645  -0.001402   0.007395   0.001000   0.004137
   68  F  6 XY   -0.009218   0.002620  -0.006128   0.005682  -0.003816
   69  F  6 XZ   -0.004616   0.007282   0.006655   0.000493   0.005060
   70  F  6 YZ   -0.005407   0.001739   0.003661   0.004594   0.002087
   71  H  7  S   -0.089149  -0.104431   0.220454  -0.046891  -0.054632
   72  H  7  S   -0.020590  -0.036589   0.060942  -0.018071  -0.026216
   73  H  7  X    0.005434  -0.003598   0.000950  -0.003659  -0.004045
   74  H  7  Y    0.000762  -0.005325  -0.006335  -0.000397   0.004293
   75  H  7  Z    0.005888   0.004945  -0.005259   0.000925  -0.001472
   76  H  8  S   -0.012846  -0.197122  -0.187345  -0.033514   0.144397
   77  H  8  S    0.017640  -0.056080  -0.046281   0.027021   0.064387
   78  H  8  X    0.008564   0.002732   0.004168   0.001529   0.000755
   79  H  8  Y   -0.000936   0.001504   0.007533  -0.000196  -0.001298
   80  H  8  Z   -0.001261  -0.008336  -0.000566  -0.002748   0.003366

                     16         17         18         19         20
                   -0.2909    -0.2892    -0.0137     0.0203     0.0506
                     A          A          A          A          A   
    1  C  1  S   -0.006225  -0.021332   0.057218   0.054779   0.101535
    2  C  1  S    0.014278   0.059088  -0.158195  -0.088900  -0.210301
    3  C  1  S    0.055996   0.078113  -0.114825  -0.882686  -1.318925
    4  C  1  X    0.103592   0.152959   0.365698   0.023798   0.109730
    5  C  1  Y   -0.014424  -0.186151   0.206431  -0.143834  -0.097077
    6  C  1  Z   -0.196346  -0.000050   0.125829  -0.184770   0.188253
    7  C  1  X    0.038540   0.004358   0.533565   0.048186   0.067930
    8  C  1  Y   -0.035888  -0.062191   0.273154  -0.340345  -0.319097
    9  C  1  Z   -0.033851  -0.005011   0.137815  -0.391741   0.433049
   10  C  1 XX    0.009779   0.012099   0.029307  -0.005480  -0.007094
   11  C  1 YY    0.001828  -0.005913  -0.017327  -0.008533   0.012905
   12  C  1 ZZ   -0.011607  -0.006186  -0.011980   0.014013  -0.005811
   13  C  1 XY    0.006564  -0.015711   0.023978  -0.002185   0.013494
   14  C  1 XZ   -0.003386   0.001017   0.017089  -0.012415   0.012056
   15  C  1 YZ   -0.016696  -0.002186   0.021961   0.012815  -0.021262
   16  C  2  S   -0.004083  -0.021845  -0.020445   0.055969   0.011404
   17  C  2  S    0.013706   0.059204   0.060282  -0.091260  -0.051616
   18  C  2  S   -0.011740   0.109368  -0.119816  -0.910802   0.073154
   19  C  2  X    0.020651  -0.187911   0.177083  -0.024125  -0.173118
   20  C  2  Y    0.115108   0.140206   0.121400   0.097990  -0.039965
   21  C  2  Z    0.149404  -0.125015  -0.078182  -0.212673   0.173535
   22  C  2  X    0.031850  -0.029802   0.332972  -0.036251  -0.281835
   23  C  2  Y    0.013282   0.068023   0.202589   0.246010  -0.022418
   24  C  2  Z    0.032530  -0.042830  -0.065155  -0.460259   0.377369
   25  C  2 XX   -0.002431   0.014320  -0.030088  -0.005110   0.011616
   26  C  2 YY   -0.008793  -0.000215   0.033014  -0.011813  -0.000073
   27  C  2 ZZ    0.011224  -0.014104  -0.002926   0.016923  -0.011543
   28  C  2 XY   -0.013789  -0.010133  -0.011971   0.000098   0.016767
   29  C  2 XZ    0.000531   0.001721   0.011475   0.013734  -0.026489
   30  C  2 YZ   -0.008792   0.007284   0.021751  -0.005710   0.005947
   31  F  3  S    0.002714  -0.000251   0.040087   0.013521  -0.023545
   32  F  3  S   -0.007746   0.004286  -0.080899  -0.027806   0.042470
   33  F  3  S   -0.012556  -0.019121  -0.288421  -0.097842   0.206524
   34  F  3  X    0.041095   0.253774   0.168551   0.034181  -0.095899
   35  F  3  Y   -0.259052  -0.182354   0.037657  -0.022924  -0.134646
   36  F  3  Z   -0.239583   0.207984  -0.105430   0.040102   0.083455
   37  F  3  X    0.020771   0.181595   0.161456   0.040908  -0.090483
   38  F  3  Y   -0.176334  -0.126969   0.037883  -0.032691  -0.127134
   39  F  3  Z   -0.167322   0.140359  -0.097292   0.049259   0.068519
   40  F  3 XX   -0.000239  -0.003694   0.000249   0.001850  -0.004348
   41  F  3 YY    0.002300   0.001749   0.001015  -0.001747   0.003629
   42  F  3 ZZ   -0.002061   0.001945  -0.001264  -0.000103   0.000719
   43  F  3 XY    0.001891   0.000617  -0.000398  -0.000184  -0.003828
   44  F  3 XZ    0.003348  -0.001005  -0.002631   0.004598   0.001263
   45  F  3 YZ   -0.001842  -0.001634   0.001998   0.001740   0.000641
   46  H  4  S    0.155590  -0.180680  -0.053393   0.098779  -0.101685
   47  H  4  S    0.077841  -0.095445  -0.117422   1.171575  -0.597149
   48  H  4  X   -0.000746  -0.001971   0.009119   0.004239  -0.016000
   49  H  4  Y    0.003358   0.002181   0.006758   0.002063   0.001779
   50  H  4  Z   -0.002235   0.004259  -0.001595   0.019524  -0.004475
   51  H  5  S   -0.192701  -0.000831   0.143104  -0.005300   0.033596
   52  H  5  S   -0.104396  -0.040813   0.457931   0.144363   0.202216
   53  H  5  X   -0.000356  -0.001504   0.008626  -0.002155  -0.008592
   54  H  5  Y   -0.004592   0.002819  -0.005439   0.001210  -0.003616
   55  H  5  Z   -0.000083  -0.003012  -0.008733  -0.009025   0.006736
   56  F  6  S   -0.002256   0.000644  -0.059406   0.012324  -0.017668
   57  F  6  S    0.007474   0.001547   0.115636  -0.025007   0.031401
   58  F  6  S    0.003544  -0.020796   0.420428  -0.087925   0.140979
   59  F  6  X   -0.089905  -0.292956   0.281468  -0.032908   0.120510
   60  F  6  Y   -0.082219   0.358479   0.169145   0.027950   0.118993
   61  F  6  Z    0.418253   0.013523   0.135872   0.029694   0.022694
   62  F  6  X   -0.069576  -0.205523   0.269546  -0.040235   0.125821
   63  F  6  Y   -0.054378   0.244713   0.160186   0.036041   0.126701
   64  F  6  Z    0.287450   0.005525   0.124587   0.033344   0.014733
   65  F  6 XX   -0.001794  -0.004683  -0.001430   0.001337  -0.003103
   66  F  6 YY   -0.001492   0.004293   0.000682  -0.001979  -0.000432
   67  F  6 ZZ    0.003285   0.000390   0.000748   0.000642   0.003535
   68  F  6 XY   -0.000888   0.001851  -0.002543  -0.001266  -0.006067
   69  F  6 XZ    0.004759  -0.001190  -0.002752  -0.004000   0.000834
   70  F  6 YZ    0.001078   0.001879   0.000350  -0.001038  -0.003868
   71  H  7  S   -0.226224  -0.082341   0.024961   0.103844  -0.044891
   72  H  7  S   -0.116177  -0.046025   0.077965   1.168837   0.131598
   73  H  7  X   -0.000214   0.002022   0.018274  -0.002849   0.007103
   74  H  7  Y    0.002374  -0.003226   0.008803   0.002639  -0.001051
   75  H  7  Z    0.003297   0.003193   0.000449   0.019704   0.004169
   76  H  8  S    0.167194  -0.095246  -0.079151  -0.009987   0.173694
   77  H  8  S    0.076642  -0.080947  -0.248728   0.127767   1.572040
   78  H  8  X    0.001318   0.001722   0.014705   0.002070   0.008092
   79  H  8  Y   -0.005399  -0.001264   0.001306  -0.003318   0.020432
   80  H  8  Z   -0.000176  -0.002767   0.012803  -0.008582  -0.008087

                     21         22         23         24         25
                    0.0635     0.0976     0.1090     0.1752     0.3442
                     A          A          A          A          A   
    1  C  1  S   -0.047134  -0.010517   0.030377   0.074241   0.009643
    2  C  1  S    0.080697   0.068220  -0.034578  -0.093288  -0.146396
    3  C  1  S    0.644979  -0.203874  -0.811642  -1.869947  -0.525083
    4  C  1  X   -0.007631  -0.235329  -0.001237  -0.202309  -0.224363
    5  C  1  Y    0.033499  -0.222650   0.113063   0.307896   0.330490
    6  C  1  Z    0.104175   0.047541  -0.292174   0.119319   0.015168
    7  C  1  X   -0.064568  -0.542226  -0.225231  -1.470047   0.237640
    8  C  1  Y    0.064530  -0.581155   0.448304   1.397594  -1.017669
    9  C  1  Z    0.284654   0.137916  -0.960168   0.321635  -0.026839
   10  C  1 XX    0.003192   0.007886   0.005183   0.020803  -0.026731
   11  C  1 YY   -0.000489  -0.015393  -0.001900   0.010831  -0.029178
   12  C  1 ZZ   -0.002703   0.007507  -0.003283  -0.031634   0.055909
   13  C  1 XY    0.007141  -0.011302  -0.011489  -0.031243   0.043218
   14  C  1 XZ    0.009272  -0.008902   0.009835   0.009303  -0.011521
   15  C  1 YZ   -0.014063  -0.000108   0.004445   0.007783   0.002852
   16  C  2  S    0.111551  -0.043777  -0.020534  -0.080305   0.011055
   17  C  2  S   -0.219415   0.129585   0.006413   0.115020  -0.170044
   18  C  2  S   -1.497228   0.217111   0.739948   1.919062  -0.364313
   19  C  2  X   -0.080636   0.320511  -0.050994  -0.193642   0.232499
   20  C  2  Y    0.160061   0.222754   0.145704   0.294879  -0.339355
   21  C  2  Z    0.120270   0.036505   0.272702  -0.186003   0.086222
   22  C  2  X   -0.078613   0.840804  -0.344222  -1.352262  -0.335264
   23  C  2  Y    0.452542   0.590843   0.567475   1.384866   1.126613
   24  C  2  Z    0.246864   0.119074   0.873224  -0.632805  -0.271607
   25  C  2 XX    0.001172   0.000061  -0.005669  -0.021886  -0.019322
   26  C  2 YY    0.006955  -0.003125   0.006729  -0.007101  -0.030792
   27  C  2 ZZ   -0.008127   0.003064  -0.001060   0.028986   0.050114
   28  C  2 XY    0.011119  -0.013833   0.017216   0.029190   0.045096
   29  C  2 XZ   -0.012586   0.019613   0.003122   0.006716   0.004574
   30  C  2 YZ    0.005083   0.014880   0.003600   0.017148   0.019382
   31  F  3  S   -0.023443   0.062987  -0.024207   0.011708   0.006275
   32  F  3  S    0.043577  -0.115875   0.049670  -0.013289  -0.001985
   33  F  3  S    0.192932  -0.549349   0.188289  -0.142239  -0.117343
   34  F  3  X   -0.138383   0.154909  -0.023916   0.122942   0.042395
   35  F  3  Y   -0.083324   0.089134  -0.046743  -0.053271  -0.083141
   36  F  3  Z    0.055292  -0.116981  -0.025038  -0.009607   0.057096
   37  F  3  X   -0.156993   0.196947  -0.041235   0.209441   0.105366
   38  F  3  Y   -0.109337   0.089840  -0.088911  -0.102195  -0.135760
   39  F  3  Z    0.053159  -0.170288  -0.043793   0.015133   0.011001
   40  F  3 XX   -0.002049  -0.002753   0.000596   0.008664  -0.005207
   41  F  3 YY   -0.000487  -0.001104  -0.004338  -0.009534  -0.000830
   42  F  3 ZZ    0.002536   0.003857   0.003742   0.000870   0.006038
   43  F  3 XY   -0.005263   0.001264  -0.001498   0.004589   0.004179
   44  F  3 XZ    0.000975  -0.003593  -0.006009  -0.002216   0.006581
   45  F  3 YZ    0.004462  -0.002300   0.002855   0.006880   0.001664
   46  H  4  S    0.001598   0.002832  -0.011569   0.093580   0.311327
   47  H  4  S    0.488006  -0.754368  -1.360597   0.955175  -0.010706
   48  H  4  X   -0.004461   0.015626  -0.010203  -0.000249  -0.008677
   49  H  4  Y   -0.001240   0.011307   0.009576   0.014261   0.020853
   50  H  4  Z    0.006947  -0.011076  -0.009871   0.015750   0.001370
   51  H  5  S    0.102440  -0.023852   0.050651   0.073730   0.226319
   52  H  5  S    1.573180   0.875672   1.092789   0.021366   0.205228
   53  H  5  X   -0.008955   0.008114  -0.011297  -0.014408  -0.014989
   54  H  5  Y   -0.020326  -0.005750  -0.011920   0.009807   0.020862
   55  H  5  Z   -0.004378  -0.016856  -0.002633  -0.015326  -0.015767
   56  F  6  S    0.012466   0.041148   0.012980  -0.002658   0.006628
   57  F  6  S   -0.026797  -0.076034  -0.029505   0.000059  -0.007438
   58  F  6  S   -0.078625  -0.343505  -0.085973   0.035388  -0.095195
   59  F  6  X   -0.046800  -0.098716   0.001368   0.099868  -0.052015
   60  F  6  Y    0.052698  -0.085182  -0.008724  -0.062734   0.093709
   61  F  6  Z   -0.013882  -0.045006   0.041116   0.013665   0.036778
   62  F  6  X   -0.064737  -0.125966  -0.008629   0.158057  -0.089305
   63  F  6  Y    0.033288  -0.081241  -0.039844  -0.111478   0.109489
   64  F  6  Z   -0.029390  -0.081153   0.068988  -0.010293  -0.015565
   65  F  6 XX   -0.003019  -0.001075  -0.000915  -0.008047  -0.000975
   66  F  6 YY    0.003082  -0.000662   0.004575   0.010157  -0.003260
   67  F  6 ZZ   -0.000063   0.001738  -0.003660  -0.002110   0.004234
   68  F  6 XY   -0.001171   0.002012  -0.000807  -0.003797   0.000299
   69  F  6 XZ    0.001320   0.001133  -0.005681  -0.001529  -0.005311
   70  F  6 YZ    0.000329   0.002857  -0.000124   0.003429  -0.000876
   71  H  7  S   -0.106129   0.028837   0.003521  -0.083012   0.313890
   72  H  7  S   -0.968443  -0.114773   1.414299  -0.970160  -0.054403
   73  H  7  X    0.006026  -0.012979  -0.005857  -0.003734   0.010707
   74  H  7  Y   -0.009195  -0.006524   0.013197   0.009356  -0.019667
   75  H  7  Z   -0.008650  -0.002180   0.008777  -0.018955   0.005554
   76  H  8  S    0.020951  -0.063901  -0.036118  -0.084729   0.221925
   77  H  8  S   -0.060092   0.889011  -1.154730   0.024856   0.159597
   78  H  8  X   -0.000007  -0.003255  -0.010191  -0.016188   0.014663
   79  H  8  Y   -0.000420   0.001643  -0.009908   0.012152  -0.023370
   80  H  8  Z    0.001742  -0.015506   0.007701   0.011005  -0.010781

                     26         27         28         29         30
                    0.3738     0.3897     0.4237     0.4782     0.5296
                     A          A          A          A          A   
    1  C  1  S   -0.032653  -0.005493  -0.002702   0.074088   0.012095
    2  C  1  S    0.264963  -0.008984  -0.063139  -0.523675  -0.050552
    3  C  1  S   -0.371857  -0.097797   0.166025   1.596119  -0.236814
    4  C  1  X   -0.669473   0.029049   0.215791  -0.451619  -0.057410
    5  C  1  Y   -0.280637   0.005654   0.268481   0.414345  -0.253692
    6  C  1  Z   -0.257075   0.025792   0.121048  -0.112986   0.289293
    7  C  1  X    0.746623  -0.028453  -0.945202   1.134026  -0.201842
    8  C  1  Y    0.595859  -0.272723  -0.895761  -1.363739   0.584334
    9  C  1  Z    0.638122   0.149287   0.258990   0.392738   0.272889
   10  C  1 XX   -0.009044   0.017740   0.021963   0.012564  -0.031731
   11  C  1 YY    0.026759  -0.013840   0.011761   0.003028   0.076009
   12  C  1 ZZ   -0.017715  -0.003900  -0.033724  -0.015593  -0.044279
   13  C  1 XY   -0.008911   0.036853   0.020308  -0.059140   0.037530
   14  C  1 XZ    0.009900  -0.003521   0.034690  -0.021583  -0.039454
   15  C  1 YZ   -0.029373  -0.051799  -0.075957  -0.032117  -0.071224
   16  C  2  S    0.001003  -0.038889  -0.002261  -0.071495  -0.007058
   17  C  2  S   -0.065375   0.281362  -0.067672   0.504473   0.000700
   18  C  2  S    0.042659  -0.293258   0.154855  -1.568976   0.345630
   19  C  2  X   -0.074736   0.691359  -0.267836  -0.394916  -0.105026
   20  C  2  Y   -0.030611   0.213646  -0.236862   0.488873  -0.326921
   21  C  2  Z    0.050105  -0.339033   0.200307  -0.001716  -0.389170
   22  C  2  X   -0.061647  -0.657961   1.038894   1.073819  -0.090974
   23  C  2  Y    0.317562  -0.220342   0.876658  -1.452160   0.606818
   24  C  2  Z   -0.030210   0.709330  -0.027141  -0.088534  -0.136636
   25  C  2 XX    0.013366  -0.021395   0.027121  -0.021380   0.025917
   26  C  2 YY    0.004646   0.044539   0.026955  -0.013046  -0.107291
   27  C  2 ZZ   -0.018012  -0.023144  -0.054076   0.034426   0.081374
   28  C  2 XY    0.037952  -0.021827   0.021632   0.055887  -0.047121
   29  C  2 XZ   -0.009634   0.009651  -0.053901  -0.020244  -0.016166
   30  C  2 YZ    0.043907   0.034750   0.046729  -0.020070  -0.048164
   31  F  3  S    0.008586   0.001480   0.018008   0.016805   0.007103
   32  F  3  S   -0.012798  -0.083465   0.009840  -0.077137  -0.007060
   33  F  3  S   -0.100919   0.434895  -0.481569   0.031382  -0.127652
   34  F  3  X   -0.037792   0.233032  -0.193783   0.052340   0.023202
   35  F  3  Y   -0.101073   0.100000  -0.012620   0.049407   0.100955
   36  F  3  Z   -0.056573  -0.193615  -0.048802   0.027687   0.112387
   37  F  3  X    0.073087  -0.045607   0.050238  -0.057429   0.054780
   38  F  3  Y   -0.044572  -0.015981   0.027581   0.110186  -0.023071
   39  F  3  Z   -0.016765  -0.025430  -0.109548  -0.008147  -0.037034
   40  F  3 XX   -0.009764   0.021909  -0.023293   0.018810   0.003544
   41  F  3 YY    0.005103  -0.013010   0.009602  -0.009959   0.010620
   42  F  3 ZZ    0.004661  -0.008900   0.013691  -0.008852  -0.014164
   43  F  3 XY   -0.008371   0.028865  -0.011542  -0.010218   0.015590
   44  F  3 XZ   -0.001315  -0.038210   0.015776  -0.003182   0.016689
   45  F  3 YZ    0.009817  -0.017480   0.008468   0.004364   0.007008
   46  H  4  S   -0.196784  -0.351719  -0.487750  -0.119361   0.555412
   47  H  4  S    0.111909  -0.005601   0.218078  -0.219406  -0.559405
   48  H  4  X   -0.006280   0.010639  -0.008453  -0.035134  -0.000362
   49  H  4  Y    0.033208   0.010647   0.027351   0.007551  -0.020489
   50  H  4  Z   -0.000549  -0.002782  -0.025066  -0.011462   0.044702
   51  H  5  S    0.348988   0.120793   0.304017  -0.323450  -0.614017
   52  H  5  S    0.025240  -0.056676   0.052152  -0.351580   1.041050
   53  H  5  X    0.004874   0.014833  -0.002036  -0.016035   0.031222
   54  H  5  Y   -0.013767  -0.016215   0.005729   0.013138   0.070102
   55  H  5  Z    0.000758  -0.001956   0.013304   0.003042  -0.012646
   56  F  6  S   -0.011978   0.010705   0.019271  -0.016252  -0.006839
   57  F  6  S   -0.048843  -0.027181  -0.000756   0.074750   0.009120
   58  F  6  S    0.516350  -0.074620  -0.431590  -0.009214   0.104251
   59  F  6  X   -0.200199   0.015707   0.161195   0.029030   0.025491
   60  F  6  Y   -0.119978   0.058977  -0.009596   0.050463   0.074017
   61  F  6  Z   -0.125402  -0.098074  -0.077011  -0.047172  -0.131065
   62  F  6  X    0.128844  -0.061571  -0.087857  -0.063767   0.059357
   63  F  6  Y    0.046848   0.019958  -0.055379   0.102551  -0.020970
   64  F  6  Z    0.012656  -0.029016  -0.101247  -0.013245   0.030720
   65  F  6 XX    0.021891  -0.006521  -0.021667  -0.014161  -0.001460
   66  F  6 YY   -0.005921  -0.000423   0.005568   0.006405  -0.005672
   67  F  6 ZZ   -0.015969   0.006944   0.016099   0.007756   0.007132
   68  F  6 XY    0.031599  -0.005165  -0.010574   0.006803  -0.009901
   69  F  6 XZ    0.025337   0.007362  -0.007211  -0.001542   0.016811
   70  F  6 YZ    0.014406  -0.004630  -0.002133   0.002728   0.010285
   71  H  7  S   -0.363970  -0.266317  -0.505086   0.178016  -0.453651
   72  H  7  S   -0.035997   0.092162   0.272918   0.171740   0.234489
   73  H  7  X   -0.004162   0.004193   0.002244  -0.038619  -0.005488
   74  H  7  Y   -0.001973  -0.036496  -0.034145   0.007191  -0.021710
   75  H  7  Z   -0.001844   0.004898  -0.018574   0.016971  -0.020294
   76  H  8  S    0.013963   0.367070   0.367559   0.402435   0.597139
   77  H  8  S   -0.078417   0.047157   0.015628   0.290448  -0.827276
   78  H  8  X   -0.010049  -0.004978   0.002543  -0.014109   0.030437
   79  H  8  Y    0.015891   0.014423  -0.000940   0.015725   0.064105
   80  H  8  Z    0.001299  -0.001819   0.012054  -0.013145  -0.000491

                     31         32         33         34         35
                    0.5353     0.5479     0.5518     0.5694     0.7881
                     A          A          A          A          A   
    1  C  1  S   -0.031952   0.011764  -0.043168   0.071257   0.023666
    2  C  1  S    0.172816  -0.150281   0.350444  -0.525613  -1.286410
    3  C  1  S   -0.120956   0.686426  -0.469516   0.134295   2.485654
    4  C  1  X    0.028802  -0.216291  -0.258754   0.010227  -0.140860
    5  C  1  Y    0.393829  -0.023440   0.240158  -0.419378   0.005214
    6  C  1  Z   -0.465092   0.487613   0.548166  -0.102826   0.022629
    7  C  1  X   -0.037285   0.694495   0.810963  -0.544476   0.116919
    8  C  1  Y   -0.586024  -0.521173   0.121766   1.073460   0.715513
    9  C  1  Z    0.595617  -2.266482  -1.240840  -0.271467  -0.127968
   10  C  1 XX    0.025489   0.009657   0.033557  -0.074875  -0.021906
   11  C  1 YY   -0.011995  -0.015489   0.024130   0.010928   0.018701
   12  C  1 ZZ   -0.013494   0.005831  -0.057687   0.063947   0.003205
   13  C  1 XY   -0.023036  -0.010736  -0.003733  -0.003384   0.068065
   14  C  1 XZ    0.019935   0.013685   0.042567  -0.009204  -0.000197
   15  C  1 YZ    0.079807  -0.014266  -0.020993   0.005030   0.021914
   16  C  2  S   -0.034595   0.014483  -0.053471  -0.075225   0.017230
   17  C  2  S    0.218042  -0.051829   0.437535   0.554274  -1.287833
   18  C  2  S   -0.429824  -0.403846  -0.764584  -0.155476   2.761886
   19  C  2  X   -0.108954  -0.288347   0.142568   0.027570   0.182637
   20  C  2  Y   -0.399278   0.026132  -0.154704  -0.386824   0.020764
   21  C  2  Z   -0.458040  -0.524628   0.314104   0.165832  -0.009387
   22  C  2  X    0.392684   0.983905  -0.480363  -0.530256  -0.203709
   23  C  2  Y    0.478768   0.049882  -0.388750   1.135417  -0.674499
   24  C  2  Z    1.108763   2.430358  -0.335371   0.092344   0.056816
   25  C  2 XX    0.009668  -0.028065   0.029107   0.072989  -0.015058
   26  C  2 YY   -0.024999   0.009701   0.009566  -0.011555   0.005860
   27  C  2 ZZ    0.015331   0.018365  -0.038672  -0.061434   0.009198
   28  C  2 XY   -0.017202   0.020170  -0.015349  -0.005284   0.066468
   29  C  2 XZ   -0.009013   0.024361  -0.038534  -0.016234  -0.016839
   30  C  2 YZ   -0.068805   0.007467  -0.010041  -0.007325  -0.026343
   31  F  3  S    0.011236  -0.012455   0.005032   0.007024   0.034390
   32  F  3  S   -0.053748   0.026600  -0.048906  -0.027687  -0.154096
   33  F  3  S    0.023223   0.164434   0.171881   0.005210  -0.152142
   34  F  3  X   -0.000752  -0.009659   0.085929  -0.013183   0.034297
   35  F  3  Y   -0.024496  -0.082253   0.024457   0.006646  -0.069121
   36  F  3  Z   -0.030217  -0.147421   0.033533  -0.114533   0.000497
   37  F  3  X   -0.017639  -0.126294   0.000696   0.052344   0.149744
   38  F  3  Y   -0.026963  -0.056734  -0.021503  -0.076661   0.169035
   39  F  3  Z   -0.085122  -0.118642   0.052085   0.010132  -0.081962
   40  F  3 XX    0.000549   0.015019   0.000261  -0.008788  -0.005026
   41  F  3 YY    0.010287  -0.008368   0.000449   0.000037   0.006794
   42  F  3 ZZ   -0.010836  -0.006651  -0.000710   0.008751  -0.001768
   43  F  3 XY    0.008871  -0.008751   0.002714   0.005715  -0.032649
   44  F  3 XZ    0.004323   0.001016  -0.001860  -0.006550   0.019809
   45  F  3 YZ   -0.001934   0.000365  -0.009089  -0.004179   0.014357
   46  H  4  S   -0.170427  -0.062792  -0.394354  -0.627105  -0.369459
   47  H  4  S   -0.842232  -1.694036   0.718507   0.924275  -0.491687
   48  H  4  X   -0.012558   0.038610  -0.019879   0.000079  -0.021845
   49  H  4  Y   -0.025498  -0.002561  -0.021370   0.005658  -0.023841
   50  H  4  Z    0.019621   0.053148  -0.067240  -0.069726   0.021513
   51  H  5  S   -0.481344   0.359747  -0.468289  -0.281218  -0.390797
   52  H  5  S    1.201192   0.714288  -0.058110   0.967801  -0.930991
   53  H  5  X    0.014558  -0.018315   0.006214   0.007905  -0.035514
   54  H  5  Y    0.062880   0.015667   0.019219   0.041896  -0.024306
   55  H  5  Z    0.053913   0.019433   0.025941   0.051537   0.008997
   56  F  6  S    0.013461   0.008433   0.004653  -0.004929   0.031540
   57  F  6  S   -0.051517   0.001128  -0.040768   0.021760  -0.146270
   58  F  6  S   -0.048861  -0.210900   0.113176  -0.007649  -0.098278
   59  F  6  X    0.006593   0.021768  -0.069748  -0.009524  -0.058805
   60  F  6  Y    0.002967  -0.049041  -0.004393   0.021489   0.058038
   61  F  6  Z    0.010581   0.144635   0.073223   0.101770  -0.015935
   62  F  6  X   -0.030877  -0.122517  -0.020497   0.041463  -0.104221
   63  F  6  Y    0.018315  -0.035025   0.030824  -0.074000  -0.168613
   64  F  6  Z   -0.058522   0.096290   0.092479  -0.008137  -0.028737
   65  F  6 XX   -0.005214  -0.011228  -0.002821   0.005913  -0.002803
   66  F  6 YY    0.010928   0.004959   0.003833   0.000860  -0.000100
   67  F  6 ZZ   -0.005714   0.006269  -0.001012  -0.006773   0.002902
   68  F  6 XY    0.009288   0.006635   0.004153  -0.005476  -0.033717
   69  F  6 XZ   -0.006960  -0.003394   0.001991  -0.006820  -0.010119
   70  F  6 YZ   -0.004639  -0.004254   0.006657  -0.005510  -0.013501
   71  H  7  S   -0.066988   0.230329  -0.436231   0.607316  -0.333359
   72  H  7  S   -0.442045   1.439282   1.391831  -0.951897  -0.483178
   73  H  7  X    0.018511   0.026886   0.027644   0.002213   0.023657
   74  H  7  Y    0.027231  -0.025244  -0.006281   0.020139   0.027307
   75  H  7  Z    0.006982  -0.023625  -0.090162   0.067185   0.015571
   76  H  8  S   -0.601489  -0.038185  -0.382169   0.272960  -0.354617
   77  H  8  S    1.182047  -0.870787  -0.522853  -0.914379  -0.927848
   78  H  8  X   -0.022231  -0.014412  -0.006526   0.002441   0.032663
   79  H  8  Y   -0.054427   0.024262   0.011183   0.028578   0.026671
   80  H  8  Z    0.060100  -0.048262   0.015929  -0.058208   0.000889

                     36         37         38         39         40
                    0.9089     0.9527     0.9809     1.0323     1.1364
                     A          A          A          A          A   
    1  C  1  S    0.011136   0.000946   0.015460  -0.021211   0.024758
    2  C  1  S    0.517213   0.126691   0.496824  -0.052847   1.202379
    3  C  1  S   -2.622484  -0.223884  -2.402296   1.531832  -4.780586
    4  C  1  X    0.071062   0.057260   0.077612  -0.183159  -0.193156
    5  C  1  Y    0.123031   0.038836   0.003387  -0.173887  -0.033287
    6  C  1  Z    0.043101   0.066848   0.081918  -0.071980  -0.045007
    7  C  1  X   -0.618039  -0.060277  -0.502816   0.264389  -1.211074
    8  C  1  Y    0.494078   0.052580   0.461681  -0.148601   1.033356
    9  C  1  Z    0.004186  -0.184469  -0.431024   0.022740  -0.724116
   10  C  1 XX   -0.183495   0.038370   0.013802   0.041733   0.001441
   11  C  1 YY    0.164545   0.083607  -0.075814   0.053905  -0.038273
   12  C  1 ZZ    0.018950  -0.121977   0.062012  -0.095638   0.036832
   13  C  1 XY   -0.035283   0.016197  -0.029868   0.094086   0.040011
   14  C  1 XZ    0.063967  -0.181160  -0.081040   0.087459   0.020201
   15  C  1 YZ    0.014979   0.090828  -0.058996   0.063656   0.032629
   16  C  2  S   -0.013221   0.000580  -0.018375   0.004066  -0.031118
   17  C  2  S   -0.408966   0.109524  -0.260302   0.511096  -1.167025
   18  C  2  S    2.637160  -0.241103   2.451221  -1.154282   4.840965
   19  C  2  X    0.118871  -0.076309   0.195201   0.149978  -0.147610
   20  C  2  Y    0.158784  -0.026685   0.071130   0.116255   0.006748
   21  C  2  Z   -0.121505   0.072550  -0.135459  -0.058477   0.032739
   22  C  2  X   -0.631739   0.041829  -0.460603   0.352501  -1.136251
   23  C  2  Y    0.485176  -0.118691   0.461563  -0.379008   1.162165
   24  C  2  Z   -0.103586  -0.233890   0.253842  -0.145182   0.560132
   25  C  2 XX    0.175134   0.065582   0.021570   0.020029  -0.001472
   26  C  2 YY   -0.146384   0.009368   0.045384   0.006123   0.057779
   27  C  2 ZZ   -0.028750  -0.074950  -0.066954  -0.026152  -0.056307
   28  C  2 XY    0.058417   0.042767   0.054049   0.062599  -0.047543
   29  C  2 XZ    0.001889   0.179783  -0.118161  -0.071280   0.020583
   30  C  2 YZ    0.041475  -0.111741  -0.140849  -0.043513   0.021780
   31  F  3  S    0.037165  -0.006020   0.058180   0.025211   0.013974
   32  F  3  S   -0.131044   0.015680  -0.282544  -0.137936  -0.070551
   33  F  3  S   -0.236684   0.026135  -0.112170   0.104002  -0.236290
   34  F  3  X   -0.479330   0.041358  -0.170504  -0.282952   0.250929
   35  F  3  Y    0.178848  -0.377910  -0.460690  -0.203901   0.230777
   36  F  3  Z   -0.121392  -0.377022   0.323536   0.206571   0.129608
   37  F  3  X    0.796173  -0.113549   0.505224   0.451720  -0.229049
   38  F  3  Y   -0.097967   0.424102   0.665406   0.325150  -0.348038
   39  F  3  Z   -0.004729   0.472026  -0.572417  -0.307035  -0.284001
   40  F  3 XX   -0.018958  -0.005630   0.011563   0.031745  -0.054634
   41  F  3 YY   -0.002369  -0.010302  -0.011471  -0.014473   0.002057
   42  F  3 ZZ    0.021327   0.015932  -0.000091  -0.017272   0.052578
   43  F  3 XY    0.020892  -0.016263   0.015499   0.015530  -0.022885
   44  F  3 XZ   -0.004183  -0.000747  -0.012236  -0.031612   0.034649
   45  F  3 YZ   -0.005460  -0.008540  -0.002414  -0.014462   0.025710
   46  H  4  S   -0.155322   0.064377  -0.249750   0.176881  -0.601276
   47  H  4  S   -0.158473   0.183060  -0.290432   0.161797  -0.405106
   48  H  4  X    0.042229   0.114940  -0.050171  -0.029771   0.016360
   49  H  4  Y    0.039639  -0.050503  -0.084238  -0.027201   0.009797
   50  H  4  Z    0.014086  -0.043208   0.011700  -0.000133   0.022502
   51  H  5  S   -0.185464   0.001194  -0.227053   0.211972  -0.334261
   52  H  5  S   -0.228442  -0.077887   0.114430  -0.217882  -0.020357
   53  H  5  X   -0.077603  -0.099202  -0.010772  -0.008161   0.013866
   54  H  5  Y    0.027516   0.004704  -0.059495  -0.009895  -0.033725
   55  H  5  Z   -0.036827   0.045104   0.086783   0.026187   0.036798
   56  F  6  S   -0.031375  -0.003230  -0.036531   0.059955  -0.010288
   57  F  6  S    0.124739   0.006000   0.188970  -0.348262   0.030036
   58  F  6  S    0.164021   0.014500   0.064884   0.081658   0.235878
   59  F  6  X   -0.397495  -0.093350  -0.001615   0.383506   0.268825
   60  F  6  Y    0.204273   0.348950  -0.296257   0.422115   0.314494
   61  F  6  Z    0.153379  -0.386671  -0.162396   0.227413  -0.124589
   62  F  6  X    0.639728   0.149340   0.181869  -0.698860  -0.209795
[...]
   27  C  2 ZZ   -0.000434   0.000738  -0.008612  -0.026815  -0.044181
   28  C  2 XY    0.004536   0.016159   0.015107  -0.030273  -0.049653
   29  C  2 XZ   -0.002944   0.005854  -0.022035  -0.005653  -0.001058
   30  C  2 YZ   -0.005996   0.004071  -0.007551  -0.016724  -0.027737
   31  F  3  S   -0.025441  -0.018643  -0.058674  -0.009588  -0.006896
   32  F  3  S    0.048662   0.038804   0.105699   0.011997   0.009107
   33  F  3  S    0.200731   0.140877   0.527429   0.107902   0.095905
   34  F  3  X   -0.126067  -0.010792  -0.145588  -0.117619  -0.046452
   35  F  3  Y   -0.023869  -0.037502  -0.108433   0.066370   0.082561
   36  F  3  Z    0.047530  -0.037465   0.100959   0.009160  -0.028370
   37  F  3  X   -0.149556  -0.026108  -0.187993  -0.201599  -0.093431
   38  F  3  Y   -0.048722  -0.079867  -0.106226   0.112606   0.135647
   39  F  3  Z    0.062288  -0.057980   0.148809  -0.023177   0.000006
   40  F  3 XX    0.000911   0.000854   0.000984  -0.008314   0.004886
   41  F  3 YY   -0.002067  -0.004942   0.002497   0.009104   0.001201
   42  F  3 ZZ    0.001156   0.004087  -0.003481  -0.000791  -0.006086
   43  F  3 XY   -0.002277  -0.001184  -0.002533  -0.003618  -0.004898
   44  F  3 XZ    0.001793  -0.006368   0.002570   0.002102  -0.004029
   45  F  3 YZ    0.003075   0.002887   0.002795  -0.006897  -0.001414
   46  H  4  S    0.066525  -0.010302  -0.055955  -0.065335  -0.213102
   47  H  4  S    0.925052  -1.257148   0.417403  -0.987201  -0.053754
   48  H  4  X    0.000901  -0.008851  -0.017137   0.001920   0.012215
   49  H  4  Y   -0.005903   0.010675  -0.008366  -0.014717  -0.028095
   50  H  4  Z    0.011035  -0.008878   0.007785  -0.016341   0.001381
   51  H  5  S    0.037701   0.044768   0.061184  -0.083316  -0.293159
   52  H  5  S    0.888571   1.180429  -0.628316   0.067716  -0.142651
   53  H  5  X   -0.005968  -0.011185  -0.006784   0.014764   0.013637
   54  H  5  Y   -0.011634  -0.011746   0.000602  -0.010440  -0.019304
   55  H  5  Z   -0.002708  -0.004880   0.016872   0.012688   0.013535
   56  F  6  S    0.025220   0.019480  -0.058174   0.009834  -0.006944
   57  F  6  S   -0.048297  -0.040346   0.104668  -0.012329   0.008870
   58  F  6  S   -0.198519  -0.148072   0.523370  -0.110790   0.098120
   59  F  6  X   -0.124449  -0.012063   0.145294  -0.118196   0.045836
   60  F  6  Y   -0.030708  -0.028922   0.129018   0.061572  -0.086602
   61  F  6  Z   -0.038267   0.044077   0.070650  -0.022538  -0.009600
   62  F  6  X   -0.148200  -0.027523   0.187999  -0.202229   0.094767
   63  F  6  Y   -0.058098  -0.065326   0.137488   0.113900  -0.131625
   64  F  6  Z   -0.046986   0.073514   0.117513  -0.000967   0.030237
   65  F  6 XX   -0.001023  -0.001065   0.000977   0.008299   0.005140
   66  F  6 YY    0.003147   0.005585   0.001083  -0.011254   0.001307
   67  F  6 ZZ   -0.002124  -0.004519  -0.002059   0.002956  -0.006446
   68  F  6 XY    0.002526  -0.000298  -0.003151   0.004015  -0.003806
   69  F  6 XZ    0.001216  -0.006493  -0.002021   0.001096   0.004955
   70  F  6 YZ    0.001795   0.000262  -0.004043  -0.003593  -0.000549
   71  H  7  S   -0.069000   0.010683  -0.055978   0.065952  -0.214070
   72  H  7  S   -0.933189   1.251333   0.438023   0.985392  -0.054589
   73  H  7  X    0.001025  -0.008992   0.017126   0.002199  -0.012263
   74  H  7  Y   -0.008456   0.012271   0.010047  -0.010539   0.027642
   75  H  7  Z   -0.009363   0.006228   0.005506   0.019241  -0.005029
   76  H  8  S   -0.034762  -0.044864   0.060722   0.082236  -0.291881
   77  H  8  S   -0.856939  -1.171813  -0.643607  -0.062514  -0.146922
   78  H  8  X   -0.005697  -0.011136   0.006941   0.014571  -0.013631
   79  H  8  Y   -0.010295  -0.010313   0.003208  -0.013119   0.022169
   80  H  8  Z    0.005295   0.007448   0.016453  -0.010244   0.008872

                     26         27
                    0.3863     0.3909
                     A          A   
    1  C  1  S   -0.032608   0.021899
    2  C  1  S    0.184252  -0.208063
    3  C  1  S   -0.096965   0.169435
    4  C  1  X   -0.382789   0.535984
    5  C  1  Y   -0.191942   0.223017
    6  C  1  Z   -0.151452   0.233021
    7  C  1  X    0.220504  -0.524848
    8  C  1  Y    0.140832  -0.466683
    9  C  1  Z    0.532348  -0.348372
   10  C  1 XX    0.001079   0.028229
   11  C  1 YY    0.011909  -0.029270
   12  C  1 ZZ   -0.012989   0.001041
   13  C  1 XY    0.005675   0.046593
   14  C  1 XZ    0.012263   0.003768
   15  C  1 YZ   -0.074799  -0.003035
   16  C  2  S   -0.032375  -0.022734
   17  C  2  S    0.181235   0.212724
   18  C  2  S   -0.097062  -0.171592
   19  C  2  X    0.368668   0.539443
   20  C  2  Y    0.145971   0.164544
   21  C  2  Z   -0.192951  -0.291089
   22  C  2  X   -0.195702  -0.522979
   23  C  2  Y   -0.007652  -0.371093
   24  C  2  Z    0.547337   0.466710
   25  C  2 XX    0.001426  -0.028252
   26  C  2 YY    0.039310   0.027624
   27  C  2 ZZ   -0.040737   0.000628
   28  C  2 XY    0.004761  -0.044424
   29  C  2 XZ   -0.014016   0.014722
   30  C  2 YZ    0.060286  -0.008648
   31  F  3  S    0.011287  -0.007103
   32  F  3  S   -0.070743  -0.043215
   33  F  3  S    0.155936   0.390255
   34  F  3  X    0.101453   0.193077
   35  F  3  Y    0.033639   0.136853
   36  F  3  Z   -0.188831  -0.084304
   37  F  3  X    0.011346  -0.080036
   38  F  3  Y   -0.004961   0.009701
   39  F  3  Z   -0.063168   0.004569
   40  F  3 XX    0.006185   0.022494
   41  F  3 YY   -0.003611  -0.011936
   42  F  3 ZZ   -0.002574  -0.010558
   43  F  3 XY    0.013210   0.027010
   44  F  3 XZ   -0.025490  -0.024767
   45  F  3 YZ   -0.005187  -0.018594
   46  H  4  S   -0.537439  -0.042800
   47  H  4  S    0.102129  -0.073335
   48  H  4  X    0.002081   0.013902
   49  H  4  Y    0.030070  -0.018013
   50  H  4  Z   -0.008468  -0.000090
   51  H  5  S    0.307832  -0.164072
   52  H  5  S   -0.048416  -0.059390
   53  H  5  X    0.019051   0.007166
   54  H  5  Y   -0.021444  -0.000327
   55  H  5  Z    0.004465  -0.003400
   56  F  6  S    0.010995   0.007360
   57  F  6  S   -0.071269   0.041849
   58  F  6  S    0.164877  -0.387562
   59  F  6  X   -0.108158   0.191717
   60  F  6  Y   -0.079528   0.150724
   61  F  6  Z   -0.174956   0.043238
   62  F  6  X   -0.010382  -0.080940
   63  F  6  Y   -0.009524   0.008098
   64  F  6  Z   -0.061829  -0.006923
   65  F  6 XX    0.007184  -0.022759
   66  F  6 YY   -0.001576   0.004444
   67  F  6 ZZ   -0.005608   0.018316
   68  F  6 XY    0.019539  -0.031844
   69  F  6 XZ    0.021853  -0.016545
   70  F  6 YZ    0.004956  -0.016344
   71  H  7  S   -0.536548   0.031754
   72  H  7  S    0.102869   0.075478
   73  H  7  X   -0.002306   0.013931
   74  H  7  Y   -0.030946  -0.018180
   75  H  7  Z   -0.001228   0.004091
   76  H  8  S    0.305837   0.170706
   77  H  8  S   -0.050166   0.057491
   78  H  8  X   -0.019288   0.006736
   79  H  8  Y    0.021929   0.001131
   80  H  8  Z   -0.000537   0.003121

     ---------------------------------------------------------------------
     PROPERTIES FOR THE PBE      DFT FUNCTIONAL (RHF  TYPE) DENSITY MATRIX
     ---------------------------------------------------------------------

          -----------------
          ENERGY COMPONENTS
          -----------------

         WAVEFUNCTION NORMALIZATION =       1.0000000000

                ONE ELECTRON ENERGY =    -630.9852050262
                TWO ELECTRON ENERGY =     228.4456243244
           NUCLEAR REPULSION ENERGY =     124.6060576923
                                      ------------------
                       TOTAL ENERGY =    -277.9335230095

 ELECTRON-ELECTRON POTENTIAL ENERGY =     228.4456243244
  NUCLEUS-ELECTRON POTENTIAL ENERGY =    -908.0562433399
   NUCLEUS-NUCLEUS POTENTIAL ENERGY =     124.6060576923
                                      ------------------
             TOTAL POTENTIAL ENERGY =    -555.0045613232
               TOTAL KINETIC ENERGY =     277.0710383137
                 VIRIAL RATIO (V/T) =       2.0031128648

          ---------------------------------------
          MULLIKEN AND LOWDIN POPULATION ANALYSES
          ---------------------------------------

     ATOMIC MULLIKEN POPULATION IN EACH MOLECULAR ORBITAL

                      1          2          3          4          5

                  2.000000   2.000000   2.000000   2.000000   2.000000

    1            -0.000127   0.001280   1.186191   0.813567   0.106358
    2             0.001283  -0.000131   0.813088   1.186668   0.111712
    3             1.997411   0.001435  -0.000206  -0.000300   0.910331
    4             0.000001  -0.000004   0.000211   0.000108   0.002947
    5            -0.000014   0.000017   0.000344   0.000085   0.006849
    6             0.001432   1.997415  -0.000299  -0.000205   0.852332
    7            -0.000002  -0.000001   0.000266   0.000053   0.002764
    8             0.000016  -0.000013   0.000405   0.000023   0.006707

                      6          7          8          9         10

                  2.000000   2.000000   2.000000   2.000000   2.000000

    1             0.090091   0.702474   0.482173   0.503761   0.355374
    2             0.084937   0.702776   0.481077   0.504333   0.356608
    3             0.880271   0.165687   0.253921   0.258196   0.545549
    4             0.002364   0.070607   0.122076   0.195965   0.007641
    5             0.000670   0.060914   0.142218   0.040812   0.096498
    6             0.938334   0.166160   0.253540   0.260542   0.533791
    7             0.002544   0.070520   0.122323   0.196512   0.007246
    8             0.000789   0.060863   0.142672   0.039878   0.097293

                     11         12         13         14         15

                  2.000000   2.000000   2.000000   2.000000   2.000000

    1             0.382672   0.352504   0.300265   0.054349   0.130994
    2             0.381125   0.350923   0.301533   0.054531   0.130945
    3             0.605030   0.447661   0.485475   0.908196   0.697905
    4             0.005500   0.021862   0.171478   0.026424   0.040210
    5             0.003813   0.177745   0.044587   0.010563   0.128917
    6             0.612592   0.448395   0.480627   0.909525   0.702002
    7             0.005340   0.019948   0.173707   0.025901   0.040368
    8             0.003929   0.180963   0.042329   0.010511   0.128659

                     16         17

                  2.000000   2.000000

    1             0.162112   0.258444
    2             0.160899   0.260197
    3             0.549301   0.625490
    4             0.149339   0.081292
    5             0.140405   0.033625
    6             0.547196   0.628449
    7             0.154320   0.076004
    8             0.136429   0.036498

               ----- POPULATIONS IN EACH AO -----
                             MULLIKEN      LOWDIN
              1  C  1  S      1.99340     1.97170
              2  C  1  S      0.76092     0.38658
              3  C  1  S      0.37793     0.28242
              4  C  1  X      0.61028     0.56147
              5  C  1  Y      0.70273     0.63878
              6  C  1  Z      0.74831     0.67315
              7  C  1  X      0.12678     0.23545
              8  C  1  Y      0.22257     0.32293
              9  C  1  Z      0.27776     0.37796
             10  C  1 XX      0.00927     0.16295
             11  C  1 YY      0.01263     0.15081
             12  C  1 ZZ      0.01775     0.15487
             13  C  1 XY      0.01166     0.03601
             14  C  1 XZ      0.01050     0.02227
             15  C  1 YZ      0.00000     0.02683
             16  C  2  S      1.99340     1.97169
             17  C  2  S      0.76082     0.38651
             18  C  2  S      0.37785     0.28233
             19  C  2  X      0.61287     0.56338
             20  C  2  Y      0.72553     0.65854
             21  C  2  Z      0.72310     0.65118
             22  C  2  X      0.12840     0.23713
             23  C  2  Y      0.24468     0.34110
             24  C  2  Z      0.25399     0.35828
             25  C  2 XX      0.01214     0.16284
             26  C  2 YY      0.01240     0.15329
             27  C  2 ZZ      0.01627     0.15997
             28  C  2 XY      0.01337     0.03374
             29  C  2 XZ      0.00770     0.02520
             30  C  2 YZ      0.00000     0.01723
             31  F  3  S      1.99544     1.97164
             32  F  3  S      0.94933     0.75165
             33  F  3  S      0.99758     0.52609
             34  F  3  X      1.04876     1.00522
             35  F  3  Y      1.18654     1.15424
             36  F  3  Z      1.17695     1.14419
             37  F  3  X      0.60327     0.63478
             38  F  3  Y      0.68562     0.71141
             39  F  3  Z      0.67752     0.70844
             40  F  3 XX      0.00149     0.19421
             41  F  3 YY      0.00230     0.19011
             42  F  3 ZZ      0.00262     0.19029
             43  F  3 XY      0.00291     0.00353
             44  F  3 XZ      0.00102     0.00379
             45  F  3 YZ      0.00000     0.00151
             46  H  4  S      0.77193     0.65332
             47  H  4  S      0.10929     0.21479
             48  H  4  X      0.00275     0.00680
             49  H  4  Y      0.00344     0.00908
             50  H  4  Z      0.01061     0.02218
             51  H  5  S      0.76352     0.64544
             52  H  5  S      0.10755     0.21673
             53  H  5  X      0.00301     0.00780
             54  H  5  Y      0.00926     0.02018
             55  H  5  Z      0.00471     0.01024
             56  F  6  S      1.99544     1.97164
             57  F  6  S      0.94931     0.75168
             58  F  6  S      0.99773     0.52618
             59  F  6  X      1.04655     1.00288
             60  F  6  Y      1.16110     1.12675
             61  F  6  Z      1.20456     1.17409
             62  F  6  X      0.60203     0.63368
             63  F  6  Y      0.67085     0.69945
             64  F  6  Z      0.69393     0.72155
             65  F  6 XX      0.00135     0.19434
             66  F  6 YY      0.00238     0.19085
             67  F  6 ZZ      0.00320     0.18944
             68  F  6 XY      0.00233     0.00408
             69  F  6 XZ      0.00107     0.00327
             70  F  6 YZ      0.00000     0.00159
             71  H  7  S      0.77188     0.65217
             72  H  7  S      0.10913     0.21469
             73  H  7  X      0.00268     0.00670
             74  H  7  Y      0.00452     0.01107
             75  H  7  Z      0.00959     0.02014
             76  H  8  S      0.76358     0.64471
             77  H  8  S      0.10741     0.21661
             78  H  8  X      0.00292     0.00764
             79  H  8  Y      0.00739     0.01662
             80  H  8  Z      0.00666     0.01390

          ----- MULLIKEN ATOMIC OVERLAP POPULATIONS -----
          (OFF-DIAGONAL ELEMENTS NEED TO BE MULTIPLIED BY 2)

             1           2           3           4           5

    1    4.6350386
    2    0.3791176   4.6343905
    3   -0.0395146   0.2374354   9.1777322
    4   -0.0319237   0.3740405  -0.0302441   0.6171323
    5   -0.0513616   0.3799872  -0.0253033  -0.0332899   0.5990209
    6    0.2370538  -0.0397172   0.0005805   0.0036682   0.0071390
    7    0.3740478  -0.0318650   0.0036525  -0.0112129   0.0098870
    8    0.3800248  -0.0508841   0.0070149   0.0098488   0.0019705

             6           7           8

    6    9.1786460
    7   -0.0301907   0.6167935
    8   -0.0253520  -0.0333008   0.5986288

          TOTAL MULLIKEN AND LOWDIN ATOMIC POPULATIONS
       ATOM         MULL.POP.    CHARGE          LOW.POP.     CHARGE
    1 C             5.882483    0.117517         6.004183   -0.004183
    2 C             5.882505    0.117495         6.002437   -0.002437
    3 F             9.331354   -0.331354         9.191108   -0.191108
    4 H             0.898019    0.101981         0.906163    0.093837
    5 H             0.888050    0.111950         0.900387    0.099613
    6 F             9.331828   -0.331828         9.191462   -0.191462
    7 H             0.897811    0.102189         0.904781    0.095219
    8 H             0.887951    0.112049         0.899478    0.100522

          MULLIKEN SPHERICAL HARMONIC POPULATIONS
       ATOM           S       P       D      F      G      H      I    TOTAL
    1 C             3.13    2.69    0.06   0.00   0.00   0.00   0.00    5.88
    2 C             3.13    2.69    0.06   0.00   0.00   0.00   0.00    5.88
    3 F             3.94    5.38    0.01   0.00   0.00   0.00   0.00    9.33
    4 H             0.88    0.02    0.00   0.00   0.00   0.00   0.00    0.90
    5 H             0.87    0.02    0.00   0.00   0.00   0.00   0.00    0.89
    6 F             3.94    5.38    0.01   0.00   0.00   0.00   0.00    9.33
    7 H             0.88    0.02    0.00   0.00   0.00   0.00   0.00    0.90
    8 H             0.87    0.02    0.00   0.00   0.00   0.00   0.00    0.89

          -------------------------------
          BOND ORDER AND VALENCE ANALYSIS     BOND ORDER THRESHOLD=0.050
          -------------------------------

                   BOND                       BOND                       BOND
  ATOM PAIR DIST  ORDER      ATOM PAIR DIST  ORDER      ATOM PAIR DIST  ORDER
    1   2  1.527  1.026        1   6  1.402  0.912        1   7  1.106  0.941
    1   8  1.107  0.942        2   3  1.401  0.912        2   4  1.106  0.941
    2   5  1.107  0.942

                       TOTAL       BONDED        FREE
      ATOM            VALENCE     VALENCE     VALENCE
    1 C                 3.824       3.824      -0.000
    2 C                 3.825       3.825      -0.000
    3 F                 0.978       0.978       0.000
    4 H                 0.950       0.950       0.000
    5 H                 0.967       0.967      -0.000
    6 F                 0.977       0.977       0.000
    7 H                 0.950       0.950       0.000
    8 H                 0.967       0.967      -0.000

          ---------------------
          ELECTROSTATIC MOMENTS
          ---------------------

 POINT   1           X           Y           Z (BOHR)    CHARGE
                -0.000000    0.000000    0.000000        0.00 (A.U.)
         DX          DY          DZ         /D/  (DEBYE)
     0.009302    0.166476    1.362281    1.372446
 ...... END OF PROPERTY EVALUATION ......
 STEP CPU TIME =     0.01 TOTAL CPU TIME =         98.9 (      1.6 MIN)
 TOTAL WALL CLOCK TIME=         99.4 SECONDS, CPU UTILIZATION IS    99.50%
  $VIB   
          IVIB=   0 IATOM=   0 ICOORD=   0 E=     -277.9335230095
  6.133530614E-06-5.579894525E-06 7.008098951E-06-8.494341996E-06 4.832856990E-06
 -5.901112132E-06 1.870041272E-06 3.153324073E-06 1.146494824E-07 8.468067647E-07
 -3.207659282E-06-1.920037625E-07 1.468739652E-06-4.119136705E-06 3.974006184E-06
 -3.409356627E-06-2.289140537E-06-3.580895496E-06 1.907639252E-06 4.768447735E-06
 -3.538559742E-06-3.230589322E-07 2.441202251E-06 2.115816515E-06
  9.302131052E-03 1.664760979E-01 1.362280531E+00
 ......END OF GEOMETRY SEARCH......
 STEP CPU TIME =     0.01 TOTAL CPU TIME =         98.9 (      1.6 MIN)
 TOTAL WALL CLOCK TIME=         99.4 SECONDS, CPU UTILIZATION IS    99.50%
                991181  WORDS OF DYNAMIC MEMORY USED
 EXECUTION OF GAMESS TERMINATED NORMALLY Sun Oct  6 23:41:27 2019
 DDI: 263640 bytes (0.3 MB / 0 MWords) used by master data server.

 ----------------------------------------
 CPU timing information for all processes
 ========================================
 0: 97.314 + 1.644 = 98.958
 ----------------------------------------
 ddikick.x: exited gracefully.
----- accounting info -----
Files used on the master node d12chas543.crc.nd.edu were:
-rw-r--r-- 1 wschnei1 campus 401999 Oct  6 23:41 /scratch365/wschnei1/130-PC1.F07
Sun Oct  6 23:41:30 EDT 2019
0.412u 0.329s 1:43.13 0.7%	0+0k 0+32io 0pf+0w
