----- GAMESS execution script 'rungms' -----
This job is running on host d12chas543.crc.nd.edu
under operating system Linux at Sun Oct 6 23:41:31 EDT 2019
SGE has assigned the following compute nodes to this run:
Available scratch disk space (Kbyte units) at beginning of the job is
Filesystem      1K-blocks     Used  Available Use% Mounted on
/dev/sda2      1949705068 64681480 1885023588   4% /
GAMESS temporary binary files will be written to /tmp/474112.1.debug
GAMESS supplementary output files will be written to /afs/crc.nd.edu/user/w/wschnei1/scr
Copying input file 140-PC1.inp to your run's scratch directory...
reading your own /afs/crc.nd.edu/user/w/wschnei1/.gmsrc

 Distributed Data Interface kickoff program.
 Initiating 1 compute processes on 1 nodes to run the following command:
 /afs/crc.nd.edu/x86_64_linux/g/gamess/nov-2017/gamess/gamess.00.x 140-PC1 

          ******************************************************
          *         GAMESS VERSION = 11 NOV 2017 (R3)         *
          *             FROM IOWA STATE UNIVERSITY             *
          * M.W.SCHMIDT, K.K.BALDRIDGE, J.A.BOATZ, S.T.ELBERT, *
          *   M.S.GORDON, J.H.JENSEN, S.KOSEKI, N.MATSUNAGA,   *
          *          K.A.NGUYEN, S.J.SU, T.L.WINDUS,           *
          *       TOGETHER WITH M.DUPUIS, J.A.MONTGOMERY       *
          *         J.COMPUT.CHEM.  14, 1347-1363(1993)        *
          **************** 64 BIT INTEL VERSION ****************

  SINCE 1993, STUDENTS AND POSTDOCS WORKING AT IOWA STATE UNIVERSITY
  AND ALSO IN THEIR VARIOUS JOBS AFTER LEAVING ISU HAVE MADE IMPORTANT
  CONTRIBUTIONS TO THE CODE:
     IVANA ADAMOVIC, CHRISTINE AIKENS, YURI ALEXEEV, POOJA ARORA,
     ANDREY ASADCHEV, ROB BELL, PRADIPTA BANDYOPADHYAY, JONATHAN BENTZ,
     BRETT BODE, KURT BRORSEN, CALEB CARLIN, GALINA CHABAN, WEI CHEN,
     CHEOL HO CHOI, PAUL DAY, ALBERT DEFUSCO, NUWAN DESILVA, TIM DUDLEY,
     DMITRI FEDOROV, ALEX FINDLATER, GRAHAM FLETCHER, MARK FREITAG,
     KURT GLAESEMANN, ANASTASIA GUININA,
     DAN KEMP, GRANT MERRILL, NORIYUKI MINEZAWA, JONATHAN MULLIN,
     TAKESHI NAGATA, SEAN NEDD, HEATHER NETZLOFF, BOSILJKA NJEGIC, RYAN OLSON,
     MIKE PAK, BUU PHAM,
     SPENCER PRUITT, LUKE ROSKOP, JIM SHOEMAKER, LYUDMILA SLIPCHENKO,
     TONY SMITH, SAROM SOK LEANG, JIE SONG, TETSUYA TAKETSUGU, SIMON WEBB,
     PENG XU, SOOHAENG YOO, FEDERICO ZAHARIEV

  ADDITIONAL CODE HAS BEEN PROVIDED BY COLLABORATORS IN OTHER GROUPS:
     IOWA STATE UNIVERSITY:
          JOE IVANIC, AARON WEST, LAIMUTIS BYTAUTAS, KLAUS RUEDENBERG
     UNIVERSITY OF TOKYO: KIMIHIKO HIRAO, TAKAHITO NAKAJIMA,
          TAKAO TSUNEDA, MUNEAKI KAMIYA, SUSUMU YANAGISAWA,
          KIYOSHI YAGI, MAHITO CHIBA, SEIKEN TOKURA, NAOAKI KAWAKAMI
     UNIVERSITY OF AARHUS: FRANK JENSEN
     UNIVERSITY OF IOWA: VISVALDAS KAIRYS, HUI LI
     NATIONAL INST. OF STANDARDS AND TECHNOLOGY: WALT STEVENS, DAVID GARMER
     UNIVERSITY OF PISA: BENEDETTA MENNUCCI, JACOPO TOMASI
     UNIVERSITY OF MEMPHIS: HENRY KURTZ, PRAKASHAN KORAMBATH
     UNIVERSITY OF ALBERTA: TOBY ZENG, MARIUSZ KLOBUKOWSKI
     UNIVERSITY OF NEW ENGLAND: MARK SPACKMAN
     MIE UNIVERSITY: HIROAKI UMEDA
     NAT. INST. OF ADVANCED INDUSTRIAL SCIENCE AND TECHNOLOGY: KAZUO KITAURA
     MICHIGAN STATE UNIVERSITY:
          KAROL KOWALSKI, MARTA WLOCH, JEFFREY GOUR, JESSE LUTZ,
          WEI LI, PIOTR PIECUCH
     UNIVERSITY OF SILESIA: MONIKA MUSIAL, STANISLAW KUCHARSKI
     FACULTES UNIVERSITAIRES NOTRE-DAME DE LA PAIX:
          OLIVIER QUINET, BENOIT CHAMPAGNE
     UNIVERSITY OF CALIFORNIA - SANTA BARBARA: BERNARD KIRTMAN
     INSTITUTE FOR MOLECULAR SCIENCE:
          KAZUYA ISHIMURA, MICHIO KATOUDA, AND SHIGERU NAGASE
     UNIVERSITY OF NOTRE DAME: ANNA POMOGAEVA, DAN CHIPMAN
     KYUSHU UNIVERSITY:
          HARUYUKI NAKANO,
          FENG LONG GU, JACEK KORCHOWIEC, MARCIN MAKOWSKI, AND YURIKO AOKI,
          HIROTOSHI MORI AND EISAKU MIYOSHI
     PENNSYLVANIA STATE UNIVERSITY:
          TZVETELIN IORDANOV, CHET SWALINA, JONATHAN SKONE,
          SHARON HAMMES-SCHIFFER
     WASEDA UNIVERSITY:
          MASATO KOBAYASHI, TOMOKO AKAMA, TSUGUKI TOUMA,
          TAKESHI YOSHIKAWA, YASUHIRO IKABATA, JUNJI SEINO,
          YUYA NAKAJIMA, HIROMI NAKAI
     NANJING UNIVERSITY: SHUHUA LI
     UNIVERSITY OF NEBRASKA:
          PEIFENG SU, DEJUN SI, NANDUN THELLAMUREGE, YALI WANG, HUI LI
     UNIVERSITY OF ZURICH: ROBERTO PEVERATI, KIM BALDRIDGE
     N. COPERNICUS UNIVERSITY AND JACKSON STATE UNIVERSITY:
          MARIA BARYSZ
     UNIVERSITY OF COPENHAGEN: Jimmy Kromann, CASPER STEINMANN
     TOKYO INSTITUTE OF TECHNOLOGY: HIROYA NAKATA
     NAGOYA UNIVERSITY: YOSHIO NISHIMOTO, STEPHAN IRLE
     MOSCOW STATE UNIVERSITY: VLADIMIR MIRONOV

 EXECUTION OF GAMESS BEGUN Sun Oct  6 23:41:31 2019

            ECHO OF THE FIRST FEW INPUT CARDS -
 INPUT CARD> $CONTRL SCFTYP=RHF DFTTYP=PBE RUNTYP=OPTIMIZE COORD=ZMT NZVAR=18 ISPHER=1 $END 
 INPUT CARD> $BASIS GBASIS=PCseg-1 $END                                                     
 INPUT CARD> $STATPT IFREEZ(1)=12 $END                                                      
 INPUT CARD> $DATA                                                                          
 INPUT CARD>FCH2CH2F eclipsed TS                                                            
 INPUT CARD>C1                                                                              
 INPUT CARD>C                                                                               
 INPUT CARD>C   1   r1                                                                      
 INPUT CARD>F   2   r2   1   A1                                                             
 INPUT CARD>H   2   r3   1   A2   3   D1                                                    
 INPUT CARD>H   2   r4   1   A3   3   D2                                                    
 INPUT CARD>F   1   r5   2   A4   3   D3                                                    
 INPUT CARD>H   1   r6   2   A5   6   D4                                                    
 INPUT CARD>H   1   r7   2   A6   6   D5                                                    
 INPUT CARD>                                                                                
 INPUT CARD>r1=1.5                                                                          
 INPUT CARD>r2=1.4                                                                          
 INPUT CARD>r3=1.1                                                                          
 INPUT CARD>r4=1.1                                                                          
 INPUT CARD>r5=1.5                                                                          
 INPUT CARD>r6=1.1                                                                          
 INPUT CARD>r7=1.1                                                                          
 INPUT CARD>A1=109.54214                                                                    
 INPUT CARD>A2=109.54214                                                                    
 INPUT CARD>A3=109.54214                                                                    
 INPUT CARD>A4=109.54214                                                                    
 INPUT CARD>A5=109.54214                                                                    
 INPUT CARD>A6=109.54214                                                                    
 INPUT CARD>D1=120.                                                                         
 INPUT CARD>D2=-120.                                                                        
 INPUT CARD>D3=140                                                                          
 INPUT CARD>D4=120.                                                                         
 INPUT CARD>D5=-120.                                                                        
 INPUT CARD> $END                                                                           
 INPUT CARD>                                                                                
    1000000 WORDS OF MEMORY AVAILABLE

     BASIS OPTIONS
     -------------
     GBASIS=PCSEG-1      IGAUSS=       0      POLAR=NONE    
     NDFUNC=       0     NFFUNC=       0     DIFFSP=       F
     NPFUNC=       0      DIFFS=       F     BASNAM=        


     RUN TITLE
     ---------
 FCH2CH2F eclipsed TS                                                            

 THE POINT GROUP OF THE MOLECULE IS C1      
 THE ORDER OF THE PRINCIPAL AXIS IS     0

 YOUR FULLY SUBSTITUTED Z-MATRIX IS
 C   
 C      1   1.5000000
 F      2   1.4000000  1  109.5421
 H      2   1.1000000  1  109.5421  3  120.0000  0
 H      2   1.1000000  1  109.5421  3 -120.0000  0
 F      1   1.5000000  2  109.5421  3  140.0000  0
 H      1   1.1000000  2  109.5421  6  120.0000  0
 H      1   1.1000000  2  109.5421  6 -120.0000  0

 THE MOMENTS OF INERTIA ARE (AMU-ANGSTROM**2)
 IXX=    18.739   IYY=   135.560   IZZ=   140.546

 ATOM      ATOMIC                      COORDINATES (BOHR)
           CHARGE         X                   Y                   Z
 C           6.0    -1.0028591824        0.9949052887        0.4496575327
 C           6.0     1.1056633499       -0.8982188586        0.5211305204
 F           9.0     3.3195757076        0.2072011475       -0.4147779833
 H           1.0     1.4180989699       -1.5173669077        2.4807293289
 H           1.0     0.6053871939       -2.5407654288       -0.6505146247
 F           9.0    -3.3962473449       -0.2821340966       -0.3723876040
 H           1.0    -1.2702360159        1.8097111892        2.3432226325
 H           1.0    -0.5319930606        2.5097452661       -0.8936714485

          INTERNUCLEAR DISTANCES (ANGS.)
          ------------------------------

                1 C          2 C          3 F          4 H          5 H     

   1 C       0.0000000    1.5000000 *  2.3695781 *  2.1363170 *  2.1363170 *
   2 C       1.5000000 *  0.0000000    1.4000000 *  1.1000000 *  1.1000000 *
   3 F       2.3695781 *  1.4000000 *  0.0000000    2.0476979 *  2.0476979 *
   4 H       2.1363170 *  1.1000000 *  2.0476979 *  0.0000000    1.7955050 *
   5 H       2.1363170 *  1.1000000 *  2.0476979 *  1.7955050 *  0.0000000  
   6 F       1.5000000 *  2.4505612 *  3.5633527    3.0326985    2.4360466 *
   7 H       1.1000000 *  2.1363170 *  2.9577637 *  2.2646995 *  2.9656158 *
   8 H       1.1000000 *  2.1363170 *  2.3880867 *  2.9656158 *  2.7425689 *

                6 F          7 H          8 H     

   1 C       1.5000000 *  1.1000000 *  1.1000000 *
   2 C       2.4505612 *  2.1363170 *  2.1363170 *
   3 F       3.5633527    2.9577637 *  2.3880867 *
   4 H       3.0326985    2.2646995 *  2.9656158 *
   5 H       2.4360466 *  2.9656158 *  2.7425689 *
   6 F       0.0000000    2.1345124 *  2.1345124 *
   7 H       2.1345124 *  0.0000000    1.7955050 *
   8 H       2.1345124 *  1.7955050 *  0.0000000  

  * ... LESS THAN  3.000


     ATOMIC BASIS SET
     ----------------
 THE CONTRACTED PRIMITIVE FUNCTIONS HAVE BEEN UNNORMALIZED
 THE CONTRACTED BASIS FUNCTIONS ARE NOW NORMALIZED TO UNITY

  SHELL TYPE  PRIMITIVE        EXPONENT          CONTRACTION COEFFICIENT(S)

 C         

      1   S       1          1243.2000000    0.005630097702
      1   S       2           187.1450000    0.041950603854
      1   S       3            42.5126000    0.184664360492
      1   S       4            11.7393000    0.466557421368
      1   S       5             3.5054800    0.448234778316

      2   S       6             5.3908900   -0.148114817444
      2   S       7             0.4933410    1.051981714281

      3   S       8             0.1497410    1.000000000000

      4   P       9             9.1805600    0.063992052045
      4   P      10             1.9365800    0.333521296407
      4   P      11             0.5262960    0.741161730513

      5   P      12             0.1363190    1.000000000000

      6   D      13             0.8000000    1.000000000000

 C         

      7   S      14          1243.2000000    0.005630097702
      7   S      15           187.1450000    0.041950603854
      7   S      16            42.5126000    0.184664360492
      7   S      17            11.7393000    0.466557421368
      7   S      18             3.5054800    0.448234778316

      8   S      19             5.3908900   -0.148114817444
      8   S      20             0.4933410    1.051981714281

      9   S      21             0.1497410    1.000000000000

     10   P      22             9.1805600    0.063992052045
     10   P      23             1.9365800    0.333521296407
     10   P      24             0.5262960    0.741161730513

     11   P      25             0.1363190    1.000000000000

     12   D      26             0.8000000    1.000000000000

 F         

     13   S      27          2931.5500000    0.005390132259
     13   S      28           441.1250000    0.040296704072
     13   S      29           100.2320000    0.180202178717
     13   S      30            27.8655000    0.465064284210
     13   S      31             8.4447000    0.452433138251

     14   S      32            13.6123000   -0.151660908297
     14   S      33             1.2612200    1.053515343452

     15   S      34             0.3708000    1.000000000000

     16   P      35            21.9305000    0.070356827475
     16   P      36             4.7855200    0.356742371235
     16   P      37             1.2837800    0.719732016372

     17   P      38             0.3115580    1.000000000000

     18   D      39             1.1000000    1.000000000000

 H         

     19   S      40            12.2518000    0.037217389296
     19   S      41             1.8687100    0.253808206955
     19   S      42             0.4182080    0.797386763917

     20   S      43             0.1061000    1.000000000000

     21   P      44             1.0000000    1.000000000000

 H         

     22   S      45            12.2518000    0.037217389296
     22   S      46             1.8687100    0.253808206955
     22   S      47             0.4182080    0.797386763917

     23   S      48             0.1061000    1.000000000000

     24   P      49             1.0000000    1.000000000000

 F         

     25   S      50          2931.5500000    0.005390132259
     25   S      51           441.1250000    0.040296704072
     25   S      52           100.2320000    0.180202178717
     25   S      53            27.8655000    0.465064284210
     25   S      54             8.4447000    0.452433138251

     26   S      55            13.6123000   -0.151660908297
     26   S      56             1.2612200    1.053515343452

     27   S      57             0.3708000    1.000000000000

     28   P      58            21.9305000    0.070356827475
     28   P      59             4.7855200    0.356742371235
     28   P      60             1.2837800    0.719732016372

     29   P      61             0.3115580    1.000000000000

     30   D      62             1.1000000    1.000000000000

 H         

     31   S      63            12.2518000    0.037217389296
     31   S      64             1.8687100    0.253808206955
     31   S      65             0.4182080    0.797386763917

     32   S      66             0.1061000    1.000000000000

     33   P      67             1.0000000    1.000000000000

 H         

     34   S      68            12.2518000    0.037217389296
     34   S      69             1.8687100    0.253808206955
     34   S      70             0.4182080    0.797386763917

     35   S      71             0.1061000    1.000000000000

     36   P      72             1.0000000    1.000000000000

 TOTAL NUMBER OF BASIS SET SHELLS             =   36
 NUMBER OF CARTESIAN GAUSSIAN BASIS FUNCTIONS =   80
 NOTE: THIS RUN WILL RESTRICT THE MO VARIATION SPACE TO SPHERICAL HARMONICS.
 THE NUMBER OF ORBITALS KEPT IN THE VARIATIONAL SPACE WILL BE PRINTED LATER.
 NUMBER OF ELECTRONS                          =   34
 CHARGE OF MOLECULE                           =    0
 SPIN MULTIPLICITY                            =    1
 NUMBER OF OCCUPIED ORBITALS (ALPHA)          =   17
 NUMBER OF OCCUPIED ORBITALS (BETA )          =   17
 TOTAL NUMBER OF ATOMS                        =    8
 THE NUCLEAR REPULSION ENERGY IS      123.0185314378

     LEBEDEV GRID-BASED DFT OPTIONS
     ------------------------------
     DFTTYP=PBE     
     NRAD  =      96     NLEB  =     302
     NRAD0 =      24     NLEB0 =     110
     SWOFF =    5.00E-03 (PURE SCF -> DFT)
     SWITCH=    3.00E-04 (COARSE -> TIGHT GRID)
     THRESH=    0.00E+00 GTHRE=    1.00E+00

 GRIMME'S EMPIRICAL DISPERSION CORRECTION= F

     $CONTRL OPTIONS
     ---------------
 SCFTYP=RHF          RUNTYP=OPTIMIZE     EXETYP=RUN     
 MPLEVL=       0     CITYP =NONE         CCTYP =NONE         VBTYP =NONE    
 DFTTYP=PBE          TDDFT =NONE    
 MULT  =       1     ICHARG=       0     NZVAR =      18     COORD =ZMT     
 PP    =NONE         RELWFN=NONE         LOCAL =NONE         NUMGRD=       F
 ISPHER=       1     NOSYM =       0     MAXIT =      30     UNITS =ANGS    
 PLTORB=       F     MOLPLT=       F     AIMPAC=       F     FRIEND=        
 NPRINT=       7     IREST =       0     GEOM  =INPUT   
 NORMF =       0     NORMP =       0     ITOL  =      20     ICUT  =       9
 INTTYP=BEST         GRDTYP=BEST         QMTTOL= 1.0E-06

     $SYSTEM OPTIONS
     ---------------
  REPLICATED MEMORY=     1000000 WORDS (ON EVERY NODE).
 DISTRIBUTED MEMDDI=           0 MILLION WORDS IN AGGREGATE,
 MEMDDI DISTRIBUTED OVER   1 PROCESSORS IS           0 WORDS/PROCESSOR.
 TOTAL MEMORY REQUESTED ON EACH PROCESSOR=     1000000 WORDS.
 TIMLIM=      525600.00 MINUTES, OR     365.0 DAYS.
 PARALL= F  BALTYP=  DLB     KDIAG=    0  COREFL= F
 MXSEQ2=     300 MXSEQ3=     150  mem10=         0

          ----------------
          PROPERTIES INPUT
          ----------------

     MOMENTS            FIELD           POTENTIAL          DENSITY
 IEMOM =       1   IEFLD =       0   IEPOT =       0   IEDEN =       0
 WHERE =COMASS     WHERE =NUCLEI     WHERE =NUCLEI     WHERE =NUCLEI  
 OUTPUT=BOTH       OUTPUT=BOTH       OUTPUT=BOTH       OUTPUT=BOTH    
 IEMINT=       0   IEFINT=       0                     IEDINT=       0
                                                       MORB  =       0
          EXTRAPOLATION IN EFFECT
          DIIS IN EFFECT
 ORBITAL PRINTING OPTION: NPREO=     1    80     2     1

     -------------------------------
     INTEGRAL TRANSFORMATION OPTIONS
     -------------------------------
     NWORD  =            0
     CUTOFF = 1.0E-09     MPTRAN =       0
     DIRTRF =       F     AOINTS =DUP     

          ----------------------
          INTEGRAL INPUT OPTIONS
          ----------------------
 NOPK  =       1 NORDER=       0 SCHWRZ=       T

   --- ENCODED Z MATRIX ---
 COORD  TYPE   I   J   K   L   M   N
    1      1    2   1
    2      1    3   2
    3      2    3   2   1
    4      1    4   2
    5      2    4   2   1
    6      3    4   2   1   3
    7      1    5   2
    8      2    5   2   1
    9      3    5   2   1   3
   10      1    6   1
   11      2    6   1   2
   12      3    6   1   2   3
   13      1    7   1
   14      2    7   1   2
   15      3    7   1   2   6
   16      1    8   1
   17      2    8   1   2
   18      3    8   1   2   6

 THE DETERMINANT OF THE G MATRIX IS 10**(   -12)


                     --------------------
                     INTERNAL COORDINATES
                     --------------------

                 - - ATOMS - -         COORDINATE      COORDINATE
 NO.   TYPE    I  J  K  L  M  N        (BOHR,RAD)       (ANG,DEG)
 ----------------------------------------------------------------
   1 STRETCH   2  1                     2.8345890       1.5000000
   2 STRETCH   3  2                     2.6456164       1.4000000
   3 BEND      3  2  1                  1.9118710     109.5421400
   4 STRETCH   4  2                     2.0786986       1.1000000
   5 BEND      4  2  1                  1.9118710     109.5421400
   6 TORSION   4  2  1  3               2.0943951     120.0000000
   7 STRETCH   5  2                     2.0786986       1.1000000
   8 BEND      5  2  1                  1.9118710     109.5421400
   9 TORSION   5  2  1  3              -2.0943951    -120.0000000
  10 STRETCH   6  1                     2.8345890       1.5000000
  11 BEND      6  1  2                  1.9118710     109.5421400
  12 TORSION   6  1  2  3               2.4434610     140.0000000
  13 STRETCH   7  1                     2.0786986       1.1000000
  14 BEND      7  1  2                  1.9118710     109.5421400
  15 TORSION   7  1  2  6               2.0943951     120.0000000
  16 STRETCH   8  1                     2.0786986       1.1000000
  17 BEND      8  1  2                  1.9118710     109.5421400
  18 TORSION   8  1  2  6              -2.0943951    -120.0000000

     ------------------------------------------
     THE POINT GROUP IS C1 , NAXIS= 0, ORDER= 1
     ------------------------------------------

 -- VARIATIONAL SPACE WILL BE RESTRICTED TO PURE SPHERICAL HARMONICS ONLY --
 AFTER EXCLUDING CONTAMINANT COMBINATIONS FROM THE CARTESIAN GAUSSIAN BASIS
 SET, THE NUMBER OF SPHERICAL HARMONICS KEPT IN THE VARIATION SPACE IS   76

     DIMENSIONS OF THE SYMMETRY SUBSPACES ARE
 A   =   76

 ..... DONE SETTING UP THE RUN .....
 STEP CPU TIME =     0.01 TOTAL CPU TIME =          0.0 (      0.0 MIN)
 TOTAL WALL CLOCK TIME=          0.0 SECONDS, CPU UTILIZATION IS    50.00%


          -----------------------------
          STATIONARY POINT LOCATION RUN
          -----------------------------

 OBTAINING INITIAL HESSIAN, HESS=GUESS   
 DIAGONAL GUESS HESSIAN IN INTERNAL COORDS IS
     1  0.3892     2  0.3267     3  0.2379     4  0.3397     5  0.2253
     6  0.2500     7  0.3397     8  0.2253     9  0.2500    10  0.2690
    11  0.2315    12  0.2500    13  0.3397    14  0.2253    15  0.2500
    16  0.3397    17  0.2253    18  0.2500

          PARAMETERS CONTROLLING GEOMETRY SEARCH ARE
          METHOD =QA                  UPHESS =BFGS    
          NNEG   =         0          NFRZ   =         1
          NSTEP  =        50          IFOLOW =         1
          HESS   =GUESS               RESTAR =         F
          IHREP  =         0          HSSEND =         F
          NPRT   =         0          NPUN   =         0
          OPTTOL = 1.000E-04          RMIN   = 1.500E-03
          RMAX   = 1.000E-01          RLIM   = 7.000E-02
          DXMAX  = 3.000E-01          PURIFY =         F
          MOVIE  =         F          TRUPD  =         T
          TRMAX  = 5.000E-01          TRMIN  = 5.000E-02
          ITBMAT =         5          STPT   =         F
          STSTEP = 1.000E-02          PROJCT=          T
          FROZEN COORD(S)=  12

 BEGINNING GEOMETRY SEARCH POINT NSERCH=   0 ...

 COORDINATES OF ALL ATOMS ARE (ANGS)
   ATOM   CHARGE       X              Y              Z
 ------------------------------------------------------------
 C           6.0  -0.5306902635   0.5264812439   0.2379485363
 C           6.0   0.5850918901  -0.4753169848   0.2757704153
 F           9.0   1.7566439416   0.1096461333  -0.2194910723
 H           1.0   0.7504257120  -0.8029560463   1.3127455224
 H           1.0   0.3203571300  -1.3445152606  -0.3442375397
 F           9.0  -1.7972168277  -0.1492989452  -0.1970590480
 H           1.0  -0.6721800008   0.9576579890   1.2399801070
 H           1.0  -0.2815186244   1.3281000962  -0.4729105988


                     --------------------
                     INTERNAL COORDINATES
                     --------------------

                 - - ATOMS - -         COORDINATE      COORDINATE
 NO.   TYPE    I  J  K  L  M  N        (BOHR,RAD)       (ANG,DEG)
 ----------------------------------------------------------------
   1 STRETCH   2  1                     2.8345890       1.5000000
   2 STRETCH   3  2                     2.6456164       1.4000000
   3 BEND      3  2  1                  1.9118710     109.5421400
   4 STRETCH   4  2                     2.0786986       1.1000000
   5 BEND      4  2  1                  1.9118710     109.5421400
   6 TORSION   4  2  1  3               2.0943951     120.0000000
   7 STRETCH   5  2                     2.0786986       1.1000000
   8 BEND      5  2  1                  1.9118710     109.5421400
   9 TORSION   5  2  1  3              -2.0943951    -120.0000000
  10 STRETCH   6  1                     2.8345890       1.5000000
  11 BEND      6  1  2                  1.9118710     109.5421400
  12 TORSION   6  1  2  3               2.4434610     140.0000000
  13 STRETCH   7  1                     2.0786986       1.1000000
  14 BEND      7  1  2                  1.9118710     109.5421400
  15 TORSION   7  1  2  6               2.0943951     120.0000000
  16 STRETCH   8  1                     2.0786986       1.1000000
  17 BEND      8  1  2                  1.9118710     109.5421400
  18 TORSION   8  1  2  6              -2.0943951    -120.0000000

 THE CURRENT FULLY SUBSTITUTED Z-MATRIX IS
 C   
 C      1   1.5000000
 F      2   1.4000000  1   109.5421400
 H      2   1.1000000  1   109.5421400  3   120.0000000  0
 H      2   1.1000000  1   109.5421400  3  -120.0000000  0
 F      1   1.5000000  2   109.5421400  3   140.0000000  0
 H      1   1.1000000  2   109.5421400  6   120.0000000  0
 H      1   1.1000000  2   109.5421400  6  -120.0000000  0

          ********************
          1 ELECTRON INTEGRALS
          ********************
 ...... END OF ONE-ELECTRON INTEGRALS ......
 STEP CPU TIME =     0.00 TOTAL CPU TIME =          0.0 (      0.0 MIN)
 TOTAL WALL CLOCK TIME=          0.0 SECONDS, CPU UTILIZATION IS    50.00%

          -------------
          GUESS OPTIONS
          -------------
          GUESS =HUCKEL            NORB  =       0          NORDER=       0
          MIX   =       F          PRTMO =       F          PUNMO =       F
          TOLZ  = 1.0E-08          TOLE  = 1.0E-05
          SYMDEN=       F          PURIFY=       F

 INITIAL GUESS ORBITALS GENERATED BY HUCKEL   ROUTINE.
 HUCKEL GUESS REQUIRES     54920 WORDS.

 STATISTICS FOR GENERATION OF SYMMETRY ORBITAL -Q- MATRIX
 NUMBER OF CARTESIAN ATOMIC ORBITALS=         80
 NUMBER OF SPHERICAL CONTAMINANTS DROPPED=     4
 NUMBER OF LINEARLY DEPENDENT MOS DROPPED=     0
 TOTAL NUMBER OF MOS IN VARIATION SPACE=      76

 SYMMETRIES FOR INITIAL GUESS ORBITALS FOLLOW.   BOTH SET(S).
    17 ORBITALS ARE OCCUPIED (    4 CORE ORBITALS).
     5=A        6=A        7=A        8=A        9=A       10=A       11=A   
    12=A       13=A       14=A       15=A       16=A       17=A       18=A   
    19=A       20=A       21=A       22=A       23=A       24=A       25=A   
    26=A       27=A   
 ...... END OF INITIAL ORBITAL SELECTION ......
 STEP CPU TIME =     0.01 TOTAL CPU TIME =          0.0 (      0.0 MIN)
 TOTAL WALL CLOCK TIME=          0.0 SECONDS, CPU UTILIZATION IS    66.67%

                    ----------------------
                    AO INTEGRAL TECHNOLOGY
                    ----------------------
     S,P,L SHELL ROTATED AXIS INTEGRALS, REPROGRAMMED BY
        KAZUYA ISHIMURA (IMS) AND JOSE SIERRA (SYNSTAR).
     S,P,D,L SHELL ROTATED AXIS INTEGRALS PROGRAMMED BY
        KAZUYA ISHIMURA (INSTITUTE FOR MOLECULAR SCIENCE).
     S,P,D,F,G SHELL TO TOTAL QUARTET ANGULAR MOMENTUM SUM 5,
        ERIC PROGRAM BY GRAHAM FLETCHER (ELORET AND NASA ADVANCED
        SUPERCOMPUTING DIVISION, AMES RESEARCH CENTER).
     S,P,D,F,G,L SHELL GENERAL RYS QUADRATURE PROGRAMMED BY
        MICHEL DUPUIS (PACIFIC NORTHWEST NATIONAL LABORATORY).

          --------------------
          2 ELECTRON INTEGRALS
          --------------------

 THE -PK- OPTION IS OFF, THE INTEGRALS ARE NOT IN SUPERMATRIX FORM.
 STORING   15000 INTEGRALS/RECORD ON DISK, USING 12 BYTES/INTEGRAL.
 TWO ELECTRON INTEGRAL EVALUATION REQUIRES   91062 WORDS OF MEMORY.
 SCHWARZ INEQUALITY OVERHEAD:      3217 INTEGRALS, T=        0.01
 II,JST,KST,LST =  1  1  1  1 NREC =         1 INTLOC =    1
 II,JST,KST,LST =  2  1  1  1 NREC =         1 INTLOC =    2
 II,JST,KST,LST =  3  1  1  1 NREC =         1 INTLOC =    7
 II,JST,KST,LST =  4  1  1  1 NREC =         1 INTLOC =   22
 II,JST,KST,LST =  5  1  1  1 NREC =         1 INTLOC =   67
 II,JST,KST,LST =  6  1  1  1 NREC =         1 INTLOC =  214
 II,JST,KST,LST =  7  1  1  1 NREC =         1 INTLOC = 1189
 II,JST,KST,LST =  8  1  1  1 NREC =         1 INTLOC = 3194
 II,JST,KST,LST =  9  1  1  1 NREC =         1 INTLOC = 5658
 II,JST,KST,LST = 10  1  1  1 NREC =         1 INTLOC = 8580
 II,JST,KST,LST = 11  1  1  1 NREC =         2 INTLOC = 5494
 II,JST,KST,LST = 12  1  1  1 NREC =         3 INTLOC = 8169
 II,JST,KST,LST = 13  1  1  1 NREC =         7 INTLOC = 6069
 II,JST,KST,LST = 14  1  1  1 NREC =         8 INTLOC = 4327
 II,JST,KST,LST = 15  1  1  1 NREC =         9 INTLOC = 5107
 II,JST,KST,LST = 16  1  1  1 NREC =        10 INTLOC = 7964
 II,JST,KST,LST = 17  1  1  1 NREC =        14 INTLOC = 9782
 II,JST,KST,LST = 18  1  1  1 NREC =        20 INTLOC =  780
 II,JST,KST,LST = 19  1  1  1 NREC =        34 INTLOC =11610
 II,JST,KST,LST = 20  1  1  1 NREC =        37 INTLOC =14831
 II,JST,KST,LST = 21  1  1  1 NREC =        41 INTLOC = 6404
 II,JST,KST,LST = 22  1  1  1 NREC =        53 INTLOC =  422
 II,JST,KST,LST = 23  1  1  1 NREC =        57 INTLOC = 6218
 II,JST,KST,LST = 24  1  1  1 NREC =        62 INTLOC = 1114
 II,JST,KST,LST = 25  1  1  1 NREC =        77 INTLOC = 8629
 II,JST,KST,LST = 26  1  1  1 NREC =        80 INTLOC =10065
 II,JST,KST,LST = 27  1  1  1 NREC =        85 INTLOC =  784
 II,JST,KST,LST = 28  1  1  1 NREC =        91 INTLOC =  884
 II,JST,KST,LST = 29  1  1  1 NREC =       106 INTLOC = 3315
 II,JST,KST,LST = 30  1  1  1 NREC =       129 INTLOC =  963
 II,JST,KST,LST = 31  1  1  1 NREC =       174 INTLOC = 1177
 II,JST,KST,LST = 32  1  1  1 NREC =       184 INTLOC =14300
 II,JST,KST,LST = 33  1  1  1 NREC =       196 INTLOC = 9012
 II,JST,KST,LST = 34  1  1  1 NREC =       231 INTLOC =   65
 II,JST,KST,LST = 35  1  1  1 NREC =       244 INTLOC = 7545
 II,JST,KST,LST = 36  1  1  1 NREC =       258 INTLOC =12350
 SCHWARZ INEQUALITY TEST SKIPPED       18666 INTEGRAL BLOCKS.
 TOTAL NUMBER OF NONZERO TWO-ELECTRON INTEGRALS =             4521341
        302 INTEGRAL RECORDS WERE STORED ON DISK FILE  8.
  ...... END OF TWO-ELECTRON INTEGRALS .....
 STEP CPU TIME =     0.45 TOTAL CPU TIME =          0.5 (      0.0 MIN)
 TOTAL WALL CLOCK TIME=          0.5 SECONDS, CPU UTILIZATION IS    97.92%

          --------------------------
               R-PBE SCF CALCULATION
          --------------------------

     NUCLEAR ENERGY =       123.0185314378
     MAXIT =   30     NPUNCH=    2
     EXTRAP=T  DAMP=F  SHIFT=F  RSTRCT=F  DIIS=T  DEM=F  SOSCF=F
         DENSITY MATRIX CONVERGENCE THRESHOLD=  1.00E-05
     COARSE -> FINE DFT GRID SWITCH THRESHOLD=  3.00E-04 (SWITCH IN $DFT)
                   HF -> DFT SWITCH THRESHOLD=  5.00E-03 (SWOFF IN $DFT)
     MEMORY REQUIRED FOR RHF ITERS=    365468 WORDS.

 DFT CODE IS SWITCHING FROM THE FINE GRID NRAD= 96,  NLEB=  302
                      TO THE COARSE GRID NRAD0= 24, NLEB0=  110

     EXCHANGE FUNCTIONAL   =PBE       
     CORRELATION FUNCTIONAL=PBE       
     DFT THRESHOLD         =.172E-07
     GRID CHANGE THRESHOLD =.300E-03
 FOR AN EULER-MACLAURIN QUADRATURE USING  96 RADIAL POINTS:
 SMALLEST GAUSSIAN PRIMITIVE EXPONENT=        0.1061000000 OF TYPE -S-
 ON ATOM NUMBER   4 HAS RADIAL NORMALIZATION=  1.000000
  LARGEST GAUSSIAN PRIMITIVE EXPONENT=     2931.5500000000 OF TYPE -S-
 ON ATOM NUMBER   3 HAS RADIAL NORMALIZATION=  1.000000
 DFT IS SWITCHED OFF, PERFORMING PURE SCF UNTIL SWOFF THRESHOLD IS REACHED.

 ITER EX DEM     TOTAL ENERGY        E CHANGE  DENSITY CHANGE    DIIS ERROR
   1  0  0     -276.1227990842  -276.1227990842   0.189534794   0.721297858
          * * *   INITIATING DIIS PROCEDURE   * * *
   2  1  0     -276.7732443223    -0.6504452381   0.091389649   0.084310036
   3  2  0     -276.8156302339    -0.0423859116   0.047876236   0.038697640
   4  3  0     -276.8309380452    -0.0153078113   0.008790787   0.012370796
   5  4  0     -276.8317343030    -0.0007962579   0.002247791   0.001648804
 CONVERGED TO SWOFF, SO DFT CALCULATION IS NOW SWITCHED ON.
          * * *   INITIATING DIIS PROCEDURE   * * *
   6  5  0     -277.8994370042    -1.0677027012   0.095600939   0.080699630
   7  6  0     -277.9143716799    -0.0149346757   0.079580096   0.047293655
   8  7  0     -277.9124100865     0.0019615934   0.049867372   0.044839929
   9  8  0     -277.9281030944    -0.0156930079   0.006929125   0.005512067
  10  9  0     -277.9283462378    -0.0002431434   0.001683653   0.001336011
  11 10  0     -277.9283576316    -0.0000113938   0.000574281   0.000496150
  12 11  0     -277.9283597818    -0.0000021502   0.000058799   0.000083857
 DFT CODE IS SWITCHING BACK TO THE FINE GRID
          * * *   INITIATING DIIS PROCEDURE   * * *
  13 12  0     -277.9276342987     0.0007254831   0.004618601   0.003145674
  14 13  0     -277.9276775754    -0.0000432767   0.005135985   0.002114019
  15 14  0     -277.9276680625     0.0000095129   0.002833348   0.002575712
  16 15  0     -277.9277013869    -0.0000333244   0.000157225   0.000094403
  17 16  0     -277.9277014540    -0.0000000671   0.000084604   0.000067345
  18 17  0     -277.9277014808    -0.0000000268   0.000017832   0.000012300
  19 18  0     -277.9277014819    -0.0000000011   0.000005995   0.000006121
  20 19  0     -277.9277014820    -0.0000000002   0.000000460   0.000000367

          -----------------
          DENSITY CONVERGED
          -----------------
     TIME TO FORM FOCK OPERATORS=       9.7 SECONDS (       0.5 SEC/ITER)
     TIME TO SOLVE SCF EQUATIONS=       0.0 SECONDS (       0.0 SEC/ITER)

 FINAL R-PBE ENERGY IS     -277.9277014820 AFTER  20 ITERATIONS
 DFT EXCHANGE + CORRELATION ENERGY =       -32.9009666647
 TOTAL ELECTRON NUMBER             =        33.9999427212

          ------------
          EIGENVECTORS
          ------------

                      1          2          3          4          5
                  -24.2430   -24.2302    -9.9740    -9.9722    -1.1041
                     A          A          A          A          A   
    1  C  1  S    0.000049  -0.000182   0.992866  -0.031184  -0.013474
    2  C  1  S    0.000176  -0.000915   0.036750  -0.002219   0.023102
    3  C  1  S   -0.003941   0.008762  -0.022221   0.006643   0.024424
    4  C  1  X   -0.000271  -0.000853  -0.000457  -0.000690   0.012539
    5  C  1  Y    0.000200  -0.000331   0.000151   0.000707  -0.009172
    6  C  1  Z   -0.000052  -0.000272  -0.000028  -0.000007  -0.003270
    7  C  1  X   -0.002097  -0.002331  -0.002902   0.002090   0.009439
    8  C  1  Y    0.000427  -0.003338   0.000938  -0.002318  -0.010188
    9  C  1  Z    0.001289  -0.001567  -0.000386   0.000322   0.002314
   10  C  1 XX   -0.000113   0.000354  -0.000278  -0.000370   0.003090
   11  C  1 YY    0.000086  -0.000110  -0.000035  -0.000122  -0.000565
   12  C  1 ZZ    0.000027  -0.000243   0.000313   0.000491  -0.002525
   13  C  1 XY    0.000067   0.000441   0.000210   0.000823  -0.002276
   14  C  1 XZ   -0.000019   0.000259  -0.000113  -0.000038   0.000155
   15  C  1 YZ   -0.000077   0.000176  -0.000029   0.000015   0.000565
   16  C  2  S   -0.000135   0.000048   0.031375   0.992816  -0.064806
   17  C  2  S   -0.000563   0.000224   0.000071   0.037115   0.122332
   18  C  2  S    0.009874  -0.003840   0.005527  -0.021845   0.010282
   19  C  2  X    0.001043   0.000207   0.000728   0.000842   0.080647
   20  C  2  Y    0.000359  -0.000175  -0.000706   0.000166   0.046741
   21  C  2  Z   -0.000394  -0.000023   0.000039  -0.000219  -0.035999
   22  C  2  X    0.002273   0.002096  -0.002006   0.003073   0.012014
   23  C  2  Y    0.003185  -0.000122   0.002366  -0.001007   0.000411
   24  C  2  Z   -0.001953   0.001389   0.000120  -0.000421  -0.003024
   25  C  2 XX    0.000154  -0.000118  -0.000370  -0.000065   0.011891
   26  C  2 YY   -0.000075   0.000101  -0.000131  -0.000093  -0.004190
   27  C  2 ZZ   -0.000079   0.000018   0.000501   0.000158  -0.007702
   28  C  2 XY    0.000227   0.000008   0.000840   0.000342   0.012078
   29  C  2 XZ   -0.000148   0.000011  -0.000028  -0.000056  -0.010918
   30  C  2 YZ   -0.000105   0.000053   0.000043  -0.000018  -0.005876
   31  F  3  S    0.993084   0.000624   0.000006   0.000064  -0.237614
   32  F  3  S    0.034036  -0.000122  -0.000109   0.000471   0.483337
   33  F  3  S   -0.016946   0.000389  -0.000117  -0.000793   0.496449
   34  F  3  X   -0.001000   0.000041   0.000087   0.000280  -0.084256
   35  F  3  Y   -0.000511  -0.000053   0.000006   0.000093  -0.039621
   36  F  3  Z    0.000422   0.000019  -0.000035  -0.000103   0.035200
   37  F  3  X    0.003203  -0.000418  -0.000130   0.001503  -0.039696
   38  F  3  Y    0.001590   0.000140   0.000146   0.001057  -0.017334
   39  F  3  Z   -0.001308  -0.000123   0.000007  -0.000740   0.016557
   40  F  3 XX   -0.000246   0.000033   0.000060  -0.000699   0.007096
   41  F  3 YY    0.000133   0.000002   0.000017   0.000281  -0.003070
   42  F  3 ZZ    0.000113  -0.000035  -0.000077   0.000418  -0.004025
   43  F  3 XY   -0.000316   0.000029  -0.000153  -0.000758   0.007125
   44  F  3 XZ    0.000231  -0.000008   0.000011   0.000659  -0.006515
   45  F  3 YZ    0.000099   0.000031   0.000018   0.000344  -0.003114
   46  H  4  S   -0.000930   0.000099  -0.000360  -0.001200   0.022308
   47  H  4  S    0.000073  -0.000828   0.000321   0.003406   0.001050
   48  H  4  X   -0.000265  -0.000023  -0.000101   0.000063   0.000102
   49  H  4  Y   -0.000266  -0.000053   0.000044  -0.000359   0.001945
   50  H  4  Z    0.000189  -0.000007   0.000060   0.001235  -0.005029
   51  H  5  S   -0.000945   0.000364  -0.000305  -0.001140   0.022145
   52  H  5  S   -0.000289   0.000915   0.001029   0.003465   0.001916
   53  H  5  X   -0.000295   0.000087  -0.000155  -0.000434   0.001981
   54  H  5  Y   -0.000286  -0.000017   0.000061  -0.000956   0.004384
   55  H  5  Z    0.000141   0.000008  -0.000039  -0.000686   0.002408
   56  F  6  S   -0.000629   0.993091   0.000047   0.000003  -0.013730
   57  F  6  S   -0.000154   0.033700   0.000408  -0.000111   0.027968
   58  F  6  S    0.000355  -0.015965  -0.000060  -0.000095   0.027631
   59  F  6  X   -0.000044   0.000944  -0.000089  -0.000080   0.005474
   60  F  6  Y    0.000051   0.000518   0.000002   0.000003   0.002068
   61  F  6  Z    0.000011   0.000322  -0.000021  -0.000029   0.001503
   62  F  6  X    0.000383  -0.003036  -0.000988   0.000194   0.001532
   63  F  6  Y   -0.000159  -0.001603  -0.000846  -0.000081   0.001970
   64  F  6  Z   -0.000093  -0.000997  -0.000410   0.000053   0.000723
   65  F  6 XX    0.000034  -0.000252  -0.000662   0.000095   0.000496
   66  F  6 YY   -0.000008   0.000112   0.000200  -0.000010  -0.000099
   67  F  6 ZZ   -0.000026   0.000140   0.000462  -0.000085  -0.000397
   68  F  6 XY    0.000024  -0.000327  -0.000784  -0.000092   0.000583
   69  F  6 XZ   -0.000000  -0.000183  -0.000508   0.000031   0.000351
   70  F  6 YZ   -0.000035  -0.000090  -0.000286  -0.000012   0.000228
   71  H  7  S    0.000114  -0.000744  -0.001207  -0.000266   0.002738
   72  H  7  S   -0.000794   0.000195   0.003487   0.000117  -0.000960
   73  H  7  X    0.000011   0.000293  -0.000026   0.000104  -0.000071
   74  H  7  Y    0.000046   0.000261   0.000488  -0.000071  -0.000122
   75  H  7  Z   -0.000016   0.000084   0.001222  -0.000012  -0.000834
   76  H  8  S    0.000340  -0.000759  -0.001143  -0.000210   0.006440
   77  H  8  S    0.000745  -0.000152   0.003592   0.000760   0.005844
   78  H  8  X   -0.000085   0.000294   0.000437   0.000125   0.000653
   79  H  8  Y    0.000031   0.000245   0.000896  -0.000118  -0.001431
   80  H  8  Z   -0.000005   0.000164  -0.000808   0.000013   0.000871

                      6          7          8          9         10
                   -1.0638    -0.7131    -0.5821    -0.4713    -0.4654
                     A          A          A          A          A   
    1  C  1  S   -0.052456  -0.154041   0.127029   0.000807  -0.004905
    2  C  1  S    0.100760   0.315892  -0.275632  -0.004506   0.016930
    3  C  1  S    0.015652   0.180051  -0.144456  -0.006015  -0.008861
    4  C  1  X   -0.065735   0.098869   0.050384  -0.068416  -0.100198
    5  C  1  Y   -0.038923  -0.048358  -0.125161  -0.047976  -0.181039
    6  C  1  Z   -0.022778   0.019893  -0.004301   0.258112  -0.106976
    7  C  1  X   -0.014910   0.032730   0.006798  -0.027180  -0.013092
    8  C  1  Y   -0.002266  -0.005261  -0.051517  -0.033385  -0.070096
    9  C  1  Z   -0.004368   0.007286  -0.015119   0.115491  -0.022668
   10  C  1 XX    0.008972   0.001435  -0.000217  -0.002946  -0.003275
   11  C  1 YY   -0.002321   0.002881   0.004199   0.000657   0.009140
   12  C  1 ZZ   -0.006650  -0.004315  -0.003982   0.002290  -0.005865
   13  C  1 XY    0.010134  -0.008851  -0.008504  -0.000397   0.004708
   14  C  1 XZ    0.006835   0.000792   0.000436   0.005368   0.001539
   15  C  1 YZ    0.003756  -0.000776   0.000099  -0.002770   0.005395
   16  C  2  S   -0.005042  -0.148933  -0.127784  -0.002645  -0.005042
   17  C  2  S    0.007384   0.305602   0.279119  -0.003593   0.004529
   18  C  2  S    0.018131   0.166857   0.133555   0.031675   0.040101
   19  C  2  X   -0.020777  -0.101492   0.072408  -0.061081  -0.221627
   20  C  2  Y    0.002491   0.055147  -0.123964  -0.094207  -0.204964
   21  C  2  Z    0.000494   0.017052   0.010671   0.304496  -0.121382
   22  C  2  X   -0.009256  -0.033938   0.006984   0.011351  -0.045422
   23  C  2  Y    0.009215   0.006508  -0.054069  -0.012885  -0.078433
   24  C  2  Z    0.002751   0.009367   0.020649   0.109308  -0.079347
   25  C  2 XX    0.001428   0.000647   0.002257  -0.001453  -0.003016
   26  C  2 YY   -0.000192   0.003723  -0.005714  -0.003545  -0.003267
   27  C  2 ZZ   -0.001236  -0.004370   0.003457   0.004998   0.006283
   28  C  2 XY   -0.003184  -0.009221   0.009033  -0.007405  -0.010532
   29  C  2 XZ    0.001242   0.000358  -0.001563   0.005030   0.006884
   30  C  2 YZ    0.000019   0.000063   0.000822   0.009693   0.004779
   31  F  3  S    0.017829   0.060865   0.046072  -0.030815  -0.033195
   32  F  3  S   -0.036368  -0.131952  -0.101618   0.064840   0.069103
   33  F  3  S   -0.038684  -0.157315  -0.120804   0.095292   0.103567
   34  F  3  X    0.004250  -0.091653  -0.127594   0.312595   0.256005
   35  F  3  Y    0.002876  -0.021504  -0.131240   0.080103   0.034613
   36  F  3  Z   -0.002379   0.032430   0.073041   0.065901  -0.248309
   37  F  3  X    0.002944  -0.051391  -0.078046   0.192553   0.158280
   38  F  3  Y    0.000477  -0.015737  -0.078929   0.044965   0.020312
   39  F  3  Z   -0.001101   0.017981   0.044190   0.039509  -0.149446
   40  F  3 XX   -0.000334   0.004742   0.001723  -0.011710  -0.004728
   41  F  3 YY    0.000192  -0.002471   0.000134   0.002980   0.005970
   42  F  3 ZZ    0.000142  -0.002271  -0.001857   0.008730  -0.001242
   43  F  3 XY   -0.000420   0.002204   0.008382  -0.004707  -0.000712
   44  F  3 XZ    0.000400  -0.003196  -0.004185  -0.001670   0.011021
   45  F  3 YZ    0.000172  -0.000978  -0.003451  -0.001975   0.003776
   46  H  4  S    0.000160   0.111321   0.160406   0.212793  -0.053484
   47  H  4  S   -0.001561  -0.003284   0.004556   0.035671   0.005399
   48  H  4  X    0.000023  -0.003733  -0.000877  -0.004668  -0.003633
   49  H  4  Y   -0.000184   0.004093   0.001586   0.003956  -0.006276
   50  H  4  Z   -0.000205  -0.010214  -0.012896  -0.007718   0.001525
   51  H  5  S    0.003842   0.103967   0.170333  -0.051209   0.199406
   52  H  5  S    0.006320  -0.009086   0.015562   0.006309   0.012282
   53  H  5  X   -0.000826   0.001427   0.004515  -0.001920  -0.002466
   54  H  5  Y    0.000881   0.008601   0.009539  -0.005868   0.007871
   55  H  5  Z    0.000399   0.006414   0.008594   0.004169   0.005248
   56  F  6  S   -0.242133   0.054198  -0.036563   0.000191   0.031908
   57  F  6  S    0.492461  -0.117489   0.081923  -0.000411  -0.067864
   58  F  6  S    0.515271  -0.138761   0.092944  -0.000781  -0.100790
   59  F  6  X    0.068677   0.075034  -0.094830  -0.027271   0.259516
   60  F  6  Y    0.034823   0.023037  -0.096825  -0.020149   0.033893
   61  F  6  Z    0.023520   0.023154  -0.040552   0.116680   0.042817
   62  F  6  X    0.036339   0.042770  -0.061389  -0.015492   0.163729
   63  F  6  Y    0.017267   0.016767  -0.060080  -0.010948   0.019600
   64  F  6  Z    0.012533   0.012909  -0.025804   0.067945   0.026003
   65  F  6 XX    0.007000   0.003996  -0.001923  -0.002404   0.008805
   66  F  6 YY   -0.002407  -0.001785  -0.000271  -0.000969  -0.004369
   67  F  6 ZZ   -0.004592  -0.002211   0.002195   0.003373  -0.004436
   68  F  6 XY    0.007646   0.002575  -0.006926  -0.001634   0.001975
   69  F  6 XZ    0.005260   0.002394  -0.002694   0.005251   0.002719
   70  F  6 YZ    0.002706   0.000927  -0.002270   0.002603  -0.000025
   71  H  7  S    0.019338   0.116667  -0.161283   0.156668  -0.101477
   72  H  7  S    0.001625  -0.002755  -0.004411   0.016394  -0.025297
   73  H  7  X   -0.000339   0.003558  -0.000915   0.001577  -0.004175
   74  H  7  Y   -0.002087  -0.005278   0.002835  -0.006652  -0.000297
   75  H  7  Z   -0.003973  -0.010425   0.012674  -0.004418   0.004091
   76  H  8  S    0.018735   0.109592  -0.173211  -0.150232  -0.051073
   77  H  8  S    0.001127  -0.010153  -0.018521   0.001821   0.006010
   78  H  8  X   -0.001846  -0.001459   0.003763  -0.000933  -0.002510
   79  H  8  Y   -0.003336  -0.008321   0.008680   0.008294  -0.000866
   80  H  8  Z    0.002275   0.007753  -0.009767  -0.001520  -0.004876

                     11         12         13         14         15
                   -0.4347    -0.4057    -0.3953    -0.3331    -0.3069
                     A          A          A          A          A   
    1  C  1  S    0.008565   0.010532  -0.005094   0.032553   0.001513
    2  C  1  S   -0.024018  -0.011802   0.010578  -0.070806  -0.007886
    3  C  1  S   -0.017659  -0.047395   0.014030  -0.138860   0.003621
    4  C  1  X    0.297458  -0.063032  -0.015872  -0.091197  -0.018438
    5  C  1  Y   -0.109701  -0.298275  -0.054233   0.022617   0.096237
    6  C  1  Z   -0.003417  -0.004124   0.302323  -0.012777  -0.093068
    7  C  1  X    0.091265   0.008532  -0.014914  -0.062900  -0.008479
    8  C  1  Y   -0.061282  -0.101091  -0.033352   0.049716   0.047792
    9  C  1  Z   -0.006766   0.008480   0.141953   0.012331  -0.014109
   10  C  1 XX   -0.006825   0.015297  -0.000779   0.015062  -0.001209
   11  C  1 YY    0.006663  -0.003388  -0.000415  -0.009865   0.008215
   12  C  1 ZZ    0.000162  -0.011910   0.001194  -0.005198  -0.007006
   13  C  1 XY   -0.011893   0.008817  -0.002411  -0.004676   0.006286
   14  C  1 XZ   -0.004608   0.007251  -0.011975   0.001511  -0.016045
   15  C  1 YZ   -0.003138   0.004836   0.007750  -0.005029  -0.004162
   16  C  2  S   -0.011258   0.007460   0.009503  -0.026577   0.000210
   17  C  2  S    0.021761  -0.008455  -0.017538   0.054149  -0.005388
   18  C  2  S    0.027165  -0.027699  -0.035219   0.128712   0.009915
   19  C  2  X   -0.250408  -0.000901  -0.025922  -0.014309  -0.003416
   20  C  2  Y    0.157391   0.239896   0.035153  -0.068101  -0.123282
   21  C  2  Z    0.021554   0.040977  -0.203901   0.043605  -0.148528
   22  C  2  X   -0.077191  -0.028219  -0.028363  -0.030936  -0.003116
   23  C  2  Y    0.087653   0.083081   0.002588   0.003803  -0.057722
   24  C  2  Z    0.006937   0.025240  -0.092694  -0.003100  -0.048317
   25  C  2 XX   -0.014033   0.013085   0.002606  -0.020254   0.000283
   26  C  2 YY    0.013007  -0.003592  -0.001545   0.009620   0.010687
   27  C  2 ZZ    0.001026  -0.009492  -0.001061   0.010634  -0.010970
   28  C  2 XY   -0.007161   0.009092   0.001047   0.008676   0.010473
   29  C  2 XZ    0.006978  -0.001123  -0.019042   0.000198   0.014869
   30  C  2 YZ   -0.001323  -0.006265   0.004453  -0.006754   0.006349
   31  F  3  S   -0.016180   0.005604   0.002745   0.000604   0.001699
   32  F  3  S    0.031827  -0.009507  -0.003884  -0.003161  -0.007119
   33  F  3  S    0.049826  -0.012693  -0.005077  -0.002692   0.001618
   34  F  3  X    0.074176  -0.192901  -0.190280  -0.200733   0.078130
   35  F  3  Y    0.319106   0.127060  -0.111755   0.382366   0.207051
   36  F  3  Z   -0.117031   0.183239  -0.229803  -0.186491   0.372867
   37  F  3  X    0.045243  -0.116963  -0.120497  -0.139925   0.047477
   38  F  3  Y    0.197309   0.080630  -0.073509   0.261430   0.149459
   39  F  3  Z   -0.072741   0.119225  -0.150884  -0.127282   0.262464
   40  F  3 XX    0.004916   0.005647   0.006968   0.008131  -0.002202
   41  F  3 YY   -0.005350  -0.007687   0.000738  -0.006030  -0.001617
   42  F  3 ZZ    0.000434   0.002040  -0.007706  -0.002100   0.003819
   43  F  3 XY   -0.010673  -0.003577   0.005507  -0.005270  -0.003838
   44  F  3 XZ    0.002562  -0.007386   0.006020   0.001715  -0.005237
   45  F  3 YZ    0.005748  -0.000018   0.003724   0.004862  -0.001014
   46  H  4  S   -0.033443  -0.044226  -0.179892   0.111940  -0.120600
   47  H  4  S   -0.012236  -0.015445  -0.051148   0.048665  -0.045107
   48  H  4  X   -0.004658   0.001251  -0.000876  -0.002694   0.003340
   49  H  4  Y    0.001735   0.005076  -0.001815  -0.001187  -0.005264
   50  H  4  Z    0.003348   0.002664   0.005986  -0.003287   0.000585
   51  H  5  S   -0.037151  -0.175436   0.055941   0.061495   0.195481
   52  H  5  S    0.015172  -0.059728   0.011712  -0.014617   0.067559
   53  H  5  X   -0.006356  -0.005231   0.001947   0.003427   0.000243
   54  H  5  Y    0.000060  -0.002851   0.003897  -0.000488   0.003672
   55  H  5  Z   -0.001482  -0.005460  -0.002653   0.003989   0.003048
   56  F  6  S   -0.028469   0.019077  -0.004135   0.000737   0.001889
   57  F  6  S    0.059953  -0.038996   0.008625  -0.000398  -0.007394
   58  F  6  S    0.086247  -0.053327   0.010323   0.000537  -0.000430
   59  F  6  X   -0.197386   0.335145  -0.120847  -0.164088  -0.101521
   60  F  6  Y   -0.264960   0.020184  -0.125457   0.419353  -0.150963
   61  F  6  Z   -0.130324   0.149842   0.241500   0.120941   0.400295
   62  F  6  X   -0.128447   0.212806  -0.079728  -0.111200  -0.062835
   63  F  6  Y   -0.164361   0.015516  -0.079983   0.283683  -0.108765
   64  F  6  Z   -0.082008   0.097277   0.155893   0.082055   0.278459
   65  F  6 XX   -0.000200   0.008895  -0.004320  -0.007808  -0.002756
   66  F  6 YY   -0.002178  -0.006695  -0.002243   0.007073  -0.001052
   67  F  6 ZZ    0.002378  -0.002201   0.006564   0.000736   0.003808
   68  F  6 XY   -0.009846   0.002033  -0.005480   0.006484  -0.003515
   69  F  6 XZ   -0.004580   0.006651   0.007627   0.000915   0.005716
   70  F  6 YZ   -0.004698   0.001240   0.004013   0.004132   0.002396
   71  H  7  S   -0.078502  -0.110560   0.216947  -0.049977  -0.059304
   72  H  7  S   -0.018156  -0.036358   0.055395  -0.023055  -0.019957
   73  H  7  X    0.005851  -0.003347   0.000252  -0.003581  -0.003732
   74  H  7  Y    0.000516  -0.005103  -0.006200  -0.000202   0.004061
   75  H  7  Z    0.005253   0.005295  -0.005270   0.001124  -0.001025
   76  H  8  S   -0.015434  -0.195936  -0.183598  -0.032687   0.135062
   77  H  8  S    0.015560  -0.057459  -0.040261   0.027762   0.047560
   78  H  8  X    0.008441   0.002350   0.004096   0.001207   0.000591
   79  H  8  Y   -0.000805   0.001358   0.007281  -0.000074  -0.001338
   80  H  8  Z   -0.001351  -0.008466  -0.000724  -0.002455   0.003111

                     16         17         18         19         20
                   -0.2919    -0.2907    -0.0173     0.0217     0.0529
                     A          A          A          A          A   
    1  C  1  S   -0.007573  -0.020555   0.057322   0.058507   0.100342
    2  C  1  S    0.018674   0.057523  -0.158388  -0.097079  -0.204134
    3  C  1  S    0.056212   0.071302  -0.103666  -0.939326  -1.328130
    4  C  1  X    0.103478   0.141751   0.374206   0.011292   0.095155
    5  C  1  Y   -0.031932  -0.196263   0.190812  -0.147943  -0.110940
    6  C  1  Z   -0.204648   0.015019   0.102667  -0.174088   0.193250
    7  C  1  X    0.031332  -0.000699   0.546239   0.001389   0.038031
    8  C  1  Y   -0.044741  -0.066610   0.222077  -0.375902  -0.336890
    9  C  1  Z   -0.030586  -0.008850   0.089370  -0.380482   0.453206
   10  C  1 XX    0.009680   0.011258   0.031941  -0.006304  -0.006026
   11  C  1 YY    0.001675  -0.006375  -0.019499  -0.008926   0.012669
   12  C  1 ZZ   -0.011355  -0.004884  -0.012442   0.015229  -0.006643
   13  C  1 XY    0.003686  -0.016781   0.023446  -0.000865   0.011082
   14  C  1 XZ   -0.004684   0.000682   0.015602  -0.010482   0.010237
   15  C  1 YZ   -0.018366   0.000794   0.018477   0.010835  -0.020074
   16  C  2  S   -0.005689  -0.021052  -0.022895   0.059249  -0.001386
   17  C  2  S    0.017704   0.057564   0.067309  -0.100670  -0.023722
   18  C  2  S   -0.000353   0.104924  -0.118907  -0.932438   0.220546
   19  C  2  X    0.000241  -0.178480   0.193447  -0.024285  -0.148181
   20  C  2  Y    0.111864   0.159152   0.126429   0.119315  -0.047054
   21  C  2  Z    0.163717  -0.124783  -0.059601  -0.184913   0.170889
   22  C  2  X    0.023752  -0.024862   0.361605  -0.016344  -0.231334
   23  C  2  Y    0.013658   0.081795   0.173401   0.322223  -0.045405
   24  C  2  Z    0.023962  -0.041654  -0.021668  -0.413066   0.389434
   25  C  2 XX   -0.000856   0.013821  -0.032699  -0.004175   0.012272
   26  C  2 YY   -0.007641  -0.001623   0.028495  -0.011833  -0.001068
   27  C  2 ZZ    0.008497  -0.012198   0.004205   0.016008  -0.011204
   28  C  2 XY   -0.013650  -0.010734  -0.014866   0.000862   0.016408
   29  C  2 XZ   -0.002297   0.002303   0.011384   0.010342  -0.020316
   30  C  2 YZ   -0.013108   0.009362   0.020999  -0.008859   0.010488
   31  F  3  S    0.002340  -0.000461   0.043161   0.010903  -0.017087
   32  F  3  S   -0.006279   0.005737  -0.089379  -0.021258   0.030286
   33  F  3  S   -0.013088  -0.021623  -0.300931  -0.084565   0.153292
   34  F  3  X    0.060258   0.231354   0.193417   0.013915  -0.072782
   35  F  3  Y   -0.237799  -0.203118   0.046490  -0.036448  -0.122447
   36  F  3  Z   -0.252555   0.204979  -0.091868   0.041168   0.052109
   37  F  3  X    0.035492   0.167769   0.178551   0.023811  -0.066030
   38  F  3  Y   -0.161286  -0.141399   0.049539  -0.046886  -0.110890
   39  F  3  Z   -0.175973   0.138564  -0.084882   0.049409   0.031998
   40  F  3 XX   -0.000677  -0.003438   0.000764   0.000790  -0.004415
   41  F  3 YY    0.002360   0.001944   0.000547  -0.001966   0.003092
   42  F  3 ZZ   -0.001684   0.001494  -0.001311   0.001176   0.001323
   43  F  3 XY    0.001607   0.001020  -0.000546  -0.001020  -0.003558
   44  F  3 XZ    0.003462  -0.001508  -0.002188   0.004701   0.000001
   45  F  3 YZ   -0.001383  -0.001369   0.001868   0.001541   0.000132
   46  H  4  S    0.151083  -0.187154  -0.034838   0.095793  -0.102814
   47  H  4  S    0.085986  -0.098007  -0.090896   1.158061  -0.764655
   48  H  4  X   -0.000976  -0.002326   0.010815   0.002241  -0.014142
   49  H  4  Y    0.004093   0.001587   0.005656  -0.000031   0.003968
   50  H  4  Z   -0.001557   0.004637  -0.000058   0.019532  -0.007065
   51  H  5  S   -0.206579   0.006364   0.125722  -0.003600   0.032826
   52  H  5  S   -0.126664  -0.031612   0.401127   0.174267   0.221594
   53  H  5  X   -0.000211  -0.001572   0.009368  -0.002863  -0.007369
   54  H  5  Y   -0.004648   0.003575  -0.003740   0.002122  -0.004026
   55  H  5  Z   -0.000892  -0.003255  -0.008621  -0.008886   0.004467
   56  F  6  S   -0.002028   0.000618  -0.059548   0.012426  -0.015055
   57  F  6  S    0.007411   0.002130   0.118106  -0.024083   0.026302
   58  F  6  S   -0.000042  -0.022605   0.411728  -0.094412   0.121268
   59  F  6  X   -0.096399  -0.268272   0.296216  -0.023479   0.112898
   60  F  6  Y   -0.041644   0.371475   0.154713   0.031562   0.105920
   61  F  6  Z    0.407285  -0.011377   0.121496   0.027649   0.015720
   62  F  6  X   -0.074419  -0.189096   0.277575  -0.034048   0.120437
   63  F  6  Y   -0.026367   0.253528   0.148479   0.039139   0.113332
   64  F  6  Z    0.279278  -0.011271   0.110758   0.032282   0.003287
   65  F  6 XX   -0.001803  -0.004414  -0.001760   0.000470  -0.003077
   66  F  6 YY   -0.000837   0.004154   0.000545  -0.001901  -0.000364
   67  F  6 ZZ    0.002640   0.000260   0.001215   0.001431   0.003441
   68  F  6 XY   -0.000510   0.002355  -0.002040  -0.001520  -0.006280
   69  F  6 XZ    0.004727  -0.001197  -0.002509  -0.003906   0.001214
   70  F  6 YZ    0.000904   0.001730   0.000476  -0.001119  -0.003077
   71  H  7  S   -0.235041  -0.058783   0.020214   0.101028  -0.033435
   72  H  7  S   -0.128681  -0.028288   0.091680   1.168301   0.106828
   73  H  7  X    0.000104   0.002378   0.018813  -0.001882   0.006124
   74  H  7  Y    0.002252  -0.003741   0.007536   0.001944  -0.000589
   75  H  7  Z    0.003598   0.002982  -0.000038   0.019756   0.003047
   76  H  8  S    0.165757  -0.119405  -0.071605   0.000250   0.162783
   77  H  8  S    0.084836  -0.095810  -0.223966   0.198557   1.637784
   78  H  8  X    0.001596   0.001486   0.015140   0.002155   0.007575
   79  H  8  Y   -0.005799  -0.000842   0.000947  -0.002760   0.020533
   80  H  8  Z   -0.000733  -0.003275   0.011331  -0.009476  -0.009395

                     21         22         23         24         25
                    0.0629     0.0996     0.1096     0.1765     0.3401
                     A          A          A          A          A   
    1  C  1  S   -0.043614  -0.019007   0.029216   0.075358   0.010002
    2  C  1  S    0.074658   0.090583  -0.035678  -0.100030  -0.148572
    3  C  1  S    0.600862  -0.116856  -0.755042  -1.864083  -0.503055
    4  C  1  X   -0.002034  -0.263089   0.003328  -0.180114  -0.190105
    5  C  1  Y    0.022461  -0.210617   0.119948   0.324052   0.349144
    6  C  1  Z    0.128727   0.014152  -0.291222   0.128818   0.040896
    7  C  1  X   -0.061745  -0.556939  -0.203976  -1.433778   0.174797
    8  C  1  Y    0.034311  -0.555118   0.483442   1.400384  -1.049783
    9  C  1  Z    0.344543   0.029850  -0.950764   0.342848  -0.098350
   10  C  1 XX    0.004009   0.006252   0.003574   0.022671  -0.025535
   11  C  1 YY   -0.001042  -0.016865   0.000258   0.009014  -0.031749
   12  C  1 ZZ   -0.002967   0.010613  -0.003832  -0.031685   0.057283
   13  C  1 XY    0.006451  -0.014324  -0.010652  -0.031376   0.042185
   14  C  1 XZ    0.008902  -0.007991   0.011090   0.005858  -0.007174
   15  C  1 YZ   -0.014810   0.000525   0.006195   0.007845   0.001499
   16  C  2  S    0.106385  -0.052309  -0.016318  -0.082563   0.010702
   17  C  2  S   -0.206156   0.150603  -0.002541   0.125246  -0.164271
   18  C  2  S   -1.458973   0.312200   0.670996   1.921149  -0.361733
   19  C  2  X   -0.059891   0.346526  -0.071056  -0.165169   0.209675
   20  C  2  Y    0.158026   0.202258   0.106819   0.332365  -0.357676
   21  C  2  Z    0.143045   0.059247   0.288461  -0.160701   0.068114
   22  C  2  X   -0.029734   0.871454  -0.374887  -1.289157  -0.274387
   23  C  2  Y    0.448829   0.536458   0.461131   1.464987   1.153305
   24  C  2  Z    0.311241   0.181738   0.927760  -0.490549  -0.195400
   25  C  2 XX    0.001082  -0.003355  -0.003769  -0.024440  -0.018490
   26  C  2 YY    0.006633  -0.006765   0.004873  -0.008778  -0.035141
   27  C  2 ZZ   -0.007715   0.010120  -0.001104   0.033219   0.053631
   28  C  2 XY    0.010577  -0.019296   0.017323   0.026997   0.042318
   29  C  2 XZ   -0.010036   0.018655   0.005687   0.006980   0.005227
   30  C  2 YZ    0.009874   0.012816   0.006156   0.011738   0.008580
   31  F  3  S   -0.018133   0.065094  -0.024704   0.012421   0.004716
   32  F  3  S    0.033969  -0.118463   0.051024  -0.018108   0.007173
   33  F  3  S    0.148018  -0.574712   0.190912  -0.133754  -0.129289
   34  F  3  X   -0.124746   0.175089  -0.033709   0.134398   0.026440
   35  F  3  Y   -0.079994   0.126768  -0.049994  -0.050999  -0.079248
   36  F  3  Z    0.030755  -0.100805  -0.041601  -0.009377   0.052898
   37  F  3  X   -0.140123   0.223968  -0.048468   0.207097   0.101010
   38  F  3  Y   -0.104871   0.130009  -0.086798  -0.104862  -0.135613
   39  F  3  Z    0.020153  -0.148212  -0.062253   0.011665   0.004310
   40  F  3 XX   -0.002420  -0.001613   0.000604   0.010044  -0.006231
   41  F  3 YY   -0.001067  -0.001126  -0.004249  -0.011543  -0.001269
   42  F  3 ZZ    0.003487   0.002739   0.003645   0.001499   0.007500
   43  F  3 XY   -0.005559   0.003441  -0.001231   0.004248   0.003867
   44  F  3 XZ   -0.000380  -0.004176  -0.006543  -0.001464   0.006513
   45  F  3 YZ    0.003254  -0.003102   0.002236   0.005101   0.000571
   46  H  4  S   -0.003067   0.005263  -0.014306   0.091150   0.319122
   47  H  4  S    0.400969  -0.744094  -1.327217   0.903551  -0.001935
   48  H  4  X   -0.004507   0.017483  -0.008412  -0.001249  -0.009354
   49  H  4  Y   -0.001198   0.012928   0.010984   0.011785   0.020028
   50  H  4  Z    0.005398  -0.008417  -0.009384   0.017244   0.002373
   51  H  5  S    0.107153  -0.029311   0.054907   0.070905   0.212915
   52  H  5  S    1.630697   0.745818   1.119493   0.045775   0.182168
   53  H  5  X   -0.007764   0.010695  -0.011942  -0.012626  -0.014049
   54  H  5  Y   -0.019745  -0.001539  -0.011846   0.011501   0.023409
   55  H  5  Z   -0.008517  -0.017341  -0.004528  -0.014867  -0.013374
   56  F  6  S    0.012037   0.042634   0.010025  -0.002345   0.005608
   57  F  6  S   -0.026278  -0.076846  -0.024739   0.003337   0.002114
   58  F  6  S   -0.075374  -0.363856  -0.058118   0.015657  -0.119780
   59  F  6  X   -0.044411  -0.113417   0.003220   0.108670  -0.032230
   60  F  6  Y    0.052874  -0.111015  -0.003641  -0.066340   0.088292
   61  F  6  Z   -0.005085  -0.036539   0.054920   0.007753   0.045124
   62  F  6  X   -0.060865  -0.146813  -0.000518   0.150143  -0.091939
   63  F  6  Y    0.033592  -0.100466  -0.033572  -0.116696   0.109568
   64  F  6  Z   -0.024962  -0.067035   0.080070  -0.017231  -0.007882
   65  F  6 XX   -0.002948  -0.000093  -0.000912  -0.009372  -0.002615
   66  F  6 YY    0.002633  -0.001039   0.004274   0.010740  -0.003043
   67  F  6 ZZ    0.000315   0.001132  -0.003362  -0.001368   0.005658
   68  F  6 XY   -0.001275   0.003962  -0.000907  -0.003108   0.000050
   69  F  6 XZ    0.001421   0.001162  -0.006287  -0.001314  -0.005688
   70  F  6 YZ    0.000683   0.003115   0.000331   0.003391  -0.000950
   71  H  7  S   -0.103157   0.028412   0.006737  -0.079112   0.328776
   72  H  7  S   -1.021565  -0.002013   1.385735  -0.920210  -0.042033
   73  H  7  X    0.005326  -0.013415  -0.003037  -0.004934   0.011353
   74  H  7  Y   -0.009626  -0.006244   0.014192   0.008675  -0.020081
   75  H  7  Z   -0.009227  -0.000371   0.009225  -0.018591   0.004260
   76  H  8  S    0.023567  -0.072188  -0.037186  -0.082403   0.216174
   77  H  8  S    0.072140   0.682024  -1.199265  -0.000412   0.139995
   78  H  8  X    0.000468  -0.006099  -0.009886  -0.014846   0.013881
   79  H  8  Y    0.000629  -0.001406  -0.009862   0.011708  -0.024357
   80  H  8  Z    0.000499  -0.014937   0.009044   0.011484  -0.011349

                     26         27         28         29         30
                    0.3750     0.3885     0.4180     0.4805     0.5346
                     A          A          A          A          A   
    1  C  1  S   -0.027997  -0.001074   0.003036   0.074361   0.009848
    2  C  1  S    0.227240  -0.060299  -0.089711  -0.529842  -0.118076
    3  C  1  S   -0.374561  -0.025661   0.239224   1.587834   0.394330
    4  C  1  X   -0.663981   0.194577   0.286417  -0.410101  -0.202432
    5  C  1  Y   -0.202458   0.055912   0.264678   0.420357   0.048102
    6  C  1  Z   -0.184397   0.064719   0.134812  -0.124803   0.383275
    7  C  1  X    0.712762  -0.270511  -0.994159   1.053575   0.445608
    8  C  1  Y    0.410066  -0.430919  -0.830699  -1.394341  -0.294524
    9  C  1  Z    0.596867   0.130392   0.151652   0.483932  -1.529419
   10  C  1 XX   -0.006562   0.019225   0.017376   0.007566  -0.001178
   11  C  1 YY    0.027330  -0.018411   0.014552   0.003857   0.024086
   12  C  1 ZZ   -0.020768  -0.000813  -0.031928  -0.011422  -0.022908
   13  C  1 XY   -0.003533   0.039351   0.008649  -0.058390  -0.003665
   14  C  1 XZ    0.012279   0.001325   0.028886  -0.025086   0.000875
   15  C  1 YZ   -0.047144  -0.060832  -0.065651  -0.027100  -0.017214
   16  C  2  S   -0.004086  -0.033282   0.005459  -0.071811  -0.028586
   17  C  2  S   -0.042136   0.252434  -0.109141   0.513220   0.211042
   18  C  2  S    0.000715  -0.262712   0.208105  -1.563176  -0.522906
   19  C  2  X   -0.024904   0.679913  -0.399338  -0.348929  -0.257505
   20  C  2  Y   -0.013650   0.182058  -0.263693   0.497445  -0.234464
   21  C  2  Z    0.010558  -0.220243   0.202982   0.073779  -0.759397
   22  C  2  X   -0.079788  -0.563959   1.148597   0.980966   0.682328
   23  C  2  Y    0.355579  -0.207299   0.799815  -1.483984   0.252369
   24  C  2  Z    0.154686   0.577450  -0.028502  -0.365120   2.278420
   25  C  2 XX    0.010608  -0.022456   0.029461  -0.017563   0.008454
   26  C  2 YY   -0.000574   0.042294   0.013075  -0.008238  -0.041662
   27  C  2 ZZ   -0.010034  -0.019838  -0.042536   0.025801   0.033209
   28  C  2 XY    0.038079  -0.027603   0.023251   0.056591  -0.009985
   29  C  2 XZ   -0.009615  -0.000374  -0.044532  -0.017844  -0.007794
   30  C  2 YZ    0.061603   0.044315   0.048630  -0.020859  -0.060342
   31  F  3  S    0.011283   0.000107   0.014820   0.015588   0.001683
   32  F  3  S   -0.029183  -0.067988   0.031079  -0.073289  -0.020900
   33  F  3  S   -0.074542   0.375498  -0.529644   0.042007   0.089897
   34  F  3  X   -0.007369   0.211525  -0.226327   0.054070   0.012348
   35  F  3  Y   -0.094892   0.128695  -0.010307   0.059491   0.001291
   36  F  3  Z   -0.089062  -0.154703  -0.024873   0.045336  -0.088580
   37  F  3  X    0.072953  -0.052504   0.049674  -0.054281  -0.061456
   38  F  3  Y   -0.047698  -0.004039   0.048326   0.110330  -0.051286
   39  F  3  Z   -0.036885  -0.035404  -0.088993   0.014210  -0.151862
   40  F  3 XX   -0.007258   0.022931  -0.027766   0.018794   0.011806
   41  F  3 YY    0.001954  -0.008733   0.009393  -0.010602   0.001944
   42  F  3 ZZ    0.005303  -0.014199   0.018372  -0.008192  -0.013749
   43  F  3 XY   -0.006713   0.032453  -0.017887  -0.008724   0.004950
   44  F  3 XZ   -0.005237  -0.029354   0.015969  -0.003912   0.011241
   45  F  3 YZ    0.008165  -0.014576   0.008931   0.002632   0.003681
   46  H  4  S   -0.272999  -0.379213  -0.396436  -0.125025  -0.018658
   47  H  4  S    0.131260   0.024932   0.206523  -0.114516  -1.641639
   48  H  4  X   -0.005202   0.007983  -0.010720  -0.037038   0.016927
   49  H  4  Y    0.036553   0.011210   0.026761   0.011100  -0.030440
   50  H  4  Z    0.003258  -0.005324  -0.021012  -0.016487   0.047055
   51  H  5  S    0.416988   0.139691   0.271182  -0.337177  -0.330538
   52  H  5  S    0.010653  -0.075322   0.013513  -0.424084   1.581705
   53  H  5  X    0.005422   0.015252  -0.003783  -0.013886   0.003137
   54  H  5  Y   -0.015334  -0.016950   0.003607   0.009440   0.074934
   55  H  5  Z   -0.001848  -0.001018   0.012820   0.002635   0.049788
   56  F  6  S   -0.010007   0.015864   0.016336  -0.015108   0.008156
   57  F  6  S   -0.044581  -0.025018   0.015486   0.071065  -0.017232
   58  F  6  S    0.453770  -0.202034  -0.455216  -0.017191  -0.112450
   59  F  6  X   -0.184943   0.055598   0.173425   0.029006   0.015264
   60  F  6  Y   -0.099082   0.087304  -0.017214   0.061424   0.016411
   61  F  6  Z   -0.130451  -0.083978  -0.054422  -0.057638   0.077815
   62  F  6  X    0.112259  -0.092938  -0.088067  -0.062354  -0.073011
   63  F  6  Y    0.047934   0.007415  -0.062644   0.101112  -0.028468
   64  F  6  Z   -0.005505  -0.044585  -0.086502  -0.020109   0.080571
   65  F  6 XX    0.021198  -0.011605  -0.023367  -0.013781  -0.011119
   66  F  6 YY   -0.006122   0.000993   0.006480   0.005858   0.005811
   67  F  6 ZZ   -0.015077   0.010613   0.016887   0.007923   0.005308
   68  F  6 XY    0.029086  -0.013044  -0.011538   0.005642   0.002331
   69  F  6 XZ    0.023335   0.002676  -0.007624  -0.000958   0.002886
   70  F  6 YZ    0.010736  -0.007030  -0.002590   0.001888  -0.000275
   71  H  7  S   -0.435881  -0.262907  -0.406518   0.188471  -0.038956
   72  H  7  S    0.014250   0.135117   0.251859   0.078428   1.046608
   73  H  7  X   -0.001243   0.004445   0.003108  -0.040677   0.027962
   74  H  7  Y   -0.012186  -0.038935  -0.028762   0.010312  -0.019631
   75  H  7  Z   -0.003182   0.004461  -0.017783   0.022494  -0.027353
   76  H  8  S    0.141912   0.424919   0.321267   0.414930   0.032870
   77  H  8  S   -0.087316   0.034731  -0.020745   0.349610  -0.689143
   78  H  8  X   -0.011107  -0.002293   0.002516  -0.012323  -0.012401
   79  H  8  Y    0.020612   0.011545  -0.000941   0.012941   0.035542
   80  H  8  Z    0.002033  -0.002176   0.010100  -0.011670  -0.016098

                     31         32         33         34         35
                    0.5375     0.5392     0.5549     0.5683     0.7838
                     A          A          A          A          A   
    1  C  1  S   -0.043001   0.002280  -0.040072   0.069023   0.024111
    2  C  1  S    0.275868   0.035706   0.342681  -0.479416  -1.273771
    3  C  1  S   -0.414699  -0.478300  -0.526574  -0.090311   2.454336
    4  C  1  X    0.088390   0.060562  -0.199008   0.030095  -0.135149
    5  C  1  Y    0.427297  -0.233836   0.195363  -0.439319   0.011500
    6  C  1  Z   -0.618077   0.041504   0.555421  -0.181899   0.035142
    7  C  1  X   -0.193313  -0.474235   0.645239  -0.669831   0.098646
    8  C  1  Y   -0.435000   0.664215   0.222709   1.269702   0.684023
    9  C  1  Z    1.407416   1.327874  -1.014051   0.184333  -0.124481
   10  C  1 XX    0.033026  -0.022853   0.033134  -0.081772  -0.015692
   11  C  1 YY   -0.012222   0.061338   0.031584   0.019837   0.016640
   12  C  1 ZZ   -0.020804  -0.038485  -0.064718   0.061935  -0.000948
   13  C  1 XY   -0.014391   0.042190   0.000806   0.002935   0.071957
   14  C  1 XZ    0.020084  -0.054261   0.026114  -0.006895  -0.003996
   15  C  1 YZ    0.081206  -0.065210  -0.030728   0.008018   0.020619
   16  C  2  S   -0.034399   0.004883  -0.050456  -0.074310   0.017623
   17  C  2  S    0.204016  -0.096672   0.412973   0.518610  -1.275863
   18  C  2  S   -0.280881   0.599453  -0.654599   0.063500   2.739360
   19  C  2  X    0.047243   0.033040   0.156784   0.053315   0.179921
   20  C  2  Y   -0.319348  -0.209858  -0.166575  -0.424133   0.016772
   21  C  2  Z   -0.172831  -0.132712   0.417345   0.196123   0.008983
   22  C  2  X   -0.043935  -0.432319  -0.571909  -0.687456  -0.187174
   23  C  2  Y    0.293779   0.540402  -0.317369   1.252737  -0.641835
   24  C  2  Z    0.059295  -1.222107  -0.825765  -0.248482  -0.034339
   25  C  2 XX    0.019670   0.017743   0.034435   0.081975  -0.007701
   26  C  2 YY    0.002045  -0.077478   0.014213  -0.018384   0.008818
   27  C  2 ZZ   -0.021715   0.059735  -0.048648  -0.063591  -0.001116
   28  C  2 XY   -0.011929  -0.046134  -0.010985  -0.008646   0.072130
   29  C  2 XZ   -0.017952  -0.035592  -0.033931  -0.013288  -0.005693
   30  C  2 YZ   -0.055086  -0.064302   0.001934   0.001535  -0.024513
   31  F  3  S    0.015079   0.008476   0.004889   0.010993   0.036574
   32  F  3  S   -0.064197  -0.007329  -0.045471  -0.033779  -0.165609
   33  F  3  S   -0.021606  -0.175918   0.147653  -0.056209  -0.156083
   34  F  3  X    0.010093   0.024206   0.082489  -0.013722   0.032405
   35  F  3  Y   -0.013473   0.084184   0.023243   0.030147  -0.098960
   36  F  3  Z    0.024576   0.204575   0.051041  -0.075983  -0.021033
   37  F  3  X    0.027091   0.084442   0.003224   0.093279   0.158826
   38  F  3  Y    0.009324   0.007170  -0.013266  -0.074365   0.202657
   39  F  3  Z   -0.019469   0.026528   0.078785   0.017275  -0.039965
   40  F  3 XX   -0.006505  -0.003138  -0.001213  -0.011633  -0.008575
   41  F  3 YY    0.011513   0.010123   0.002024   0.003174   0.005420
   42  F  3 ZZ   -0.005008  -0.006985  -0.000811   0.008459   0.003155
   43  F  3 XY    0.007959   0.012575   0.003694   0.008446  -0.036651
   44  F  3 XZ    0.002474   0.017678  -0.002623  -0.005386   0.014860
   45  F  3 YZ   -0.000004   0.011566  -0.008424  -0.003675   0.012232
   46  H  4  S   -0.214495   0.637333  -0.362255  -0.575670  -0.360835
   47  H  4  S   -0.018899   0.155179   1.023508   1.203134  -0.488133
   48  H  4  X   -0.029143  -0.020484  -0.015022  -0.000231  -0.018695
   49  H  4  Y   -0.014811  -0.017180  -0.009605   0.015491  -0.027114
   50  H  4  Z   -0.014060   0.024354  -0.078708  -0.073103   0.015529
   51  H  5  S   -0.483234  -0.578010  -0.455993  -0.332219  -0.377620
   52  H  5  S    0.637697   0.427988  -0.288417   0.855208  -0.916668
   53  H  5  X    0.017930   0.040448   0.001454   0.010118  -0.040813
   54  H  5  Y    0.032335   0.042287   0.009039   0.033044  -0.023802
   55  H  5  Z    0.048233  -0.022146   0.019228   0.049329   0.004047
   56  F  6  S    0.011651  -0.009356   0.001732  -0.008876   0.033625
   57  F  6  S   -0.058402   0.013243  -0.033952   0.027272  -0.157757
   58  F  6  S    0.030424   0.152754   0.142938   0.054163  -0.100468
   59  F  6  X   -0.011716   0.026063  -0.066613  -0.013205  -0.059898
   60  F  6  Y    0.014642   0.065938   0.007991   0.028301   0.087038
   61  F  6  Z   -0.040730  -0.206898   0.036873   0.066251  -0.031115
   62  F  6  X    0.006819   0.088762   0.010274   0.082223  -0.109009
   63  F  6  Y    0.032708  -0.004789   0.026133  -0.072865  -0.191272
   64  F  6  Z   -0.094157  -0.020679   0.091990  -0.019889  -0.008687
   65  F  6 XX   -0.001254   0.003538  -0.000861   0.008199  -0.005715
   66  F  6 YY    0.008325  -0.007905   0.001570  -0.000817   0.001839
   67  F  6 ZZ   -0.007070   0.004368  -0.000709  -0.007382   0.003876
   68  F  6 XY    0.006866  -0.010829   0.002299  -0.007139  -0.035521
   69  F  6 XZ   -0.006496   0.018045   0.004466  -0.005540  -0.009247
   70  F  6 YZ   -0.003169   0.012661   0.008139  -0.003487  -0.011139
   71  H  7  S   -0.196118  -0.532920  -0.475260   0.548390  -0.324429
   72  H  7  S   -0.873012  -0.387902   1.271759  -1.220628  -0.478025
   73  H  7  X    0.010155  -0.025022   0.012583   0.002045   0.020138
   74  H  7  Y    0.032637  -0.013015  -0.006674   0.023305   0.028090
   75  H  7  Z    0.008372  -0.006445  -0.089728   0.070231   0.012562
   76  H  8  S   -0.616913   0.589358  -0.282323   0.300894  -0.341365
   77  H  8  S    1.534506  -0.330750  -0.575212  -0.795805  -0.912640
   78  H  8  X   -0.015854   0.042025   0.004749   0.005155   0.037702
   79  H  8  Y   -0.066743   0.041139   0.014979   0.026620   0.024968
   80  H  8  Z    0.079362   0.016303   0.015443  -0.048946  -0.000668

                     36         37         38         39         40
                    0.9096     0.9609     0.9866     1.0312     1.1294
                     A          A          A          A          A   
    1  C  1  S    0.012747   0.000727   0.012836  -0.021551   0.024682
    2  C  1  S    0.616363   0.191434   0.405497  -0.029094   1.186598
    3  C  1  S   -3.086742  -0.372700  -1.900459   1.481162  -4.687519
    4  C  1  X    0.088243   0.064448   0.075204  -0.186913  -0.190332
    5  C  1  Y    0.121486   0.027093  -0.003192  -0.167070  -0.033056
    6  C  1  Z    0.040007   0.050960   0.074378  -0.062435  -0.033582
    7  C  1  X   -0.728946  -0.109236  -0.371826   0.239879  -1.192965
    8  C  1  Y    0.647581  -0.014235   0.312688  -0.171165   1.058990
    9  C  1  Z    0.061932  -0.162761  -0.412804   0.041992  -0.696597
   10  C  1 XX   -0.179922   0.034859   0.029766   0.046141   0.017345
   11  C  1 YY    0.162576   0.063016  -0.099108   0.057704  -0.052137
   12  C  1 ZZ    0.017346  -0.097875   0.069342  -0.103845   0.034792
   13  C  1 XY   -0.029041   0.020794  -0.032266   0.095399   0.038257
   14  C  1 XZ    0.048408  -0.189091  -0.074075   0.085383   0.020969
   15  C  1 YZ    0.015665   0.093397  -0.060434   0.055898   0.023782
   16  C  2  S   -0.015260   0.000423  -0.015981   0.004207  -0.030595
   17  C  2  S   -0.485858   0.168619  -0.149221   0.529408  -1.139991
   18  C  2  S    3.093084  -0.344111   1.915671  -1.211221   4.735506
   19  C  2  X    0.147971  -0.080689   0.199803   0.143764  -0.152314
   20  C  2  Y    0.174234  -0.027566   0.081442   0.114603  -0.001018
   21  C  2  Z   -0.091759   0.050350  -0.111139  -0.029530   0.026273
   22  C  2  X   -0.745840   0.084050  -0.314568   0.363028  -1.087906
   23  C  2  Y    0.631877  -0.003142   0.299195  -0.336968   1.113529
   24  C  2  Z   -0.125583  -0.229020   0.311032  -0.183851   0.670808
   25  C  2 XX    0.178201   0.056678   0.013324   0.032692  -0.015513
   26  C  2 YY   -0.149340   0.016037   0.091171   0.003257   0.066416
   27  C  2 ZZ   -0.028861  -0.072715  -0.104495  -0.035948  -0.050903
   28  C  2 XY    0.052505   0.025642   0.075085   0.067493  -0.050186
   29  C  2 XZ    0.000230   0.187488  -0.106519  -0.057120   0.017955
   30  C  2 YZ    0.022484  -0.098129  -0.118913  -0.023427   0.028940
   31  F  3  S    0.044774  -0.004364   0.052432   0.024373   0.012100
   32  F  3  S   -0.166372   0.009288  -0.256328  -0.135761  -0.055707
   33  F  3  S   -0.266979   0.020216  -0.079723   0.107132  -0.249339
   34  F  3  X   -0.471106   0.028755  -0.167398  -0.293763   0.275202
   35  F  3  Y    0.177649  -0.324672  -0.520215  -0.205260   0.168960
   36  F  3  Z   -0.059417  -0.426298   0.264739   0.161725   0.201002
   37  F  3  X    0.841319  -0.095972   0.480059   0.458524  -0.263272
   38  F  3  Y   -0.071058   0.364010   0.747424   0.327120  -0.253933
   39  F  3  Z   -0.052727   0.521273  -0.459436  -0.231451  -0.379642
   40  F  3 XX   -0.018861  -0.005720   0.018402   0.033089  -0.057945
   41  F  3 YY   -0.001641  -0.008225  -0.012206  -0.010599  -0.003011
   42  F  3 ZZ    0.020502   0.013946  -0.006195  -0.022490   0.060956
   43  F  3 XY    0.023624  -0.011134   0.016656   0.019966  -0.025993
   44  F  3 XZ   -0.002236  -0.004507  -0.011646  -0.025222   0.022905
   45  F  3 YZ   -0.005276  -0.014013  -0.003825  -0.011693   0.014786
   46  H  4  S   -0.181108   0.096263  -0.213796   0.188249  -0.600199
   47  H  4  S   -0.131846   0.172073  -0.286837   0.178870  -0.411132
   48  H  4  X    0.032598   0.121024  -0.057428  -0.026915   0.018748
   49  H  4  Y    0.031290  -0.038542  -0.090769  -0.019351  -0.000210
   50  H  4  Z    0.024670  -0.040376  -0.006015  -0.003946   0.022352
   51  H  5  S   -0.223809   0.031711  -0.180127   0.218491  -0.320687
   52  H  5  S   -0.237770   0.008762   0.124542  -0.195406   0.020302
   53  H  5  X   -0.066519  -0.097100  -0.011837  -0.007702   0.017669
   54  H  5  Y    0.025487   0.001078  -0.073820  -0.007668  -0.044943
   55  H  5  Z   -0.034438   0.034576   0.084295   0.017625   0.038265
   56  F  6  S   -0.038664  -0.002944  -0.028801   0.059416  -0.008053
   57  F  6  S    0.159785   0.006090   0.149528  -0.345506   0.012847
   58  F  6  S    0.187804   0.010696   0.046000   0.081051   0.245744
   59  F  6  X   -0.384706  -0.068259   0.030256   0.391478   0.275468
   60  F  6  Y    0.200661   0.331946  -0.323289   0.427097   0.292373
   61  F  6  Z    0.106192  -0.407965  -0.147564   0.233450  -0.144659
   62  F  6  X    0.672660   0.124283   0.111319  -0.710593  -0.216925
[...]
   27  C  2 ZZ   -0.001844  -0.002006  -0.013879  -0.030925   0.048280
   28  C  2 XY    0.004220  -0.015140   0.020625  -0.028271   0.047902
   29  C  2 XZ   -0.002075  -0.008774  -0.019429  -0.006628   0.001038
   30  C  2 YZ   -0.004429  -0.006617  -0.003835  -0.012007   0.023250
   31  F  3  S   -0.022851   0.016305  -0.059555  -0.011134   0.005949
   32  F  3  S    0.044352  -0.034875   0.105179   0.018146  -0.000496
   33  F  3  S    0.177725  -0.118745   0.546376   0.108244  -0.117411
   34  F  3  X   -0.120002   0.011004  -0.156727  -0.130214   0.029504
   35  F  3  Y   -0.024513   0.032134  -0.145195   0.063570  -0.076825
   36  F  3  Z    0.031847   0.056237   0.080201   0.012732   0.018065
   37  F  3  X   -0.141398   0.022135  -0.207271  -0.202199   0.093110
   38  F  3  Y   -0.051479   0.068822  -0.143260   0.113957  -0.134656
   39  F  3  Z    0.043427   0.079889   0.120719  -0.014865  -0.013651
   40  F  3 XX    0.000770  -0.001008  -0.000029  -0.009469  -0.006284
   41  F  3 YY   -0.002370   0.005033   0.002244   0.011007  -0.001245
   42  F  3 ZZ    0.001600  -0.004025  -0.002214  -0.001538   0.007529
   43  F  3 XY   -0.002589   0.000583  -0.004909  -0.003371   0.004728
   44  F  3 XZ    0.001198   0.006986   0.002581   0.001494   0.004010
   45  F  3 YZ    0.002480  -0.002045   0.003679  -0.005076   0.000839
   46  H  4  S    0.065037   0.012034  -0.053630  -0.061131   0.192072
   47  H  4  S    0.947331   1.229782   0.328780  -0.949403   0.081149
   48  H  4  X    0.000266   0.006624  -0.018457   0.002602  -0.013321
   49  H  4  Y   -0.007154  -0.012555  -0.009422  -0.012185   0.030002
   50  H  4  Z    0.010301   0.008033   0.004735  -0.018128   0.000558
   51  H  5  S    0.043504  -0.049694   0.063329  -0.085157   0.310424
   52  H  5  S    0.893465  -1.226613  -0.449696   0.052721   0.109912
   53  H  5  X   -0.005174   0.011049  -0.009344   0.012887  -0.011583
   54  H  5  Y   -0.011079   0.011213  -0.004359  -0.011942   0.020047
   55  H  5  Z   -0.004916   0.007612   0.016300   0.012010  -0.011009
   56  F  6  S    0.022692  -0.017022  -0.059429   0.011231   0.005992
   57  F  6  S   -0.044134   0.036187   0.104893  -0.018293  -0.000534
   58  F  6  S   -0.176013   0.125097   0.545708  -0.109340  -0.118030
   59  F  6  X   -0.118455   0.012176   0.157418  -0.130614  -0.029475
   60  F  6  Y   -0.025053   0.027564   0.153199   0.061674   0.078170
   61  F  6  Z   -0.027067  -0.059025   0.062391  -0.018055   0.009785
   62  F  6  X   -0.140003   0.023506   0.208343  -0.202487  -0.093758
   63  F  6  Y   -0.053109   0.061382   0.155359   0.114746   0.132171
   64  F  6  Z   -0.036062  -0.086262   0.102638   0.004533  -0.027175
   65  F  6 XX   -0.000887   0.001167  -0.000078   0.009494  -0.006378
   66  F  6 YY    0.002827  -0.005297   0.001541  -0.011832  -0.001308
   67  F  6 ZZ   -0.001939   0.004131  -0.001463   0.002338   0.007686
   68  F  6 XY    0.002598   0.000120  -0.005221   0.003473   0.004280
   69  F  6 XZ    0.000944   0.007034  -0.002130   0.001000  -0.004296
   70  F  6 YZ    0.001847  -0.000890  -0.004082  -0.003390   0.000260
   71  H  7  S   -0.067356  -0.012564  -0.053487   0.061588   0.192128
   72  H  7  S   -0.961438  -1.224814   0.345200   0.948027   0.081652
   73  H  7  X    0.000377   0.006741   0.018439   0.002804   0.013353
   74  H  7  Y   -0.008415  -0.013230   0.010037  -0.010100  -0.029767
   75  H  7  Z   -0.009527  -0.006635   0.003543   0.019314   0.003690
   76  H  8  S   -0.040873   0.050425   0.062996   0.084518   0.309663
   77  H  8  S   -0.859248   1.220317  -0.466424  -0.050901   0.110774
   78  H  8  X   -0.004960   0.011071   0.009449   0.012762   0.011485
   79  H  8  Y   -0.010093   0.010376   0.005965  -0.013215  -0.021159
   80  H  8  Z    0.005951  -0.008724   0.015731  -0.010811  -0.008873

                     26         27
                    0.3795     0.3919
                     A          A   
    1  C  1  S    0.027399  -0.018663
    2  C  1  S   -0.138333   0.194499
    3  C  1  S    0.005107  -0.151035
    4  C  1  X    0.286729  -0.580771
    5  C  1  Y    0.130283  -0.177902
    6  C  1  Z    0.093491  -0.184111
    7  C  1  X   -0.061640   0.577579
    8  C  1  Y   -0.068797   0.407749
    9  C  1  Z   -0.532608   0.257649
   10  C  1 XX   -0.004548  -0.030451
   11  C  1 YY   -0.014077   0.034284
   12  C  1 ZZ    0.018625  -0.003833
   13  C  1 XY   -0.005879  -0.047680
   14  C  1 XZ   -0.021411  -0.003185
   15  C  1 YZ    0.087572   0.003401
   16  C  2  S    0.027485   0.018555
   17  C  2  S   -0.139386  -0.193912
   18  C  2  S    0.009786   0.151871
   19  C  2  X   -0.286642  -0.578257
   20  C  2  Y   -0.119581  -0.155694
   21  C  2  Z    0.111055   0.209356
   22  C  2  X    0.054136   0.575567
   23  C  2  Y    0.013944   0.375807
   24  C  2  Z   -0.538367  -0.306407
   25  C  2 XX   -0.004093   0.030364
   26  C  2 YY   -0.030353  -0.033136
   27  C  2 ZZ    0.034446   0.002772
   28  C  2 XY   -0.004393   0.046978
   29  C  2 XZ    0.022433  -0.008892
   30  C  2 YZ   -0.081157   0.007866
   31  F  3  S   -0.011692   0.009479
   32  F  3  S    0.060545   0.032727
   33  F  3  S   -0.083960  -0.385011
   34  F  3  X   -0.071160  -0.188043
   35  F  3  Y   -0.045090  -0.148735
   36  F  3  Z    0.172601   0.055074
   37  F  3  X   -0.009993   0.084613
   38  F  3  Y   -0.012849  -0.008451
   39  F  3  Z    0.079138  -0.010308
   40  F  3 XX   -0.004249  -0.023715
   41  F  3 YY    0.000745   0.007767
   42  F  3 ZZ    0.003504   0.015948
   43  F  3 XY   -0.011795  -0.031082
   44  F  3 XZ    0.019165   0.019476
   45  F  3 YZ    0.001759   0.016211
   46  H  4  S    0.612998   0.039381
   47  H  4  S   -0.140529   0.058437
   48  H  4  X   -0.000377  -0.011582
   49  H  4  Y   -0.032165   0.016736
   50  H  4  Z    0.006643   0.003447
   51  H  5  S   -0.368658   0.155546
   52  H  5  S    0.085450   0.058598
   53  H  5  X   -0.019328  -0.008806
   54  H  5  Y    0.025056   0.002300
   55  H  5  Z   -0.005380   0.001999
   56  F  6  S   -0.011735  -0.009438
   57  F  6  S    0.060448  -0.032867
   58  F  6  S   -0.082541   0.384906
   59  F  6  X    0.072858  -0.188627
   60  F  6  Y    0.063137  -0.154250
   61  F  6  Z    0.165783  -0.036399
   62  F  6  X    0.011568   0.084737
   63  F  6  Y    0.021348  -0.007623
   64  F  6  Z    0.077277   0.009789
   65  F  6 XX   -0.004570   0.024075
   66  F  6 YY    0.000443  -0.004777
   67  F  6 ZZ    0.004127  -0.019298
   68  F  6 XY   -0.013782   0.033263
   69  F  6 XZ   -0.017586   0.015348
   70  F  6 YZ   -0.001154   0.014367
   71  H  7  S    0.612563  -0.041500
   72  H  7  S   -0.141732  -0.058121
   73  H  7  X    0.000447  -0.011649
   74  H  7  Y    0.032754   0.016183
   75  H  7  Z    0.002963  -0.005155
   76  H  8  S   -0.370526  -0.154586
   77  H  8  S    0.085990  -0.059155
   78  H  8  X    0.019230  -0.008867
   79  H  8  Y   -0.025495   0.002177
   80  H  8  Z   -0.002765  -0.002100

     ---------------------------------------------------------------------
     PROPERTIES FOR THE PBE      DFT FUNCTIONAL (RHF  TYPE) DENSITY MATRIX
     ---------------------------------------------------------------------

          -----------------
          ENERGY COMPONENTS
          -----------------

         WAVEFUNCTION NORMALIZATION =       1.0000000000

                ONE ELECTRON ENERGY =    -630.8872042916
                TWO ELECTRON ENERGY =     228.3862973505
           NUCLEAR REPULSION ENERGY =     124.5667607258
                                      ------------------
                       TOTAL ENERGY =    -277.9341462153

 ELECTRON-ELECTRON POTENTIAL ENERGY =     228.3862973505
  NUCLEUS-ELECTRON POTENTIAL ENERGY =    -907.9570401376
   NUCLEUS-NUCLEUS POTENTIAL ENERGY =     124.5667607258
                                      ------------------
             TOTAL POTENTIAL ENERGY =    -555.0039820613
               TOTAL KINETIC ENERGY =     277.0698358460
                 VIRIAL RATIO (V/T) =       2.0031194676

          ---------------------------------------
          MULLIKEN AND LOWDIN POPULATION ANALYSES
          ---------------------------------------

     ATOMIC MULLIKEN POPULATION IN EACH MOLECULAR ORBITAL

                      1          2          3          4          5

                  2.000000   2.000000   2.000000   2.000000   2.000000

    1             0.001291  -0.000132   1.353837   0.645927   0.111691
    2            -0.000124   0.001283   0.645469   1.354295   0.105388
    3             0.007372   1.991471  -0.000159  -0.000347   0.848122
    4            -0.000002   0.000002   0.000184   0.000133   0.002764
    5             0.000012  -0.000014   0.000302   0.000124   0.006471
    6             1.991462   0.007381  -0.000341  -0.000167   0.916017
    7             0.000005  -0.000006   0.000288   0.000030   0.002971
    8            -0.000016   0.000014   0.000420   0.000005   0.006576

                      6          7          8          9         10

                  2.000000   2.000000   2.000000   2.000000   2.000000

    1             0.084898   0.699499   0.484172   0.514512   0.346068
    2             0.091008   0.699622   0.484145   0.515992   0.342583
    3             0.943059   0.168817   0.253040   0.237268   0.559473
    4             0.002350   0.069488   0.123517   0.188157   0.015506
    5             0.000841   0.062005   0.139106   0.056081   0.081157
    6             0.874980   0.169060   0.253419   0.245121   0.556601
    7             0.002150   0.069527   0.123527   0.190780   0.012813
    8             0.000714   0.061982   0.139074   0.052090   0.085799

                     11         12         13         14         15

                  2.000000   2.000000   2.000000   2.000000   2.000000

    1             0.377851   0.347693   0.300501   0.053918   0.127174
    2             0.378155   0.349087   0.301461   0.054122   0.125974
    3             0.615986   0.452159   0.488840   0.906745   0.719050
    4             0.003102   0.033782   0.155806   0.028228   0.042048
    5             0.003303   0.167055   0.054538   0.010560   0.109717
    6             0.615269   0.450174   0.489272   0.907388   0.722130
    7             0.003039   0.033268   0.155807   0.028368   0.042979
    8             0.003294   0.166782   0.053775   0.010671   0.110927

                     16         17

                  2.000000   2.000000

    1             0.163449   0.270711
    2             0.165215   0.269495
    3             0.519655   0.620405
    4             0.161698   0.069343
    5             0.156964   0.041675
    6             0.516608   0.616322
    7             0.157648   0.073040
    8             0.158765   0.039009

               ----- POPULATIONS IN EACH AO -----
                             MULLIKEN      LOWDIN
              1  C  1  S      1.99340     1.97169
              2  C  1  S      0.76118     0.38651
              3  C  1  S      0.37691     0.28230
              4  C  1  X      0.59637     0.54985
              5  C  1  Y      0.70778     0.64308
              6  C  1  Z      0.75685     0.68046
              7  C  1  X      0.11685     0.22566
              8  C  1  Y      0.22633     0.32525
              9  C  1  Z      0.28527     0.38433
             10  C  1 XX      0.00927     0.16327
             11  C  1 YY      0.01285     0.15022
             12  C  1 ZZ      0.01799     0.15534
             13  C  1 XY      0.01114     0.03642
             14  C  1 XZ      0.01088     0.02131
             15  C  1 YZ      0.00000     0.02778
             16  C  2  S      1.99340     1.97169
             17  C  2  S      0.76123     0.38654
             18  C  2  S      0.37707     0.28232
             19  C  2  X      0.59803     0.55114
             20  C  2  Y      0.71639     0.65067
             21  C  2  Z      0.74646     0.67132
             22  C  2  X      0.11818     0.22687
             23  C  2  Y      0.23496     0.33219
             24  C  2  Z      0.27539     0.37622
             25  C  2 XX      0.01046     0.16306
             26  C  2 YY      0.01266     0.15115
             27  C  2 ZZ      0.01737     0.15767
             28  C  2 XY      0.01185     0.03553
             29  C  2 XZ      0.00972     0.02247
             30  C  2 YZ      0.00000     0.02373
             31  F  3  S      1.99544     1.97164
             32  F  3  S      0.94928     0.75167
             33  F  3  S      0.99806     0.52604
             34  F  3  X      1.03528     0.99069
             35  F  3  Y      1.17660     1.14351
             36  F  3  Z      1.20016     1.16896
             37  F  3  X      0.59571     0.62788
             38  F  3  Y      0.67929     0.70612
             39  F  3  Z      0.69078     0.72020
             40  F  3 XX      0.00138     0.19473
             41  F  3 YY      0.00251     0.19043
             42  F  3 ZZ      0.00301     0.18957
             43  F  3 XY      0.00253     0.00396
             44  F  3 XZ      0.00093     0.00348
             45  F  3 YZ      0.00000     0.00139
             46  H  4  S      0.77167     0.65292
             47  H  4  S      0.10765     0.21493
             48  H  4  X      0.00243     0.00627
             49  H  4  Y      0.00403     0.01023
             50  H  4  Z      0.01032     0.02158
             51  H  5  S      0.76500     0.64653
             52  H  5  S      0.10798     0.21668
             53  H  5  X      0.00284     0.00743
             54  H  5  Y      0.00813     0.01806
             55  H  5  Z      0.00595     0.01263
             56  F  6  S      1.99544     1.97164
             57  F  6  S      0.94930     0.75166
             58  F  6  S      0.99796     0.52600
             59  F  6  X      1.03349     0.98877
             60  F  6  Y      1.16661     1.13271
             61  F  6  Z      1.21200     1.18172
             62  F  6  X      0.59450     0.62690
             63  F  6  Y      0.67338     0.70143
             64  F  6  Z      0.69765     0.72556
             65  F  6 XX      0.00135     0.19482
             66  F  6 YY      0.00255     0.19072
             67  F  6 ZZ      0.00326     0.18918
             68  F  6 XY      0.00228     0.00419
             69  F  6 XZ      0.00093     0.00327
             70  F  6 YZ      0.00000     0.00141
             71  H  7  S      0.77170     0.65240
             72  H  7  S      0.10775     0.21492
             73  H  7  X      0.00239     0.00621
             74  H  7  Y      0.00467     0.01140
             75  H  7  Z      0.00972     0.02038
             76  H  8  S      0.76494     0.64630
             77  H  8  S      0.10802     0.21671
             78  H  8  X      0.00279     0.00734
             79  H  8  Y      0.00722     0.01632
             80  H  8  Z      0.00691     0.01446

          ----- MULLIKEN ATOMIC OVERLAP POPULATIONS -----
          (OFF-DIAGONAL ELEMENTS NEED TO BE MULTIPLIED BY 2)

             1           2           3           4           5

    1    4.6320089
    2    0.3804902   4.6323022
    3   -0.0386349   0.2362508   9.1763924
    4   -0.0319523   0.3758090  -0.0298558   0.6182050
    5   -0.0505776   0.3795017  -0.0252598  -0.0369271   0.6069625
    6    0.2364670  -0.0387110   0.0005726   0.0038562   0.0076461
    7    0.3758044  -0.0319714   0.0038567  -0.0146057   0.0115914
    8    0.3794533  -0.0505023   0.0076328   0.0115764  -0.0030388

             6           7           8

    6    9.1759838
    7   -0.0298740   0.6184312
    8   -0.0252425  -0.0369987   0.6070007

          TOTAL MULLIKEN AND LOWDIN ATOMIC POPULATIONS
       ATOM         MULL.POP.    CHARGE          LOW.POP.     CHARGE
    1 C             5.883059    0.116941         6.003464   -0.003464
    2 C             5.883169    0.116831         6.002581   -0.002581
    3 F             9.330955   -0.330955         9.190278   -0.190278
    4 H             0.896106    0.103894         0.905931    0.094069
    5 H             0.889898    0.110102         0.901327    0.098673
    6 F             9.330698   -0.330698         9.189974   -0.189974
    7 H             0.896234    0.103766         0.905312    0.094688
    8 H             0.889881    0.110119         0.901134    0.098866

          MULLIKEN SPHERICAL HARMONIC POPULATIONS
       ATOM           S       P       D      F      G      H      I    TOTAL
    1 C             3.13    2.69    0.06   0.00   0.00   0.00   0.00    5.88
    2 C             3.13    2.69    0.06   0.00   0.00   0.00   0.00    5.88
    3 F             3.94    5.38    0.01   0.00   0.00   0.00   0.00    9.33
    4 H             0.88    0.02    0.00   0.00   0.00   0.00   0.00    0.90
    5 H             0.87    0.02    0.00   0.00   0.00   0.00   0.00    0.89
    6 F             3.94    5.38    0.01   0.00   0.00   0.00   0.00    9.33
    7 H             0.88    0.02    0.00   0.00   0.00   0.00   0.00    0.90
    8 H             0.87    0.02    0.00   0.00   0.00   0.00   0.00    0.89

          -------------------------------
          BOND ORDER AND VALENCE ANALYSIS     BOND ORDER THRESHOLD=0.050
          -------------------------------

                   BOND                       BOND                       BOND
  ATOM PAIR DIST  ORDER      ATOM PAIR DIST  ORDER      ATOM PAIR DIST  ORDER
    1   2  1.526  1.030        1   6  1.401  0.912        1   7  1.106  0.940
    1   8  1.107  0.942        2   3  1.401  0.912        2   4  1.106  0.940
    2   5  1.107  0.942

                       TOTAL       BONDED        FREE
      ATOM            VALENCE     VALENCE     VALENCE
    1 C                 3.829       3.829       0.000
    2 C                 3.829       3.829       0.000
    3 F                 0.979       0.979      -0.000
    4 H                 0.948       0.948      -0.000
    5 H                 0.965       0.965      -0.000
    6 F                 0.979       0.979      -0.000
    7 H                 0.948       0.948      -0.000
    8 H                 0.965       0.965      -0.000

          ---------------------
          ELECTROSTATIC MOMENTS
          ---------------------

 POINT   1           X           Y           Z (BOHR)    CHARGE
                -0.000000    0.000000   -0.000000       -0.00 (A.U.)
         DX          DY          DZ         /D/  (DEBYE)
     0.005015    0.061995    1.107089    1.108835
 ...... END OF PROPERTY EVALUATION ......
 STEP CPU TIME =     0.02 TOTAL CPU TIME =         90.3 (      1.5 MIN)
 TOTAL WALL CLOCK TIME=         90.8 SECONDS, CPU UTILIZATION IS    99.50%
  $VIB   
          IVIB=   0 IATOM=   0 ICOORD=   0 E=     -277.9341462153
 -9.409765430E-05-7.525581823E-06-7.943260171E-05 5.120581500E-05 2.731300725E-06
  2.144152204E-05-1.039528596E-05 2.055577717E-05-8.549564304E-06-1.568135678E-05
 -2.968512504E-06 2.210573477E-05-1.249636993E-05-2.212816140E-05-1.513256994E-05
  2.309386233E-05 8.776239299E-06 2.086420856E-05 2.998605422E-05-4.689625477E-06
  2.298770776E-05 2.838493542E-05 5.248564011E-06 1.571556282E-05
  5.015434576E-03 6.199495391E-02 1.107089080E+00
 ......END OF GEOMETRY SEARCH......
 STEP CPU TIME =     0.00 TOTAL CPU TIME =         90.3 (      1.5 MIN)
 TOTAL WALL CLOCK TIME=         90.8 SECONDS, CPU UTILIZATION IS    99.49%
                991181  WORDS OF DYNAMIC MEMORY USED
 EXECUTION OF GAMESS TERMINATED NORMALLY Sun Oct  6 23:43:02 2019
 DDI: 263640 bytes (0.3 MB / 0 MWords) used by master data server.

 ----------------------------------------
 CPU timing information for all processes
 ========================================
 0: 88.692 + 1.624 = 90.316
 ----------------------------------------
 ddikick.x: exited gracefully.
----- accounting info -----
Files used on the master node d12chas543.crc.nd.edu were:
-rw-r--r-- 1 wschnei1 campus 378327 Oct  6 23:43 /scratch365/wschnei1/140-PC1.F07
Sun Oct  6 23:43:05 EDT 2019
0.428u 0.345s 1:34.48 0.8%	0+0k 0+48io 0pf+0w
