----- GAMESS execution script 'rungms' -----
This job is running on host d12chas543.crc.nd.edu
under operating system Linux at Sun Oct 6 23:43:05 EDT 2019
SGE has assigned the following compute nodes to this run:
Available scratch disk space (Kbyte units) at beginning of the job is
Filesystem      1K-blocks     Used  Available Use% Mounted on
/dev/sda2      1949705068 64738392 1884966676   4% /
GAMESS temporary binary files will be written to /tmp/474112.1.debug
GAMESS supplementary output files will be written to /afs/crc.nd.edu/user/w/wschnei1/scr
Copying input file 150-PC1.inp to your run's scratch directory...
reading your own /afs/crc.nd.edu/user/w/wschnei1/.gmsrc

 Distributed Data Interface kickoff program.
 Initiating 1 compute processes on 1 nodes to run the following command:
 /afs/crc.nd.edu/x86_64_linux/g/gamess/nov-2017/gamess/gamess.00.x 150-PC1 

          ******************************************************
          *         GAMESS VERSION = 11 NOV 2017 (R3)         *
          *             FROM IOWA STATE UNIVERSITY             *
          * M.W.SCHMIDT, K.K.BALDRIDGE, J.A.BOATZ, S.T.ELBERT, *
          *   M.S.GORDON, J.H.JENSEN, S.KOSEKI, N.MATSUNAGA,   *
          *          K.A.NGUYEN, S.J.SU, T.L.WINDUS,           *
          *       TOGETHER WITH M.DUPUIS, J.A.MONTGOMERY       *
          *         J.COMPUT.CHEM.  14, 1347-1363(1993)        *
          **************** 64 BIT INTEL VERSION ****************

  SINCE 1993, STUDENTS AND POSTDOCS WORKING AT IOWA STATE UNIVERSITY
  AND ALSO IN THEIR VARIOUS JOBS AFTER LEAVING ISU HAVE MADE IMPORTANT
  CONTRIBUTIONS TO THE CODE:
     IVANA ADAMOVIC, CHRISTINE AIKENS, YURI ALEXEEV, POOJA ARORA,
     ANDREY ASADCHEV, ROB BELL, PRADIPTA BANDYOPADHYAY, JONATHAN BENTZ,
     BRETT BODE, KURT BRORSEN, CALEB CARLIN, GALINA CHABAN, WEI CHEN,
     CHEOL HO CHOI, PAUL DAY, ALBERT DEFUSCO, NUWAN DESILVA, TIM DUDLEY,
     DMITRI FEDOROV, ALEX FINDLATER, GRAHAM FLETCHER, MARK FREITAG,
     KURT GLAESEMANN, ANASTASIA GUININA,
     DAN KEMP, GRANT MERRILL, NORIYUKI MINEZAWA, JONATHAN MULLIN,
     TAKESHI NAGATA, SEAN NEDD, HEATHER NETZLOFF, BOSILJKA NJEGIC, RYAN OLSON,
     MIKE PAK, BUU PHAM,
     SPENCER PRUITT, LUKE ROSKOP, JIM SHOEMAKER, LYUDMILA SLIPCHENKO,
     TONY SMITH, SAROM SOK LEANG, JIE SONG, TETSUYA TAKETSUGU, SIMON WEBB,
     PENG XU, SOOHAENG YOO, FEDERICO ZAHARIEV

  ADDITIONAL CODE HAS BEEN PROVIDED BY COLLABORATORS IN OTHER GROUPS:
     IOWA STATE UNIVERSITY:
          JOE IVANIC, AARON WEST, LAIMUTIS BYTAUTAS, KLAUS RUEDENBERG
     UNIVERSITY OF TOKYO: KIMIHIKO HIRAO, TAKAHITO NAKAJIMA,
          TAKAO TSUNEDA, MUNEAKI KAMIYA, SUSUMU YANAGISAWA,
          KIYOSHI YAGI, MAHITO CHIBA, SEIKEN TOKURA, NAOAKI KAWAKAMI
     UNIVERSITY OF AARHUS: FRANK JENSEN
     UNIVERSITY OF IOWA: VISVALDAS KAIRYS, HUI LI
     NATIONAL INST. OF STANDARDS AND TECHNOLOGY: WALT STEVENS, DAVID GARMER
     UNIVERSITY OF PISA: BENEDETTA MENNUCCI, JACOPO TOMASI
     UNIVERSITY OF MEMPHIS: HENRY KURTZ, PRAKASHAN KORAMBATH
     UNIVERSITY OF ALBERTA: TOBY ZENG, MARIUSZ KLOBUKOWSKI
     UNIVERSITY OF NEW ENGLAND: MARK SPACKMAN
     MIE UNIVERSITY: HIROAKI UMEDA
     NAT. INST. OF ADVANCED INDUSTRIAL SCIENCE AND TECHNOLOGY: KAZUO KITAURA
     MICHIGAN STATE UNIVERSITY:
          KAROL KOWALSKI, MARTA WLOCH, JEFFREY GOUR, JESSE LUTZ,
          WEI LI, PIOTR PIECUCH
     UNIVERSITY OF SILESIA: MONIKA MUSIAL, STANISLAW KUCHARSKI
     FACULTES UNIVERSITAIRES NOTRE-DAME DE LA PAIX:
          OLIVIER QUINET, BENOIT CHAMPAGNE
     UNIVERSITY OF CALIFORNIA - SANTA BARBARA: BERNARD KIRTMAN
     INSTITUTE FOR MOLECULAR SCIENCE:
          KAZUYA ISHIMURA, MICHIO KATOUDA, AND SHIGERU NAGASE
     UNIVERSITY OF NOTRE DAME: ANNA POMOGAEVA, DAN CHIPMAN
     KYUSHU UNIVERSITY:
          HARUYUKI NAKANO,
          FENG LONG GU, JACEK KORCHOWIEC, MARCIN MAKOWSKI, AND YURIKO AOKI,
          HIROTOSHI MORI AND EISAKU MIYOSHI
     PENNSYLVANIA STATE UNIVERSITY:
          TZVETELIN IORDANOV, CHET SWALINA, JONATHAN SKONE,
          SHARON HAMMES-SCHIFFER
     WASEDA UNIVERSITY:
          MASATO KOBAYASHI, TOMOKO AKAMA, TSUGUKI TOUMA,
          TAKESHI YOSHIKAWA, YASUHIRO IKABATA, JUNJI SEINO,
          YUYA NAKAJIMA, HIROMI NAKAI
     NANJING UNIVERSITY: SHUHUA LI
     UNIVERSITY OF NEBRASKA:
          PEIFENG SU, DEJUN SI, NANDUN THELLAMUREGE, YALI WANG, HUI LI
     UNIVERSITY OF ZURICH: ROBERTO PEVERATI, KIM BALDRIDGE
     N. COPERNICUS UNIVERSITY AND JACKSON STATE UNIVERSITY:
          MARIA BARYSZ
     UNIVERSITY OF COPENHAGEN: Jimmy Kromann, CASPER STEINMANN
     TOKYO INSTITUTE OF TECHNOLOGY: HIROYA NAKATA
     NAGOYA UNIVERSITY: YOSHIO NISHIMOTO, STEPHAN IRLE
     MOSCOW STATE UNIVERSITY: VLADIMIR MIRONOV

 EXECUTION OF GAMESS BEGUN Sun Oct  6 23:43:05 2019

            ECHO OF THE FIRST FEW INPUT CARDS -
 INPUT CARD> $CONTRL SCFTYP=RHF DFTTYP=PBE RUNTYP=OPTIMIZE COORD=ZMT NZVAR=18 ISPHER=1 $END 
 INPUT CARD> $BASIS GBASIS=PCseg-1 $END                                                     
 INPUT CARD> $STATPT IFREEZ(1)=12 $END                                                      
 INPUT CARD> $DATA                                                                          
 INPUT CARD>FCH2CH2F eclipsed TS                                                            
 INPUT CARD>C1                                                                              
 INPUT CARD>C                                                                               
 INPUT CARD>C   1   r1                                                                      
 INPUT CARD>F   2   r2   1   A1                                                             
 INPUT CARD>H   2   r3   1   A2   3   D1                                                    
 INPUT CARD>H   2   r4   1   A3   3   D2                                                    
 INPUT CARD>F   1   r5   2   A4   3   D3                                                    
 INPUT CARD>H   1   r6   2   A5   6   D4                                                    
 INPUT CARD>H   1   r7   2   A6   6   D5                                                    
 INPUT CARD>                                                                                
 INPUT CARD>r1=1.5                                                                          
 INPUT CARD>r2=1.4                                                                          
 INPUT CARD>r3=1.1                                                                          
 INPUT CARD>r4=1.1                                                                          
 INPUT CARD>r5=1.5                                                                          
 INPUT CARD>r6=1.1                                                                          
 INPUT CARD>r7=1.1                                                                          
 INPUT CARD>A1=109.54214                                                                    
 INPUT CARD>A2=109.54214                                                                    
 INPUT CARD>A3=109.54214                                                                    
 INPUT CARD>A4=109.54214                                                                    
 INPUT CARD>A5=109.54214                                                                    
 INPUT CARD>A6=109.54214                                                                    
 INPUT CARD>D1=120.                                                                         
 INPUT CARD>D2=-120.                                                                        
 INPUT CARD>D3=150                                                                          
 INPUT CARD>D4=120.                                                                         
 INPUT CARD>D5=-120.                                                                        
 INPUT CARD> $END                                                                           
 INPUT CARD>                                                                                
    1000000 WORDS OF MEMORY AVAILABLE

     BASIS OPTIONS
     -------------
     GBASIS=PCSEG-1      IGAUSS=       0      POLAR=NONE    
     NDFUNC=       0     NFFUNC=       0     DIFFSP=       F
     NPFUNC=       0      DIFFS=       F     BASNAM=        


     RUN TITLE
     ---------
 FCH2CH2F eclipsed TS                                                            

 THE POINT GROUP OF THE MOLECULE IS C1      
 THE ORDER OF THE PRINCIPAL AXIS IS     0

 YOUR FULLY SUBSTITUTED Z-MATRIX IS
 C   
 C      1   1.5000000
 F      2   1.4000000  1  109.5421
 H      2   1.1000000  1  109.5421  3  120.0000  0
 H      2   1.1000000  1  109.5421  3 -120.0000  0
 F      1   1.5000000  2  109.5421  3  150.0000  0
 H      1   1.1000000  2  109.5421  6  120.0000  0
 H      1   1.1000000  2  109.5421  6 -120.0000  0

 THE MOMENTS OF INERTIA ARE (AMU-ANGSTROM**2)
 IXX=    17.446   IYY=   137.183   IZZ=   143.972

 ATOM      ATOMIC                      COORDINATES (BOHR)
           CHARGE         X                   Y                   Z
 C           6.0    -0.9890895024        0.9978244153        0.3496456396
 C           6.0     1.0894565531       -0.9291448691        0.3861198293
 F           9.0     3.3701024575        0.2159095840       -0.3115839782
 H           1.0     1.2710026549       -1.7199219489        2.2999381166
 H           1.0     0.6455767207       -2.4561104010       -0.9526612477
 F           9.0    -3.4446118082       -0.2680965644       -0.2849794261
 H           1.0    -1.1378671167        1.8955486729        2.2185876377
 H           1.0    -0.5691978679        2.4464991792       -1.0807460051

          INTERNUCLEAR DISTANCES (ANGS.)
          ------------------------------

                1 C          2 C          3 F          4 H          5 H     

   1 C       0.0000000    1.5000000 *  2.3695781 *  2.1363170 *  2.1363170 *
   2 C       1.5000000 *  0.0000000    1.4000000 *  1.1000000 *  1.1000000 *
   3 F       2.3695781 *  1.4000000 *  0.0000000    2.0476979 *  2.0476979 *
   4 H       2.1363170 *  1.1000000 *  2.0476979 *  0.0000000    1.7955050 *
   5 H       2.1363170 *  1.1000000 *  2.0476979 *  1.7955050 *  0.0000000  
   6 F       1.5000000 *  2.4505612 *  3.6153032    2.9475988 *  2.4799645 *
   7 H       1.1000000 *  2.1363170 *  2.8763471 *  2.2993893 *  3.0016260  
   8 H       1.1000000 *  2.1363170 *  2.4299107 *  3.0016260    2.6736632 *

                6 F          7 H          8 H     

   1 C       1.5000000 *  1.1000000 *  1.1000000 *
   2 C       2.4505612 *  2.1363170 *  2.1363170 *
   3 F       3.6153032    2.8763471 *  2.4299107 *
   4 H       2.9475988 *  2.2993893 *  3.0016260  
   5 H       2.4799645 *  3.0016260    2.6736632 *
   6 F       0.0000000    2.1345124 *  2.1345124 *
   7 H       2.1345124 *  0.0000000    1.7955050 *
   8 H       2.1345124 *  1.7955050 *  0.0000000  

  * ... LESS THAN  3.000


     ATOMIC BASIS SET
     ----------------
 THE CONTRACTED PRIMITIVE FUNCTIONS HAVE BEEN UNNORMALIZED
 THE CONTRACTED BASIS FUNCTIONS ARE NOW NORMALIZED TO UNITY

  SHELL TYPE  PRIMITIVE        EXPONENT          CONTRACTION COEFFICIENT(S)

 C         

      1   S       1          1243.2000000    0.005630097702
      1   S       2           187.1450000    0.041950603854
      1   S       3            42.5126000    0.184664360492
      1   S       4            11.7393000    0.466557421368
      1   S       5             3.5054800    0.448234778316

      2   S       6             5.3908900   -0.148114817444
      2   S       7             0.4933410    1.051981714281

      3   S       8             0.1497410    1.000000000000

      4   P       9             9.1805600    0.063992052045
      4   P      10             1.9365800    0.333521296407
      4   P      11             0.5262960    0.741161730513

      5   P      12             0.1363190    1.000000000000

      6   D      13             0.8000000    1.000000000000

 C         

      7   S      14          1243.2000000    0.005630097702
      7   S      15           187.1450000    0.041950603854
      7   S      16            42.5126000    0.184664360492
      7   S      17            11.7393000    0.466557421368
      7   S      18             3.5054800    0.448234778316

      8   S      19             5.3908900   -0.148114817444
      8   S      20             0.4933410    1.051981714281

      9   S      21             0.1497410    1.000000000000

     10   P      22             9.1805600    0.063992052045
     10   P      23             1.9365800    0.333521296407
     10   P      24             0.5262960    0.741161730513

     11   P      25             0.1363190    1.000000000000

     12   D      26             0.8000000    1.000000000000

 F         

     13   S      27          2931.5500000    0.005390132259
     13   S      28           441.1250000    0.040296704072
     13   S      29           100.2320000    0.180202178717
     13   S      30            27.8655000    0.465064284210
     13   S      31             8.4447000    0.452433138251

     14   S      32            13.6123000   -0.151660908297
     14   S      33             1.2612200    1.053515343452

     15   S      34             0.3708000    1.000000000000

     16   P      35            21.9305000    0.070356827475
     16   P      36             4.7855200    0.356742371235
     16   P      37             1.2837800    0.719732016372

     17   P      38             0.3115580    1.000000000000

     18   D      39             1.1000000    1.000000000000

 H         

     19   S      40            12.2518000    0.037217389296
     19   S      41             1.8687100    0.253808206955
     19   S      42             0.4182080    0.797386763917

     20   S      43             0.1061000    1.000000000000

     21   P      44             1.0000000    1.000000000000

 H         

     22   S      45            12.2518000    0.037217389296
     22   S      46             1.8687100    0.253808206955
     22   S      47             0.4182080    0.797386763917

     23   S      48             0.1061000    1.000000000000

     24   P      49             1.0000000    1.000000000000

 F         

     25   S      50          2931.5500000    0.005390132259
     25   S      51           441.1250000    0.040296704072
     25   S      52           100.2320000    0.180202178717
     25   S      53            27.8655000    0.465064284210
     25   S      54             8.4447000    0.452433138251

     26   S      55            13.6123000   -0.151660908297
     26   S      56             1.2612200    1.053515343452

     27   S      57             0.3708000    1.000000000000

     28   P      58            21.9305000    0.070356827475
     28   P      59             4.7855200    0.356742371235
     28   P      60             1.2837800    0.719732016372

     29   P      61             0.3115580    1.000000000000

     30   D      62             1.1000000    1.000000000000

 H         

     31   S      63            12.2518000    0.037217389296
     31   S      64             1.8687100    0.253808206955
     31   S      65             0.4182080    0.797386763917

     32   S      66             0.1061000    1.000000000000

     33   P      67             1.0000000    1.000000000000

 H         

     34   S      68            12.2518000    0.037217389296
     34   S      69             1.8687100    0.253808206955
     34   S      70             0.4182080    0.797386763917

     35   S      71             0.1061000    1.000000000000

     36   P      72             1.0000000    1.000000000000

 TOTAL NUMBER OF BASIS SET SHELLS             =   36
 NUMBER OF CARTESIAN GAUSSIAN BASIS FUNCTIONS =   80
 NOTE: THIS RUN WILL RESTRICT THE MO VARIATION SPACE TO SPHERICAL HARMONICS.
 THE NUMBER OF ORBITALS KEPT IN THE VARIATIONAL SPACE WILL BE PRINTED LATER.
 NUMBER OF ELECTRONS                          =   34
 CHARGE OF MOLECULE                           =    0
 SPIN MULTIPLICITY                            =    1
 NUMBER OF OCCUPIED ORBITALS (ALPHA)          =   17
 NUMBER OF OCCUPIED ORBITALS (BETA )          =   17
 TOTAL NUMBER OF ATOMS                        =    8
 THE NUCLEAR REPULSION ENERGY IS      122.8648144982

     LEBEDEV GRID-BASED DFT OPTIONS
     ------------------------------
     DFTTYP=PBE     
     NRAD  =      96     NLEB  =     302
     NRAD0 =      24     NLEB0 =     110
     SWOFF =    5.00E-03 (PURE SCF -> DFT)
     SWITCH=    3.00E-04 (COARSE -> TIGHT GRID)
     THRESH=    0.00E+00 GTHRE=    1.00E+00

 GRIMME'S EMPIRICAL DISPERSION CORRECTION= F

     $CONTRL OPTIONS
     ---------------
 SCFTYP=RHF          RUNTYP=OPTIMIZE     EXETYP=RUN     
 MPLEVL=       0     CITYP =NONE         CCTYP =NONE         VBTYP =NONE    
 DFTTYP=PBE          TDDFT =NONE    
 MULT  =       1     ICHARG=       0     NZVAR =      18     COORD =ZMT     
 PP    =NONE         RELWFN=NONE         LOCAL =NONE         NUMGRD=       F
 ISPHER=       1     NOSYM =       0     MAXIT =      30     UNITS =ANGS    
 PLTORB=       F     MOLPLT=       F     AIMPAC=       F     FRIEND=        
 NPRINT=       7     IREST =       0     GEOM  =INPUT   
 NORMF =       0     NORMP =       0     ITOL  =      20     ICUT  =       9
 INTTYP=BEST         GRDTYP=BEST         QMTTOL= 1.0E-06

     $SYSTEM OPTIONS
     ---------------
  REPLICATED MEMORY=     1000000 WORDS (ON EVERY NODE).
 DISTRIBUTED MEMDDI=           0 MILLION WORDS IN AGGREGATE,
 MEMDDI DISTRIBUTED OVER   1 PROCESSORS IS           0 WORDS/PROCESSOR.
 TOTAL MEMORY REQUESTED ON EACH PROCESSOR=     1000000 WORDS.
 TIMLIM=      525600.00 MINUTES, OR     365.0 DAYS.
 PARALL= F  BALTYP=  DLB     KDIAG=    0  COREFL= F
 MXSEQ2=     300 MXSEQ3=     150  mem10=         0

          ----------------
          PROPERTIES INPUT
          ----------------

     MOMENTS            FIELD           POTENTIAL          DENSITY
 IEMOM =       1   IEFLD =       0   IEPOT =       0   IEDEN =       0
 WHERE =COMASS     WHERE =NUCLEI     WHERE =NUCLEI     WHERE =NUCLEI  
 OUTPUT=BOTH       OUTPUT=BOTH       OUTPUT=BOTH       OUTPUT=BOTH    
 IEMINT=       0   IEFINT=       0                     IEDINT=       0
                                                       MORB  =       0
          EXTRAPOLATION IN EFFECT
          DIIS IN EFFECT
 ORBITAL PRINTING OPTION: NPREO=     1    80     2     1

     -------------------------------
     INTEGRAL TRANSFORMATION OPTIONS
     -------------------------------
     NWORD  =            0
     CUTOFF = 1.0E-09     MPTRAN =       0
     DIRTRF =       F     AOINTS =DUP     

          ----------------------
          INTEGRAL INPUT OPTIONS
          ----------------------
 NOPK  =       1 NORDER=       0 SCHWRZ=       T

   --- ENCODED Z MATRIX ---
 COORD  TYPE   I   J   K   L   M   N
    1      1    2   1
    2      1    3   2
    3      2    3   2   1
    4      1    4   2
    5      2    4   2   1
    6      3    4   2   1   3
    7      1    5   2
    8      2    5   2   1
    9      3    5   2   1   3
   10      1    6   1
   11      2    6   1   2
   12      3    6   1   2   3
   13      1    7   1
   14      2    7   1   2
   15      3    7   1   2   6
   16      1    8   1
   17      2    8   1   2
   18      3    8   1   2   6

 THE DETERMINANT OF THE G MATRIX IS 10**(   -12)


                     --------------------
                     INTERNAL COORDINATES
                     --------------------

                 - - ATOMS - -         COORDINATE      COORDINATE
 NO.   TYPE    I  J  K  L  M  N        (BOHR,RAD)       (ANG,DEG)
 ----------------------------------------------------------------
   1 STRETCH   2  1                     2.8345890       1.5000000
   2 STRETCH   3  2                     2.6456164       1.4000000
   3 BEND      3  2  1                  1.9118710     109.5421400
   4 STRETCH   4  2                     2.0786986       1.1000000
   5 BEND      4  2  1                  1.9118710     109.5421400
   6 TORSION   4  2  1  3               2.0943951     120.0000000
   7 STRETCH   5  2                     2.0786986       1.1000000
   8 BEND      5  2  1                  1.9118710     109.5421400
   9 TORSION   5  2  1  3              -2.0943951    -120.0000000
  10 STRETCH   6  1                     2.8345890       1.5000000
  11 BEND      6  1  2                  1.9118710     109.5421400
  12 TORSION   6  1  2  3               2.6179939     150.0000000
  13 STRETCH   7  1                     2.0786986       1.1000000
  14 BEND      7  1  2                  1.9118710     109.5421400
  15 TORSION   7  1  2  6               2.0943951     120.0000000
  16 STRETCH   8  1                     2.0786986       1.1000000
  17 BEND      8  1  2                  1.9118710     109.5421400
  18 TORSION   8  1  2  6              -2.0943951    -120.0000000

     ------------------------------------------
     THE POINT GROUP IS C1 , NAXIS= 0, ORDER= 1
     ------------------------------------------

 -- VARIATIONAL SPACE WILL BE RESTRICTED TO PURE SPHERICAL HARMONICS ONLY --
 AFTER EXCLUDING CONTAMINANT COMBINATIONS FROM THE CARTESIAN GAUSSIAN BASIS
 SET, THE NUMBER OF SPHERICAL HARMONICS KEPT IN THE VARIATION SPACE IS   76

     DIMENSIONS OF THE SYMMETRY SUBSPACES ARE
 A   =   76

 ..... DONE SETTING UP THE RUN .....
 STEP CPU TIME =     0.01 TOTAL CPU TIME =          0.0 (      0.0 MIN)
 TOTAL WALL CLOCK TIME=          0.0 SECONDS, CPU UTILIZATION IS    50.00%


          -----------------------------
          STATIONARY POINT LOCATION RUN
          -----------------------------

 OBTAINING INITIAL HESSIAN, HESS=GUESS   
 DIAGONAL GUESS HESSIAN IN INTERNAL COORDS IS
     1  0.3892     2  0.3267     3  0.2379     4  0.3397     5  0.2253
     6  0.2500     7  0.3397     8  0.2253     9  0.2500    10  0.2690
    11  0.2315    12  0.2500    13  0.3397    14  0.2253    15  0.2500
    16  0.3397    17  0.2253    18  0.2500

          PARAMETERS CONTROLLING GEOMETRY SEARCH ARE
          METHOD =QA                  UPHESS =BFGS    
          NNEG   =         0          NFRZ   =         1
          NSTEP  =        50          IFOLOW =         1
          HESS   =GUESS               RESTAR =         F
          IHREP  =         0          HSSEND =         F
          NPRT   =         0          NPUN   =         0
          OPTTOL = 1.000E-04          RMIN   = 1.500E-03
          RMAX   = 1.000E-01          RLIM   = 7.000E-02
          DXMAX  = 3.000E-01          PURIFY =         F
          MOVIE  =         F          TRUPD  =         T
          TRMAX  = 5.000E-01          TRMIN  = 5.000E-02
          ITBMAT =         5          STPT   =         F
          STSTEP = 1.000E-02          PROJCT=          T
          FROZEN COORD(S)=  12

 BEGINNING GEOMETRY SEARCH POINT NSERCH=   0 ...

 COORDINATES OF ALL ATOMS ARE (ANGS)
   ATOM   CHARGE       X              Y              Z
 ------------------------------------------------------------
 C           6.0  -0.5234036622   0.5280259793   0.1850245178
 C           6.0   0.5765156219  -0.4916823260   0.2043258292
 F           9.0   1.7833815481   0.1142544398  -0.1648831525
 H           1.0   0.6725856887  -0.9101435658   1.2170749259
 H           1.0   0.3416245132  -1.2997177458  -0.5041266585
 F           9.0  -1.8228102013  -0.1418706025  -0.1508046288
 H           1.0  -0.6021333908   1.0030812325   1.1740261033
 H           1.0  -0.3012065620   1.2946317059  -0.5719061981


                     --------------------
                     INTERNAL COORDINATES
                     --------------------

                 - - ATOMS - -         COORDINATE      COORDINATE
 NO.   TYPE    I  J  K  L  M  N        (BOHR,RAD)       (ANG,DEG)
 ----------------------------------------------------------------
   1 STRETCH   2  1                     2.8345890       1.5000000
   2 STRETCH   3  2                     2.6456164       1.4000000
   3 BEND      3  2  1                  1.9118710     109.5421400
   4 STRETCH   4  2                     2.0786986       1.1000000
   5 BEND      4  2  1                  1.9118710     109.5421400
   6 TORSION   4  2  1  3               2.0943951     120.0000000
   7 STRETCH   5  2                     2.0786986       1.1000000
   8 BEND      5  2  1                  1.9118710     109.5421400
   9 TORSION   5  2  1  3              -2.0943951    -120.0000000
  10 STRETCH   6  1                     2.8345890       1.5000000
  11 BEND      6  1  2                  1.9118710     109.5421400
  12 TORSION   6  1  2  3               2.6179939     150.0000000
  13 STRETCH   7  1                     2.0786986       1.1000000
  14 BEND      7  1  2                  1.9118710     109.5421400
  15 TORSION   7  1  2  6               2.0943951     120.0000000
  16 STRETCH   8  1                     2.0786986       1.1000000
  17 BEND      8  1  2                  1.9118710     109.5421400
  18 TORSION   8  1  2  6              -2.0943951    -120.0000000

 THE CURRENT FULLY SUBSTITUTED Z-MATRIX IS
 C   
 C      1   1.5000000
 F      2   1.4000000  1   109.5421400
 H      2   1.1000000  1   109.5421400  3   120.0000000  0
 H      2   1.1000000  1   109.5421400  3  -120.0000000  0
 F      1   1.5000000  2   109.5421400  3   150.0000000  0
 H      1   1.1000000  2   109.5421400  6   120.0000000  0
 H      1   1.1000000  2   109.5421400  6  -120.0000000  0

          ********************
          1 ELECTRON INTEGRALS
          ********************
 ...... END OF ONE-ELECTRON INTEGRALS ......
 STEP CPU TIME =     0.00 TOTAL CPU TIME =          0.0 (      0.0 MIN)
 TOTAL WALL CLOCK TIME=          0.0 SECONDS, CPU UTILIZATION IS    33.33%

          -------------
          GUESS OPTIONS
          -------------
          GUESS =HUCKEL            NORB  =       0          NORDER=       0
          MIX   =       F          PRTMO =       F          PUNMO =       F
          TOLZ  = 1.0E-08          TOLE  = 1.0E-05
          SYMDEN=       F          PURIFY=       F

 INITIAL GUESS ORBITALS GENERATED BY HUCKEL   ROUTINE.
 HUCKEL GUESS REQUIRES     54920 WORDS.

 STATISTICS FOR GENERATION OF SYMMETRY ORBITAL -Q- MATRIX
 NUMBER OF CARTESIAN ATOMIC ORBITALS=         80
 NUMBER OF SPHERICAL CONTAMINANTS DROPPED=     4
 NUMBER OF LINEARLY DEPENDENT MOS DROPPED=     0
 TOTAL NUMBER OF MOS IN VARIATION SPACE=      76

 SYMMETRIES FOR INITIAL GUESS ORBITALS FOLLOW.   BOTH SET(S).
    17 ORBITALS ARE OCCUPIED (    4 CORE ORBITALS).
     5=A        6=A        7=A        8=A        9=A       10=A       11=A   
    12=A       13=A       14=A       15=A       16=A       17=A       18=A   
    19=A       20=A       21=A       22=A       23=A       24=A       25=A   
    26=A       27=A   
 ...... END OF INITIAL ORBITAL SELECTION ......
 STEP CPU TIME =     0.01 TOTAL CPU TIME =          0.0 (      0.0 MIN)
 TOTAL WALL CLOCK TIME=          0.0 SECONDS, CPU UTILIZATION IS    66.67%

                    ----------------------
                    AO INTEGRAL TECHNOLOGY
                    ----------------------
     S,P,L SHELL ROTATED AXIS INTEGRALS, REPROGRAMMED BY
        KAZUYA ISHIMURA (IMS) AND JOSE SIERRA (SYNSTAR).
     S,P,D,L SHELL ROTATED AXIS INTEGRALS PROGRAMMED BY
        KAZUYA ISHIMURA (INSTITUTE FOR MOLECULAR SCIENCE).
     S,P,D,F,G SHELL TO TOTAL QUARTET ANGULAR MOMENTUM SUM 5,
        ERIC PROGRAM BY GRAHAM FLETCHER (ELORET AND NASA ADVANCED
        SUPERCOMPUTING DIVISION, AMES RESEARCH CENTER).
     S,P,D,F,G,L SHELL GENERAL RYS QUADRATURE PROGRAMMED BY
        MICHEL DUPUIS (PACIFIC NORTHWEST NATIONAL LABORATORY).

          --------------------
          2 ELECTRON INTEGRALS
          --------------------

 THE -PK- OPTION IS OFF, THE INTEGRALS ARE NOT IN SUPERMATRIX FORM.
 STORING   15000 INTEGRALS/RECORD ON DISK, USING 12 BYTES/INTEGRAL.
 TWO ELECTRON INTEGRAL EVALUATION REQUIRES   91062 WORDS OF MEMORY.
 SCHWARZ INEQUALITY OVERHEAD:      3217 INTEGRALS, T=        0.00
 II,JST,KST,LST =  1  1  1  1 NREC =         1 INTLOC =    1
 II,JST,KST,LST =  2  1  1  1 NREC =         1 INTLOC =    2
 II,JST,KST,LST =  3  1  1  1 NREC =         1 INTLOC =    7
 II,JST,KST,LST =  4  1  1  1 NREC =         1 INTLOC =   22
 II,JST,KST,LST =  5  1  1  1 NREC =         1 INTLOC =   67
 II,JST,KST,LST =  6  1  1  1 NREC =         1 INTLOC =  214
 II,JST,KST,LST =  7  1  1  1 NREC =         1 INTLOC = 1189
 II,JST,KST,LST =  8  1  1  1 NREC =         1 INTLOC = 3193
 II,JST,KST,LST =  9  1  1  1 NREC =         1 INTLOC = 5654
 II,JST,KST,LST = 10  1  1  1 NREC =         1 INTLOC = 8575
 II,JST,KST,LST = 11  1  1  1 NREC =         2 INTLOC = 5476
 II,JST,KST,LST = 12  1  1  1 NREC =         3 INTLOC = 8140
 II,JST,KST,LST = 13  1  1  1 NREC =         7 INTLOC = 6021
 II,JST,KST,LST = 14  1  1  1 NREC =         8 INTLOC = 4154
 II,JST,KST,LST = 15  1  1  1 NREC =         9 INTLOC = 4930
 II,JST,KST,LST = 16  1  1  1 NREC =        10 INTLOC = 7783
 II,JST,KST,LST = 17  1  1  1 NREC =        14 INTLOC = 9617
 II,JST,KST,LST = 18  1  1  1 NREC =        20 INTLOC =  594
 II,JST,KST,LST = 19  1  1  1 NREC =        34 INTLOC =11183
 II,JST,KST,LST = 20  1  1  1 NREC =        37 INTLOC =14377
 II,JST,KST,LST = 21  1  1  1 NREC =        41 INTLOC = 5933
 II,JST,KST,LST = 22  1  1  1 NREC =        52 INTLOC =14819
 II,JST,KST,LST = 23  1  1  1 NREC =        57 INTLOC = 5618
 II,JST,KST,LST = 24  1  1  1 NREC =        62 INTLOC =  507
 II,JST,KST,LST = 25  1  1  1 NREC =        77 INTLOC = 8377
 II,JST,KST,LST = 26  1  1  1 NREC =        80 INTLOC = 9129
 II,JST,KST,LST = 27  1  1  1 NREC =        85 INTLOC =  504
 II,JST,KST,LST = 28  1  1  1 NREC =        90 INTLOC =14933
 II,JST,KST,LST = 29  1  1  1 NREC =       106 INTLOC = 4410
 II,JST,KST,LST = 30  1  1  1 NREC =       129 INTLOC =  291
 II,JST,KST,LST = 31  1  1  1 NREC =       174 INTLOC = 2763
 II,JST,KST,LST = 32  1  1  1 NREC =       185 INTLOC = 1254
 II,JST,KST,LST = 33  1  1  1 NREC =       196 INTLOC =11097
 II,JST,KST,LST = 34  1  1  1 NREC =       231 INTLOC = 8911
 II,JST,KST,LST = 35  1  1  1 NREC =       245 INTLOC = 1648
 II,JST,KST,LST = 36  1  1  1 NREC =       259 INTLOC = 6794
 SCHWARZ INEQUALITY TEST SKIPPED       18869 INTEGRAL BLOCKS.
 TOTAL NUMBER OF NONZERO TWO-ELECTRON INTEGRALS =             4530022
        303 INTEGRAL RECORDS WERE STORED ON DISK FILE  8.
  ...... END OF TWO-ELECTRON INTEGRALS .....
 STEP CPU TIME =     0.46 TOTAL CPU TIME =          0.5 (      0.0 MIN)
 TOTAL WALL CLOCK TIME=          0.5 SECONDS, CPU UTILIZATION IS    96.00%

          --------------------------
               R-PBE SCF CALCULATION
          --------------------------

     NUCLEAR ENERGY =       122.8648144982
     MAXIT =   30     NPUNCH=    2
     EXTRAP=T  DAMP=F  SHIFT=F  RSTRCT=F  DIIS=T  DEM=F  SOSCF=F
         DENSITY MATRIX CONVERGENCE THRESHOLD=  1.00E-05
     COARSE -> FINE DFT GRID SWITCH THRESHOLD=  3.00E-04 (SWITCH IN $DFT)
                   HF -> DFT SWITCH THRESHOLD=  5.00E-03 (SWOFF IN $DFT)
     MEMORY REQUIRED FOR RHF ITERS=    365468 WORDS.

 DFT CODE IS SWITCHING FROM THE FINE GRID NRAD= 96,  NLEB=  302
                      TO THE COARSE GRID NRAD0= 24, NLEB0=  110

     EXCHANGE FUNCTIONAL   =PBE       
     CORRELATION FUNCTIONAL=PBE       
     DFT THRESHOLD         =.172E-07
     GRID CHANGE THRESHOLD =.300E-03
 FOR AN EULER-MACLAURIN QUADRATURE USING  96 RADIAL POINTS:
 SMALLEST GAUSSIAN PRIMITIVE EXPONENT=        0.1061000000 OF TYPE -S-
 ON ATOM NUMBER   4 HAS RADIAL NORMALIZATION=  1.000000
  LARGEST GAUSSIAN PRIMITIVE EXPONENT=     2931.5500000000 OF TYPE -S-
 ON ATOM NUMBER   3 HAS RADIAL NORMALIZATION=  1.000000
 DFT IS SWITCHED OFF, PERFORMING PURE SCF UNTIL SWOFF THRESHOLD IS REACHED.

 ITER EX DEM     TOTAL ENERGY        E CHANGE  DENSITY CHANGE    DIIS ERROR
   1  0  0     -276.1220819356  -276.1220819356   0.190435883   0.725064175
          * * *   INITIATING DIIS PROCEDURE   * * *
   2  1  0     -276.7746722476    -0.6525903120   0.091768935   0.092410742
   3  2  0     -276.8169724234    -0.0423001758   0.047695529   0.041811580
   4  3  0     -276.8320655465    -0.0150931231   0.008836428   0.012761049
   5  4  0     -276.8328686670    -0.0008031204   0.002357160   0.001729542
 CONVERGED TO SWOFF, SO DFT CALCULATION IS NOW SWITCHED ON.
          * * *   INITIATING DIIS PROCEDURE   * * *
   6  5  0     -277.8994764714    -1.0666078044   0.094453201   0.088864148
   7  6  0     -277.9145012415    -0.0150247701   0.081856531   0.047823304
   8  7  0     -277.9125661676     0.0019350739   0.050846402   0.045273288
   9  8  0     -277.9282721667    -0.0157059991   0.006924050   0.005571926
  10  9  0     -277.9285110835    -0.0002389168   0.001767298   0.001393945
  11 10  0     -277.9285230965    -0.0000120131   0.000577970   0.000485541
  12 11  0     -277.9285252904    -0.0000021938   0.000050867   0.000085592
 DFT CODE IS SWITCHING BACK TO THE FINE GRID
          * * *   INITIATING DIIS PROCEDURE   * * *
  13 12  0     -277.9286615548    -0.0001362644   0.004866077   0.003552168
  14 13  0     -277.9287027742    -0.0000412194   0.005445017   0.002259768
  15 14  0     -277.9286947742     0.0000079999   0.002930746   0.002630398
  16 15  0     -277.9287289202    -0.0000341459   0.000125259   0.000098775
  17 16  0     -277.9287289787    -0.0000000585   0.000071947   0.000059311
  18 17  0     -277.9287289979    -0.0000000193   0.000018429   0.000012720
  19 18  0     -277.9287289988    -0.0000000009   0.000006023   0.000006062
  20 19  0     -277.9287289990    -0.0000000002   0.000000518   0.000000361

          -----------------
          DENSITY CONVERGED
          -----------------
     TIME TO FORM FOCK OPERATORS=       9.7 SECONDS (       0.5 SEC/ITER)
     TIME TO SOLVE SCF EQUATIONS=       0.1 SECONDS (       0.0 SEC/ITER)

 FINAL R-PBE ENERGY IS     -277.9287289990 AFTER  20 ITERATIONS
 DFT EXCHANGE + CORRELATION ENERGY =       -32.8991122835
 TOTAL ELECTRON NUMBER             =        34.0002299943

          ------------
          EIGENVECTORS
          ------------

                      1          2          3          4          5
                  -24.2450   -24.2321    -9.9744    -9.9725    -1.1056
                     A          A          A          A          A   
    1  C  1  S    0.000047  -0.000183   0.992948  -0.028453  -0.013226
    2  C  1  S    0.000144  -0.000922   0.036744  -0.002094   0.022624
    3  C  1  S   -0.003839   0.008875  -0.022164   0.006491   0.024340
    4  C  1  X   -0.000265  -0.000867  -0.000454  -0.000681   0.012593
    5  C  1  Y    0.000200  -0.000322   0.000144   0.000716  -0.009123
    6  C  1  Z   -0.000045  -0.000209  -0.000019  -0.000000  -0.002505
    7  C  1  X   -0.002076  -0.002406  -0.002884   0.002076   0.009841
    8  C  1  Y    0.000678  -0.003392   0.000998  -0.002278  -0.009665
    9  C  1  Z    0.001139  -0.001289  -0.000278   0.000247   0.001998
   10  C  1 XX   -0.000130   0.000405  -0.000273  -0.000349   0.003091
   11  C  1 YY    0.000090  -0.000122  -0.000045  -0.000143  -0.000486
   12  C  1 ZZ    0.000039  -0.000283   0.000318   0.000492  -0.002605
   13  C  1 XY    0.000079   0.000449   0.000208   0.000828  -0.002296
   14  C  1 XZ   -0.000022   0.000206  -0.000084  -0.000021   0.000102
   15  C  1 YZ   -0.000060   0.000141  -0.000022   0.000006   0.000458
   16  C  2  S   -0.000136   0.000046   0.028647   0.992898  -0.064652
   17  C  2  S   -0.000569   0.000191  -0.000008   0.037103   0.121956
   18  C  2  S    0.009986  -0.003738   0.005495  -0.021746   0.010306
   19  C  2  X    0.001067   0.000198   0.000716   0.000860   0.083244
   20  C  2  Y    0.000371  -0.000176  -0.000716   0.000183   0.048331
   21  C  2  Z   -0.000295  -0.000025   0.000021  -0.000165  -0.026761
   22  C  2  X    0.002365   0.002066  -0.002014   0.003052   0.011863
   23  C  2  Y    0.003344  -0.000461   0.002316  -0.001025   0.000086
   24  C  2  Z   -0.001528   0.001234   0.000142  -0.000324  -0.002228
   25  C  2 XX    0.000190  -0.000138  -0.000346  -0.000045   0.013242
   26  C  2 YY   -0.000076   0.000098  -0.000154  -0.000101  -0.003712
   27  C  2 ZZ   -0.000115   0.000039   0.000500   0.000146  -0.009530
   28  C  2 XY    0.000240   0.000015   0.000841   0.000351   0.013014
   29  C  2 XZ   -0.000114   0.000018  -0.000014  -0.000043  -0.008389
   30  C  2 YZ   -0.000087   0.000045   0.000025  -0.000021  -0.004514
   31  F  3  S    0.993084   0.000859   0.000006   0.000064  -0.237764
   32  F  3  S    0.034042  -0.000153  -0.000134   0.000473   0.483706
   33  F  3  S   -0.016964   0.000448  -0.000044  -0.000800   0.496877
   34  F  3  X   -0.001039   0.000058   0.000091   0.000287  -0.086930
   35  F  3  Y   -0.000527  -0.000074   0.000000   0.000096  -0.040992
   36  F  3  Z    0.000313   0.000019  -0.000030  -0.000078   0.026295
   37  F  3  X    0.003327  -0.000481  -0.000153   0.001569  -0.040955
   38  F  3  Y    0.001644   0.000235   0.000172   0.001103  -0.017976
   39  F  3  Z   -0.000965  -0.000121   0.000023  -0.000550   0.012415
   40  F  3 XX   -0.000281   0.000044   0.000057  -0.000784   0.007956
   41  F  3 YY    0.000130  -0.000012   0.000019   0.000255  -0.002877
   42  F  3 ZZ    0.000151  -0.000033  -0.000076   0.000529  -0.005078
   43  F  3 XY   -0.000334   0.000019  -0.000157  -0.000814   0.007590
   44  F  3 XZ    0.000177  -0.000002   0.000005   0.000508  -0.005041
   45  F  3 YZ    0.000076   0.000030   0.000016   0.000266  -0.002397
   46  H  4  S   -0.000928   0.000080  -0.000350  -0.001195   0.022140
   47  H  4  S    0.000092  -0.000835   0.000388   0.003395   0.000953
   48  H  4  X   -0.000282   0.000004  -0.000107  -0.000020   0.000450
   49  H  4  Y   -0.000276  -0.000060   0.000047  -0.000462   0.002372
   50  H  4  Z    0.000144   0.000006   0.000054   0.001196  -0.004804
   51  H  5  S   -0.000941   0.000300  -0.000307  -0.001144   0.021976
   52  H  5  S   -0.000261   0.000684   0.000959   0.003447   0.001699
   53  H  5  X   -0.000311   0.000085  -0.000148  -0.000403   0.001876
   54  H  5  Y   -0.000287  -0.000034   0.000068  -0.000885   0.004122
   55  H  5  Z    0.000101   0.000001  -0.000040  -0.000791   0.002880
   56  F  6  S   -0.000863   0.993091   0.000047   0.000003  -0.012841
   57  F  6  S   -0.000198   0.033703   0.000407  -0.000135   0.026072
   58  F  6  S    0.000414  -0.015973  -0.000056  -0.000027   0.026144
   59  F  6  X   -0.000063   0.000977  -0.000089  -0.000085   0.005219
   60  F  6  Y    0.000068   0.000514   0.000005   0.000010   0.001909
   61  F  6  Z    0.000012   0.000247  -0.000016  -0.000025   0.001071
   62  F  6  X    0.000444  -0.003137  -0.001029   0.000217   0.001533
   63  F  6  Y   -0.000237  -0.001592  -0.000855  -0.000111   0.001857
   64  F  6  Z   -0.000094  -0.000761  -0.000316   0.000054   0.000561
   65  F  6 XX    0.000043  -0.000282  -0.000731   0.000094   0.000507
   66  F  6 YY   -0.000018   0.000118   0.000206  -0.000006  -0.000095
   67  F  6 ZZ   -0.000025   0.000164   0.000525  -0.000087  -0.000412
   68  F  6 XY    0.000011  -0.000331  -0.000801  -0.000099   0.000559
   69  F  6 XZ   -0.000005  -0.000145  -0.000403   0.000023   0.000258
   70  F  6 YZ   -0.000031  -0.000067  -0.000220  -0.000011   0.000166
   71  H  7  S    0.000090  -0.000742  -0.001201  -0.000265   0.002878
   72  H  7  S   -0.000820   0.000211   0.003477   0.000194  -0.000422
   73  H  7  X   -0.000019   0.000305   0.000051   0.000104  -0.000053
   74  H  7  Y    0.000054   0.000257   0.000536  -0.000076  -0.000211
   75  H  7  Z    0.000000   0.000053   0.001196  -0.000011  -0.000867
   76  H  8  S    0.000279  -0.000754  -0.001147  -0.000219   0.005867
   77  H  8  S    0.000537  -0.000123   0.003568   0.000717   0.005101
   78  H  8  X   -0.000089   0.000312   0.000408   0.000123   0.000578
   79  H  8  Y    0.000045   0.000240   0.000853  -0.000115  -0.001263
   80  H  8  Z   -0.000012   0.000141  -0.000868   0.000009   0.000937

                      6          7          8          9         10
                   -1.0654    -0.7131    -0.5822    -0.4714    -0.4664
                     A          A          A          A          A   
    1  C  1  S   -0.052396  -0.154130   0.127008   0.000449  -0.003971
    2  C  1  S    0.100579   0.316314  -0.275683  -0.003034   0.013971
    3  C  1  S    0.015903   0.179452  -0.143637  -0.004696  -0.008877
    4  C  1  X   -0.067409   0.098597   0.048518  -0.061356  -0.103011
    5  C  1  Y   -0.038690  -0.049984  -0.125636  -0.051597  -0.175294
    6  C  1  Z   -0.017597   0.014754  -0.004310   0.261397  -0.108010
    7  C  1  X   -0.014759   0.031990   0.005728  -0.022528  -0.013744
    8  C  1  Y   -0.001957  -0.007000  -0.053537  -0.031623  -0.068628
    9  C  1  Z   -0.003375   0.005073  -0.013245   0.115253  -0.026576
   10  C  1 XX    0.009889   0.001168  -0.000535  -0.002641  -0.003007
   11  C  1 YY   -0.002398   0.003183   0.004447   0.001240   0.009021
   12  C  1 ZZ   -0.007491  -0.004352  -0.003912   0.001401  -0.006014
   13  C  1 XY    0.010343  -0.008857  -0.008500   0.000020   0.005090
   14  C  1 XZ    0.005394   0.000555   0.000241   0.005539   0.000821
   15  C  1 YZ    0.002891  -0.000539   0.000182  -0.002702   0.004483
   16  C  2  S   -0.005287  -0.148953  -0.127762  -0.003025  -0.006266
   17  C  2  S    0.007824   0.305870   0.279226  -0.001446   0.006477
   18  C  2  S    0.018223   0.165998   0.132282   0.029453   0.043561
   19  C  2  X   -0.020470  -0.101189   0.071016  -0.065884  -0.221867
   20  C  2  Y    0.002816   0.055978  -0.124700  -0.092747  -0.202715
   21  C  2  Z    0.000248   0.013487   0.006632   0.305553  -0.120800
   22  C  2  X   -0.009578  -0.033322   0.005923   0.007619  -0.040279
   23  C  2  Y    0.008391   0.007626  -0.056669  -0.015208  -0.072590
   24  C  2  Z    0.002651   0.006841   0.016357   0.116962  -0.075077
   25  C  2 XX    0.001378   0.000319   0.002737  -0.002033  -0.004132
   26  C  2 YY   -0.000151   0.004027  -0.006034  -0.003657  -0.004110
   27  C  2 ZZ   -0.001227  -0.004346   0.003297   0.005690   0.008242
   28  C  2 XY   -0.003202  -0.009200   0.009071  -0.007469  -0.012120
   29  C  2 XZ    0.000874   0.000140  -0.001139   0.003712   0.005637
   30  C  2 YZ   -0.000012   0.000152   0.000534   0.008039   0.003553
   31  F  3  S    0.016778   0.061000   0.046065  -0.027250  -0.035622
   32  F  3  S   -0.034345  -0.132085  -0.101769   0.057326   0.074061
   33  F  3  S   -0.036022  -0.158642  -0.120355   0.084112   0.111382
   34  F  3  X    0.004191  -0.094971  -0.134545   0.282610   0.301291
   35  F  3  Y    0.002790  -0.023084  -0.135523   0.071876   0.057840
   36  F  3  Z   -0.001685   0.024679   0.054739   0.115780  -0.217786
   37  F  3  X    0.002758  -0.053155  -0.082534   0.174113   0.185927
   38  F  3  Y    0.000547  -0.016677  -0.081294   0.040562   0.033957
   39  F  3  Z   -0.000774   0.013504   0.033040   0.069818  -0.130892
   40  F  3 XX   -0.000365   0.005174   0.002354  -0.010780  -0.007081
   41  F  3 YY    0.000167  -0.002430   0.000383   0.002729   0.005757
   42  F  3 ZZ    0.000198  -0.002744  -0.002737   0.008051   0.001325
   43  F  3 XY   -0.000433   0.002460   0.008829  -0.004284  -0.002153
   44  F  3 XZ    0.000301  -0.002474  -0.003251  -0.004722   0.010219
   45  F  3 YZ    0.000131  -0.000791  -0.002624  -0.003034   0.003805
   46  H  4  S    0.000439   0.110339   0.161029   0.215053  -0.028490
   47  H  4  S   -0.001033  -0.003367   0.004370   0.032650   0.008631
   48  H  4  X    0.000000  -0.002969  -0.000050  -0.003718  -0.004269
   49  H  4  Y   -0.000103   0.004932   0.002809   0.005338  -0.005780
   50  H  4  Z   -0.000295  -0.009982  -0.012750  -0.007643  -0.000181
   51  H  5  S    0.003417   0.104457   0.168559  -0.071847   0.193736
   52  H  5  S    0.005441  -0.008187   0.014203   0.003128   0.014841
   53  H  5  X   -0.000712   0.001021   0.004129  -0.002249  -0.002896
   54  H  5  Y    0.000753   0.008065   0.008588  -0.006829   0.006842
   55  H  5  Z    0.000493   0.007190   0.009578   0.002800   0.006180
   56  F  6  S   -0.242245   0.054289  -0.036522   0.002253   0.030615
   57  F  6  S    0.492770  -0.117501   0.082047  -0.004693  -0.065072
   58  F  6  S    0.515539  -0.139944   0.092250  -0.007657  -0.096904
   59  F  6  X    0.070634   0.077448  -0.099153  -0.004789   0.254471
   60  F  6  Y    0.034441   0.022916  -0.096955  -0.013839   0.031565
   61  F  6  Z    0.018188   0.017968  -0.032051   0.125053   0.017472
   62  F  6  X    0.037334   0.043952  -0.064493  -0.001707   0.160616
   63  F  6  Y    0.017073   0.016791  -0.059891  -0.007569   0.018110
   64  F  6  Z    0.009736   0.009928  -0.020335   0.073323   0.010249
   65  F  6 XX    0.007736   0.004317  -0.002392  -0.001374   0.008914
   66  F  6 YY   -0.002510  -0.001823  -0.000205  -0.001075  -0.004261
   67  F  6 ZZ   -0.005226  -0.002494   0.002597   0.002449  -0.004653
   68  F  6 XY    0.007753   0.002657  -0.007054  -0.001164   0.001890
   69  F  6 XZ    0.004200   0.001882  -0.002208   0.006038   0.001286
   70  F  6 YZ    0.002071   0.000726  -0.001729   0.002811  -0.000347
   71  H  7  S    0.019182   0.115924  -0.162155   0.150726  -0.108876
   72  H  7  S    0.001453  -0.002906  -0.004341   0.016002  -0.024071
   73  H  7  X   -0.000609   0.002839  -0.000164   0.000785  -0.004002
   74  H  7  Y   -0.002241  -0.005695   0.003478  -0.006962   0.000429
   75  H  7  Z   -0.003838  -0.010343   0.012588  -0.003955   0.004619
   76  H  8  S    0.018687   0.110226  -0.171298  -0.157053  -0.040707
   77  H  8  S    0.001100  -0.009136  -0.016773  -0.003221   0.006319
   78  H  8  X   -0.001753  -0.001056   0.003446  -0.000962  -0.002812
   79  H  8  Y   -0.003229  -0.008051   0.008079   0.008295  -0.001360
   80  H  8  Z    0.002497   0.008154  -0.010271  -0.002296  -0.004444

                     11         12         13         14         15
                   -0.4355    -0.4075    -0.3947    -0.3343    -0.3078
                     A          A          A          A          A   
    1  C  1  S    0.008177   0.010831  -0.003982   0.032582   0.000820
    2  C  1  S   -0.023821  -0.012240   0.008533  -0.070966  -0.005886
    3  C  1  S   -0.014308  -0.048063   0.009938  -0.138766   0.006981
    4  C  1  X    0.295771  -0.064937  -0.012256  -0.091679  -0.012285
    5  C  1  Y   -0.110365  -0.299723  -0.042078   0.025682   0.077142
    6  C  1  Z   -0.003117  -0.001827   0.299570  -0.010351  -0.098353
    7  C  1  X    0.090570   0.011193  -0.012257  -0.061109  -0.003231
    8  C  1  Y   -0.059086  -0.099751  -0.027053   0.056412   0.042565
    9  C  1  Z   -0.004680   0.006482   0.149545   0.016068  -0.022681
   10  C  1 XX   -0.007809   0.015920  -0.000849   0.014895  -0.000833
   11  C  1 YY    0.006834  -0.002696  -0.000344  -0.009784   0.006235
   12  C  1 ZZ    0.000975  -0.013224   0.001193  -0.005111  -0.005402
   13  C  1 XY   -0.012120   0.009205  -0.001761  -0.005291   0.005022
   14  C  1 XZ   -0.003860   0.005636  -0.011327   0.000925  -0.016522
   15  C  1 YZ   -0.002408   0.003817   0.008301  -0.004196  -0.004248
   16  C  2  S   -0.011277   0.008331   0.007308  -0.026924  -0.000299
   17  C  2  S    0.021303  -0.009699  -0.013804   0.054988  -0.003747
   18  C  2  S    0.029136  -0.031826  -0.026040   0.129951   0.012536
   19  C  2  X   -0.247324  -0.003936  -0.019467  -0.017854  -0.004618
   20  C  2  Y    0.158253   0.239024   0.026938  -0.073992  -0.095397
   21  C  2  Z    0.017616   0.033054  -0.202776   0.035155  -0.161718
   22  C  2  X   -0.077126  -0.033365  -0.022426  -0.029477  -0.005819
   23  C  2  Y    0.085329   0.079466   0.000671   0.007767  -0.049631
   24  C  2  Z    0.007731   0.020089  -0.102039  -0.007844  -0.061297
   25  C  2 XX   -0.014903   0.013360   0.002016  -0.020052   0.000274
   26  C  2 YY    0.013345  -0.002555  -0.001105   0.010444   0.008037
   27  C  2 ZZ    0.001558  -0.010805  -0.000911   0.009608  -0.008311
   28  C  2 XY   -0.007106   0.009683   0.000964   0.009559   0.007983
   29  C  2 XZ    0.005227  -0.001054  -0.018390  -0.000221   0.016247
   30  C  2 YZ   -0.000908  -0.004789   0.005445  -0.005604   0.008345
   31  F  3  S   -0.015967   0.006301   0.001860   0.000734   0.001304
   32  F  3  S    0.031218  -0.011119  -0.002379  -0.003077  -0.005772
   33  F  3  S    0.049879  -0.013389  -0.003449  -0.004963   0.002185
   34  F  3  X    0.082710  -0.226591  -0.148840  -0.178329   0.065122
   35  F  3  Y    0.325743   0.111808  -0.089352   0.406773   0.155075
   36  F  3  Z   -0.085266   0.147691  -0.280377  -0.147177   0.400384
   37  F  3  X    0.050252  -0.138484  -0.094276  -0.123723   0.039672
   38  F  3  Y    0.201625   0.070412  -0.058649   0.277850   0.112451
   39  F  3  Z   -0.053134   0.096304  -0.183068  -0.099937   0.281448
   40  F  3 XX    0.004454   0.007364   0.005682   0.007576  -0.001868
   41  F  3 YY   -0.005838  -0.007585   0.000732  -0.006587  -0.001240
   42  F  3 ZZ    0.001384   0.000221  -0.006414  -0.000988   0.003108
   43  F  3 XY   -0.011306  -0.002910   0.004483  -0.006114  -0.003012
   44  F  3 XZ    0.001982  -0.006301   0.008440   0.001620  -0.006002
   45  F  3 YZ    0.004362  -0.000344   0.004996   0.003844  -0.001789
   46  H  4  S   -0.034255  -0.066956  -0.169068   0.111558  -0.127040
   47  H  4  S   -0.011198  -0.022340  -0.043275   0.047984  -0.038841
   48  H  4  X   -0.004711   0.000818  -0.001542  -0.002275   0.002851
   49  H  4  Y    0.001500   0.004323  -0.002779  -0.000893  -0.004960
   50  H  4  Z    0.003265   0.003796   0.005165  -0.003574   0.000670
   51  H  5  S   -0.037066  -0.163975   0.075673   0.067912   0.185077
   52  H  5  S    0.012120  -0.056109   0.013031  -0.008799   0.052559
   53  H  5  X   -0.006035  -0.004530   0.002571   0.002761   0.000238
   54  H  5  Y    0.000274  -0.001663   0.004251  -0.000599   0.003513
   55  H  5  Z   -0.001803  -0.006014  -0.001502   0.003907   0.002837
   56  F  6  S   -0.029114   0.019539  -0.002990   0.000727   0.001425
   57  F  6  S    0.061050  -0.040181   0.006118  -0.000791  -0.005977
   58  F  6  S    0.089151  -0.053909   0.007690   0.002077   0.000884
   59  F  6  X   -0.218220   0.351882  -0.094469  -0.149833  -0.085219
   60  F  6  Y   -0.269866   0.015356  -0.099395   0.432775  -0.118306
   61  F  6  Z   -0.104005   0.119337   0.262671   0.099494   0.425572
   62  F  6  X   -0.141165   0.223431  -0.062201  -0.100405  -0.052736
   63  F  6  Y   -0.167524   0.012749  -0.063225   0.292372  -0.085559
   64  F  6  Z   -0.065375   0.077687   0.169132   0.067042   0.295326
   65  F  6 XX   -0.001241   0.009985  -0.003482  -0.007450  -0.002365
   66  F  6 YY   -0.002100  -0.006790  -0.001767   0.007234  -0.000802
   67  F  6 ZZ    0.003341  -0.003195   0.005249   0.000216   0.003167
   68  F  6 XY   -0.010509   0.001914  -0.004374   0.007168  -0.002845
   69  F  6 XZ   -0.003864   0.005485   0.008756   0.000919   0.006483
   70  F  6 YZ   -0.003705   0.000940   0.004717   0.003296   0.002885
   71  H  7  S   -0.068275  -0.121409   0.211297  -0.050944  -0.065916
   72  H  7  S   -0.015154  -0.037756   0.048256  -0.023730  -0.013839
   73  H  7  X    0.006220  -0.002937  -0.000494  -0.003373  -0.003254
   74  H  7  Y    0.000422  -0.004512  -0.006345   0.000036   0.003652
   75  H  7  Z    0.004594   0.005948  -0.004857   0.001276  -0.000643
   76  H  8  S   -0.019901  -0.189684  -0.184015  -0.033477   0.124010
   77  H  8  S    0.012070  -0.056645  -0.035412   0.024558   0.031537
   78  H  8  X    0.008230   0.001731   0.003958   0.000649   0.000535
   79  H  8  Y   -0.000648   0.000669   0.007088   0.000034  -0.001373
   80  H  8  Z   -0.001528  -0.008554  -0.001257  -0.002119   0.002669

                     16         17         18         19         20
                   -0.2932    -0.2921    -0.0198     0.0238     0.0544
                     A          A          A          A          A   
    1  C  1  S   -0.006647  -0.020411   0.058028   0.063504   0.094032
    2  C  1  S    0.016914   0.057669  -0.160266  -0.107474  -0.187702
    3  C  1  S    0.046325   0.069569  -0.097561  -1.014259  -1.272271
    4  C  1  X    0.086356   0.142756   0.381950   0.002181   0.073724
    5  C  1  Y   -0.036165  -0.208651   0.181940  -0.160212  -0.111550
    6  C  1  Z   -0.210815   0.018975   0.074996  -0.148994   0.206200
    7  C  1  X    0.022826  -0.002211   0.555747  -0.043674   0.005917
    8  C  1  Y   -0.044563  -0.077830   0.180449  -0.427747  -0.323012
    9  C  1  Z   -0.022664  -0.011670   0.047596  -0.333643   0.495052
   10  C  1 XX    0.008148   0.011594   0.034078  -0.006884  -0.005426
   11  C  1 YY    0.001149  -0.006771  -0.019934  -0.008334   0.011176
   12  C  1 ZZ   -0.009296  -0.004824  -0.014143   0.015219  -0.005750
   13  C  1 XY    0.002169  -0.017086   0.023817   0.000253   0.008598
   14  C  1 XZ   -0.006078   0.000861   0.012650  -0.008223   0.008817
   15  C  1 YZ   -0.020271   0.001978   0.014535   0.009177  -0.020344
   16  C  2  S   -0.005121  -0.020624  -0.024763   0.063399  -0.011432
   17  C  2  S    0.015810   0.057485   0.072706  -0.111511  -0.001086
   18  C  2  S    0.001560   0.097814  -0.120964  -0.967511   0.334875
   19  C  2  X   -0.003775  -0.168516   0.205570  -0.027455  -0.123656
   20  C  2  Y    0.097092   0.184074   0.126374   0.132667  -0.047431
   21  C  2  Z    0.184472  -0.108071  -0.043578  -0.153789   0.182782
   22  C  2  X    0.018090  -0.016544   0.380772   0.001337  -0.187437
   23  C  2  Y    0.012290   0.095504   0.140597   0.383575  -0.052784
   24  C  2  Z    0.017906  -0.035056   0.002771  -0.354051   0.429010
   25  C  2 XX   -0.000435   0.013187  -0.035003  -0.002758   0.012031
   26  C  2 YY   -0.006393  -0.003363   0.026023  -0.011777  -0.002108
   27  C  2 ZZ    0.006828  -0.009824   0.008980   0.014534  -0.009923
   28  C  2 XY   -0.011785  -0.012738  -0.017076   0.002815   0.014470
   29  C  2 XZ   -0.004594   0.002565   0.009986   0.007124  -0.015649
   30  C  2 YZ   -0.016970   0.009031   0.017176  -0.009404   0.014365
   31  F  3  S    0.001882  -0.000382   0.045529   0.008452  -0.012223
   32  F  3  S   -0.004806   0.006334  -0.096144  -0.015271   0.021405
   33  F  3  S   -0.011712  -0.025182  -0.309851  -0.071446   0.111315
   34  F  3  X    0.053210   0.215251   0.213249  -0.007121  -0.053299
   35  F  3  Y   -0.199897  -0.240289   0.049689  -0.050833  -0.103265
   36  F  3  Z   -0.275924   0.173917  -0.074019   0.038193   0.030434
   37  F  3  X    0.032086   0.157461   0.191845   0.006004  -0.045452
   38  F  3  Y   -0.135246  -0.167128   0.055757  -0.061302  -0.089448
   39  F  3  Z   -0.191330   0.117425  -0.068601   0.045898   0.005230
   40  F  3 XX   -0.000677  -0.003183   0.001138  -0.000420  -0.004196
   41  F  3 YY    0.002017   0.002258   0.000323  -0.002009   0.002555
   42  F  3 ZZ   -0.001341   0.000925  -0.001462   0.002429   0.001641
   43  F  3 XY    0.001359   0.001552  -0.000813  -0.001803  -0.002957
   44  F  3 XZ    0.003585  -0.001488  -0.001686   0.004380  -0.001352
   45  F  3 YZ   -0.001016  -0.001132   0.001529   0.001330  -0.000426
   46  H  4  S    0.165116  -0.176588  -0.016390   0.088992  -0.103616
   47  H  4  S    0.103266  -0.093978  -0.054838   1.123850  -0.935827
   48  H  4  X   -0.001078  -0.002699   0.011950   0.000066  -0.012030
   49  H  4  Y    0.004595   0.001623   0.004371  -0.001082   0.006229
   50  H  4  Z   -0.001394   0.004712   0.001177   0.018944  -0.009345
   51  H  5  S   -0.218932  -0.009269   0.106436   0.002263   0.034237
   52  H  5  S   -0.141811  -0.032652   0.337666   0.245879   0.289534
   53  H  5  X    0.000025  -0.001881   0.010185  -0.003789  -0.006182
   54  H  5  Y   -0.004911   0.003728  -0.002513   0.002167  -0.004505
   55  H  5  Z   -0.001319  -0.003627  -0.007932  -0.009114   0.002179
   56  F  6  S   -0.001712   0.000345  -0.060138   0.012610  -0.011721
   57  F  6  S    0.006594   0.003639   0.121219  -0.023730   0.020180
   58  F  6  S   -0.001419  -0.024316   0.407638  -0.099842   0.094967
   59  F  6  X   -0.077462  -0.252764   0.310399  -0.013597   0.098672
   60  F  6  Y   -0.019411   0.376323   0.148232   0.039324   0.088873
   61  F  6  Z    0.398580  -0.017212   0.097173   0.022993   0.005629
   62  F  6  X   -0.060672  -0.180090   0.285737  -0.027034   0.106630
   63  F  6  Y   -0.011095   0.257085   0.144366   0.045970   0.096238
   64  F  6  Z    0.272904  -0.014649   0.088260   0.028201  -0.012233
   65  F  6 XX   -0.001407  -0.004242  -0.002071  -0.000482  -0.002853
   66  F  6 YY   -0.000510   0.004015   0.000432  -0.001856  -0.000448
   67  F  6 ZZ    0.001916   0.000228   0.001639   0.002338   0.003300
   68  F  6 XY   -0.000206   0.002709  -0.001710  -0.002087  -0.005983
   69  F  6 XZ    0.004767  -0.000935  -0.002046  -0.003492   0.002027
   70  F  6 YZ    0.000756   0.001406   0.000451  -0.001071  -0.001959
   71  H  7  S   -0.236026  -0.058403   0.013227   0.095979  -0.028656
   72  H  7  S   -0.138047  -0.024813   0.088014   1.151928   0.018209
   73  H  7  X    0.000051   0.002745   0.019194  -0.000764   0.005145
   74  H  7  Y    0.002671  -0.003990   0.006308   0.001987  -0.000667
   75  H  7  Z    0.003429   0.003283  -0.000985   0.019439   0.001463
   76  H  8  S    0.174379  -0.127375  -0.060408   0.013018   0.151864
   77  H  8  S    0.101252  -0.099502  -0.183237   0.307342   1.673085
   78  H  8  X    0.001760   0.001577   0.015856   0.002457   0.006295
   79  H  8  Y   -0.005990  -0.001133   0.001232  -0.002116   0.019863
   80  H  8  Z   -0.000649  -0.003831   0.009771  -0.010475  -0.011243

                     21         22         23         24         25
                    0.0617     0.1016     0.1093     0.1764     0.3363
                     A          A          A          A          A   
    1  C  1  S   -0.047072  -0.027069   0.026748   0.076618   0.009436
    2  C  1  S    0.083035   0.110739  -0.037741  -0.105166  -0.145214
    3  C  1  S    0.649253  -0.023296  -0.641482  -1.876402  -0.489600
    4  C  1  X   -0.004899  -0.285767   0.018205  -0.162080  -0.172855
    5  C  1  Y    0.023839  -0.196719   0.111463   0.342516   0.360539
    6  C  1  Z    0.143986  -0.015079  -0.294886   0.112573   0.040676
    7  C  1  X   -0.058539  -0.561492  -0.143301  -1.412264   0.131602
    8  C  1  Y    0.037296  -0.528675   0.448254   1.420473  -1.073472
    9  C  1  Z    0.378888  -0.065900  -0.963014   0.290115  -0.103895
   10  C  1 XX    0.004779   0.004700   0.002104   0.024438  -0.024577
   11  C  1 YY   -0.003079  -0.017883   0.002219   0.007709  -0.033026
   12  C  1 ZZ   -0.001700   0.013183  -0.004323  -0.032146   0.057603
   13  C  1 XY    0.005179  -0.016839  -0.007995  -0.031572   0.041365
   14  C  1 XZ    0.007944  -0.005853   0.012459   0.003707  -0.004850
   15  C  1 YZ   -0.014939   0.001870   0.007729   0.006051   0.002538
   16  C  2  S    0.099199  -0.059192  -0.009408  -0.084976   0.009866
   17  C  2  S   -0.187528   0.167886  -0.014740   0.134022  -0.157530
   18  C  2  S   -1.402496   0.386386   0.536003   1.940410  -0.359486
   19  C  2  X   -0.029275   0.367349  -0.089093  -0.139986   0.196015
   20  C  2  Y    0.156875   0.182426   0.071879   0.359872  -0.370290
   21  C  2  Z    0.155220   0.071714   0.297097  -0.131278   0.053724
   22  C  2  X    0.029182   0.893319  -0.380960  -1.243824  -0.227131
   23  C  2  Y    0.439096   0.485808   0.347649   1.519696   1.173336
   24  C  2  Z    0.351478   0.221756   0.961679  -0.378497  -0.150664
   25  C  2 XX   -0.000300  -0.006573  -0.001720  -0.026912  -0.017791
   26  C  2 YY    0.006146  -0.008681   0.003738  -0.008731  -0.036475
   27  C  2 ZZ   -0.005845   0.015254  -0.002018   0.035643   0.054266
   28  C  2 XY    0.007826  -0.023367   0.016514   0.025804   0.040974
   29  C  2 XZ   -0.007336   0.016641   0.007506   0.005655   0.004317
   30  C  2 YZ    0.013101   0.010303   0.007902   0.007949   0.002964
   31  F  3  S   -0.012120   0.066269  -0.024897   0.012377   0.003507
   32  F  3  S    0.023149  -0.119583   0.050800  -0.020418   0.014458
   33  F  3  S    0.096489  -0.591245   0.195570  -0.123498  -0.138481
   34  F  3  X   -0.103380   0.190869  -0.044206   0.143775   0.013546
   35  F  3  Y   -0.062417   0.155409  -0.054285  -0.049148  -0.073575
   36  F  3  Z    0.011102  -0.084937  -0.056917  -0.006294   0.044968
   37  F  3  X   -0.115773   0.244823  -0.058627   0.203875   0.098668
   38  F  3  Y   -0.086674   0.158668  -0.084258  -0.107383  -0.135600
   39  F  3  Z   -0.005490  -0.124087  -0.077774   0.010701   0.002597
   40  F  3 XX   -0.002208  -0.000370   0.000434   0.011226  -0.007123
   41  F  3 YY   -0.001408  -0.001126  -0.003590  -0.012874  -0.001463
   42  F  3 ZZ    0.003616   0.001496   0.003157   0.001648   0.008585
   43  F  3 XY   -0.005177   0.005484  -0.001441   0.003943   0.004202
   44  F  3 XZ   -0.001652  -0.004377  -0.006989  -0.000983   0.005464
   45  F  3 YZ    0.002012  -0.003064   0.001894   0.003697  -0.000075
   46  H  4  S   -0.002795   0.003367  -0.019658   0.089420   0.316777
   47  H  4  S    0.325919  -0.718811  -1.301032   0.811641   0.010040
   48  H  4  X   -0.003499   0.019115  -0.006644  -0.002656  -0.009756
   49  H  4  Y   -0.000809   0.013948   0.011194   0.010694   0.020199
   50  H  4  Z    0.004248  -0.005736  -0.009582   0.017570   0.002852
   51  H  5  S    0.109123  -0.029843   0.056902   0.070104   0.211031
   52  H  5  S    1.655724   0.613679   1.154002   0.105697   0.156908
   53  H  5  X   -0.005677   0.013055  -0.012250  -0.010918  -0.013166
   54  H  5  Y   -0.018537   0.001737  -0.012267   0.012013   0.024696
   55  H  5  Z   -0.011666  -0.016564  -0.005582  -0.014890  -0.011494
   56  F  6  S    0.012117   0.043132   0.005707  -0.001399   0.004563
   57  F  6  S   -0.026063  -0.075914  -0.016644   0.004288   0.009475
   58  F  6  S   -0.078493  -0.375793  -0.022256  -0.004328  -0.132473
   59  F  6  X   -0.048104  -0.124979   0.008688   0.115139  -0.018148
   60  F  6  Y    0.041528  -0.134894   0.006517  -0.069296   0.082197
   61  F  6  Z   -0.001870  -0.022795   0.068554   0.003633   0.041479
   62  F  6  X   -0.063997  -0.163144   0.010279   0.141656  -0.092761
   63  F  6  Y    0.022223  -0.118903  -0.019820  -0.122204   0.109980
   64  F  6  Z   -0.024382  -0.045549   0.091859  -0.017718  -0.004229
   65  F  6 XX   -0.002581   0.000978  -0.000897  -0.010462  -0.003753
   66  F  6 YY    0.002162  -0.001247   0.003669   0.011507  -0.003062
   67  F  6 ZZ    0.000419   0.000269  -0.002771  -0.001045   0.006815
   68  F  6 XY   -0.000686   0.005918  -0.001285  -0.002550   0.000355
   69  F  6 XZ    0.001739   0.000770  -0.006852  -0.000931  -0.004965
   70  F  6 YZ    0.001016   0.002999   0.000339   0.002759  -0.000575
   71  H  7  S   -0.100156   0.023868   0.013949  -0.077439   0.329835
   72  H  7  S   -1.095645   0.129941   1.359598  -0.827010  -0.028623
   73  H  7  X    0.004203  -0.013422   0.000087  -0.006499   0.011593
   74  H  7  Y   -0.010579  -0.006076   0.015010   0.008002  -0.020669
   75  H  7  Z   -0.009830   0.002172   0.009267  -0.018049   0.004127
   76  H  8  S    0.018435  -0.074505  -0.036531  -0.080449   0.217529
   77  H  8  S    0.109234   0.444992  -1.243464  -0.064847   0.116944
   78  H  8  X    0.000273  -0.008759  -0.008772  -0.013593   0.013243
   79  H  8  Y    0.000475  -0.005032  -0.009699   0.011130  -0.025256
   80  H  8  Z   -0.000346  -0.013471   0.010519   0.011819  -0.010712

                     26         27         28         29         30
                    0.3748     0.3874     0.4140     0.4829     0.5223
                     A          A          A          A          A   
    1  C  1  S   -0.021974   0.005317   0.007747   0.073938   0.029253
    2  C  1  S    0.171415  -0.121536  -0.106944  -0.530230  -0.248298
    3  C  1  S   -0.322519   0.089804   0.302821   1.559827   0.711334
    4  C  1  X   -0.556627   0.425528   0.341751  -0.372444  -0.210723
    5  C  1  Y   -0.128166   0.100115   0.261809   0.412100   0.055191
    6  C  1  Z   -0.095156   0.090725   0.119118  -0.158557   0.477692
    7  C  1  X    0.560699  -0.567437  -1.016615   0.977250   0.572026
    8  C  1  Y    0.212419  -0.542586  -0.745217  -1.385741  -0.460722
    9  C  1  Z    0.558688   0.074299   0.083242   0.654089  -2.186026
   10  C  1 XX   -0.002026   0.019127   0.012679   0.002621  -0.007069
   11  C  1 YY    0.022202  -0.026925   0.013939   0.002769   0.002317
   12  C  1 ZZ   -0.020176   0.007798  -0.026618  -0.005390   0.004751
   13  C  1 XY    0.002976   0.038227  -0.001524  -0.057812  -0.020992
   14  C  1 XZ    0.015484   0.002442   0.021586  -0.025085   0.017845
   15  C  1 YZ   -0.074438  -0.056058  -0.050503  -0.022076  -0.009397
   16  C  2  S   -0.008839  -0.025411   0.012083  -0.071447  -0.028217
   17  C  2  S   -0.006921   0.220322  -0.143310   0.515591   0.234287
   18  C  2  S   -0.041269  -0.206117   0.255713  -1.536245  -0.692661
   19  C  2  X    0.053230   0.625191  -0.527660  -0.310326  -0.218700
   20  C  2  Y    0.011110   0.126569  -0.279710   0.489839   0.038379
   21  C  2  Z   -0.007395  -0.119938   0.182301   0.136106  -0.541481
   22  C  2  X   -0.095530  -0.438664   1.243341   0.901140   0.669192
   23  C  2  Y    0.324344  -0.220966   0.722808  -1.474111  -0.280505
   24  C  2  Z    0.331232   0.409881  -0.049308  -0.612829   2.368759
   25  C  2 XX    0.006013  -0.022078   0.031753  -0.013663   0.000608
   26  C  2 YY    0.000869   0.041149   0.003082  -0.005350  -0.005678
   27  C  2 ZZ   -0.006883  -0.019071  -0.034835   0.019013   0.005069
   28  C  2 XY    0.031431  -0.036752   0.022346   0.055984   0.017605
   29  C  2 XZ   -0.014314  -0.005822  -0.034070  -0.016830   0.011579
   30  C  2 YZ    0.082133   0.039010   0.039327  -0.017995  -0.010052
   31  F  3  S    0.011763  -0.003882   0.011653   0.014204  -0.003011
   32  F  3  S   -0.039106  -0.041824   0.050468  -0.068231  -0.006136
   33  F  3  S   -0.035646   0.316614  -0.566684   0.051056   0.131248
   34  F  3  X    0.023237   0.174197  -0.258740   0.052746  -0.000031
   35  F  3  Y   -0.068814   0.155077  -0.013905   0.068520   0.001686
   36  F  3  Z   -0.119284  -0.106176  -0.005970   0.063670  -0.176917
   37  F  3  X    0.060376  -0.066425   0.048633  -0.050727  -0.073810
   38  F  3  Y   -0.040918   0.013133   0.060730   0.105453  -0.029497
   39  F  3  Z   -0.057319  -0.032109  -0.065510   0.033952  -0.144386
   40  F  3 XX   -0.003444   0.022390  -0.032258   0.018733   0.012682
   41  F  3 YY   -0.000133  -0.005629   0.009510  -0.010539  -0.005481
   42  F  3 ZZ    0.003577  -0.016761   0.022748  -0.008194  -0.007200
   43  F  3 XY   -0.002663   0.033300  -0.023557  -0.007019  -0.001424
   44  F  3 XZ   -0.009464  -0.020440   0.014648  -0.003964   0.002099
   45  F  3 YZ    0.005912  -0.011232   0.008264   0.001450  -0.001786
   46  H  4  S   -0.392330  -0.347028  -0.287646  -0.127872  -0.278297
   47  H  4  S    0.157857   0.029627   0.173437  -0.001085  -1.306802
   48  H  4  X   -0.005494   0.006083  -0.012134  -0.038421   0.027997
   49  H  4  Y    0.040037   0.006838   0.022960   0.014867  -0.017184
   50  H  4  Z    0.003731  -0.008453  -0.018002  -0.021513   0.027240
   51  H  5  S    0.494864   0.088767   0.208949  -0.350492   0.035331
   52  H  5  S   -0.032288  -0.092740  -0.000946  -0.502221   0.974661
   53  H  5  X    0.008034   0.014343  -0.006264  -0.011182  -0.025010
   54  H  5  Y   -0.020273  -0.016014   0.004098   0.005696   0.039901
   55  H  5  Z   -0.002715   0.001734   0.012605   0.001381   0.041780
   56  F  6  S   -0.006010   0.020155   0.012834  -0.013759   0.004562
   57  F  6  S   -0.038335  -0.015443   0.031209   0.066403   0.003911
   58  F  6  S    0.336429  -0.351154  -0.462920  -0.025905  -0.138713
   59  F  6  X   -0.145694   0.111505   0.183998   0.027544   0.002116
   60  F  6  Y   -0.071631   0.112072  -0.028443   0.069295   0.006568
   61  F  6  Z   -0.137875  -0.057803  -0.033115  -0.071596   0.171475
   62  F  6  X    0.079491  -0.126976  -0.084293  -0.060619  -0.082932
   63  F  6  Y    0.042857  -0.014180  -0.071160   0.096183  -0.019760
   64  F  6  Z   -0.031328  -0.048473  -0.065054  -0.032486   0.111021
   65  F  6 XX    0.016888  -0.018847  -0.024610  -0.013455  -0.010017
   66  F  6 YY   -0.004703   0.002558   0.007131   0.005534   0.005184
   67  F  6 ZZ   -0.012185   0.016289   0.017479   0.007921   0.004833
   68  F  6 XY    0.023514  -0.022884  -0.012104   0.004262   0.002426
   69  F  6 XZ    0.019506  -0.002118  -0.006826  -0.000581  -0.002737
   70  F  6 YZ    0.005728  -0.008203  -0.002177   0.001551  -0.004824
   71  H  7  S   -0.530198  -0.181910  -0.293147   0.195163   0.292544
   72  H  7  S    0.089472   0.151276   0.208926  -0.025013   1.159406
   73  H  7  X    0.001659   0.004976   0.003678  -0.042250   0.029538
   74  H  7  Y   -0.025158  -0.035743  -0.022217   0.014459  -0.020459
   75  H  7  Z   -0.003279   0.005805  -0.015981   0.027687  -0.018143
   76  H  8  S    0.316074   0.416344   0.242084   0.425054   0.003660
   77  H  8  S   -0.110962   0.028179  -0.032879   0.417893  -0.860523
   78  H  8  X   -0.011564   0.001206   0.002799  -0.010021  -0.030214
   79  H  8  Y    0.026382   0.005801  -0.001811   0.009023   0.036336
   80  H  8  Z    0.002188  -0.003332   0.009430  -0.010512  -0.043644

                     31         32         33         34         35
                    0.5397     0.5451     0.5565     0.5685     0.7794
                     A          A          A          A          A   
    1  C  1  S   -0.041143   0.014303  -0.036239   0.066258   0.024617
    2  C  1  S    0.258232  -0.078384   0.312443  -0.438101  -1.262350
    3  C  1  S   -0.344569  -0.122992  -0.479179  -0.257121   2.424159
    4  C  1  X   -0.013278  -0.022033  -0.164499   0.018634  -0.128632
    5  C  1  Y    0.410276  -0.254554   0.175487  -0.467866   0.017048
    6  C  1  Z   -0.398242   0.300671   0.623243  -0.168018   0.036864
    7  C  1  X    0.034117  -0.212647   0.550990  -0.696822   0.061154
    8  C  1  Y   -0.420762   0.474421   0.185558   1.427743   0.639655
    9  C  1  Z    0.847601   0.332672  -1.086322   0.289526  -0.119382
   10  C  1 XX    0.036930  -0.022951   0.033496  -0.084754  -0.011509
   11  C  1 YY    0.008489   0.049373   0.033018   0.027108   0.014459
   12  C  1 ZZ   -0.045419  -0.026423  -0.066514   0.057646  -0.002951
   13  C  1 XY   -0.006713   0.034088   0.004365   0.008427   0.074240
   14  C  1 XZ    0.013578  -0.062895   0.009518  -0.004050  -0.006790
   15  C  1 YZ    0.054693  -0.088314  -0.047352   0.008483   0.016743
   16  C  2  S   -0.046561   0.006872  -0.043969  -0.072915   0.018112
   17  C  2  S    0.298470  -0.087251   0.362340   0.488302  -1.266823
   18  C  2  S   -0.473955   0.393071  -0.576896   0.218815   2.729184
   19  C  2  X   -0.007053  -0.071449   0.126811   0.047979   0.176877
   20  C  2  Y   -0.378847  -0.141300  -0.165270  -0.466493   0.012808
   21  C  2  Z   -0.418061  -0.425331   0.439186   0.180524   0.016203
   22  C  2  X    0.066676  -0.059819  -0.491606  -0.741610  -0.153247
   23  C  2  Y    0.304066   0.448635  -0.245145   1.398224  -0.590982
   24  C  2  Z    0.712096  -0.124664  -0.967492  -0.340473  -0.067033
   25  C  2 XX    0.029846   0.004568   0.032932   0.087321  -0.002189
   26  C  2 YY   -0.004349  -0.067842   0.014679  -0.024661   0.008239
   27  C  2 ZZ   -0.025497   0.063274  -0.047610  -0.062660  -0.006050
   28  C  2 XY   -0.012303  -0.036528  -0.007990  -0.012557   0.075143
   29  C  2 XZ   -0.025422  -0.043748  -0.026332  -0.009753   0.000037
   30  C  2 YZ   -0.072977  -0.088317   0.009609   0.004848  -0.019678
   31  F  3  S    0.016010   0.003163   0.004050   0.013420   0.039305
   32  F  3  S   -0.075678   0.003994  -0.040896  -0.038038  -0.178600
   33  F  3  S    0.019579  -0.103902   0.134142  -0.090345  -0.165118
   34  F  3  X    0.030049   0.017547   0.076264  -0.011391   0.028843
   35  F  3  Y   -0.010291   0.056186   0.013845   0.034267  -0.119506
   36  F  3  Z    0.012796   0.160862   0.054152  -0.048327  -0.030525
   37  F  3  X    0.008164   0.033933  -0.008019   0.116211   0.170725
   38  F  3  Y   -0.000352  -0.012682  -0.008875  -0.079591   0.224711
   39  F  3  Z   -0.062212  -0.037916   0.085319   0.017549  -0.015856
   40  F  3 XX   -0.003043   0.002716  -0.000686  -0.012876  -0.011613
   41  F  3 YY    0.011544   0.005135   0.002319   0.004929   0.005654
   42  F  3 ZZ   -0.008500  -0.007852  -0.001633   0.007947   0.005960
   43  F  3 XY    0.008806   0.008260   0.003506   0.009526  -0.038762
   44  F  3 XZ    0.007989   0.022271  -0.002346  -0.003950   0.010777
   45  F  3 YZ    0.003947   0.014880  -0.007471  -0.002581   0.009191
   46  H  4  S   -0.219143   0.660556  -0.306902  -0.532988  -0.351342
   47  H  4  S   -0.472526  -0.619172   1.050592   1.285129  -0.511606
   48  H  4  X   -0.026086  -0.011727  -0.005840   0.002685  -0.018220
   49  H  4  Y   -0.021981  -0.030019  -0.002601   0.020507  -0.027003
   50  H  4  Z   -0.006913   0.047251  -0.077453  -0.071442   0.012708
   51  H  5  S   -0.627243  -0.509863  -0.411574  -0.364980  -0.362388
   52  H  5  S    1.141603   0.843879  -0.402017   0.860407  -0.879325
   53  H  5  X    0.020174   0.036530  -0.004527   0.012340  -0.042644
   54  H  5  Y    0.051795   0.055954   0.004584   0.029248  -0.022782
   55  H  5  Z    0.068992  -0.005385   0.012133   0.049246  -0.000774
   56  F  6  S    0.013757  -0.006525   0.001134  -0.011348   0.036128
   57  F  6  S   -0.066990   0.018948  -0.030342   0.030740  -0.170546
   58  F  6  S    0.018207   0.056508   0.133922   0.091992  -0.106022
   59  F  6  X   -0.016850   0.035377  -0.058311  -0.014421  -0.059558
   60  F  6  Y    0.029238   0.043387   0.014685   0.028822   0.108664
   61  F  6  Z   -0.029509  -0.158942   0.015250   0.042786  -0.037149
   62  F  6  X   -0.010394   0.033983   0.018888   0.106287  -0.115354
   63  F  6  Y    0.017260  -0.019994   0.019583  -0.077091  -0.209932
   64  F  6  Z   -0.055668   0.028522   0.100484  -0.017725   0.005276
   65  F  6 XX   -0.005183  -0.000625  -0.000786   0.009132  -0.008194
   66  F  6 YY    0.008669  -0.005591   0.000944  -0.001916   0.003108
   67  F  6 ZZ   -0.003486   0.006217  -0.000157  -0.007216   0.005086
   68  F  6 XY    0.005636  -0.008396   0.001551  -0.007716  -0.036977
   69  F  6 XZ   -0.002760   0.019741   0.006703  -0.003999  -0.007026
   70  F  6 YZ   -0.001851   0.013083   0.009356  -0.001952  -0.008386
   71  H  7  S   -0.320726  -0.444765  -0.499389   0.491586  -0.314017
   72  H  7  S   -0.356211   0.231879   1.359083  -1.266935  -0.500126
   73  H  7  X    0.018445  -0.018593   0.000375   0.004638   0.019185
   74  H  7  Y    0.017179  -0.028781  -0.014658   0.025377   0.027314
   75  H  7  Z   -0.013245  -0.012585  -0.091817   0.066332   0.010860
   76  H  8  S   -0.516936   0.679018  -0.184248   0.317515  -0.325402
   77  H  8  S    1.129362  -0.817257  -0.735397  -0.817552  -0.873470
   78  H  8  X   -0.013825   0.036959   0.014652   0.008378   0.039428
   79  H  8  Y   -0.040712   0.058602   0.021870   0.025547   0.023255
   80  H  8  Z    0.074762  -0.013665   0.007429  -0.046239  -0.003930

                     36         37         38         39         40
                    0.9105     0.9722     0.9927     1.0299     1.1259
                     A          A          A          A          A   
    1  C  1  S   -0.014182   0.000500  -0.009263  -0.021796   0.025833
    2  C  1  S   -0.716680   0.208070  -0.291541   0.011353   1.207193
    3  C  1  S    3.530677  -0.408668   1.275328   1.371308  -4.709193
    4  C  1  X   -0.099826   0.061184  -0.073963  -0.189396  -0.179769
    5  C  1  Y   -0.119906   0.017784   0.006600  -0.162790  -0.031033
    6  C  1  Z   -0.033029   0.032665  -0.061265  -0.048361  -0.021158
    7  C  1  X    0.828474  -0.124680   0.223023   0.203914  -1.236002
    8  C  1  Y   -0.784965  -0.057283  -0.109966  -0.177320   1.035496
    9  C  1  Z   -0.061657  -0.144442   0.356573   0.061692  -0.622983
   10  C  1 XX    0.172902   0.027814  -0.043275   0.047449   0.035529
   11  C  1 YY   -0.154880   0.047503   0.119016   0.070341  -0.068106
   12  C  1 ZZ   -0.018022  -0.075318  -0.075741  -0.117790   0.032577
   13  C  1 XY    0.023832   0.017289   0.036975   0.100390   0.034213
   14  C  1 XZ   -0.033227  -0.195111   0.060955   0.075369   0.013590
   15  C  1 YZ   -0.010101   0.090498   0.051004   0.043916   0.010918
   16  C  2  S    0.017155   0.000530   0.012927   0.004217  -0.030628
   17  C  2  S    0.557076   0.188354   0.001371   0.542104  -1.135256
   18  C  2  S   -3.504486  -0.388377  -1.250902  -1.245448   4.716470
   19  C  2  X   -0.167184  -0.077407  -0.208550   0.128285  -0.166990
   20  C  2  Y   -0.179363  -0.023954  -0.089131   0.106249  -0.008161
   21  C  2  Z    0.067689   0.028840   0.086395  -0.009322   0.019424
   22  C  2  X    0.842046   0.105349   0.149734   0.367118  -1.047368
   23  C  2  Y   -0.776327   0.057379  -0.101447  -0.274567   1.071385
   24  C  2  Z    0.111217  -0.207519  -0.282023  -0.186897   0.661313
   25  C  2 XX   -0.177548   0.043559  -0.009334   0.044624  -0.033104
   26  C  2 YY    0.142175   0.012870  -0.120204  -0.008808   0.082158
   27  C  2 ZZ    0.035373  -0.056429   0.129538  -0.035816  -0.049054
   28  C  2 XY   -0.049376   0.014480  -0.093389   0.064144  -0.057670
   29  C  2 XZ    0.002806   0.191726   0.088635  -0.041042   0.013388
   30  C  2 YZ   -0.010500  -0.092646   0.095070  -0.006496   0.027763
   31  F  3  S   -0.050384  -0.003641  -0.046925   0.022832   0.010140
   32  F  3  S    0.192382   0.008630   0.231430  -0.129656  -0.039731
   33  F  3  S    0.292049   0.013947   0.041494   0.107634  -0.275806
   34  F  3  X    0.461405   0.018647   0.178970  -0.297754   0.319167
   35  F  3  Y   -0.158442  -0.266089   0.568462  -0.184767   0.063454
   36  F  3  Z    0.018190  -0.470706  -0.204769   0.121812   0.228698
   37  F  3  X   -0.874219  -0.078321  -0.468236   0.452161  -0.326439
   38  F  3  Y    0.036785   0.299613  -0.810036   0.295404  -0.100853
   39  F  3  Z    0.075166   0.571634   0.348027  -0.166728  -0.406837
   40  F  3 XX    0.018753  -0.004897  -0.026247   0.032600  -0.063046
   41  F  3 YY    0.002203  -0.006188   0.012548  -0.008134  -0.002773
   42  F  3 ZZ   -0.020956   0.011085   0.013698  -0.024465   0.065819
   43  F  3 XY   -0.025141  -0.006395  -0.018489   0.022179  -0.025259
   44  F  3 XZ    0.000887  -0.005877   0.011239  -0.018569   0.014310
   45  F  3 YZ    0.003818  -0.016671   0.004486  -0.008507   0.007626
   46  H  4  S    0.211864   0.115924   0.157386   0.200232  -0.592613
   47  H  4  S    0.129309   0.141770   0.245395   0.186916  -0.400195
   48  H  4  X   -0.022024   0.123540   0.061363  -0.020339   0.020244
   49  H  4  Y   -0.022168  -0.029639   0.095047  -0.009001  -0.016175
   50  H  4  Z   -0.030691  -0.033763   0.023203  -0.004050   0.017785
   51  H  5  S    0.252099   0.041703   0.124798   0.224369  -0.329551
   52  H  5  S    0.222036   0.067892  -0.104742  -0.152923   0.030750
   53  H  5  X    0.052745  -0.094019   0.018802  -0.005968   0.023452
   54  H  5  Y   -0.018856   0.001081   0.081614  -0.002136  -0.056417
   55  H  5  Z    0.031949   0.021900  -0.081734   0.009326   0.039349
   56  F  6  S    0.044292  -0.002358   0.020022   0.058403  -0.006715
   57  F  6  S   -0.186457   0.005519  -0.104442  -0.339946   0.000401
   58  F  6  S   -0.208750   0.005405  -0.024792   0.081221   0.256809
   59  F  6  X    0.370717  -0.043641  -0.060795   0.395847   0.264747
   60  F  6  Y   -0.192662   0.285147   0.342743   0.459346   0.264463
   61  F  6  Z   -0.060894  -0.449843   0.111067   0.210851  -0.126235
   62  F  6  X   -0.697525   0.091768  -0.032761  -0.713738  -0.192627
[...]
   27  C  2 ZZ   -0.002425  -0.002397   0.017357   0.033653  -0.050727
   28  C  2 XY    0.003869  -0.012735  -0.023985   0.027144  -0.046381
   29  C  2 XZ   -0.001345  -0.010557   0.015695   0.005936  -0.000114
   30  C  2 YZ   -0.003165  -0.008271   0.001427   0.008628  -0.019976
   31  F  3  S   -0.020872   0.013030   0.059763   0.011867  -0.004611
   32  F  3  S    0.041069  -0.028413  -0.103659  -0.021951  -0.008167
   33  F  3  S    0.160516  -0.092331  -0.559095  -0.105443   0.130969
   34  F  3  X   -0.113898   0.008847   0.163466   0.141927  -0.015369
   35  F  3  Y   -0.023394   0.025945   0.170456  -0.060758   0.071806
   36  F  3  Z    0.019999   0.071960  -0.060428  -0.011562  -0.011360
   37  F  3  X   -0.133897   0.016963   0.220999   0.202278  -0.093029
   38  F  3  Y   -0.052400   0.055440   0.166634  -0.114704   0.134024
   39  F  3  Z    0.029102   0.097153  -0.092162   0.011024   0.016741
   40  F  3 XX    0.000757  -0.001011   0.000938   0.010586   0.007401
   41  F  3 YY   -0.002453   0.004414  -0.001975  -0.012338   0.001263
   42  F  3 ZZ    0.001695  -0.003403   0.001037   0.001752  -0.008663
   43  F  3 XY   -0.002752   0.000337   0.006945   0.003178  -0.004690
   44  F  3 XZ    0.000765   0.007525  -0.002288  -0.001090  -0.003319
   45  F  3 YZ    0.001911  -0.001450  -0.003554   0.003672  -0.000611
   46  H  4  S    0.064192   0.016380   0.044244   0.061841  -0.186730
   47  H  4  S    0.958073   1.238422  -0.244773   0.865457  -0.095245
   48  H  4  X   -0.000385   0.004156   0.019058  -0.003612   0.013980
   49  H  4  Y   -0.007895  -0.013313   0.010067   0.010952  -0.030594
   50  H  4  Z    0.009777   0.008151  -0.001848   0.018627  -0.001883
   51  H  5  S    0.047697  -0.051771  -0.059146   0.085330  -0.317439
   52  H  5  S    0.893896  -1.267105   0.306588   0.015403  -0.084441
   53  H  5  X   -0.004499   0.010148   0.011652  -0.011227   0.010660
   54  H  5  Y   -0.010463   0.011163   0.007575   0.012238  -0.020433
   55  H  5  Z   -0.006163   0.009193  -0.014735  -0.012325   0.009256
   56  F  6  S    0.020850  -0.013282   0.059724  -0.011900  -0.004625
   57  F  6  S   -0.041049   0.028861  -0.103563   0.022005  -0.008133
   58  F  6  S   -0.160232   0.094621  -0.558913   0.105810   0.131060
   59  F  6  X   -0.113591   0.008872  -0.163893   0.142119   0.015360
   60  F  6  Y   -0.023900   0.022021  -0.173987  -0.059860  -0.072325
   61  F  6  Z   -0.017380  -0.073418  -0.048108   0.014208  -0.006786
   62  F  6  X   -0.133678   0.016966  -0.221676   0.202340   0.093295
   63  F  6  Y   -0.053437   0.049806  -0.172103  -0.115124  -0.132616
   64  F  6  Z   -0.024721  -0.100403  -0.079623  -0.005382   0.024481
   65  F  6 XX   -0.000789   0.001127   0.000973  -0.010601   0.007448
   66  F  6 YY    0.002655  -0.004536  -0.001587   0.012693   0.001296
   67  F  6 ZZ   -0.001866   0.003409   0.000614  -0.002092  -0.008744
   68  F  6 XY    0.002774   0.000113   0.007111  -0.003215  -0.004479
   69  F  6 XZ    0.000607   0.007549   0.001867  -0.000792   0.003438
   70  F  6 YZ    0.001558  -0.000874   0.003683   0.002618  -0.000100
   71  H  7  S   -0.064973  -0.016526   0.044233  -0.061927  -0.186625
   72  H  7  S   -0.964716  -1.237058  -0.250447  -0.865415  -0.095497
   73  H  7  X   -0.000403   0.004166  -0.019055  -0.003769  -0.013997
   74  H  7  Y   -0.008580  -0.013767  -0.010218   0.009732   0.030410
   75  H  7  Z   -0.009294  -0.007303  -0.001064  -0.019260  -0.003724
   76  H  8  S   -0.046826   0.052092  -0.059109  -0.085184  -0.317323
   77  H  8  S   -0.881711   1.265234   0.312706  -0.015524  -0.084257
   78  H  8  X   -0.004410   0.010121  -0.011748  -0.011122  -0.010580
   79  H  8  Y   -0.009922   0.010578  -0.008446   0.013012   0.020982
   80  H  8  Z    0.006771  -0.009915  -0.014170   0.011616   0.008021

                     26         27
                    0.3736     0.3931
                     A          A   
    1  C  1  S   -0.021403  -0.015456
    2  C  1  S    0.100771   0.180940
    3  C  1  S    0.041838  -0.140282
    4  C  1  X   -0.205397  -0.609311
    5  C  1  Y   -0.094748  -0.139663
    6  C  1  Z   -0.047059  -0.131171
    7  C  1  X   -0.012116   0.611091
    8  C  1  Y    0.063120   0.369702
    9  C  1  Z    0.523066   0.163252
   10  C  1 XX    0.005494  -0.031429
   11  C  1 YY    0.011985   0.037779
   12  C  1 ZZ   -0.017479  -0.006351
   13  C  1 XY    0.004010  -0.048787
   14  C  1 XZ    0.025420  -0.001639
   15  C  1 YZ   -0.096165   0.003545
   16  C  2  S   -0.021383   0.015450
   17  C  2  S    0.100671  -0.180883
   18  C  2  S    0.041574   0.140615
   19  C  2  X    0.204738  -0.608473
   20  C  2  Y    0.091346  -0.130776
   21  C  2  Z   -0.054702   0.145161
   22  C  2  X    0.016696   0.610130
   23  C  2  Y   -0.029221   0.358043
   24  C  2  Z    0.525622  -0.192000
   25  C  2 XX    0.005136   0.031382
   26  C  2 YY    0.022542  -0.037221
   27  C  2 ZZ   -0.027677   0.005839
   28  C  2 XY    0.003192   0.048571
   29  C  2 XZ   -0.025951  -0.005050
   30  C  2 YZ    0.093139   0.006339
   31  F  3  S    0.010177   0.011441
   32  F  3  S   -0.047656   0.024357
   33  F  3  S    0.041372  -0.383343
   34  F  3  X    0.048358  -0.183117
   35  F  3  Y    0.041664  -0.155403
   36  F  3  Z   -0.157072   0.035540
   37  F  3  X    0.007266   0.089225
   38  F  3  Y    0.021960  -0.006363
   39  F  3  Z   -0.083927  -0.011831
   40  F  3 XX    0.002792  -0.024803
   41  F  3 YY    0.000437   0.005301
   42  F  3 ZZ   -0.003229   0.019501
   43  F  3 XY    0.008842  -0.033881
   44  F  3 XZ   -0.015148   0.014866
   45  F  3 YZ    0.001187   0.012848
   46  H  4  S   -0.639939   0.047668
   47  H  4  S    0.162146   0.047492
   48  H  4  X   -0.001696  -0.010046
   49  H  4  Y    0.032855   0.014914
   50  H  4  Z   -0.004694   0.005471
   51  H  5  S    0.418755   0.144077
   52  H  5  S   -0.118413   0.057645
   53  H  5  X    0.018290  -0.009983
   54  H  5  Y   -0.028684   0.004553
   55  H  5  Z    0.005737   0.000253
   56  F  6  S    0.010202  -0.011445
   57  F  6  S   -0.047732  -0.024314
   58  F  6  S    0.041262   0.383204
   59  F  6  X   -0.049851  -0.183276
   60  F  6  Y   -0.051675  -0.157410
   61  F  6  Z   -0.153692  -0.023759
   62  F  6  X   -0.008106   0.089355
   63  F  6  Y   -0.027385  -0.005689
   64  F  6  Z   -0.082328   0.011380
   65  F  6 XX    0.003032   0.025005
   66  F  6 YY    0.000281  -0.003933
   67  F  6 ZZ   -0.003314  -0.021072
   68  F  6 XY    0.009793   0.034865
   69  F  6 XZ    0.014487   0.012165
   70  F  6 YZ   -0.001540   0.011361
   71  H  7  S   -0.639971  -0.047645
   72  H  7  S    0.162059  -0.047749
   73  H  7  X    0.001645  -0.010106
   74  H  7  Y   -0.033089   0.014553
   75  H  7  Z   -0.002579  -0.006332
   76  H  8  S    0.419022  -0.144262
   77  H  8  S   -0.118836  -0.057571
   78  H  8  X   -0.018238  -0.009975
   79  H  8  Y    0.028993   0.004542
   80  H  8  Z    0.004032  -0.000449

     ---------------------------------------------------------------------
     PROPERTIES FOR THE PBE      DFT FUNCTIONAL (RHF  TYPE) DENSITY MATRIX
     ---------------------------------------------------------------------

          -----------------
          ENERGY COMPONENTS
          -----------------

         WAVEFUNCTION NORMALIZATION =       1.0000000000

                ONE ELECTRON ENERGY =    -630.8894421751
                TWO ELECTRON ENERGY =     228.3752784606
           NUCLEAR REPULSION ENERGY =     124.5790070392
                                      ------------------
                       TOTAL ENERGY =    -277.9351566753

 ELECTRON-ELECTRON POTENTIAL ENERGY =     228.3752784606
  NUCLEUS-ELECTRON POTENTIAL ENERGY =    -907.9579276462
   NUCLEUS-NUCLEUS POTENTIAL ENERGY =     124.5790070392
                                      ------------------
             TOTAL POTENTIAL ENERGY =    -555.0036421465
               TOTAL KINETIC ENERGY =     277.0684854711
                 VIRIAL RATIO (V/T) =       2.0031280035

          ---------------------------------------
          MULLIKEN AND LOWDIN POPULATION ANALYSES
          ---------------------------------------

     ATOMIC MULLIKEN POPULATION IN EACH MOLECULAR ORBITAL

                      1          2          3          4          5

                  2.000000   2.000000   2.000000   2.000000   2.000000

    1             0.001175  -0.000012   1.122671   0.877101   0.109223
    2             0.000024   0.001139   0.876613   1.123159   0.107463
    3             0.192941   1.805902  -0.000218  -0.000294   0.873051
    4             0.000003  -0.000004   0.000230   0.000093   0.002964
    5             0.000003  -0.000009   0.000339   0.000078   0.006010
    6             1.805856   0.192986  -0.000281  -0.000231   0.892225
    7             0.000011  -0.000011   0.000266   0.000057   0.003024
    8            -0.000014   0.000009   0.000380   0.000037   0.006040

                      6          7          8          9         10

                  2.000000   2.000000   2.000000   2.000000   2.000000

    1             0.087519   0.696742   0.486354   0.522155   0.336127
    2             0.089233   0.696778   0.486383   0.522250   0.335373
    3             0.918364   0.171274   0.253360   0.230284   0.569876
    4             0.002057   0.068586   0.124670   0.178191   0.021858
    5             0.000863   0.063324   0.135589   0.069058   0.071776
    6             0.899137   0.171340   0.253416   0.230952   0.571021
    7             0.002005   0.068634   0.124714   0.178426   0.021600
    8             0.000822   0.063322   0.135513   0.068684   0.072367

                     11         12         13         14         15

                  2.000000   2.000000   2.000000   2.000000   2.000000

    1             0.377897   0.344615   0.299482   0.053509   0.121222
    2             0.378062   0.345205   0.299551   0.053567   0.120925
    3             0.617243   0.453710   0.499161   0.906095   0.738256
    4             0.002154   0.047996   0.137889   0.028477   0.046085
    5             0.002916   0.154025   0.063218   0.011791   0.094074
    6             0.616645   0.452757   0.499772   0.906222   0.738783
    7             0.002169   0.048085   0.137632   0.028521   0.046308
    8             0.002915   0.153609   0.063295   0.011819   0.094348

                     16         17

                  2.000000   2.000000

    1             0.167135   0.280498
    2             0.167350   0.280434
    3             0.489954   0.610711
    4             0.169509   0.064376
    5             0.173910   0.044807
    6             0.489017   0.609954
    7             0.169089   0.064672
    8             0.174036   0.044547

               ----- POPULATIONS IN EACH AO -----
                             MULLIKEN      LOWDIN
              1  C  1  S      1.99340     1.97168
              2  C  1  S      0.76146     0.38640
              3  C  1  S      0.37520     0.28200
              4  C  1  X      0.58456     0.54008
              5  C  1  Y      0.71005     0.64482
              6  C  1  Z      0.76628     0.68857
              7  C  1  X      0.10838     0.21736
              8  C  1  Y      0.22759     0.32535
              9  C  1  Z      0.29396     0.39141
             10  C  1 XX      0.00907     0.16349
             11  C  1 YY      0.01317     0.14989
             12  C  1 ZZ      0.01828     0.15518
             13  C  1 XY      0.01047     0.03680
             14  C  1 XZ      0.01154     0.02018
             15  C  1 YZ      0.00000     0.02962
             16  C  2  S      1.99340     1.97168
             17  C  2  S      0.76148     0.38641
             18  C  2  S      0.37528     0.28201
             19  C  2  X      0.58556     0.54088
             20  C  2  Y      0.71380     0.64815
             21  C  2  Z      0.76149     0.68434
             22  C  2  X      0.10918     0.21807
             23  C  2  Y      0.23139     0.32839
             24  C  2  Z      0.28942     0.38768
             25  C  2 XX      0.00962     0.16337
             26  C  2 YY      0.01306     0.15027
             27  C  2 ZZ      0.01801     0.15629
             28  C  2 XY      0.01080     0.03645
             29  C  2 XZ      0.01102     0.02070
             30  C  2 YZ      0.00000     0.02776
             31  F  3  S      1.99544     1.97164
             32  F  3  S      0.94926     0.75167
             33  F  3  S      0.99834     0.52581
             34  F  3  X      1.02341     0.97788
             35  F  3  Y      1.17206     1.13857
             36  F  3  Z      1.21643     1.18609
             37  F  3  X      0.58899     0.62195
             38  F  3  Y      0.67595     0.70358
             39  F  3  Z      0.69939     0.72793
             40  F  3 XX      0.00136     0.19522
             41  F  3 YY      0.00269     0.19060
             42  F  3 ZZ      0.00326     0.18902
             43  F  3 XY      0.00226     0.00424
             44  F  3 XZ      0.00083     0.00327
             45  F  3 YZ      0.00000     0.00127
             46  H  4  S      0.77146     0.65276
             47  H  4  S      0.10692     0.21524
             48  H  4  X      0.00219     0.00588
             49  H  4  Y      0.00455     0.01122
             50  H  4  Z      0.01002     0.02096
             51  H  5  S      0.76654     0.64798
             52  H  5  S      0.10839     0.21675
             53  H  5  X      0.00262     0.00700
             54  H  5  Y      0.00739     0.01665
             55  H  5  Z      0.00683     0.01440
             56  F  6  S      1.99544     1.97164
             57  F  6  S      0.94927     0.75168
             58  F  6  S      0.99830     0.52581
             59  F  6  X      1.02230     0.97671
             60  F  6  Y      1.16762     1.13377
             61  F  6  Z      1.22201     1.19209
             62  F  6  X      0.58830     0.62142
             63  F  6  Y      0.67327     0.70149
             64  F  6  Z      0.70265     0.73040
             65  F  6 XX      0.00135     0.19528
             66  F  6 YY      0.00272     0.19073
             67  F  6 ZZ      0.00337     0.18883
             68  F  6 XY      0.00214     0.00435
             69  F  6 XZ      0.00082     0.00318
             70  F  6 YZ      0.00000     0.00128
             71  H  7  S      0.77149     0.65245
             72  H  7  S      0.10695     0.21521
             73  H  7  X      0.00217     0.00586
             74  H  7  Y      0.00498     0.01200
             75  H  7  Z      0.00961     0.02014
             76  H  8  S      0.76649     0.64795
             77  H  8  S      0.10840     0.21678
             78  H  8  X      0.00259     0.00693
             79  H  8  Y      0.00684     0.01564
             80  H  8  Z      0.00741     0.01550

          ----- MULLIKEN ATOMIC OVERLAP POPULATIONS -----
          (OFF-DIAGONAL ELEMENTS NEED TO BE MULTIPLIED BY 2)

             1           2           3           4           5

    1    4.6273602
    2    0.3832225   4.6276028
    3   -0.0373511   0.2355156   9.1736928
    4   -0.0324769   0.3769411  -0.0293560   0.6210727
    5   -0.0483410   0.3784313  -0.0253815  -0.0409363   0.6155858
    6    0.2356009  -0.0373659   0.0005642   0.0042103   0.0077662
    7    0.3769807  -0.0324691   0.0042112  -0.0171962   0.0128771
    8    0.3784178  -0.0483687   0.0077741   0.0128772  -0.0082290

             6           7           8

    6    9.1735279
    7   -0.0293698   0.6211225
    8   -0.0253639  -0.0409544   0.6155741

          TOTAL MULLIKEN AND LOWDIN ATOMIC POPULATIONS
       ATOM         MULL.POP.    CHARGE          LOW.POP.     CHARGE
    1 C             5.883413    0.116587         6.002847   -0.002847
    2 C             5.883510    0.116490         6.002473   -0.002473
    3 F             9.329669   -0.329669         9.188739   -0.188739
    4 H             0.895136    0.104864         0.906060    0.093940
    5 H             0.891773    0.108227         0.902780    0.097220
    6 F             9.329570   -0.329570         9.188646   -0.188646
    7 H             0.895202    0.104798         0.905661    0.094339
    8 H             0.891727    0.108273         0.902793    0.097207

          MULLIKEN SPHERICAL HARMONIC POPULATIONS
       ATOM           S       P       D      F      G      H      I    TOTAL
    1 C             3.13    2.69    0.06   0.00   0.00   0.00   0.00    5.88
    2 C             3.13    2.69    0.06   0.00   0.00   0.00   0.00    5.88
    3 F             3.94    5.38    0.01   0.00   0.00   0.00   0.00    9.33
    4 H             0.88    0.02    0.00   0.00   0.00   0.00   0.00    0.90
    5 H             0.87    0.02    0.00   0.00   0.00   0.00   0.00    0.89
    6 F             3.94    5.38    0.01   0.00   0.00   0.00   0.00    9.33
    7 H             0.88    0.02    0.00   0.00   0.00   0.00   0.00    0.90
    8 H             0.87    0.02    0.00   0.00   0.00   0.00   0.00    0.89

          -------------------------------
          BOND ORDER AND VALENCE ANALYSIS     BOND ORDER THRESHOLD=0.050
          -------------------------------

                   BOND                       BOND                       BOND
  ATOM PAIR DIST  ORDER      ATOM PAIR DIST  ORDER      ATOM PAIR DIST  ORDER
    1   2  1.524  1.036        1   6  1.401  0.912        1   7  1.106  0.939
    1   8  1.107  0.940        2   3  1.401  0.912        2   4  1.106  0.939
    2   5  1.107  0.940

                       TOTAL       BONDED        FREE
      ATOM            VALENCE     VALENCE     VALENCE
    1 C                 3.836       3.836       0.000
    2 C                 3.835       3.835       0.000
    3 F                 0.981       0.981      -0.000
    4 H                 0.947       0.947      -0.000
    5 H                 0.961       0.961      -0.000
    6 F                 0.981       0.981      -0.000
    7 H                 0.947       0.947      -0.000
    8 H                 0.961       0.961      -0.000

          ---------------------
          ELECTROSTATIC MOMENTS
          ---------------------

 POINT   1           X           Y           Z (BOHR)    CHARGE
                -0.000000    0.000000   -0.000000       -0.00 (A.U.)
         DX          DY          DZ         /D/  (DEBYE)
     0.003191    0.027224    0.838197    0.838645
 ...... END OF PROPERTY EVALUATION ......
 STEP CPU TIME =     0.02 TOTAL CPU TIME =         93.5 (      1.6 MIN)
 TOTAL WALL CLOCK TIME=         94.0 SECONDS, CPU UTILIZATION IS    99.49%
  $VIB   
          IVIB=   0 IATOM=   0 ICOORD=   0 E=     -277.9351566753
 -7.344922027E-05-2.863765506E-06-6.818409990E-05 3.943208054E-05-2.088506380E-07
  1.101414364E-05-1.355346659E-06 2.137978046E-05-2.856073946E-06-1.201694104E-05
 -4.092499768E-06 2.137690461E-05-1.283947095E-05-2.001851192E-05-1.297982502E-05
  1.293043395E-05 5.010696775E-06 1.819794773E-05 2.476375881E-05-5.783041628E-06
  1.839205689E-05 2.253470562E-05 6.576192228E-06 1.503894600E-05
  3.191362316E-03 2.722417576E-02 8.381970161E-01
 ......END OF GEOMETRY SEARCH......
 STEP CPU TIME =     0.00 TOTAL CPU TIME =         93.5 (      1.6 MIN)
 TOTAL WALL CLOCK TIME=         94.0 SECONDS, CPU UTILIZATION IS    99.48%
                991181  WORDS OF DYNAMIC MEMORY USED
 EXECUTION OF GAMESS TERMINATED NORMALLY Sun Oct  6 23:44:39 2019
 DDI: 263640 bytes (0.3 MB / 0 MWords) used by master data server.

 ----------------------------------------
 CPU timing information for all processes
 ========================================
 0: 91.877 + 1.647 = 93.524
 ----------------------------------------
 ddikick.x: exited gracefully.
----- accounting info -----
Files used on the master node d12chas543.crc.nd.edu were:
-rw-r--r-- 1 wschnei1 campus 378327 Oct  6 23:44 /scratch365/wschnei1/150-PC1.F07
Sun Oct  6 23:44:43 EDT 2019
0.389u 0.331s 1:37.66 0.7%	0+0k 0+32io 0pf+0w
