----- GAMESS execution script 'rungms' -----
This job is running on host d12chas543.crc.nd.edu
under operating system Linux at Sun Oct 6 23:44:43 EDT 2019
SGE has assigned the following compute nodes to this run:
Available scratch disk space (Kbyte units) at beginning of the job is
Filesystem      1K-blocks     Used  Available Use% Mounted on
/dev/sda2      1949705068 64796604 1884908464   4% /
GAMESS temporary binary files will be written to /tmp/474112.1.debug
GAMESS supplementary output files will be written to /afs/crc.nd.edu/user/w/wschnei1/scr
Copying input file 160-PC1.inp to your run's scratch directory...
reading your own /afs/crc.nd.edu/user/w/wschnei1/.gmsrc

 Distributed Data Interface kickoff program.
 Initiating 1 compute processes on 1 nodes to run the following command:
 /afs/crc.nd.edu/x86_64_linux/g/gamess/nov-2017/gamess/gamess.00.x 160-PC1 

          ******************************************************
          *         GAMESS VERSION = 11 NOV 2017 (R3)         *
          *             FROM IOWA STATE UNIVERSITY             *
          * M.W.SCHMIDT, K.K.BALDRIDGE, J.A.BOATZ, S.T.ELBERT, *
          *   M.S.GORDON, J.H.JENSEN, S.KOSEKI, N.MATSUNAGA,   *
          *          K.A.NGUYEN, S.J.SU, T.L.WINDUS,           *
          *       TOGETHER WITH M.DUPUIS, J.A.MONTGOMERY       *
          *         J.COMPUT.CHEM.  14, 1347-1363(1993)        *
          **************** 64 BIT INTEL VERSION ****************

  SINCE 1993, STUDENTS AND POSTDOCS WORKING AT IOWA STATE UNIVERSITY
  AND ALSO IN THEIR VARIOUS JOBS AFTER LEAVING ISU HAVE MADE IMPORTANT
  CONTRIBUTIONS TO THE CODE:
     IVANA ADAMOVIC, CHRISTINE AIKENS, YURI ALEXEEV, POOJA ARORA,
     ANDREY ASADCHEV, ROB BELL, PRADIPTA BANDYOPADHYAY, JONATHAN BENTZ,
     BRETT BODE, KURT BRORSEN, CALEB CARLIN, GALINA CHABAN, WEI CHEN,
     CHEOL HO CHOI, PAUL DAY, ALBERT DEFUSCO, NUWAN DESILVA, TIM DUDLEY,
     DMITRI FEDOROV, ALEX FINDLATER, GRAHAM FLETCHER, MARK FREITAG,
     KURT GLAESEMANN, ANASTASIA GUININA,
     DAN KEMP, GRANT MERRILL, NORIYUKI MINEZAWA, JONATHAN MULLIN,
     TAKESHI NAGATA, SEAN NEDD, HEATHER NETZLOFF, BOSILJKA NJEGIC, RYAN OLSON,
     MIKE PAK, BUU PHAM,
     SPENCER PRUITT, LUKE ROSKOP, JIM SHOEMAKER, LYUDMILA SLIPCHENKO,
     TONY SMITH, SAROM SOK LEANG, JIE SONG, TETSUYA TAKETSUGU, SIMON WEBB,
     PENG XU, SOOHAENG YOO, FEDERICO ZAHARIEV

  ADDITIONAL CODE HAS BEEN PROVIDED BY COLLABORATORS IN OTHER GROUPS:
     IOWA STATE UNIVERSITY:
          JOE IVANIC, AARON WEST, LAIMUTIS BYTAUTAS, KLAUS RUEDENBERG
     UNIVERSITY OF TOKYO: KIMIHIKO HIRAO, TAKAHITO NAKAJIMA,
          TAKAO TSUNEDA, MUNEAKI KAMIYA, SUSUMU YANAGISAWA,
          KIYOSHI YAGI, MAHITO CHIBA, SEIKEN TOKURA, NAOAKI KAWAKAMI
     UNIVERSITY OF AARHUS: FRANK JENSEN
     UNIVERSITY OF IOWA: VISVALDAS KAIRYS, HUI LI
     NATIONAL INST. OF STANDARDS AND TECHNOLOGY: WALT STEVENS, DAVID GARMER
     UNIVERSITY OF PISA: BENEDETTA MENNUCCI, JACOPO TOMASI
     UNIVERSITY OF MEMPHIS: HENRY KURTZ, PRAKASHAN KORAMBATH
     UNIVERSITY OF ALBERTA: TOBY ZENG, MARIUSZ KLOBUKOWSKI
     UNIVERSITY OF NEW ENGLAND: MARK SPACKMAN
     MIE UNIVERSITY: HIROAKI UMEDA
     NAT. INST. OF ADVANCED INDUSTRIAL SCIENCE AND TECHNOLOGY: KAZUO KITAURA
     MICHIGAN STATE UNIVERSITY:
          KAROL KOWALSKI, MARTA WLOCH, JEFFREY GOUR, JESSE LUTZ,
          WEI LI, PIOTR PIECUCH
     UNIVERSITY OF SILESIA: MONIKA MUSIAL, STANISLAW KUCHARSKI
     FACULTES UNIVERSITAIRES NOTRE-DAME DE LA PAIX:
          OLIVIER QUINET, BENOIT CHAMPAGNE
     UNIVERSITY OF CALIFORNIA - SANTA BARBARA: BERNARD KIRTMAN
     INSTITUTE FOR MOLECULAR SCIENCE:
          KAZUYA ISHIMURA, MICHIO KATOUDA, AND SHIGERU NAGASE
     UNIVERSITY OF NOTRE DAME: ANNA POMOGAEVA, DAN CHIPMAN
     KYUSHU UNIVERSITY:
          HARUYUKI NAKANO,
          FENG LONG GU, JACEK KORCHOWIEC, MARCIN MAKOWSKI, AND YURIKO AOKI,
          HIROTOSHI MORI AND EISAKU MIYOSHI
     PENNSYLVANIA STATE UNIVERSITY:
          TZVETELIN IORDANOV, CHET SWALINA, JONATHAN SKONE,
          SHARON HAMMES-SCHIFFER
     WASEDA UNIVERSITY:
          MASATO KOBAYASHI, TOMOKO AKAMA, TSUGUKI TOUMA,
          TAKESHI YOSHIKAWA, YASUHIRO IKABATA, JUNJI SEINO,
          YUYA NAKAJIMA, HIROMI NAKAI
     NANJING UNIVERSITY: SHUHUA LI
     UNIVERSITY OF NEBRASKA:
          PEIFENG SU, DEJUN SI, NANDUN THELLAMUREGE, YALI WANG, HUI LI
     UNIVERSITY OF ZURICH: ROBERTO PEVERATI, KIM BALDRIDGE
     N. COPERNICUS UNIVERSITY AND JACKSON STATE UNIVERSITY:
          MARIA BARYSZ
     UNIVERSITY OF COPENHAGEN: Jimmy Kromann, CASPER STEINMANN
     TOKYO INSTITUTE OF TECHNOLOGY: HIROYA NAKATA
     NAGOYA UNIVERSITY: YOSHIO NISHIMOTO, STEPHAN IRLE
     MOSCOW STATE UNIVERSITY: VLADIMIR MIRONOV

 EXECUTION OF GAMESS BEGUN Sun Oct  6 23:44:43 2019

            ECHO OF THE FIRST FEW INPUT CARDS -
 INPUT CARD> $CONTRL SCFTYP=RHF DFTTYP=PBE RUNTYP=OPTIMIZE COORD=ZMT NZVAR=18 ISPHER=1 $END 
 INPUT CARD> $BASIS GBASIS=PCseg-1 $END                                                     
 INPUT CARD> $STATPT IFREEZ(1)=12 $END                                                      
 INPUT CARD> $DATA                                                                          
 INPUT CARD>FCH2CH2F eclipsed TS                                                            
 INPUT CARD>C1                                                                              
 INPUT CARD>C                                                                               
 INPUT CARD>C   1   r1                                                                      
 INPUT CARD>F   2   r2   1   A1                                                             
 INPUT CARD>H   2   r3   1   A2   3   D1                                                    
 INPUT CARD>H   2   r4   1   A3   3   D2                                                    
 INPUT CARD>F   1   r5   2   A4   3   D3                                                    
 INPUT CARD>H   1   r6   2   A5   6   D4                                                    
 INPUT CARD>H   1   r7   2   A6   6   D5                                                    
 INPUT CARD>                                                                                
 INPUT CARD>r1=1.5                                                                          
 INPUT CARD>r2=1.4                                                                          
 INPUT CARD>r3=1.1                                                                          
 INPUT CARD>r4=1.1                                                                          
 INPUT CARD>r5=1.5                                                                          
 INPUT CARD>r6=1.1                                                                          
 INPUT CARD>r7=1.1                                                                          
 INPUT CARD>A1=109.54214                                                                    
 INPUT CARD>A2=109.54214                                                                    
 INPUT CARD>A3=109.54214                                                                    
 INPUT CARD>A4=109.54214                                                                    
 INPUT CARD>A5=109.54214                                                                    
 INPUT CARD>A6=109.54214                                                                    
 INPUT CARD>D1=120.                                                                         
 INPUT CARD>D2=-120.                                                                        
 INPUT CARD>D3=160                                                                          
 INPUT CARD>D4=120.                                                                         
 INPUT CARD>D5=-120.                                                                        
 INPUT CARD> $END                                                                           
 INPUT CARD>                                                                                
    1000000 WORDS OF MEMORY AVAILABLE

     BASIS OPTIONS
     -------------
     GBASIS=PCSEG-1      IGAUSS=       0      POLAR=NONE    
     NDFUNC=       0     NFFUNC=       0     DIFFSP=       F
     NPFUNC=       0      DIFFS=       F     BASNAM=        


     RUN TITLE
     ---------
 FCH2CH2F eclipsed TS                                                            

 THE POINT GROUP OF THE MOLECULE IS C1      
 THE ORDER OF THE PRINCIPAL AXIS IS     0

 YOUR FULLY SUBSTITUTED Z-MATRIX IS
 C   
 C      1   1.5000000
 F      2   1.4000000  1  109.5421
 H      2   1.1000000  1  109.5421  3  120.0000  0
 H      2   1.1000000  1  109.5421  3 -120.0000  0
 F      1   1.5000000  2  109.5421  3  160.0000  0
 H      1   1.1000000  2  109.5421  6  120.0000  0
 H      1   1.1000000  2  109.5421  6 -120.0000  0

 THE MOMENTS OF INERTIA ARE (AMU-ANGSTROM**2)
 IXX=    16.484   IYY=   138.385   IZZ=   146.498

 ATOM      ATOMIC                      COORDINATES (BOHR)
           CHARGE         X                   Y                   Z
 C           6.0    -0.9792169129        1.0030841000        0.2373519581
 C           6.0     1.0778853304       -0.9470070563        0.2565753041
 F           9.0     3.4068396433        0.2188184880       -0.2082995753
 H           1.0     1.1320887728       -1.8822384429        2.1122132144
 H           1.0     0.7076110463       -2.3628538133       -1.2196573093
 F           9.0    -3.4798367204       -0.2607617761       -0.1921697233
 H           1.0    -1.0123416662        1.9968380051        2.0628227851
 H           1.0    -0.6261261337        2.3712228627       -1.2872827657

          INTERNUCLEAR DISTANCES (ANGS.)
          ------------------------------

                1 C          2 C          3 F          4 H          5 H     

   1 C       0.0000000    1.5000000 *  2.3695781 *  2.1363170 *  2.1363170 *
   2 C       1.5000000 *  0.0000000    1.4000000 *  1.1000000 *  1.1000000 *
   3 F       2.3695781 *  1.4000000 *  0.0000000    2.0476979 *  2.0476979 *
   4 H       2.1363170 *  1.1000000 *  2.0476979 *  0.0000000    1.7955050 *
   5 H       2.1363170 *  1.1000000 *  2.0476979 *  1.7955050 *  0.0000000  
   6 F       1.5000000 *  2.4505612 *  3.6531083    2.8599680 *  2.5383547 *
   7 H       1.1000000 *  2.1363170 *  2.7925578 *  2.3456497 *  3.0278848  
   8 H       1.1000000 *  2.1363170 *  2.4855485 *  3.0278848    2.6029341 *

                6 F          7 H          8 H     

   1 C       1.5000000 *  1.1000000 *  1.1000000 *
   2 C       2.4505612 *  2.1363170 *  2.1363170 *
   3 F       3.6531083    2.7925578 *  2.4855485 *
   4 H       2.8599680 *  2.3456497 *  3.0278848  
   5 H       2.5383547 *  3.0278848    2.6029341 *
   6 F       0.0000000    2.1345124 *  2.1345124 *
   7 H       2.1345124 *  0.0000000    1.7955050 *
   8 H       2.1345124 *  1.7955050 *  0.0000000  

  * ... LESS THAN  3.000


     ATOMIC BASIS SET
     ----------------
 THE CONTRACTED PRIMITIVE FUNCTIONS HAVE BEEN UNNORMALIZED
 THE CONTRACTED BASIS FUNCTIONS ARE NOW NORMALIZED TO UNITY

  SHELL TYPE  PRIMITIVE        EXPONENT          CONTRACTION COEFFICIENT(S)

 C         

      1   S       1          1243.2000000    0.005630097702
      1   S       2           187.1450000    0.041950603854
      1   S       3            42.5126000    0.184664360492
      1   S       4            11.7393000    0.466557421368
      1   S       5             3.5054800    0.448234778316

      2   S       6             5.3908900   -0.148114817444
      2   S       7             0.4933410    1.051981714281

      3   S       8             0.1497410    1.000000000000

      4   P       9             9.1805600    0.063992052045
      4   P      10             1.9365800    0.333521296407
      4   P      11             0.5262960    0.741161730513

      5   P      12             0.1363190    1.000000000000

      6   D      13             0.8000000    1.000000000000

 C         

      7   S      14          1243.2000000    0.005630097702
      7   S      15           187.1450000    0.041950603854
      7   S      16            42.5126000    0.184664360492
      7   S      17            11.7393000    0.466557421368
      7   S      18             3.5054800    0.448234778316

      8   S      19             5.3908900   -0.148114817444
      8   S      20             0.4933410    1.051981714281

      9   S      21             0.1497410    1.000000000000

     10   P      22             9.1805600    0.063992052045
     10   P      23             1.9365800    0.333521296407
     10   P      24             0.5262960    0.741161730513

     11   P      25             0.1363190    1.000000000000

     12   D      26             0.8000000    1.000000000000

 F         

     13   S      27          2931.5500000    0.005390132259
     13   S      28           441.1250000    0.040296704072
     13   S      29           100.2320000    0.180202178717
     13   S      30            27.8655000    0.465064284210
     13   S      31             8.4447000    0.452433138251

     14   S      32            13.6123000   -0.151660908297
     14   S      33             1.2612200    1.053515343452

     15   S      34             0.3708000    1.000000000000

     16   P      35            21.9305000    0.070356827475
     16   P      36             4.7855200    0.356742371235
     16   P      37             1.2837800    0.719732016372

     17   P      38             0.3115580    1.000000000000

     18   D      39             1.1000000    1.000000000000

 H         

     19   S      40            12.2518000    0.037217389296
     19   S      41             1.8687100    0.253808206955
     19   S      42             0.4182080    0.797386763917

     20   S      43             0.1061000    1.000000000000

     21   P      44             1.0000000    1.000000000000

 H         

     22   S      45            12.2518000    0.037217389296
     22   S      46             1.8687100    0.253808206955
     22   S      47             0.4182080    0.797386763917

     23   S      48             0.1061000    1.000000000000

     24   P      49             1.0000000    1.000000000000

 F         

     25   S      50          2931.5500000    0.005390132259
     25   S      51           441.1250000    0.040296704072
     25   S      52           100.2320000    0.180202178717
     25   S      53            27.8655000    0.465064284210
     25   S      54             8.4447000    0.452433138251

     26   S      55            13.6123000   -0.151660908297
     26   S      56             1.2612200    1.053515343452

     27   S      57             0.3708000    1.000000000000

     28   P      58            21.9305000    0.070356827475
     28   P      59             4.7855200    0.356742371235
     28   P      60             1.2837800    0.719732016372

     29   P      61             0.3115580    1.000000000000

     30   D      62             1.1000000    1.000000000000

 H         

     31   S      63            12.2518000    0.037217389296
     31   S      64             1.8687100    0.253808206955
     31   S      65             0.4182080    0.797386763917

     32   S      66             0.1061000    1.000000000000

     33   P      67             1.0000000    1.000000000000

 H         

     34   S      68            12.2518000    0.037217389296
     34   S      69             1.8687100    0.253808206955
     34   S      70             0.4182080    0.797386763917

     35   S      71             0.1061000    1.000000000000

     36   P      72             1.0000000    1.000000000000

 TOTAL NUMBER OF BASIS SET SHELLS             =   36
 NUMBER OF CARTESIAN GAUSSIAN BASIS FUNCTIONS =   80
 NOTE: THIS RUN WILL RESTRICT THE MO VARIATION SPACE TO SPHERICAL HARMONICS.
 THE NUMBER OF ORBITALS KEPT IN THE VARIATIONAL SPACE WILL BE PRINTED LATER.
 NUMBER OF ELECTRONS                          =   34
 CHARGE OF MOLECULE                           =    0
 SPIN MULTIPLICITY                            =    1
 NUMBER OF OCCUPIED ORBITALS (ALPHA)          =   17
 NUMBER OF OCCUPIED ORBITALS (BETA )          =   17
 TOTAL NUMBER OF ATOMS                        =    8
 THE NUCLEAR REPULSION ENERGY IS      122.7510392233

     LEBEDEV GRID-BASED DFT OPTIONS
     ------------------------------
     DFTTYP=PBE     
     NRAD  =      96     NLEB  =     302
     NRAD0 =      24     NLEB0 =     110
     SWOFF =    5.00E-03 (PURE SCF -> DFT)
     SWITCH=    3.00E-04 (COARSE -> TIGHT GRID)
     THRESH=    0.00E+00 GTHRE=    1.00E+00

 GRIMME'S EMPIRICAL DISPERSION CORRECTION= F

     $CONTRL OPTIONS
     ---------------
 SCFTYP=RHF          RUNTYP=OPTIMIZE     EXETYP=RUN     
 MPLEVL=       0     CITYP =NONE         CCTYP =NONE         VBTYP =NONE    
 DFTTYP=PBE          TDDFT =NONE    
 MULT  =       1     ICHARG=       0     NZVAR =      18     COORD =ZMT     
 PP    =NONE         RELWFN=NONE         LOCAL =NONE         NUMGRD=       F
 ISPHER=       1     NOSYM =       0     MAXIT =      30     UNITS =ANGS    
 PLTORB=       F     MOLPLT=       F     AIMPAC=       F     FRIEND=        
 NPRINT=       7     IREST =       0     GEOM  =INPUT   
 NORMF =       0     NORMP =       0     ITOL  =      20     ICUT  =       9
 INTTYP=BEST         GRDTYP=BEST         QMTTOL= 1.0E-06

     $SYSTEM OPTIONS
     ---------------
  REPLICATED MEMORY=     1000000 WORDS (ON EVERY NODE).
 DISTRIBUTED MEMDDI=           0 MILLION WORDS IN AGGREGATE,
 MEMDDI DISTRIBUTED OVER   1 PROCESSORS IS           0 WORDS/PROCESSOR.
 TOTAL MEMORY REQUESTED ON EACH PROCESSOR=     1000000 WORDS.
 TIMLIM=      525600.00 MINUTES, OR     365.0 DAYS.
 PARALL= F  BALTYP=  DLB     KDIAG=    0  COREFL= F
 MXSEQ2=     300 MXSEQ3=     150  mem10=         0

          ----------------
          PROPERTIES INPUT
          ----------------

     MOMENTS            FIELD           POTENTIAL          DENSITY
 IEMOM =       1   IEFLD =       0   IEPOT =       0   IEDEN =       0
 WHERE =COMASS     WHERE =NUCLEI     WHERE =NUCLEI     WHERE =NUCLEI  
 OUTPUT=BOTH       OUTPUT=BOTH       OUTPUT=BOTH       OUTPUT=BOTH    
 IEMINT=       0   IEFINT=       0                     IEDINT=       0
                                                       MORB  =       0
          EXTRAPOLATION IN EFFECT
          DIIS IN EFFECT
 ORBITAL PRINTING OPTION: NPREO=     1    80     2     1

     -------------------------------
     INTEGRAL TRANSFORMATION OPTIONS
     -------------------------------
     NWORD  =            0
     CUTOFF = 1.0E-09     MPTRAN =       0
     DIRTRF =       F     AOINTS =DUP     

          ----------------------
          INTEGRAL INPUT OPTIONS
          ----------------------
 NOPK  =       1 NORDER=       0 SCHWRZ=       T

   --- ENCODED Z MATRIX ---
 COORD  TYPE   I   J   K   L   M   N
    1      1    2   1
    2      1    3   2
    3      2    3   2   1
    4      1    4   2
    5      2    4   2   1
    6      3    4   2   1   3
    7      1    5   2
    8      2    5   2   1
    9      3    5   2   1   3
   10      1    6   1
   11      2    6   1   2
   12      3    6   1   2   3
   13      1    7   1
   14      2    7   1   2
   15      3    7   1   2   6
   16      1    8   1
   17      2    8   1   2
   18      3    8   1   2   6

 THE DETERMINANT OF THE G MATRIX IS 10**(   -12)


                     --------------------
                     INTERNAL COORDINATES
                     --------------------

                 - - ATOMS - -         COORDINATE      COORDINATE
 NO.   TYPE    I  J  K  L  M  N        (BOHR,RAD)       (ANG,DEG)
 ----------------------------------------------------------------
   1 STRETCH   2  1                     2.8345890       1.5000000
   2 STRETCH   3  2                     2.6456164       1.4000000
   3 BEND      3  2  1                  1.9118710     109.5421400
   4 STRETCH   4  2                     2.0786986       1.1000000
   5 BEND      4  2  1                  1.9118710     109.5421400
   6 TORSION   4  2  1  3               2.0943951     120.0000000
   7 STRETCH   5  2                     2.0786986       1.1000000
   8 BEND      5  2  1                  1.9118710     109.5421400
   9 TORSION   5  2  1  3              -2.0943951    -120.0000000
  10 STRETCH   6  1                     2.8345890       1.5000000
  11 BEND      6  1  2                  1.9118710     109.5421400
  12 TORSION   6  1  2  3               2.7925268     160.0000000
  13 STRETCH   7  1                     2.0786986       1.1000000
  14 BEND      7  1  2                  1.9118710     109.5421400
  15 TORSION   7  1  2  6               2.0943951     120.0000000
  16 STRETCH   8  1                     2.0786986       1.1000000
  17 BEND      8  1  2                  1.9118710     109.5421400
  18 TORSION   8  1  2  6              -2.0943951    -120.0000000

     ------------------------------------------
     THE POINT GROUP IS C1 , NAXIS= 0, ORDER= 1
     ------------------------------------------

 -- VARIATIONAL SPACE WILL BE RESTRICTED TO PURE SPHERICAL HARMONICS ONLY --
 AFTER EXCLUDING CONTAMINANT COMBINATIONS FROM THE CARTESIAN GAUSSIAN BASIS
 SET, THE NUMBER OF SPHERICAL HARMONICS KEPT IN THE VARIATION SPACE IS   76

     DIMENSIONS OF THE SYMMETRY SUBSPACES ARE
 A   =   76

 ..... DONE SETTING UP THE RUN .....
 STEP CPU TIME =     0.01 TOTAL CPU TIME =          0.0 (      0.0 MIN)
 TOTAL WALL CLOCK TIME=          0.0 SECONDS, CPU UTILIZATION IS    50.00%


          -----------------------------
          STATIONARY POINT LOCATION RUN
          -----------------------------

 OBTAINING INITIAL HESSIAN, HESS=GUESS   
 DIAGONAL GUESS HESSIAN IN INTERNAL COORDS IS
     1  0.3892     2  0.3267     3  0.2379     4  0.3397     5  0.2253
     6  0.2500     7  0.3397     8  0.2253     9  0.2500    10  0.2690
    11  0.2315    12  0.2500    13  0.3397    14  0.2253    15  0.2500
    16  0.3397    17  0.2253    18  0.2500

          PARAMETERS CONTROLLING GEOMETRY SEARCH ARE
          METHOD =QA                  UPHESS =BFGS    
          NNEG   =         0          NFRZ   =         1
          NSTEP  =        50          IFOLOW =         1
          HESS   =GUESS               RESTAR =         F
          IHREP  =         0          HSSEND =         F
          NPRT   =         0          NPUN   =         0
          OPTTOL = 1.000E-04          RMIN   = 1.500E-03
          RMAX   = 1.000E-01          RLIM   = 7.000E-02
          DXMAX  = 3.000E-01          PURIFY =         F
          MOVIE  =         F          TRUPD  =         T
          TRMAX  = 5.000E-01          TRMIN  = 5.000E-02
          ITBMAT =         5          STPT   =         F
          STSTEP = 1.000E-02          PROJCT=          T
          FROZEN COORD(S)=  12

 BEGINNING GEOMETRY SEARCH POINT NSERCH=   0 ...

 COORDINATES OF ALL ATOMS ARE (ANGS)
   ATOM   CHARGE       X              Y              Z
 ------------------------------------------------------------
 C           6.0  -0.5181793124   0.5308092848   0.1256012563
 C           6.0   0.5703923941  -0.5011345891   0.1357738136
 F           9.0   1.8028220311   0.1157937655  -0.1102273962
 H           1.0   0.5990756227  -0.9960377616   1.1177351786
 H           1.0   0.3744516670  -1.2503684813  -0.6454148999
 F           9.0  -1.8414504235  -0.1379891994  -0.1016918456
 H           1.0  -0.5357081782   1.0566812427   1.0915988871
 H           1.0  -0.3313317051   1.2547971918  -0.6812007530


                     --------------------
                     INTERNAL COORDINATES
                     --------------------

                 - - ATOMS - -         COORDINATE      COORDINATE
 NO.   TYPE    I  J  K  L  M  N        (BOHR,RAD)       (ANG,DEG)
 ----------------------------------------------------------------
   1 STRETCH   2  1                     2.8345890       1.5000000
   2 STRETCH   3  2                     2.6456164       1.4000000
   3 BEND      3  2  1                  1.9118710     109.5421400
   4 STRETCH   4  2                     2.0786986       1.1000000
   5 BEND      4  2  1                  1.9118710     109.5421400
   6 TORSION   4  2  1  3               2.0943951     120.0000000
   7 STRETCH   5  2                     2.0786986       1.1000000
   8 BEND      5  2  1                  1.9118710     109.5421400
   9 TORSION   5  2  1  3              -2.0943951    -120.0000000
  10 STRETCH   6  1                     2.8345890       1.5000000
  11 BEND      6  1  2                  1.9118710     109.5421400
  12 TORSION   6  1  2  3               2.7925268     160.0000000
  13 STRETCH   7  1                     2.0786986       1.1000000
  14 BEND      7  1  2                  1.9118710     109.5421400
  15 TORSION   7  1  2  6               2.0943951     120.0000000
  16 STRETCH   8  1                     2.0786986       1.1000000
  17 BEND      8  1  2                  1.9118710     109.5421400
  18 TORSION   8  1  2  6              -2.0943951    -120.0000000

 THE CURRENT FULLY SUBSTITUTED Z-MATRIX IS
 C   
 C      1   1.5000000
 F      2   1.4000000  1   109.5421400
 H      2   1.1000000  1   109.5421400  3   120.0000000  0
 H      2   1.1000000  1   109.5421400  3  -120.0000000  0
 F      1   1.5000000  2   109.5421400  3   160.0000000  0
 H      1   1.1000000  2   109.5421400  6   120.0000000  0
 H      1   1.1000000  2   109.5421400  6  -120.0000000  0

          ********************
          1 ELECTRON INTEGRALS
          ********************
 ...... END OF ONE-ELECTRON INTEGRALS ......
 STEP CPU TIME =     0.01 TOTAL CPU TIME =          0.0 (      0.0 MIN)
 TOTAL WALL CLOCK TIME=          0.0 SECONDS, CPU UTILIZATION IS    66.67%

          -------------
          GUESS OPTIONS
          -------------
          GUESS =HUCKEL            NORB  =       0          NORDER=       0
          MIX   =       F          PRTMO =       F          PUNMO =       F
          TOLZ  = 1.0E-08          TOLE  = 1.0E-05
          SYMDEN=       F          PURIFY=       F

 INITIAL GUESS ORBITALS GENERATED BY HUCKEL   ROUTINE.
 HUCKEL GUESS REQUIRES     54920 WORDS.

 STATISTICS FOR GENERATION OF SYMMETRY ORBITAL -Q- MATRIX
 NUMBER OF CARTESIAN ATOMIC ORBITALS=         80
 NUMBER OF SPHERICAL CONTAMINANTS DROPPED=     4
 NUMBER OF LINEARLY DEPENDENT MOS DROPPED=     0
 TOTAL NUMBER OF MOS IN VARIATION SPACE=      76

 SYMMETRIES FOR INITIAL GUESS ORBITALS FOLLOW.   BOTH SET(S).
    17 ORBITALS ARE OCCUPIED (    4 CORE ORBITALS).
     5=A        6=A        7=A        8=A        9=A       10=A       11=A   
    12=A       13=A       14=A       15=A       16=A       17=A       18=A   
    19=A       20=A       21=A       22=A       23=A       24=A       25=A   
    26=A       27=A   
 ...... END OF INITIAL ORBITAL SELECTION ......
 STEP CPU TIME =     0.01 TOTAL CPU TIME =          0.0 (      0.0 MIN)
 TOTAL WALL CLOCK TIME=          0.0 SECONDS, CPU UTILIZATION IS    75.00%

                    ----------------------
                    AO INTEGRAL TECHNOLOGY
                    ----------------------
     S,P,L SHELL ROTATED AXIS INTEGRALS, REPROGRAMMED BY
        KAZUYA ISHIMURA (IMS) AND JOSE SIERRA (SYNSTAR).
     S,P,D,L SHELL ROTATED AXIS INTEGRALS PROGRAMMED BY
        KAZUYA ISHIMURA (INSTITUTE FOR MOLECULAR SCIENCE).
     S,P,D,F,G SHELL TO TOTAL QUARTET ANGULAR MOMENTUM SUM 5,
        ERIC PROGRAM BY GRAHAM FLETCHER (ELORET AND NASA ADVANCED
        SUPERCOMPUTING DIVISION, AMES RESEARCH CENTER).
     S,P,D,F,G,L SHELL GENERAL RYS QUADRATURE PROGRAMMED BY
        MICHEL DUPUIS (PACIFIC NORTHWEST NATIONAL LABORATORY).

          --------------------
          2 ELECTRON INTEGRALS
          --------------------

 THE -PK- OPTION IS OFF, THE INTEGRALS ARE NOT IN SUPERMATRIX FORM.
 STORING   15000 INTEGRALS/RECORD ON DISK, USING 12 BYTES/INTEGRAL.
 TWO ELECTRON INTEGRAL EVALUATION REQUIRES   91062 WORDS OF MEMORY.
 SCHWARZ INEQUALITY OVERHEAD:      3217 INTEGRALS, T=        0.00
 II,JST,KST,LST =  1  1  1  1 NREC =         1 INTLOC =    1
 II,JST,KST,LST =  2  1  1  1 NREC =         1 INTLOC =    2
 II,JST,KST,LST =  3  1  1  1 NREC =         1 INTLOC =    7
 II,JST,KST,LST =  4  1  1  1 NREC =         1 INTLOC =   22
 II,JST,KST,LST =  5  1  1  1 NREC =         1 INTLOC =   67
 II,JST,KST,LST =  6  1  1  1 NREC =         1 INTLOC =  214
 II,JST,KST,LST =  7  1  1  1 NREC =         1 INTLOC = 1189
 II,JST,KST,LST =  8  1  1  1 NREC =         1 INTLOC = 3193
 II,JST,KST,LST =  9  1  1  1 NREC =         1 INTLOC = 5654
 II,JST,KST,LST = 10  1  1  1 NREC =         1 INTLOC = 8575
 II,JST,KST,LST = 11  1  1  1 NREC =         2 INTLOC = 5476
 II,JST,KST,LST = 12  1  1  1 NREC =         3 INTLOC = 8134
 II,JST,KST,LST = 13  1  1  1 NREC =         7 INTLOC = 6003
 II,JST,KST,LST = 14  1  1  1 NREC =         8 INTLOC = 3974
 II,JST,KST,LST = 15  1  1  1 NREC =         9 INTLOC = 4741
 II,JST,KST,LST = 16  1  1  1 NREC =        10 INTLOC = 7588
 II,JST,KST,LST = 17  1  1  1 NREC =        14 INTLOC = 9302
 II,JST,KST,LST = 18  1  1  1 NREC =        20 INTLOC =  231
 II,JST,KST,LST = 19  1  1  1 NREC =        34 INTLOC =10454
 II,JST,KST,LST = 20  1  1  1 NREC =        37 INTLOC =13632
 II,JST,KST,LST = 21  1  1  1 NREC =        41 INTLOC = 5172
 II,JST,KST,LST = 22  1  1  1 NREC =        52 INTLOC =13900
 II,JST,KST,LST = 23  1  1  1 NREC =        57 INTLOC = 4678
 II,JST,KST,LST = 24  1  1  1 NREC =        61 INTLOC =14555
 II,JST,KST,LST = 25  1  1  1 NREC =        77 INTLOC = 7397
 II,JST,KST,LST = 26  1  1  1 NREC =        80 INTLOC = 7496
 II,JST,KST,LST = 27  1  1  1 NREC =        84 INTLOC =14232
 II,JST,KST,LST = 28  1  1  1 NREC =        90 INTLOC =12951
 II,JST,KST,LST = 29  1  1  1 NREC =       106 INTLOC = 2947
 II,JST,KST,LST = 30  1  1  1 NREC =       128 INTLOC =11861
 II,JST,KST,LST = 31  1  1  1 NREC =       173 INTLOC =12768
 II,JST,KST,LST = 32  1  1  1 NREC =       184 INTLOC =11516
 II,JST,KST,LST = 33  1  1  1 NREC =       196 INTLOC = 6368
 II,JST,KST,LST = 34  1  1  1 NREC =       231 INTLOC = 8029
 II,JST,KST,LST = 35  1  1  1 NREC =       245 INTLOC =  928
 II,JST,KST,LST = 36  1  1  1 NREC =       259 INTLOC = 6139
 SCHWARZ INEQUALITY TEST SKIPPED       19231 INTEGRAL BLOCKS.
 TOTAL NUMBER OF NONZERO TWO-ELECTRON INTEGRALS =             4528449
        302 INTEGRAL RECORDS WERE STORED ON DISK FILE  8.
  ...... END OF TWO-ELECTRON INTEGRALS .....
 STEP CPU TIME =     0.47 TOTAL CPU TIME =          0.5 (      0.0 MIN)
 TOTAL WALL CLOCK TIME=          0.5 SECONDS, CPU UTILIZATION IS    98.04%

          --------------------------
               R-PBE SCF CALCULATION
          --------------------------

     NUCLEAR ENERGY =       122.7510392233
     MAXIT =   30     NPUNCH=    2
     EXTRAP=T  DAMP=F  SHIFT=F  RSTRCT=F  DIIS=T  DEM=F  SOSCF=F
         DENSITY MATRIX CONVERGENCE THRESHOLD=  1.00E-05
     COARSE -> FINE DFT GRID SWITCH THRESHOLD=  3.00E-04 (SWITCH IN $DFT)
                   HF -> DFT SWITCH THRESHOLD=  5.00E-03 (SWOFF IN $DFT)
     MEMORY REQUIRED FOR RHF ITERS=    365468 WORDS.

 DFT CODE IS SWITCHING FROM THE FINE GRID NRAD= 96,  NLEB=  302
                      TO THE COARSE GRID NRAD0= 24, NLEB0=  110

     EXCHANGE FUNCTIONAL   =PBE       
     CORRELATION FUNCTIONAL=PBE       
     DFT THRESHOLD         =.172E-07
     GRID CHANGE THRESHOLD =.300E-03
 FOR AN EULER-MACLAURIN QUADRATURE USING  96 RADIAL POINTS:
 SMALLEST GAUSSIAN PRIMITIVE EXPONENT=        0.1061000000 OF TYPE -S-
 ON ATOM NUMBER   4 HAS RADIAL NORMALIZATION=  1.000000
  LARGEST GAUSSIAN PRIMITIVE EXPONENT=     2931.5500000000 OF TYPE -S-
 ON ATOM NUMBER   3 HAS RADIAL NORMALIZATION=  1.000000
 DFT IS SWITCHED OFF, PERFORMING PURE SCF UNTIL SWOFF THRESHOLD IS REACHED.

 ITER EX DEM     TOTAL ENERGY        E CHANGE  DENSITY CHANGE    DIIS ERROR
   1  0  0     -276.1217222412  -276.1217222412   0.191073626   0.758046487
          * * *   INITIATING DIIS PROCEDURE   * * *
   2  1  0     -276.7761212351    -0.6543989939   0.091981661   0.104699433
   3  2  0     -276.8183530272    -0.0422317921   0.047560591   0.044161662
   4  3  0     -276.8332735536    -0.0149205264   0.008875993   0.013052973
   5  4  0     -276.8340818847    -0.0008083311   0.002437425   0.001978271
 CONVERGED TO SWOFF, SO DFT CALCULATION IS NOW SWITCHED ON.
          * * *   INITIATING DIIS PROCEDURE   * * *
   6  5  0     -277.9003985394    -1.0663166548   0.093824108   0.094615925
   7  6  0     -277.9153853305    -0.0149867911   0.083799343   0.048221650
   8  7  0     -277.9135364492     0.0018488813   0.051623022   0.045461929
   9  8  0     -277.9292133289    -0.0156768797   0.006891555   0.005597058
  10  9  0     -277.9294478949    -0.0002345659   0.001828089   0.001432218
  11 10  0     -277.9294604163    -0.0000125215   0.000578355   0.000471903
  12 11  0     -277.9294626262    -0.0000022098   0.000043352   0.000086403
 DFT CODE IS SWITCHING BACK TO THE FINE GRID
          * * *   INITIATING DIIS PROCEDURE   * * *
  13 12  0     -277.9296968240    -0.0002341979   0.005011366   0.004179587
  14 13  0     -277.9297392622    -0.0000424381   0.005526322   0.002307259
  15 14  0     -277.9297299777     0.0000092844   0.003001935   0.002667459
  16 15  0     -277.9297648406    -0.0000348628   0.000132633   0.000103083
  17 16  0     -277.9297649081    -0.0000000676   0.000060842   0.000052287
  18 17  0     -277.9297649244    -0.0000000162   0.000018949   0.000012843
  19 18  0     -277.9297649250    -0.0000000006   0.000005320   0.000005973
  20 19  0     -277.9297649252    -0.0000000002   0.000000470   0.000000372

          -----------------
          DENSITY CONVERGED
          -----------------
     TIME TO FORM FOCK OPERATORS=       9.7 SECONDS (       0.5 SEC/ITER)
     TIME TO SOLVE SCF EQUATIONS=       0.1 SECONDS (       0.0 SEC/ITER)

 FINAL R-PBE ENERGY IS     -277.9297649252 AFTER  20 ITERATIONS
 DFT EXCHANGE + CORRELATION ENERGY =       -32.8972524685
 TOTAL ELECTRON NUMBER             =        34.0000522751

          ------------
          EIGENVECTORS
          ------------

                      1          2          3          4          5
                  -24.2467   -24.2337    -9.9749    -9.9728    -1.1069
                     A          A          A          A          A   
    1  C  1  S    0.000044  -0.000183   0.992998  -0.026708  -0.013037
    2  C  1  S    0.000112  -0.000926   0.036738  -0.002007   0.022258
    3  C  1  S   -0.003713   0.008940  -0.022113   0.006372   0.024316
    4  C  1  X   -0.000262  -0.000877  -0.000452  -0.000675   0.012632
    5  C  1  Y    0.000199  -0.000317   0.000139   0.000722  -0.009111
    6  C  1  Z   -0.000034  -0.000142  -0.000012   0.000001  -0.001677
    7  C  1  X   -0.002026  -0.002466  -0.002867   0.002074   0.010227
    8  C  1  Y    0.000895  -0.003437   0.001043  -0.002241  -0.009210
    9  C  1  Z    0.000848  -0.000909  -0.000178   0.000171   0.001482
   10  C  1 XX   -0.000145   0.000447  -0.000269  -0.000333   0.003095
   11  C  1 YY    0.000093  -0.000129  -0.000053  -0.000158  -0.000422
   12  C  1 ZZ    0.000053  -0.000317   0.000322   0.000491  -0.002672
   13  C  1 XY    0.000091   0.000456   0.000207   0.000830  -0.002305
   14  C  1 XZ   -0.000020   0.000143  -0.000055  -0.000011   0.000066
   15  C  1 YZ   -0.000041   0.000099  -0.000014   0.000002   0.000321
   16  C  2  S   -0.000136   0.000043   0.026904   0.992948  -0.064530
   17  C  2  S   -0.000573   0.000157  -0.000052   0.037093   0.121672
   18  C  2  S    0.010050  -0.003609   0.005452  -0.021668   0.010312
   19  C  2  X    0.001086   0.000194   0.000707   0.000874   0.085126
   20  C  2  Y    0.000376  -0.000177  -0.000722   0.000195   0.049176
   21  C  2  Z   -0.000197  -0.000021   0.000012  -0.000111  -0.017798
   22  C  2  X    0.002438   0.002006  -0.002026   0.003036   0.011702
   23  C  2  Y    0.003443  -0.000732   0.002275  -0.001046  -0.000269
   24  C  2  Z   -0.001055   0.000920   0.000115  -0.000216  -0.001456
   25  C  2 XX    0.000220  -0.000156  -0.000329  -0.000028   0.014251
   26  C  2 YY   -0.000078   0.000097  -0.000170  -0.000107  -0.003455
   27  C  2 ZZ   -0.000142   0.000059   0.000498   0.000135  -0.010796
   28  C  2 XY    0.000249   0.000022   0.000841   0.000358   0.013613
   29  C  2 XZ   -0.000079   0.000018  -0.000007  -0.000030  -0.005708
   30  C  2 YZ   -0.000063   0.000032   0.000014  -0.000017  -0.003055
   31  F  3  S    0.993084   0.001020   0.000005   0.000065  -0.237878
   32  F  3  S    0.034046  -0.000174  -0.000156   0.000473   0.484000
   33  F  3  S   -0.016970   0.000483   0.000018  -0.000802   0.497212
   34  F  3  X   -0.001069   0.000069   0.000094   0.000292  -0.088895
   35  F  3  Y   -0.000534  -0.000090  -0.000005   0.000096  -0.041691
   36  F  3  Z    0.000208   0.000015  -0.000022  -0.000053   0.017554
   37  F  3  X    0.003419  -0.000518  -0.000173   0.001617  -0.041875
   38  F  3  Y    0.001668   0.000312   0.000193   0.001131  -0.018289
   39  F  3  Z   -0.000638  -0.000096   0.000025  -0.000366   0.008328
   40  F  3 XX   -0.000308   0.000051   0.000055  -0.000847   0.008606
   41  F  3 YY    0.000130  -0.000022   0.000022   0.000241  -0.002786
   42  F  3 ZZ    0.000178  -0.000029  -0.000077   0.000606  -0.005820
   43  F  3 XY   -0.000345   0.000009  -0.000160  -0.000851   0.007876
   44  F  3 XZ    0.000121   0.000002   0.000002   0.000347  -0.003451
   45  F  3 YZ    0.000051   0.000023   0.000012   0.000181  -0.001624
   46  H  4  S   -0.000926   0.000071  -0.000340  -0.001188   0.021991
   47  H  4  S    0.000070  -0.000733   0.000478   0.003387   0.000894
   48  H  4  X   -0.000297   0.000030  -0.000113  -0.000102   0.000773
   49  H  4  Y   -0.000280  -0.000066   0.000053  -0.000546   0.002727
   50  H  4  Z    0.000101   0.000017   0.000049   0.001149  -0.004555
   51  H  5  S   -0.000935   0.000226  -0.000310  -0.001150   0.021857
   52  H  5  S   -0.000206   0.000385   0.000878   0.003427   0.001449
   53  H  5  X   -0.000320   0.000084  -0.000141  -0.000362   0.001730
   54  H  5  Y   -0.000285  -0.000051   0.000071  -0.000818   0.003868
   55  H  5  Z    0.000062  -0.000008  -0.000040  -0.000881   0.003282
   56  F  6  S   -0.001024   0.993091   0.000047   0.000003  -0.012204
   57  F  6  S   -0.000228   0.033703   0.000406  -0.000155   0.024700
   58  F  6  S    0.000450  -0.015969  -0.000051   0.000031   0.025110
   59  F  6  X   -0.000076   0.001003  -0.000089  -0.000088   0.005024
   60  F  6  Y    0.000081   0.000513   0.000008   0.000016   0.001808
   61  F  6  Z    0.000010   0.000167  -0.000012  -0.000019   0.000682
   62  F  6  X    0.000480  -0.003211  -0.001059   0.000238   0.001550
   63  F  6  Y   -0.000300  -0.001587  -0.000866  -0.000134   0.001774
   64  F  6  Z   -0.000076  -0.000510  -0.000213   0.000044   0.000381
   65  F  6 XX    0.000047  -0.000305  -0.000783   0.000093   0.000512
   66  F  6 YY   -0.000026   0.000122   0.000207  -0.000003  -0.000091
   67  F  6 ZZ   -0.000021   0.000182   0.000576  -0.000090  -0.000422
   68  F  6 XY    0.000000  -0.000335  -0.000818  -0.000104   0.000543
   69  F  6 XZ   -0.000006  -0.000100  -0.000279   0.000015   0.000168
   70  F  6 YZ   -0.000024  -0.000045  -0.000150  -0.000008   0.000108
   71  H  7  S    0.000076  -0.000740  -0.001193  -0.000261   0.003133
   72  H  7  S   -0.000741   0.000188   0.003472   0.000287   0.000325
   73  H  7  X   -0.000048   0.000316   0.000126   0.000105  -0.000000
   74  H  7  Y    0.000063   0.000252   0.000591  -0.000082  -0.000332
   75  H  7  Z    0.000015   0.000019   0.001158  -0.000010  -0.000907
   76  H  8  S    0.000209  -0.000746  -0.001153  -0.000228   0.005229
   77  H  8  S    0.000265  -0.000071   0.003541   0.000655   0.004200
   78  H  8  X   -0.000093   0.000324   0.000369   0.000119   0.000469
   79  H  8  Y    0.000059   0.000238   0.000803  -0.000111  -0.001066
   80  H  8  Z   -0.000021   0.000113  -0.000933   0.000008   0.000983

                      6          7          8          9         10
                   -1.0666    -0.7131    -0.5823    -0.4712    -0.4674
                     A          A          A          A          A   
    1  C  1  S   -0.052342  -0.154197   0.127004   0.000134  -0.003220
    2  C  1  S    0.100434   0.316666  -0.275750  -0.001635   0.011314
    3  C  1  S    0.016056   0.178886  -0.143088  -0.003169  -0.008074
    4  C  1  X   -0.068623   0.098367   0.047297  -0.051495  -0.107107
    5  C  1  Y   -0.038681  -0.050968  -0.125898  -0.049670  -0.172613
    6  C  1  Z   -0.011908   0.009838  -0.003193   0.267437  -0.099118
    7  C  1  X   -0.014596   0.031266   0.004817  -0.016890  -0.014953
    8  C  1  Y   -0.001677  -0.008357  -0.055304  -0.027423  -0.068661
    9  C  1  Z   -0.002266   0.003176  -0.009716   0.115114  -0.027819
   10  C  1 XX    0.010571   0.000985  -0.000757  -0.002130  -0.002940
   11  C  1 YY   -0.002412   0.003390   0.004614   0.001608   0.008953
   12  C  1 ZZ   -0.008159  -0.004375  -0.003857   0.000522  -0.006013
   13  C  1 XY    0.010542  -0.008850  -0.008492   0.000447   0.005306
   14  C  1 XZ    0.003709   0.000368   0.000133   0.005595   0.000098
   15  C  1 YZ    0.001959  -0.000355   0.000154  -0.002812   0.003326
   16  C  2  S   -0.005453  -0.148974  -0.127741  -0.003034  -0.007353
   17  C  2  S    0.008112   0.306110   0.279305   0.000274   0.008068
   18  C  2  S    0.018347   0.165240   0.131327   0.025072   0.046742
   19  C  2  X   -0.020225  -0.100916   0.070185  -0.064774  -0.223215
   20  C  2  Y    0.003065   0.056687  -0.125014  -0.082652  -0.205091
   21  C  2  Z    0.000105   0.009238   0.003979   0.310292  -0.110500
   22  C  2  X   -0.009927  -0.032699   0.005083   0.003633  -0.035161
   23  C  2  Y    0.007713   0.008669  -0.058576  -0.015853  -0.069117
   24  C  2  Z    0.002030   0.004428   0.011446   0.125794  -0.064649
   25  C  2 XX    0.001353   0.000092   0.003085  -0.002201  -0.005118
   26  C  2 YY   -0.000117   0.004244  -0.006244  -0.003211  -0.004871
   27  C  2 ZZ   -0.001236  -0.004336   0.003159   0.005412   0.009990
   28  C  2 XY   -0.003193  -0.009173   0.009089  -0.006749  -0.013594
   29  C  2 XZ    0.000557   0.000047  -0.000760   0.002358   0.004063
   30  C  2 YZ   -0.000026   0.000141   0.000332   0.006549   0.002219
   31  F  3  S    0.016017   0.061093   0.046098  -0.022395  -0.038386
   32  F  3  S   -0.032891  -0.132162  -0.101951   0.047026   0.079740
   33  F  3  S   -0.034070  -0.159673  -0.120189   0.069238   0.120259
   34  F  3  X    0.004142  -0.097487  -0.139922   0.234801   0.347254
   35  F  3  Y    0.002703  -0.024041  -0.138085   0.059220   0.076083
   36  F  3  Z   -0.001082   0.016673   0.036758   0.163821  -0.174460
   37  F  3  X    0.002604  -0.054498  -0.085958   0.144605   0.213914
   38  F  3  Y    0.000597  -0.017246  -0.082623   0.033611   0.044565
   39  F  3  Z   -0.000490   0.009036   0.022145   0.098977  -0.104816
   40  F  3 XX   -0.000388   0.005501   0.002843  -0.008950  -0.009451
   41  F  3 YY    0.000151  -0.002415   0.000511   0.002346   0.005711
   42  F  3 ZZ    0.000237  -0.003086  -0.003354   0.006604   0.003740
   43  F  3 XY   -0.000440   0.002638   0.009113  -0.003524  -0.003385
   44  F  3 XZ    0.000203  -0.001691  -0.002243  -0.007637   0.008513
   45  F  3 YZ    0.000088  -0.000555  -0.001766  -0.004015   0.003300
   46  H  4  S    0.000788   0.109300   0.161803   0.214780   0.001582
   47  H  4  S   -0.000217  -0.003684   0.005000   0.028802   0.011466
   48  H  4  X   -0.000053  -0.002211   0.000782  -0.002658  -0.004748
   49  H  4  Y   -0.000001   0.005593   0.003885   0.006649  -0.004840
   50  H  4  Z   -0.000377  -0.009697  -0.012482  -0.007254  -0.001929
   51  H  5  S    0.002876   0.105189   0.166816  -0.096980   0.183770
   52  H  5  S    0.004351  -0.007148   0.012345  -0.000835   0.017717
   53  H  5  X   -0.000569   0.000506   0.003637  -0.002334  -0.003464
   54  H  5  Y    0.000597   0.007587   0.007678  -0.007680   0.005509
   55  H  5  Z    0.000540   0.007838   0.010375   0.001168   0.006816
   56  F  6  S   -0.242332   0.054342  -0.036530   0.003797   0.029408
   57  F  6  S    0.493005  -0.117469   0.082220  -0.007913  -0.062385
   58  F  6  S    0.515792  -0.140848   0.091860  -0.012718  -0.093548
   59  F  6  X    0.072083   0.079271  -0.102543   0.014890   0.246731
   60  F  6  Y    0.034340   0.023049  -0.097359  -0.007334   0.029279
   61  F  6  Z    0.012337   0.012239  -0.022038   0.130858  -0.002876
   62  F  6  X    0.038083   0.044838  -0.066877   0.010214   0.155657
   63  F  6  Y    0.017040   0.016935  -0.059903  -0.004034   0.016706
   64  F  6  Z    0.006632   0.006707  -0.013956   0.077284  -0.002188
   65  F  6 XX    0.008296   0.004557  -0.002755  -0.000345   0.008748
   66  F  6 YY   -0.002553  -0.001840  -0.000182  -0.001071  -0.004183
   67  F  6 ZZ   -0.005743  -0.002717   0.002937   0.001416  -0.004566
   68  F  6 XY    0.007867   0.002746  -0.007153  -0.000675   0.001773
   69  F  6 XZ    0.002915   0.001293  -0.001557   0.006613   0.000077
   70  F  6 YZ    0.001398   0.000501  -0.001161   0.003009  -0.000563
   71  H  7  S    0.019025   0.115065  -0.163208   0.146691  -0.110979
   72  H  7  S    0.001266  -0.003399  -0.005209   0.016407  -0.020817
   73  H  7  X   -0.000862   0.002118   0.000587   0.000177  -0.003831
   74  H  7  Y   -0.002423  -0.006147   0.004240  -0.007247   0.000994
   75  H  7  Z   -0.003661  -0.010148   0.012392  -0.003475   0.004914
   76  H  8  S    0.018677   0.111067  -0.169346  -0.162962  -0.035303
   77  H  8  S    0.001063  -0.007889  -0.014429  -0.008891   0.004983
   78  H  8  X   -0.001630  -0.000542   0.003045  -0.000995  -0.003093
   79  H  8  Y   -0.003097  -0.007723   0.007370   0.008201  -0.001630
   80  H  8  Z    0.002742   0.008616  -0.010802  -0.003058  -0.004044

                     11         12         13         14         15
                   -0.4362    -0.4090    -0.3944    -0.3353    -0.3086
                     A          A          A          A          A   
    1  C  1  S    0.007825   0.011140   0.002694   0.032498   0.000300
    2  C  1  S   -0.023599  -0.012663  -0.005950  -0.070992  -0.003714
    3  C  1  S   -0.011476  -0.049023  -0.005989  -0.137917   0.007252
    4  C  1  X    0.294516  -0.066504   0.008436  -0.092098  -0.006843
    5  C  1  Y   -0.110988  -0.300387   0.028594   0.028265   0.053060
    6  C  1  Z   -0.002138  -0.000359  -0.297707  -0.007325  -0.103281
    7  C  1  X    0.090361   0.013284   0.008817  -0.059248  -0.000397
    8  C  1  Y   -0.057097  -0.098671   0.018968   0.062354   0.031686
    9  C  1  Z   -0.002750   0.004335  -0.156266   0.014348  -0.030831
   10  C  1 XX   -0.008547   0.016410   0.000674   0.014712  -0.000486
   11  C  1 YY    0.006908  -0.002128   0.000235  -0.009787   0.004153
   12  C  1 ZZ    0.001639  -0.014282  -0.000910  -0.004925  -0.003667
   13  C  1 XY   -0.012313   0.009611   0.001162  -0.005771   0.003399
   14  C  1 XZ   -0.002749   0.003863   0.010783   0.000514  -0.016870
   15  C  1 YZ   -0.001642   0.002622  -0.008707  -0.003010  -0.004433
   16  C  2  S   -0.011326   0.008940  -0.004953  -0.027146  -0.000535
   17  C  2  S    0.020915  -0.010468   0.009530   0.055638  -0.002124
   18  C  2  S    0.031280  -0.035191   0.016968   0.130472   0.011572
   19  C  2  X   -0.245190  -0.005911   0.012899  -0.020817  -0.004744
   20  C  2  Y    0.159051   0.238149  -0.018190  -0.078364  -0.064657
   21  C  2  Z    0.012151   0.023113   0.201451   0.024909  -0.171149
   22  C  2  X   -0.077605  -0.037026   0.015602  -0.027830  -0.005885
   23  C  2  Y    0.083169   0.076762   0.000154   0.011442  -0.036148
   24  C  2  Z    0.006285   0.013901   0.109416  -0.008157  -0.072095
   25  C  2 XX   -0.015527   0.013545  -0.001393  -0.019838   0.000230
   26  C  2 YY    0.013569  -0.001870   0.000719   0.011021   0.005359
   27  C  2 ZZ    0.001958  -0.011676   0.000674   0.008816  -0.005589
   28  C  2 XY   -0.006989   0.010139  -0.000707   0.010282   0.005340
   29  C  2 XZ    0.003491  -0.000786   0.017915  -0.000363   0.017138
   30  C  2 YZ   -0.000598  -0.003229  -0.006109  -0.004008   0.009612
   31  F  3  S   -0.015825   0.006847  -0.001148   0.000809   0.000882
   32  F  3  S    0.030803  -0.012445   0.001294  -0.003019  -0.004060
   33  F  3  S    0.049989  -0.013848   0.002245  -0.006324   0.001895
   34  F  3  X    0.088902  -0.251792   0.102480  -0.160695   0.047604
   35  F  3  Y    0.329579   0.102463   0.062328   0.424700   0.103061
   36  F  3  Z   -0.056252   0.103634   0.316919  -0.102733   0.420428
   37  F  3  X    0.053989  -0.154700   0.064844  -0.111042   0.029139
   38  F  3  Y    0.204129   0.064052   0.040841   0.289683   0.074986
   39  F  3  Z   -0.035139   0.067696   0.206125  -0.069451   0.295157
   40  F  3 XX    0.004098   0.008728  -0.004019   0.007110  -0.001379
   41  F  3 YY   -0.006108  -0.007497  -0.000570  -0.006945  -0.000829
   42  F  3 ZZ    0.002010  -0.001231   0.004589  -0.000164   0.002208
   43  F  3 XY   -0.011756  -0.002471  -0.003156  -0.006765  -0.002078
   44  F  3 XZ    0.001372  -0.004597  -0.010243   0.001261  -0.006622
   45  F  3 YZ    0.002942  -0.000366  -0.005916   0.002668  -0.002335
   46  H  4  S   -0.035115  -0.086859   0.156024   0.108379  -0.135108
   47  H  4  S   -0.009003  -0.028661   0.035238   0.042937  -0.033532
   48  H  4  X   -0.004789   0.000143   0.002129  -0.001687   0.002246
   49  H  4  Y    0.001292   0.003485   0.003475  -0.000675  -0.004604
   50  H  4  Z    0.003137   0.004683  -0.004169  -0.003747   0.000888
   51  H  5  S   -0.037025  -0.151155  -0.093286   0.076166   0.174097
   52  H  5  S    0.007932  -0.051654  -0.014705   0.000246   0.040501
   53  H  5  X   -0.005693  -0.003671  -0.002939   0.001907   0.000029
   54  H  5  Y    0.000473  -0.000525  -0.004402  -0.000587   0.003522
   55  H  5  Z   -0.002125  -0.006235   0.000373   0.003848   0.002432
   56  F  6  S   -0.029542   0.020009   0.001911   0.000740   0.000945
   57  F  6  S    0.061743  -0.041351  -0.003830  -0.001102  -0.004169
   58  F  6  S    0.091235  -0.054646  -0.005092   0.002920   0.001154
   59  F  6  X   -0.233411   0.366444   0.064302  -0.139924  -0.062468
   60  F  6  Y   -0.274305   0.013826   0.068571   0.444532  -0.079283
   61  F  6  Z   -0.071917   0.083060  -0.279929   0.069755   0.446307
   62  F  6  X   -0.150441   0.232703   0.042233  -0.092818  -0.038749
   63  F  6  Y   -0.170371   0.012104   0.043523   0.299793  -0.057569
   64  F  6  Z   -0.045175   0.054187  -0.179749   0.046722   0.309143
   65  F  6 XX   -0.002038   0.010905   0.002421  -0.007195  -0.001758
   66  F  6 YY   -0.002106  -0.006838   0.001227   0.007425  -0.000521
   67  F  6 ZZ    0.004144  -0.004067  -0.003648  -0.000231   0.002280
   68  F  6 XY   -0.011037   0.001917   0.003035   0.007692  -0.001980
   69  F  6 XZ   -0.002774   0.003918  -0.009664   0.000706   0.007160
   70  F  6 YZ   -0.002555   0.000651  -0.005325   0.002285   0.003302
   71  H  7  S   -0.058523  -0.133754  -0.205109  -0.049903  -0.073673
   72  H  7  S   -0.011522  -0.040180  -0.041255  -0.019946  -0.008652
   73  H  7  X    0.006566  -0.002344   0.001248  -0.003003  -0.002655
   74  H  7  Y    0.000306  -0.003774   0.006517   0.000247   0.003157
   75  H  7  Z    0.003944   0.006641   0.004292   0.001368  -0.000216
   76  H  8  S   -0.025851  -0.180926   0.186179  -0.035857   0.112300
   77  H  8  S    0.007593  -0.054362   0.032076   0.017693   0.018328
   78  H  8  X    0.007945   0.000970  -0.003681  -0.000092   0.000647
   79  H  8  Y   -0.000455  -0.000196  -0.006945   0.000180  -0.001518
   80  H  8  Z   -0.001823  -0.008494   0.001843  -0.001817   0.002071

                     16         17         18         19         20
                   -0.2944    -0.2931    -0.0213     0.0259     0.0552
                     A          A          A          A          A   
    1  C  1  S   -0.004181  -0.020605   0.058902   0.069090   0.079224
    2  C  1  S    0.010736   0.058749  -0.162676  -0.118679  -0.155587
    3  C  1  S    0.030176   0.070220  -0.094315  -1.098545  -1.093882
    4  C  1  X    0.056997   0.149057   0.388246  -0.003924   0.050160
    5  C  1  Y   -0.023843  -0.221202   0.175737  -0.173977  -0.098566
    6  C  1  Z   -0.215843   0.010019   0.048536  -0.111643   0.232438
    7  C  1  X    0.014574  -0.002708   0.562158  -0.083928  -0.018088
    8  C  1  Y   -0.033287  -0.091934   0.147107  -0.479811  -0.276211
    9  C  1  Z   -0.013123  -0.011564   0.020823  -0.254719   0.569389
   10  C  1 XX    0.005493   0.012434   0.035682  -0.007280  -0.004673
   11  C  1 YY    0.000898  -0.006984  -0.019993  -0.007548   0.009017
   12  C  1 ZZ   -0.006391  -0.005450  -0.015689   0.014829  -0.004344
   13  C  1 XY    0.001735  -0.017095   0.024347   0.001345   0.006058
   14  C  1 XZ   -0.007260   0.000677   0.008903  -0.005742   0.008656
   15  C  1 YZ   -0.022001   0.001379   0.010050   0.006935  -0.021967
   16  C  2  S   -0.003110  -0.020445  -0.026095   0.067870  -0.015022
   17  C  2  S    0.009804   0.058193   0.076640  -0.122561   0.010122
   18  C  2  S   -0.001650   0.090542  -0.124469  -1.009490   0.354184
   19  C  2  X    0.001500  -0.160301   0.214008  -0.032838  -0.097006
   20  C  2  Y    0.065704   0.209165   0.125006   0.143900  -0.040600
   21  C  2  Z    0.206845  -0.072945  -0.028327  -0.113958   0.213436
   22  C  2  X    0.012842  -0.008157   0.392617   0.015413  -0.143993
   23  C  2  Y    0.006349   0.107092   0.112172   0.438832  -0.044401
   24  C  2  Z    0.014574  -0.024404   0.012034  -0.269139   0.510149
   25  C  2 XX   -0.000648   0.012636  -0.036814  -0.001085   0.010505
   26  C  2 YY   -0.004521  -0.005054   0.024479  -0.011672  -0.002564
   27  C  2 ZZ    0.005169  -0.007582   0.012335   0.012757  -0.007941
   28  C  2 XY   -0.008224  -0.015099  -0.018730   0.005106   0.011754
   29  C  2 XZ   -0.006557   0.001958   0.007386   0.004321  -0.012332
   30  C  2 YZ   -0.020482   0.006434   0.012064  -0.008004   0.018915
   31  F  3  S    0.001332  -0.000178   0.047273   0.006316  -0.008622
   32  F  3  S   -0.003431   0.006459  -0.101185  -0.010180   0.015088
   33  F  3  S   -0.008045  -0.028806  -0.316319  -0.059337   0.078587
   34  F  3  X    0.031576   0.205229   0.227874  -0.026763  -0.038325
   35  F  3  Y   -0.136934  -0.280948   0.051204  -0.065452  -0.080573
   36  F  3  Z   -0.304133   0.115949  -0.051994   0.030231   0.012144
   37  F  3  X    0.018414   0.150839   0.201614  -0.010746  -0.030640
   38  F  3  Y   -0.092315  -0.195065   0.059869  -0.075708  -0.067368
   39  F  3  Z   -0.209848   0.077986  -0.048355   0.036750  -0.018851
   40  F  3 XX   -0.000418  -0.002989   0.001395  -0.001638  -0.003607
   41  F  3 YY    0.001387   0.002613   0.000200  -0.002001   0.001923
   42  F  3 ZZ   -0.000969   0.000376  -0.001595   0.003639   0.001684
   43  F  3 XY    0.000949   0.002053  -0.001060  -0.002588  -0.002242
   44  F  3 XZ    0.003768  -0.001041  -0.001148   0.003508  -0.002993
   45  F  3 YZ   -0.000674  -0.000841   0.001074   0.001024  -0.000815
   46  H  4  S    0.189366  -0.151270   0.002606   0.078302  -0.105373
   47  H  4  S    0.124102  -0.082412  -0.006404   1.053105  -1.096605
   48  H  4  X   -0.000983  -0.002998   0.012564  -0.002139  -0.009602
   49  H  4  Y    0.004935   0.002089   0.003072  -0.001544   0.008566
   50  H  4  Z   -0.001559   0.004651   0.002353   0.017760  -0.011115
   51  H  5  S   -0.225245  -0.042502   0.085774   0.012425   0.044854
   52  H  5  S   -0.149323  -0.043987   0.268308   0.366273   0.478274
   53  H  5  X    0.000344  -0.002283   0.011031  -0.004749  -0.004851
   54  H  5  Y   -0.005284   0.003440  -0.001451   0.001629  -0.006064
   55  H  5  Z   -0.001438  -0.004041  -0.006981  -0.009913  -0.000976
   56  F  6  S   -0.001253   0.000007  -0.060854   0.012953  -0.007998
   57  F  6  S    0.004827   0.005386   0.124157  -0.024065   0.013496
   58  F  6  S   -0.000852  -0.025981   0.406424  -0.104796   0.065416
   59  F  6  X   -0.044975  -0.243258   0.322168  -0.004713   0.077220
   60  F  6  Y   -0.019225   0.377690   0.144858   0.048675   0.068414
   61  F  6  Z    0.391967  -0.004052   0.067766   0.016508  -0.001911
   62  F  6  X   -0.036356  -0.175575   0.292825  -0.020448   0.083952
   63  F  6  Y   -0.011319   0.258496   0.142957   0.054139   0.075022
   64  F  6  Z    0.268175  -0.004804   0.061417   0.021403  -0.026667
   65  F  6 XX   -0.000798  -0.004114  -0.002328  -0.001415  -0.002391
   66  F  6 YY   -0.000421   0.003878   0.000343  -0.001807  -0.000416
   67  F  6 ZZ    0.001219   0.000236   0.001984   0.003222   0.002807
   68  F  6 XY   -0.000131   0.002974  -0.001488  -0.002771  -0.005084
   69  F  6 XZ    0.004788  -0.000483  -0.001449  -0.002706   0.003048
   70  F  6 YZ    0.000580   0.000998   0.000339  -0.000882  -0.000714
   71  H  7  S   -0.231089  -0.075329   0.004223   0.088415  -0.036299
   72  H  7  S   -0.144292  -0.035337   0.066718   1.105648  -0.202713
   73  H  7  X   -0.000370   0.002991   0.019299   0.000449   0.004278
   74  H  7  Y    0.003482  -0.003930   0.005146   0.002072  -0.002133
   75  H  7  Z    0.002874   0.003832  -0.002144   0.018715  -0.001127
   76  H  8  S    0.191462  -0.120070  -0.047093   0.028120   0.141232
   77  H  8  S    0.122280  -0.090110  -0.131630   0.458276   1.665282
   78  H  8  X    0.001750   0.001963   0.016752   0.002785   0.004387
   79  H  8  Y   -0.005887  -0.001945   0.001729  -0.001175   0.018558
   80  H  8  Z   -0.000031  -0.004305   0.008163  -0.011826  -0.012648

                     21         22         23         24         25
                    0.0603     0.1035     0.1087     0.1755     0.3333
                     A          A          A          A          A   
    1  C  1  S   -0.060783  -0.033901   0.023106   0.077715   0.008574
    2  C  1  S    0.111267   0.126339  -0.040113  -0.108360  -0.140405
    3  C  1  S    0.842636   0.071851  -0.481604  -1.897144  -0.482552
    4  C  1  X   -0.014131  -0.300373   0.040143  -0.149801  -0.166617
    5  C  1  Y    0.041727  -0.186862   0.095921   0.357468   0.367816
    6  C  1  Z    0.137504  -0.042823  -0.297932   0.082032   0.030412
    7  C  1  X   -0.045912  -0.553002  -0.056235  -1.401697   0.102920
    8  C  1  Y    0.085143  -0.517750   0.374085   1.443278  -1.092803
    9  C  1  Z    0.357338  -0.153994  -0.976397   0.207484  -0.082384
   10  C  1 XX    0.005742   0.003445   0.000931   0.025763  -0.023818
   11  C  1 YY   -0.005941  -0.018407   0.003738   0.006749  -0.033565
   12  C  1 ZZ    0.000199   0.014962  -0.004669  -0.032513   0.057383
   13  C  1 XY    0.003177  -0.018196  -0.004125  -0.031966   0.041039
   14  C  1 XZ    0.006450  -0.002895   0.013387   0.002116  -0.003110
   15  C  1 YZ   -0.013253   0.002906   0.008990   0.003981   0.002922
   16  C  2  S    0.092328  -0.063170  -0.000629  -0.087100   0.008855
   17  C  2  S   -0.167922   0.179135  -0.028535   0.140541  -0.151273
   18  C  2  S   -1.361007   0.417573   0.348635   1.966737  -0.357943
   19  C  2  X    0.009523   0.381837  -0.103301  -0.120806   0.189949
   20  C  2  Y    0.154374   0.163958   0.035548   0.380039  -0.378882
   21  C  2  Z    0.146853   0.080512   0.302726  -0.092941   0.036956
   22  C  2  X    0.091257   0.910938  -0.364361  -1.214463  -0.193139
   23  C  2  Y    0.415207   0.434126   0.212136   1.563257   1.192201
   24  C  2  Z    0.342707   0.253964   0.986807  -0.260554  -0.105710
   25  C  2 XX   -0.003313  -0.009054   0.000260  -0.028848  -0.017318
   26  C  2 YY    0.005938  -0.009711   0.003201  -0.008373  -0.036795
   27  C  2 ZZ   -0.002625   0.018766  -0.003461   0.037222   0.054113
   28  C  2 XY    0.003282  -0.026476   0.014795   0.025256   0.040472
   29  C  2 XZ   -0.004562   0.013310   0.009267   0.003874   0.003102
   30  C  2 YZ    0.013620   0.007803   0.009325   0.004887   0.000145
   31  F  3  S   -0.006138   0.066918  -0.024280   0.011925   0.002752
   32  F  3  S    0.012403  -0.120205   0.048214  -0.020951   0.019392
   33  F  3  S    0.044796  -0.601040   0.197103  -0.114009  -0.145410
   34  F  3  X   -0.076772   0.201404  -0.053196   0.150249   0.004697
   35  F  3  Y   -0.032761   0.176110  -0.057843  -0.047845  -0.068364
   36  F  3  Z   -0.002963  -0.067665  -0.071441  -0.003281   0.032701
   37  F  3  X   -0.087793   0.258554  -0.068548   0.200648   0.097918
   38  F  3  Y   -0.057903   0.179525  -0.079399  -0.109841  -0.135720
   39  F  3  Z   -0.021173  -0.096904  -0.092950   0.008635   0.001756
   40  F  3 XX   -0.001225   0.000718   0.000124   0.012107  -0.007749
   41  F  3 YY   -0.001803  -0.000988  -0.002563  -0.013832  -0.001575
   42  F  3 ZZ    0.003028   0.000270   0.002438   0.001724   0.009323
   43  F  3 XY   -0.004178   0.007131  -0.001844   0.003744   0.004779
   44  F  3 XZ   -0.002456  -0.004110  -0.007429  -0.000606   0.003881
   45  F  3 YZ    0.000945  -0.002381   0.001543   0.002413  -0.000347
   46  H  4  S    0.006745  -0.003746  -0.025667   0.087257   0.305521
   47  H  4  S    0.348908  -0.667764  -1.282171   0.693303   0.026767
   48  H  4  X   -0.001335   0.020341  -0.004844  -0.004126  -0.010042
   49  H  4  Y   -0.001144   0.014512   0.010763   0.010456   0.021080
   50  H  4  Z    0.004411  -0.002774  -0.010224   0.017368   0.003593
   51  H  5  S    0.106449  -0.025356   0.055949   0.071636   0.219593
   52  H  5  S    1.606615   0.489493   1.201503   0.194569   0.130058
   53  H  5  X   -0.002687   0.015115  -0.012184  -0.009382  -0.012368
   54  H  5  Y   -0.016451   0.004191  -0.013130   0.011984   0.025180
   55  H  5  Z   -0.013768  -0.014864  -0.006415  -0.015200  -0.009696
   56  F  6  S    0.012497   0.042653   0.000364  -0.000228   0.003756
   57  F  6  S   -0.025887  -0.073441  -0.005975   0.003721   0.014573
   58  F  6  S   -0.085399  -0.378615   0.019242  -0.021391  -0.139008
   59  F  6  X   -0.060008  -0.132243   0.017416   0.118866  -0.008875
   60  F  6  Y    0.019519  -0.151845   0.019894  -0.071959   0.076557
   61  F  6  Z   -0.001187  -0.006622   0.079264   0.000934   0.031213
   62  F  6  X   -0.076143  -0.173497   0.023489   0.134020  -0.093027
   63  F  6  Y    0.000171  -0.130922  -0.001449  -0.127249   0.110616
   64  F  6  Z   -0.022776  -0.020443   0.100520  -0.014344  -0.001974
   65  F  6 XX   -0.001769   0.001930  -0.000901  -0.011227  -0.004467
   66  F  6 YY    0.001767  -0.001447   0.002804   0.012162  -0.003150
   67  F  6 ZZ    0.000002  -0.000483  -0.001902  -0.000935   0.007617
   68  F  6 XY    0.000725   0.007530  -0.001787  -0.002097   0.000913
   69  F  6 XZ    0.001913  -0.000021  -0.007275  -0.000559  -0.003601
   70  F  6 YZ    0.001225   0.002391   0.000316   0.001934  -0.000228
   71  H  7  S   -0.097482   0.014510   0.024379  -0.077216   0.319420
   72  H  7  S   -1.174938   0.270467   1.324575  -0.703803  -0.011532
   73  H  7  X    0.002564  -0.012840   0.003259  -0.008066   0.011672
   74  H  7  Y   -0.011699  -0.005902   0.015418   0.007831  -0.021658
   75  H  7  Z   -0.010458   0.005110   0.009010  -0.017117   0.004595
   76  H  8  S    0.000793  -0.069254  -0.035328  -0.079194   0.227707
   77  H  8  S   -0.042979   0.208096  -1.277773  -0.161816   0.091476
   78  H  8  X   -0.000579  -0.010906  -0.006954  -0.012501   0.012738
   79  H  8  Y   -0.001689  -0.008283  -0.009583   0.010340  -0.025644
   80  H  8  Z    0.000316  -0.011170   0.011630   0.012434  -0.009599

                     26         27         28         29         30
                    0.3729     0.3873     0.4118     0.4856     0.5104
                     A          A          A          A          A   
    1  C  1  S    0.014340  -0.009927   0.010877   0.072962   0.036143
    2  C  1  S   -0.103627   0.161915  -0.115550  -0.526319  -0.284854
    3  C  1  S    0.219135  -0.179529   0.346024   1.518023   0.785393
    4  C  1  X    0.361000  -0.607951   0.372055  -0.342059  -0.199231
    5  C  1  Y    0.063109  -0.115537   0.258663   0.392743   0.108957
    6  C  1  Z    0.022387  -0.078166   0.085993  -0.196595   0.456092
    7  C  1  X   -0.329403   0.782474  -1.013810   0.913138   0.545436
    8  C  1  Y   -0.052739   0.566524  -0.672997  -1.349081  -0.575224
    9  C  1  Z   -0.532672  -0.019408   0.038539   0.842919  -2.105892
   10  C  1 XX   -0.001135  -0.017135   0.009090  -0.002008  -0.008715
   11  C  1 YY   -0.013573   0.033475   0.013556   0.001775   0.001023
   12  C  1 ZZ    0.014708  -0.016339  -0.022646   0.000233   0.007692
   13  C  1 XY   -0.006302  -0.035063  -0.009049  -0.056732  -0.026603
   14  C  1 XZ   -0.017918  -0.001227   0.014099  -0.023470   0.021737
   15  C  1 YZ    0.097388   0.037273  -0.033026  -0.016508  -0.003363
   16  C  2  S    0.009270   0.017639   0.016399  -0.070502  -0.034386
   17  C  2  S   -0.014339  -0.188830  -0.165030   0.512655   0.270774
   18  C  2  S    0.053390   0.143552   0.286508  -1.493864  -0.762901
   19  C  2  X   -0.092202  -0.555856  -0.622212  -0.282044  -0.192895
   20  C  2  Y   -0.018078  -0.073926  -0.285506   0.468832   0.124195
   21  C  2  Z   -0.003689   0.053095   0.134471   0.191944  -0.496732
   22  C  2  X    0.079394   0.341376   1.304620   0.842275   0.597785
   23  C  2  Y   -0.239165   0.244520   0.658918  -1.429027  -0.492057
   24  C  2  Z   -0.436151  -0.229058  -0.050833  -0.848547   2.240634
   25  C  2 XX   -0.002062   0.020451   0.033409  -0.009896   0.001006
   26  C  2 YY   -0.003029  -0.039784  -0.003597  -0.003607  -0.002742
   27  C  2 ZZ    0.005091   0.019333  -0.029812   0.013503   0.001736
   28  C  2 XY   -0.020186   0.044464   0.021551   0.054548   0.023781
   29  C  2 XZ    0.019996   0.005717  -0.022713  -0.015608   0.014719
   30  C  2 YZ   -0.098150  -0.023591   0.026192  -0.013908  -0.002143
   31  F  3  S   -0.009119   0.008253   0.009354   0.012612  -0.000315
   32  F  3  S    0.034054   0.016027   0.063581  -0.062246  -0.013564
   33  F  3  S    0.009477  -0.271216  -0.587644   0.060836   0.107698
   34  F  3  X   -0.033230  -0.135740  -0.281803   0.048941   0.004617
   35  F  3  Y    0.035229  -0.171665  -0.018724   0.074757   0.022357
   36  F  3  Z    0.133487   0.057405   0.003033   0.081788  -0.184650
   37  F  3  X   -0.039468   0.077865   0.048124  -0.048362  -0.057904
   38  F  3  Y    0.026843  -0.025357   0.067897   0.096243  -0.004995
   39  F  3  Z    0.070938   0.019177  -0.042068   0.052872  -0.143745
   40  F  3 XX    0.000546  -0.020897  -0.035733   0.018725   0.012423
   41  F  3 YY    0.000849   0.003082   0.009488  -0.010238  -0.005861
   42  F  3 ZZ   -0.001396   0.017815   0.026244  -0.008487  -0.006562
   43  F  3 XY   -0.000810  -0.032870  -0.027798  -0.005282  -0.001166
   44  F  3 XZ    0.011554   0.012092   0.011129  -0.003598   0.001651
   45  F  3 YZ   -0.004706   0.007646   0.006275   0.000875  -0.002311
   46  H  4  S    0.492983   0.263179  -0.182198  -0.127875  -0.331057
   47  H  4  S   -0.176349  -0.008145   0.131043   0.108206  -1.141885
   48  H  4  X    0.007014  -0.005796  -0.012649  -0.039020   0.025218
   49  H  4  Y   -0.041196   0.000004   0.018453   0.018700  -0.016298
   50  H  4  Z   -0.002520   0.010398  -0.015665  -0.025914   0.021833
   51  H  5  S   -0.546887   0.005256   0.134842  -0.362932   0.046899
   52  H  5  S    0.087093   0.087629   0.004766  -0.579366   0.836426
   53  H  5  X   -0.010426  -0.012123  -0.008701  -0.007931  -0.032363
   54  H  5  Y    0.026433   0.013049   0.005938   0.002227   0.035447
   55  H  5  Z    0.001996  -0.004923   0.012556   0.000014   0.040279
   56  F  6  S    0.001934  -0.022301   0.009797  -0.012159   0.001235
   57  F  6  S    0.027472   0.006544   0.042857   0.060949   0.013489
   58  F  6  S   -0.190754   0.450128  -0.458408  -0.037210  -0.109887
   59  F  6  X    0.089802  -0.152333   0.189986   0.024869   0.002406
   60  F  6  Y    0.040568  -0.126714  -0.037890   0.074112   0.022937
   61  F  6  Z    0.141158   0.029296  -0.017318  -0.086111   0.179456
   62  F  6  X   -0.041274   0.147731  -0.079289  -0.060041  -0.068015
   63  F  6  Y   -0.029506   0.033458  -0.076286   0.087704  -0.001224
   64  F  6  Z    0.053132   0.036501  -0.042045  -0.046061   0.113956
   65  F  6 XX   -0.010163   0.024371  -0.025266  -0.013265  -0.009445
   66  F  6 YY    0.002845  -0.003485   0.007553   0.005321   0.004496
   67  F  6 ZZ    0.007318  -0.020886   0.017712   0.007944   0.004949
   68  F  6 XY   -0.014835   0.030456  -0.012073   0.002927   0.001352
   69  F  6 XZ   -0.015513   0.004111  -0.005024  -0.000128  -0.002924
   70  F  6 YZ   -0.001228   0.006858  -0.001451   0.001681  -0.005209
   71  H  7  S    0.590113   0.049743  -0.185507   0.198822   0.351345
   72  H  7  S   -0.154983  -0.128766   0.155198  -0.127379   1.031621
   73  H  7  X   -0.004404  -0.005288   0.003878  -0.043005   0.026503
   74  H  7  Y    0.034677   0.027468  -0.016057   0.018899  -0.018959
   75  H  7  Z    0.001909  -0.007171  -0.014318   0.032278  -0.013957
   76  H  8  S   -0.468125  -0.331745   0.152692   0.432942   0.009976
   77  H  8  S    0.142100  -0.036797  -0.020188   0.489075  -0.780353
   78  H  8  X    0.010820  -0.004275   0.003142  -0.007203  -0.037003
   79  H  8  Y   -0.030985   0.001768  -0.003394   0.004854   0.035147
   80  H  8  Z   -0.001924   0.004769   0.009680  -0.009385  -0.043606

                     31         32         33         34         35
                    0.5425     0.5498     0.5567     0.5691     0.7759
                     A          A          A          A          A   
    1  C  1  S   -0.045617   0.015641  -0.029344   0.064416   0.025054
    2  C  1  S    0.299942  -0.103736   0.251680  -0.409898  -1.254754
    3  C  1  S   -0.388338  -0.002146  -0.387847  -0.372758   2.402427
    4  C  1  X   -0.046889  -0.006140  -0.125576   0.001792  -0.123143
    5  C  1  Y    0.431640  -0.206450   0.143807  -0.493146   0.021359
    6  C  1  Z   -0.335880   0.246918   0.713333  -0.121405   0.029494
    7  C  1  X    0.163800  -0.191689   0.418487  -0.696636   0.020555
    8  C  1  Y   -0.399361   0.312048   0.134214   1.547591   0.598783
    9  C  1  Z    0.697658   0.330458  -1.175380   0.241350  -0.093911
   10  C  1 XX    0.045606  -0.020411   0.029281  -0.086377  -0.009125
   11  C  1 YY    0.014279   0.029176   0.030671   0.032375   0.012042
   12  C  1 ZZ   -0.059885  -0.008765  -0.059952   0.054003  -0.002917
   13  C  1 XY   -0.004814   0.023229   0.006873   0.012511   0.075192
   14  C  1 XZ    0.012091  -0.067023  -0.011154  -0.001806  -0.006604
   15  C  1 YZ    0.044189  -0.085208  -0.071048   0.006985   0.011548
   16  C  2  S   -0.052809   0.010029  -0.035157  -0.071867   0.018569
   17  C  2  S    0.357761  -0.102748   0.287046   0.465723  -1.262510
   18  C  2  S   -0.595566   0.331807  -0.454785   0.329103   2.731591
   19  C  2  X    0.023899  -0.073173   0.087655   0.033768   0.174769
   20  C  2  Y   -0.363435  -0.072918  -0.153304  -0.500998   0.010238
   21  C  2  Z   -0.373599  -0.554138   0.421979   0.136761   0.014952
   22  C  2  X   -0.022126   0.041513  -0.367248  -0.753274  -0.116757
   23  C  2  Y    0.180958   0.342444  -0.151982   1.520209  -0.542958
   24  C  2  Z    0.684282   0.247409  -1.056992  -0.289455  -0.063834
   25  C  2 XX    0.037097  -0.003280   0.027939   0.090733   0.001491
   26  C  2 YY    0.009664  -0.049431   0.010121  -0.029447   0.006439
   27  C  2 ZZ   -0.046761   0.052712  -0.038060  -0.061286  -0.007931
   28  C  2 XY   -0.005812  -0.025879  -0.007019  -0.015618   0.076715
   29  C  2 XZ   -0.022285  -0.053370  -0.023152  -0.006010   0.002064
   30  C  2 YZ   -0.060195  -0.107447   0.009032   0.005398  -0.013526
   31  F  3  S    0.015800   0.001331   0.003657   0.014971   0.041926
   32  F  3  S   -0.082172   0.008733  -0.035177  -0.040836  -0.190399
   33  F  3  S    0.056510  -0.083843   0.105177  -0.111301  -0.175705
   34  F  3  X    0.045633   0.003855   0.064154  -0.009906   0.024952
   35  F  3  Y   -0.015943   0.036467   0.008048   0.032862  -0.131987
   36  F  3  Z    0.007017   0.154778   0.066561  -0.029351  -0.028255
   37  F  3  X   -0.001916   0.021685  -0.012884   0.130161   0.183052
   38  F  3  Y    0.005301  -0.011183  -0.004918  -0.085858   0.238998
   39  F  3  Z   -0.055504  -0.063161   0.083985   0.013540  -0.003993
   40  F  3 XX   -0.003256   0.002518  -0.000166  -0.013563  -0.013896
   41  F  3 YY    0.010470   0.002828   0.002506   0.005933   0.006317
   42  F  3 ZZ   -0.007214  -0.005346  -0.002340   0.007630   0.007579
   43  F  3 XY    0.007456   0.005113   0.003285   0.009866  -0.039885
   44  F  3 XZ    0.006916   0.024643  -0.000278  -0.002622   0.006998
   45  F  3 YZ    0.004291   0.017407  -0.005484  -0.001618   0.006038
   46  H  4  S   -0.316308   0.682100  -0.194615  -0.500613  -0.343398
   47  H  4  S   -0.342803  -0.924028   0.983337   1.274438  -0.558586
   48  H  4  X   -0.025248  -0.017848   0.001505   0.006724  -0.020739
   49  H  4  Y   -0.015815  -0.038811   0.000363   0.023476  -0.025503
   50  H  4  Z   -0.021290   0.055512  -0.069009  -0.067834   0.011736
   51  H  5  S   -0.623961  -0.484380  -0.383449  -0.389000  -0.349551
   52  H  5  S    1.066693   0.987193  -0.456758   0.921400  -0.825189
   53  H  5  X    0.015094   0.037457  -0.007800   0.013460  -0.041107
   54  H  5  Y    0.042279   0.056484   0.004516   0.027227  -0.021965
   55  H  5  Z    0.076393   0.006819   0.002855   0.051075  -0.005156
   56  F  6  S    0.014100  -0.004577   0.001096  -0.012877   0.038489
   57  F  6  S   -0.073115   0.018344  -0.026067   0.032775  -0.182157
   58  F  6  S    0.037400   0.015093   0.109163   0.114992  -0.112517
   59  F  6  X   -0.033484   0.034759  -0.044778  -0.015087  -0.058628
   60  F  6  Y    0.032514   0.025000   0.018831   0.027122   0.122591
   61  F  6  Z   -0.020562  -0.154204  -0.011916   0.026498  -0.032391
   62  F  6  X   -0.006614   0.014381   0.020019   0.121554  -0.121955
   63  F  6  Y    0.015245  -0.017327   0.012250  -0.082662  -0.222597
   64  F  6  Z   -0.045673   0.022342   0.109835  -0.011880   0.009790
   65  F  6 XX   -0.005421  -0.000727  -0.000979   0.009583  -0.010039
   66  F  6 YY    0.008381  -0.003813   0.000641  -0.002522   0.004189
   67  F  6 ZZ   -0.002960   0.004541   0.000338  -0.007061   0.005850
   68  F  6 XY    0.005381  -0.005878   0.000732  -0.007797  -0.037887
   69  F  6 XZ   -0.002346   0.019346   0.010011  -0.002604  -0.004610
   70  F  6 YZ   -0.002072   0.012618   0.011429  -0.000972  -0.005555
   71  H  7  S   -0.382434  -0.391829  -0.526812   0.448120  -0.305126
   72  H  7  S   -0.172327   0.185857   1.464104  -1.230364  -0.545776
   73  H  7  X    0.018571  -0.018198  -0.012616   0.007798   0.021036
   74  H  7  Y    0.010891  -0.029856  -0.026134   0.026278   0.025452
   75  H  7  Z   -0.026272  -0.001890  -0.090361   0.061138   0.010486
   76  H  8  S   -0.538175   0.656692  -0.030720   0.333300  -0.311577
   77  H  8  S    1.061829  -0.675051  -0.964472  -0.893109  -0.816824
   78  H  8  X   -0.012182   0.030233   0.025081   0.010758   0.038097
   79  H  8  Y   -0.033656   0.050567   0.031780   0.025248   0.021933
   80  H  8  Z    0.078095  -0.017691  -0.006626  -0.046785  -0.007101

                     36         37         38         39         40
                    0.9105     0.9829     0.9974     1.0290     1.1263
                     A          A          A          A          A   
    1  C  1  S   -0.015114   0.000282   0.005514   0.021688  -0.027454
    2  C  1  S   -0.795838   0.174584   0.188136  -0.070288  -1.198741
    3  C  1  S    3.864717  -0.343189  -0.693036  -1.184818   4.579510
    4  C  1  X   -0.106416   0.046947   0.074083   0.192534   0.130874
    5  C  1  Y   -0.118954   0.010470  -0.009082   0.159959   0.018766
    6  C  1  Z   -0.023591   0.016945   0.043491   0.033700   0.008118
    7  C  1  X    0.900427  -0.105328  -0.090831  -0.153159   1.306167
    8  C  1  Y   -0.883066  -0.062265  -0.081113   0.157126  -0.922151
    9  C  1  Z   -0.041412  -0.132230  -0.253969  -0.062286   0.446454
   10  C  1 XX    0.165493   0.018035   0.050384  -0.047258  -0.045590
   11  C  1 YY   -0.145616   0.033292  -0.127699  -0.084897   0.079440
   12  C  1 ZZ   -0.019877  -0.051328   0.077315   0.132155  -0.033850
   13  C  1 XY    0.020986   0.012000  -0.039910  -0.106560  -0.015455
   14  C  1 XZ   -0.020231  -0.197888  -0.043877  -0.057093  -0.002404
   15  C  1 YZ   -0.005162   0.089287  -0.034779  -0.031028   0.005239
   16  C  2  S    0.018459   0.000616  -0.009994  -0.003914   0.028607
   17  C  2  S    0.610490   0.158619   0.150060  -0.537912   1.062359
   18  C  2  S   -3.798851  -0.339165   0.619913   1.215495  -4.458633
   19  C  2  X   -0.176921  -0.064153   0.221485  -0.105428   0.198170
   20  C  2  Y   -0.180754  -0.018809   0.098757  -0.094768   0.018348
   21  C  2  Z    0.044704   0.010035  -0.059506  -0.002638  -0.012825
   22  C  2  X    0.908887   0.092120  -0.000643  -0.354179   0.889278
   23  C  2  Y   -0.885687   0.072289  -0.077674   0.189071  -0.985796
   24  C  2  Z    0.076015  -0.186691   0.195212   0.153433  -0.541250
   25  C  2 XX   -0.174658   0.028433   0.012719  -0.053201   0.049321
   26  C  2 YY    0.132894   0.006388   0.135205   0.023468  -0.099127
   27  C  2 ZZ    0.041764  -0.034820  -0.147924   0.029733   0.049806
   28  C  2 XY   -0.047632   0.005443   0.109914  -0.055599   0.072004
   29  C  2 XZ    0.003573   0.192782  -0.061983   0.024133  -0.009947
   30  C  2 YZ   -0.004005  -0.092022  -0.067292  -0.003727  -0.026522
   31  F  3  S   -0.053430  -0.003327   0.043274  -0.020868  -0.007062
   32  F  3  S    0.205831   0.010428  -0.215676   0.120783   0.018715
   33  F  3  S    0.310386   0.008237  -0.005306  -0.103434   0.303081
   34  F  3  X    0.451967   0.011854  -0.207203   0.292652  -0.392223
   35  F  3  Y   -0.140322  -0.184561  -0.602691   0.154843   0.108868
   36  F  3  Z   -0.001893  -0.516435   0.132504  -0.081824  -0.222213
   37  F  3  X   -0.891613  -0.059748   0.482059  -0.432798   0.449942
   38  F  3  Y    0.010777   0.206881   0.856214  -0.248643  -0.143679
   39  F  3  Z    0.068886   0.627368  -0.224100   0.107281   0.376113
   40  F  3 XX    0.018834  -0.003800   0.033822  -0.030325   0.070597
   41  F  3 YY    0.003082  -0.004044  -0.012454   0.006491  -0.001970
   42  F  3 ZZ   -0.021916   0.007844  -0.021368   0.023834  -0.068627
   43  F  3 XY   -0.025781  -0.003070   0.021363  -0.023000   0.021299
   44  F  3 XZ    0.000078  -0.005717  -0.009461   0.011839  -0.006432
   45  F  3 YZ    0.002347  -0.017554  -0.004310   0.005358  -0.002097
   46  H  4  S    0.238216   0.115841  -0.093802  -0.207491   0.533968
   47  H  4  S    0.137614   0.094369  -0.177273  -0.175193   0.344352
   48  H  4  X   -0.011323   0.121434  -0.060328   0.011030  -0.029908
   49  H  4  Y   -0.014377  -0.022208  -0.095340  -0.001233   0.033933
   50  H  4  Z   -0.033460  -0.026031  -0.039160   0.001265  -0.008732
   51  H  5  S    0.267266   0.026292  -0.072541  -0.225551   0.318337
   52  H  5  S    0.198728   0.090045   0.062245   0.088324  -0.013505
   53  H  5  X    0.038186  -0.092731  -0.030896   0.002686  -0.033519
   54  H  5  Y   -0.012145   0.004426  -0.084750  -0.003977   0.065760
   55  H  5  Z    0.030969   0.008077   0.076738  -0.002050  -0.039291
   56  F  6  S    0.047738  -0.001699  -0.012307  -0.056993   0.007490
   57  F  6  S   -0.201988   0.004714   0.064700   0.332595  -0.005393
   58  F  6  S   -0.225166   0.001715   0.005887  -0.084880  -0.232125
   59  F  6  X    0.359054  -0.023889   0.084514  -0.399953  -0.180357
   60  F  6  Y   -0.183302   0.214120  -0.342323  -0.504155  -0.282440
   61  F  6  Z   -0.029602  -0.497898  -0.071895  -0.161414   0.060621
   62  F  6  X   -0.712835   0.058497  -0.035522   0.712060   0.064878
[...]
   27  C  2 ZZ    0.002780  -0.002186  -0.019600   0.035780   0.052835
   28  C  2 XY   -0.003663  -0.009146   0.026030   0.026567   0.045120
   29  C  2 XZ    0.000862  -0.011700  -0.010955   0.004455  -0.000363
   30  C  2 YZ    0.001882  -0.009358  -0.000138   0.005644   0.015232
   31  F  3  S    0.019364   0.008917  -0.059705   0.012047   0.003120
   32  F  3  S   -0.038491  -0.019718   0.102146  -0.023911   0.016051
   33  F  3  S   -0.147926  -0.061823   0.566851  -0.101318  -0.137712
   34  F  3  X    0.109212   0.005263  -0.167375   0.151290   0.004196
   35  F  3  Y    0.023218   0.017943  -0.187541  -0.058307  -0.069106
   36  F  3  Z   -0.011338   0.083609   0.040343  -0.008607   0.006313
   37  F  3  X    0.128269   0.010798  -0.229997   0.201684   0.092665
   38  F  3  Y    0.054012   0.038692  -0.182005  -0.115353  -0.134858
   39  F  3  Z   -0.017486   0.110041   0.062055   0.007613  -0.014346
   40  F  3 XX   -0.000734  -0.000839  -0.001643   0.011525  -0.008214
   41  F  3 YY    0.002448   0.003287   0.001706  -0.013359  -0.001313
   42  F  3 ZZ   -0.001714  -0.002448  -0.000064   0.001835   0.009527
   43  F  3 XY    0.002909   0.000182  -0.008523   0.003077   0.004602
   44  F  3 XZ   -0.000422   0.007939   0.001687  -0.000732   0.002327
   45  F  3 YZ   -0.001308  -0.000959   0.002762   0.002394   0.000472
   46  H  4  S   -0.062261   0.022161  -0.028769   0.065353   0.199281
   47  H  4  S   -0.953799   1.267231   0.159753   0.747501   0.097204
   48  H  4  X    0.001102   0.001461  -0.019028  -0.004787  -0.014206
   49  H  4  Y    0.008386  -0.013494  -0.010564   0.010487   0.029946
   50  H  4  Z   -0.009267   0.008747  -0.001101   0.018428   0.003207
   51  H  5  S   -0.052173  -0.050019   0.048333   0.084356   0.312925
   52  H  5  S   -0.910744  -1.302964  -0.187036   0.125746   0.069135
   53  H  5  X    0.003875   0.008585  -0.013762  -0.009751  -0.010832
   54  H  5  Y    0.010034   0.011458  -0.009645   0.011990   0.021401
   55  H  5  Z    0.007115   0.010182   0.012516  -0.013288  -0.007841
   56  F  6  S   -0.019403  -0.009075  -0.059562  -0.012108   0.003134
   57  F  6  S    0.038573   0.019995   0.101818   0.023982   0.016145
   58  F  6  S    0.148184   0.063248   0.565813   0.102104  -0.138480
   59  F  6  X    0.108895   0.005210   0.166895   0.151444  -0.004062
   60  F  6  Y    0.022957   0.015138   0.189159  -0.057560   0.069180
   61  F  6  Z    0.009898  -0.084162   0.032403   0.009789   0.003954
   62  F  6  X    0.128048   0.010727   0.229585   0.201880  -0.093137
   63  F  6  Y    0.053942   0.034860   0.184399  -0.115093   0.134030
   64  F  6  Z    0.015250  -0.111308   0.053995  -0.004484  -0.018694
   65  F  6 XX    0.000782   0.000922  -0.001629  -0.011518  -0.008285
   66  F  6 YY   -0.002538  -0.003338   0.001508   0.013485  -0.001316
   67  F  6 ZZ    0.001756   0.002415   0.000121  -0.001968   0.009601
   68  F  6 XY   -0.002894   0.000094  -0.008609  -0.003132   0.004495
   69  F  6 XZ   -0.000360   0.007945  -0.001369  -0.000549  -0.002385
   70  F  6 YZ   -0.001118  -0.000715  -0.002785   0.001743  -0.000042
   71  H  7  S    0.063272  -0.022150  -0.028804  -0.065726   0.199618
   72  H  7  S    0.963657  -1.266711   0.163020  -0.746785   0.097578
   73  H  7  X    0.001085   0.001458   0.019005  -0.004890   0.014258
   74  H  7  Y    0.008840  -0.013768   0.010541   0.009798  -0.029807
   75  H  7  Z    0.009014  -0.008258  -0.001573  -0.018762   0.004225
   76  H  8  S    0.050943   0.049934   0.048225  -0.083881   0.312257
   77  H  8  S    0.894458   1.302792  -0.190460  -0.127439   0.070713
   78  H  8  X    0.003792   0.008533   0.013814  -0.009683   0.010836
   79  H  8  Y    0.009619   0.011107   0.010069   0.012497  -0.021718
   80  H  8  Z   -0.007366  -0.010618   0.012062   0.012935  -0.007099

                     26         27
                    0.3692     0.3943
                     A          A   
    1  C  1  S   -0.014700   0.012863
    2  C  1  S    0.066124  -0.171128
    3  C  1  S    0.054158   0.140487
    4  C  1  X   -0.133521   0.628406
    5  C  1  Y   -0.064707   0.108722
    6  C  1  Z   -0.013396   0.083077
    7  C  1  X   -0.030150  -0.629441
    8  C  1  Y    0.057356  -0.346460
    9  C  1  Z    0.514672  -0.089886
   10  C  1 XX    0.004683   0.031520
   11  C  1 YY    0.008556  -0.040172
   12  C  1 ZZ   -0.013239   0.008652
   13  C  1 XY    0.002152   0.049587
   14  C  1 XZ    0.027107   0.000456
   15  C  1 YZ   -0.102061  -0.002978
   16  C  2  S   -0.014760  -0.012924
   17  C  2  S    0.066345   0.171339
   18  C  2  S    0.051375  -0.139985
   19  C  2  X    0.132049   0.627366
   20  C  2  Y    0.063870   0.105102
   21  C  2  Z   -0.016727  -0.090797
   22  C  2  X    0.037227  -0.627196
   23  C  2  Y   -0.040245  -0.341503
   24  C  2  Z    0.516676   0.107439
   25  C  2 XX    0.004553  -0.031562
   26  C  2 YY    0.015001   0.040019
   27  C  2 ZZ   -0.019554  -0.008456
   28  C  2 XY    0.001877  -0.049539
   29  C  2 XZ   -0.027240   0.002373
   30  C  2 YZ    0.100846  -0.004534
   31  F  3  S    0.007468  -0.013094
   32  F  3  S   -0.033436  -0.017489
   33  F  3  S    0.019846   0.383371
   34  F  3  X    0.030939   0.177627
   35  F  3  Y    0.031704   0.159213
   36  F  3  Z   -0.145190  -0.020427
   37  F  3  X    0.003992  -0.093989
   38  F  3  Y    0.021782   0.003807
   39  F  3  Z   -0.084382   0.010316
   40  F  3 XX    0.001742   0.025566
   41  F  3 YY    0.000717  -0.003606
   42  F  3 ZZ   -0.002458  -0.021960
   43  F  3 XY    0.005830   0.035796
   44  F  3 XZ   -0.012782  -0.010052
   45  F  3 YZ    0.003285  -0.008856
   46  H  4  S   -0.638077  -0.060539
   47  H  4  S    0.172864  -0.042943
   48  H  4  X   -0.004302   0.009275
   49  H  4  Y    0.033304  -0.013111
   50  H  4  Z   -0.002601  -0.006544
   51  H  5  S    0.467762  -0.130846
   52  H  5  S   -0.144222  -0.054754
   53  H  5  X    0.016458   0.010412
   54  H  5  Y   -0.031638  -0.006495
   55  H  5  Z    0.005203   0.001813
   56  F  6  S    0.007383   0.013134
   57  F  6  S   -0.033331   0.017533
   58  F  6  S    0.020999  -0.384341
   59  F  6  X   -0.032218   0.177924
   60  F  6  Y   -0.037148   0.159760
   61  F  6  Z   -0.143698   0.013099
   62  F  6  X   -0.004215  -0.094358
   63  F  6  Y   -0.024644   0.003215
   64  F  6  Z   -0.083433  -0.010134
   65  F  6 XX    0.001918  -0.025634
   66  F  6 YY    0.000493   0.003011
   67  F  6 ZZ   -0.002410   0.022623
   68  F  6 XY    0.006357  -0.036207
   69  F  6 XZ    0.012552  -0.008351
   70  F  6 YZ   -0.003420  -0.007847
   71  H  7  S   -0.637350   0.059161
   72  H  7  S    0.173469   0.043335
   73  H  7  X    0.004316   0.009345
   74  H  7  Y   -0.033383  -0.012944
   75  H  7  Z   -0.001354   0.006974
   76  H  8  S    0.468490   0.131946
   77  H  8  S   -0.144630   0.054383
   78  H  8  X   -0.016478   0.010367
   79  H  8  Y    0.031822  -0.006456
   80  H  8  Z    0.004058  -0.001662

     ---------------------------------------------------------------------
     PROPERTIES FOR THE PBE      DFT FUNCTIONAL (RHF  TYPE) DENSITY MATRIX
     ---------------------------------------------------------------------

          -----------------
          ENERGY COMPONENTS
          -----------------

         WAVEFUNCTION NORMALIZATION =       1.0000000000

                ONE ELECTRON ENERGY =    -630.9099361870
                TWO ELECTRON ENERGY =     228.3761248415
           NUCLEAR REPULSION ENERGY =     124.5977662648
                                      ------------------
                       TOTAL ENERGY =    -277.9360450807

 ELECTRON-ELECTRON POTENTIAL ENERGY =     228.3761248415
  NUCLEUS-ELECTRON POTENTIAL ENERGY =    -907.9773618290
   NUCLEUS-NUCLEUS POTENTIAL ENERGY =     124.5977662648
                                      ------------------
             TOTAL POTENTIAL ENERGY =    -555.0034707226
               TOTAL KINETIC ENERGY =     277.0674256419
                 VIRIAL RATIO (V/T) =       2.0031350471

          ---------------------------------------
          MULLIKEN AND LOWDIN POPULATION ANALYSES
          ---------------------------------------

     ATOMIC MULLIKEN POPULATION IN EACH MOLECULAR ORBITAL

                      1          2          3          4          5

                  2.000000   2.000000   2.000000   2.000000   2.000000

    1             0.000114   0.001051   1.094101   0.905676   0.107398
    2             0.001096   0.000070   0.905186   1.094591   0.109010
    3             1.689308   0.309535  -0.000225  -0.000290   0.891924
    4             0.000010  -0.000012   0.000248   0.000087   0.003270
    5            -0.000009   0.000002   0.000328   0.000075   0.005423
    6             0.309477   1.689367  -0.000273  -0.000241   0.874376
    7             0.000004  -0.000006   0.000276   0.000059   0.003222
    8             0.000000  -0.000008   0.000359   0.000044   0.005378

                      6          7          8          9         10

                  2.000000   2.000000   2.000000   2.000000   2.000000

    1             0.089349   0.694480   0.488624   0.526252   0.330048
    2             0.087833   0.694588   0.488271   0.526897   0.329825
    3             0.899869   0.172849   0.253330   0.222318   0.581621
    4             0.001768   0.067857   0.125813   0.161219   0.031723
    5             0.000934   0.064680   0.132365   0.088177   0.059744
    6             0.917456   0.173028   0.253170   0.226149   0.575147
    7             0.001817   0.067872   0.125907   0.165619   0.027354
    8             0.000973   0.064645   0.132520   0.083369   0.064537

                     11         12         13         14         15

                  2.000000   2.000000   2.000000   2.000000   2.000000

    1             0.381516   0.340927   0.298050   0.052926   0.115721
    2             0.381120   0.340946   0.298026   0.053015   0.115598
    3             0.612562   0.455754   0.509308   0.905574   0.751813
    4             0.002125   0.064923   0.120669   0.027008   0.050493
    5             0.002944   0.138498   0.072427   0.013996   0.080728
    6             0.614733   0.455486   0.508169   0.906674   0.754113
    7             0.002061   0.064383   0.121203   0.026856   0.050672
    8             0.002938   0.139083   0.072148   0.013951   0.080862

                     16         17

                  2.000000   2.000000

    1             0.168990   0.288199
    2             0.169495   0.287912
    3             0.467779   0.605739
    4             0.179092   0.058321
    5             0.184577   0.048271
    6             0.467152   0.604911
    7             0.177590   0.059705
    8             0.185325   0.046942

               ----- POPULATIONS IN EACH AO -----
                             MULLIKEN      LOWDIN
              1  C  1  S      1.99340     1.97168
              2  C  1  S      0.76181     0.38633
              3  C  1  S      0.37337     0.28169
              4  C  1  X      0.57532     0.53252
              5  C  1  Y      0.71177     0.64606
              6  C  1  Z      0.77368     0.69490
              7  C  1  X      0.10204     0.21103
              8  C  1  Y      0.22854     0.32518
              9  C  1  Z      0.30063     0.39685
             10  C  1 XX      0.00895     0.16354
             11  C  1 YY      0.01347     0.14987
             12  C  1 ZZ      0.01847     0.15509
             13  C  1 XY      0.00986     0.03696
             14  C  1 XZ      0.01213     0.01917
             15  C  1 YZ      0.00000     0.03119
             16  C  2  S      1.99340     1.97168
             17  C  2  S      0.76178     0.38631
             18  C  2  S      0.37339     0.28167
             19  C  2  X      0.57571     0.53281
             20  C  2  Y      0.71337     0.64749
             21  C  2  Z      0.77176     0.69319
             22  C  2  X      0.10226     0.21130
             23  C  2  Y      0.23016     0.32649
             24  C  2  Z      0.29877     0.39533
             25  C  2 XX      0.00917     0.16354
             26  C  2 YY      0.01342     0.14996
             27  C  2 ZZ      0.01837     0.15551
             28  C  2 XY      0.01001     0.03687
             29  C  2 XZ      0.01192     0.01943
             30  C  2 YZ      0.00000     0.03043
             31  F  3  S      1.99544     1.97164
             32  F  3  S      0.94922     0.75170
             33  F  3  S      0.99871     0.52564
             34  F  3  X      1.01396     0.96773
             35  F  3  Y      1.16957     1.13582
             36  F  3  Z      1.22824     1.19845
             37  F  3  X      0.58395     0.61758
             38  F  3  Y      0.67384     0.70217
             39  F  3  Z      0.70543     0.73330
             40  F  3 XX      0.00136     0.19564
             41  F  3 YY      0.00284     0.19072
             42  F  3 ZZ      0.00343     0.18862
             43  F  3 XY      0.00206     0.00444
             44  F  3 XZ      0.00074     0.00311
             45  F  3 YZ      0.00000     0.00117
             46  H  4  S      0.77120     0.65255
             47  H  4  S      0.10669     0.21555
             48  H  4  X      0.00204     0.00567
             49  H  4  Y      0.00502     0.01213
             50  H  4  Z      0.00967     0.02024
             51  H  5  S      0.76802     0.64945
             52  H  5  S      0.10837     0.21667
             53  H  5  X      0.00239     0.00654
             54  H  5  Y      0.00679     0.01554
             55  H  5  Z      0.00759     0.01593
             56  F  6  S      1.99544     1.97164
             57  F  6  S      0.94922     0.75171
             58  F  6  S      0.99877     0.52567
             59  F  6  X      1.01366     0.96744
             60  F  6  Y      1.16758     1.13369
             61  F  6  Z      1.23049     1.20087
             62  F  6  X      0.58384     0.61749
             63  F  6  Y      0.67269     0.70127
             64  F  6  Z      0.70679     0.73433
             65  F  6 XX      0.00136     0.19567
             66  F  6 YY      0.00284     0.19079
             67  F  6 ZZ      0.00347     0.18855
             68  F  6 XY      0.00200     0.00448
             69  F  6 XZ      0.00074     0.00307
             70  F  6 YZ      0.00000     0.00117
             71  H  7  S      0.77122     0.65238
             72  H  7  S      0.10664     0.21552
             73  H  7  X      0.00203     0.00567
             74  H  7  Y      0.00529     0.01262
             75  H  7  Z      0.00940     0.01972
             76  H  8  S      0.76799     0.64948
             77  H  8  S      0.10831     0.21666
             78  H  8  X      0.00237     0.00648
             79  H  8  Y      0.00648     0.01496
             80  H  8  Z      0.00792     0.01658

          ----- MULLIKEN ATOMIC OVERLAP POPULATIONS -----
          (OFF-DIAGONAL ELEMENTS NEED TO BE MULTIPLIED BY 2)

             1           2           3           4           5

    1    4.6222309
    2    0.3862487   4.6220410
    3   -0.0359054   0.2345608   9.1718211
    4   -0.0335836   0.3775104  -0.0286979   0.6241417
    5   -0.0451124   0.3775559  -0.0257475  -0.0444107   0.6225530
    6    0.2344443  -0.0359300   0.0005576   0.0047238   0.0075043
    7    0.3775019  -0.0335943   0.0047200  -0.0188256   0.0137816
    8    0.3775980  -0.0449131   0.0074606   0.0137557  -0.0129639

             6           7           8

    6    9.1720303
    7   -0.0286741   0.6240962
    8   -0.0257610  -0.0444135   0.6223044

          TOTAL MULLIKEN AND LOWDIN ATOMIC POPULATIONS
       ATOM         MULL.POP.    CHARGE          LOW.POP.     CHARGE
    1 C             5.883422    0.116578         6.002062   -0.002062
    2 C             5.883480    0.116520         6.002027   -0.002027
    3 F             9.328769   -0.328769         9.187733   -0.187733
    4 H             0.894614    0.105386         0.906133    0.093867
    5 H             0.893160    0.106840         0.904126    0.095874
    6 F             9.328895   -0.328895         9.187844   -0.187844
    7 H             0.894592    0.105408         0.905911    0.094089
    8 H             0.893067    0.106933         0.904163    0.095837

          MULLIKEN SPHERICAL HARMONIC POPULATIONS
       ATOM           S       P       D      F      G      H      I    TOTAL
    1 C             3.13    2.69    0.06   0.00   0.00   0.00   0.00    5.88
    2 C             3.13    2.69    0.06   0.00   0.00   0.00   0.00    5.88
    3 F             3.94    5.37    0.01   0.00   0.00   0.00   0.00    9.33
    4 H             0.88    0.02    0.00   0.00   0.00   0.00   0.00    0.89
    5 H             0.88    0.02    0.00   0.00   0.00   0.00   0.00    0.89
    6 F             3.94    5.38    0.01   0.00   0.00   0.00   0.00    9.33
    7 H             0.88    0.02    0.00   0.00   0.00   0.00   0.00    0.89
    8 H             0.88    0.02    0.00   0.00   0.00   0.00   0.00    0.89

          -------------------------------
          BOND ORDER AND VALENCE ANALYSIS     BOND ORDER THRESHOLD=0.050
          -------------------------------

                   BOND                       BOND                       BOND
  ATOM PAIR DIST  ORDER      ATOM PAIR DIST  ORDER      ATOM PAIR DIST  ORDER
    1   2  1.522  1.042        1   6  1.401  0.911        1   7  1.106  0.938
    1   8  1.107  0.939        2   3  1.400  0.911        2   4  1.106  0.938
    2   5  1.107  0.939

                       TOTAL       BONDED        FREE
      ATOM            VALENCE     VALENCE     VALENCE
    1 C                 3.842       3.842       0.000
    2 C                 3.842       3.842       0.000
    3 F                 0.982       0.982      -0.000
    4 H                 0.947       0.947      -0.000
    5 H                 0.957       0.957      -0.000
    6 F                 0.981       0.981      -0.000
    7 H                 0.947       0.947      -0.000
    8 H                 0.957       0.957      -0.000

          ---------------------
          ELECTROSTATIC MOMENTS
          ---------------------

 POINT   1           X           Y           Z (BOHR)    CHARGE
                -0.000000    0.000000    0.000000       -0.00 (A.U.)
         DX          DY          DZ         /D/  (DEBYE)
     0.001113    0.012575    0.563098    0.563240
 ...... END OF PROPERTY EVALUATION ......
 STEP CPU TIME =     0.03 TOTAL CPU TIME =         91.3 (      1.5 MIN)
 TOTAL WALL CLOCK TIME=         91.7 SECONDS, CPU UTILIZATION IS    99.51%
  $VIB   
          IVIB=   0 IATOM=   0 ICOORD=   0 E=     -277.9360450807
 -5.980401002E-05 3.525096470E-06-5.885525879E-05 5.380859082E-05 6.825256746E-06
  5.271674151E-06-2.852056693E-06 8.235986132E-06 8.142550060E-07-1.466360974E-05
 -6.465130470E-06 1.626423750E-05-1.326377478E-05-1.524539480E-05-8.457550740E-06
  6.500361083E-06 6.410601491E-07 1.879707704E-05 1.501426210E-05-7.726242221E-06
  1.298904773E-05 1.526023724E-05 1.020936799E-05 1.317651811E-05
  1.112864872E-03 1.257511029E-02 5.630982225E-01
 ......END OF GEOMETRY SEARCH......
 STEP CPU TIME =     0.00 TOTAL CPU TIME =         91.3 (      1.5 MIN)
 TOTAL WALL CLOCK TIME=         91.7 SECONDS, CPU UTILIZATION IS    99.50%
                991181  WORDS OF DYNAMIC MEMORY USED
 EXECUTION OF GAMESS TERMINATED NORMALLY Sun Oct  6 23:46:15 2019
 DDI: 263640 bytes (0.3 MB / 0 MWords) used by master data server.

 ----------------------------------------
 CPU timing information for all processes
 ========================================
 0: 89.662 + 1.620 = 91.282
 ----------------------------------------
 ddikick.x: exited gracefully.
----- accounting info -----
Files used on the master node d12chas543.crc.nd.edu were:
-rw-r--r-- 1 wschnei1 campus 378327 Oct  6 23:46 /scratch365/wschnei1/160-PC1.F07
Sun Oct  6 23:46:18 EDT 2019
0.452u 0.330s 1:35.45 0.8%	0+0k 0+40io 0pf+0w
