----- GAMESS execution script 'rungms' -----
This job is running on host d12chas543.crc.nd.edu
under operating system Linux at Sun Oct 6 23:46:18 EDT 2019
SGE has assigned the following compute nodes to this run:
Available scratch disk space (Kbyte units) at beginning of the job is
Filesystem      1K-blocks     Used  Available Use% Mounted on
/dev/sda2      1949705068 64855256 1884849812   4% /
GAMESS temporary binary files will be written to /tmp/474112.1.debug
GAMESS supplementary output files will be written to /afs/crc.nd.edu/user/w/wschnei1/scr
Copying input file 170-PC1.inp to your run's scratch directory...
reading your own /afs/crc.nd.edu/user/w/wschnei1/.gmsrc

 Distributed Data Interface kickoff program.
 Initiating 1 compute processes on 1 nodes to run the following command:
 /afs/crc.nd.edu/x86_64_linux/g/gamess/nov-2017/gamess/gamess.00.x 170-PC1 

          ******************************************************
          *         GAMESS VERSION = 11 NOV 2017 (R3)         *
          *             FROM IOWA STATE UNIVERSITY             *
          * M.W.SCHMIDT, K.K.BALDRIDGE, J.A.BOATZ, S.T.ELBERT, *
          *   M.S.GORDON, J.H.JENSEN, S.KOSEKI, N.MATSUNAGA,   *
          *          K.A.NGUYEN, S.J.SU, T.L.WINDUS,           *
          *       TOGETHER WITH M.DUPUIS, J.A.MONTGOMERY       *
          *         J.COMPUT.CHEM.  14, 1347-1363(1993)        *
          **************** 64 BIT INTEL VERSION ****************

  SINCE 1993, STUDENTS AND POSTDOCS WORKING AT IOWA STATE UNIVERSITY
  AND ALSO IN THEIR VARIOUS JOBS AFTER LEAVING ISU HAVE MADE IMPORTANT
  CONTRIBUTIONS TO THE CODE:
     IVANA ADAMOVIC, CHRISTINE AIKENS, YURI ALEXEEV, POOJA ARORA,
     ANDREY ASADCHEV, ROB BELL, PRADIPTA BANDYOPADHYAY, JONATHAN BENTZ,
     BRETT BODE, KURT BRORSEN, CALEB CARLIN, GALINA CHABAN, WEI CHEN,
     CHEOL HO CHOI, PAUL DAY, ALBERT DEFUSCO, NUWAN DESILVA, TIM DUDLEY,
     DMITRI FEDOROV, ALEX FINDLATER, GRAHAM FLETCHER, MARK FREITAG,
     KURT GLAESEMANN, ANASTASIA GUININA,
     DAN KEMP, GRANT MERRILL, NORIYUKI MINEZAWA, JONATHAN MULLIN,
     TAKESHI NAGATA, SEAN NEDD, HEATHER NETZLOFF, BOSILJKA NJEGIC, RYAN OLSON,
     MIKE PAK, BUU PHAM,
     SPENCER PRUITT, LUKE ROSKOP, JIM SHOEMAKER, LYUDMILA SLIPCHENKO,
     TONY SMITH, SAROM SOK LEANG, JIE SONG, TETSUYA TAKETSUGU, SIMON WEBB,
     PENG XU, SOOHAENG YOO, FEDERICO ZAHARIEV

  ADDITIONAL CODE HAS BEEN PROVIDED BY COLLABORATORS IN OTHER GROUPS:
     IOWA STATE UNIVERSITY:
          JOE IVANIC, AARON WEST, LAIMUTIS BYTAUTAS, KLAUS RUEDENBERG
     UNIVERSITY OF TOKYO: KIMIHIKO HIRAO, TAKAHITO NAKAJIMA,
          TAKAO TSUNEDA, MUNEAKI KAMIYA, SUSUMU YANAGISAWA,
          KIYOSHI YAGI, MAHITO CHIBA, SEIKEN TOKURA, NAOAKI KAWAKAMI
     UNIVERSITY OF AARHUS: FRANK JENSEN
     UNIVERSITY OF IOWA: VISVALDAS KAIRYS, HUI LI
     NATIONAL INST. OF STANDARDS AND TECHNOLOGY: WALT STEVENS, DAVID GARMER
     UNIVERSITY OF PISA: BENEDETTA MENNUCCI, JACOPO TOMASI
     UNIVERSITY OF MEMPHIS: HENRY KURTZ, PRAKASHAN KORAMBATH
     UNIVERSITY OF ALBERTA: TOBY ZENG, MARIUSZ KLOBUKOWSKI
     UNIVERSITY OF NEW ENGLAND: MARK SPACKMAN
     MIE UNIVERSITY: HIROAKI UMEDA
     NAT. INST. OF ADVANCED INDUSTRIAL SCIENCE AND TECHNOLOGY: KAZUO KITAURA
     MICHIGAN STATE UNIVERSITY:
          KAROL KOWALSKI, MARTA WLOCH, JEFFREY GOUR, JESSE LUTZ,
          WEI LI, PIOTR PIECUCH
     UNIVERSITY OF SILESIA: MONIKA MUSIAL, STANISLAW KUCHARSKI
     FACULTES UNIVERSITAIRES NOTRE-DAME DE LA PAIX:
          OLIVIER QUINET, BENOIT CHAMPAGNE
     UNIVERSITY OF CALIFORNIA - SANTA BARBARA: BERNARD KIRTMAN
     INSTITUTE FOR MOLECULAR SCIENCE:
          KAZUYA ISHIMURA, MICHIO KATOUDA, AND SHIGERU NAGASE
     UNIVERSITY OF NOTRE DAME: ANNA POMOGAEVA, DAN CHIPMAN
     KYUSHU UNIVERSITY:
          HARUYUKI NAKANO,
          FENG LONG GU, JACEK KORCHOWIEC, MARCIN MAKOWSKI, AND YURIKO AOKI,
          HIROTOSHI MORI AND EISAKU MIYOSHI
     PENNSYLVANIA STATE UNIVERSITY:
          TZVETELIN IORDANOV, CHET SWALINA, JONATHAN SKONE,
          SHARON HAMMES-SCHIFFER
     WASEDA UNIVERSITY:
          MASATO KOBAYASHI, TOMOKO AKAMA, TSUGUKI TOUMA,
          TAKESHI YOSHIKAWA, YASUHIRO IKABATA, JUNJI SEINO,
          YUYA NAKAJIMA, HIROMI NAKAI
     NANJING UNIVERSITY: SHUHUA LI
     UNIVERSITY OF NEBRASKA:
          PEIFENG SU, DEJUN SI, NANDUN THELLAMUREGE, YALI WANG, HUI LI
     UNIVERSITY OF ZURICH: ROBERTO PEVERATI, KIM BALDRIDGE
     N. COPERNICUS UNIVERSITY AND JACKSON STATE UNIVERSITY:
          MARIA BARYSZ
     UNIVERSITY OF COPENHAGEN: Jimmy Kromann, CASPER STEINMANN
     TOKYO INSTITUTE OF TECHNOLOGY: HIROYA NAKATA
     NAGOYA UNIVERSITY: YOSHIO NISHIMOTO, STEPHAN IRLE
     MOSCOW STATE UNIVERSITY: VLADIMIR MIRONOV

 EXECUTION OF GAMESS BEGUN Sun Oct  6 23:46:19 2019

            ECHO OF THE FIRST FEW INPUT CARDS -
 INPUT CARD> $CONTRL SCFTYP=RHF DFTTYP=PBE RUNTYP=OPTIMIZE COORD=ZMT NZVAR=18 ISPHER=1 $END 
 INPUT CARD> $BASIS GBASIS=PCseg-1 $END                                                     
 INPUT CARD> $STATPT IFREEZ(1)=12 $END                                                      
 INPUT CARD> $DATA                                                                          
 INPUT CARD>FCH2CH2F eclipsed TS                                                            
 INPUT CARD>C1                                                                              
 INPUT CARD>C                                                                               
 INPUT CARD>C   1   r1                                                                      
 INPUT CARD>F   2   r2   1   A1                                                             
 INPUT CARD>H   2   r3   1   A2   3   D1                                                    
 INPUT CARD>H   2   r4   1   A3   3   D2                                                    
 INPUT CARD>F   1   r5   2   A4   3   D3                                                    
 INPUT CARD>H   1   r6   2   A5   6   D4                                                    
 INPUT CARD>H   1   r7   2   A6   6   D5                                                    
 INPUT CARD>                                                                                
 INPUT CARD>r1=1.5                                                                          
 INPUT CARD>r2=1.4                                                                          
 INPUT CARD>r3=1.1                                                                          
 INPUT CARD>r4=1.1                                                                          
 INPUT CARD>r5=1.5                                                                          
 INPUT CARD>r6=1.1                                                                          
 INPUT CARD>r7=1.1                                                                          
 INPUT CARD>A1=109.54214                                                                    
 INPUT CARD>A2=109.54214                                                                    
 INPUT CARD>A3=109.54214                                                                    
 INPUT CARD>A4=109.54214                                                                    
 INPUT CARD>A5=109.54214                                                                    
 INPUT CARD>A6=109.54214                                                                    
 INPUT CARD>D1=120.                                                                         
 INPUT CARD>D2=-120.                                                                        
 INPUT CARD>D3=170                                                                          
 INPUT CARD>D4=120.                                                                         
 INPUT CARD>D5=-120.                                                                        
 INPUT CARD> $END                                                                           
 INPUT CARD>                                                                                
    1000000 WORDS OF MEMORY AVAILABLE

     BASIS OPTIONS
     -------------
     GBASIS=PCSEG-1      IGAUSS=       0      POLAR=NONE    
     NDFUNC=       0     NFFUNC=       0     DIFFSP=       F
     NPFUNC=       0      DIFFS=       F     BASNAM=        


     RUN TITLE
     ---------
 FCH2CH2F eclipsed TS                                                            

 THE POINT GROUP OF THE MOLECULE IS C1      
 THE ORDER OF THE PRINCIPAL AXIS IS     0

 YOUR FULLY SUBSTITUTED Z-MATRIX IS
 C   
 C      1   1.5000000
 F      2   1.4000000  1  109.5421
 H      2   1.1000000  1  109.5421  3  120.0000  0
 H      2   1.1000000  1  109.5421  3 -120.0000  0
 F      1   1.5000000  2  109.5421  3  170.0000  0
 H      1   1.1000000  2  109.5421  6  120.0000  0
 H      1   1.1000000  2  109.5421  6 -120.0000  0

 THE MOMENTS OF INERTIA ARE (AMU-ANGSTROM**2)
 IXX=    15.892   IYY=   139.124   IZZ=   148.046

 ATOM      ATOMIC                      COORDINATES (BOHR)
           CHARGE         X                   Y                   Z
 C           6.0    -0.9732826816        1.0069424240        0.1197642676
 C           6.0     1.0709486978       -0.9567127272        0.1282028006
 F           9.0     3.4291386709        0.2197814271       -0.1043646104
 H           1.0     1.0039362343       -2.0225310906        1.9116063891
 H           1.0     0.7894477733       -2.2603367325       -1.4662593332
 F           9.0    -3.5012412175       -0.2569688349       -0.0966812569
 H           1.0    -0.8961552898        2.0985495227        1.8870879847
 H           1.0    -0.7009239759        2.2872576862       -1.4950426491

          INTERNUCLEAR DISTANCES (ANGS.)
          ------------------------------

                1 C          2 C          3 F          4 H          5 H     

   1 C       0.0000000    1.5000000 *  2.3695781 *  2.1363170 *  2.1363170 *
   2 C       1.5000000 *  0.0000000    1.4000000 *  1.1000000 *  1.1000000 *
   3 F       2.3695781 *  1.4000000 *  0.0000000    2.0476979 *  2.0476979 *
   4 H       2.1363170 *  1.1000000 *  2.0476979 *  0.0000000    1.7955050 *
   5 H       2.1363170 *  1.1000000 *  2.0476979 *  1.7955050 *  0.0000000  
   6 F       1.5000000 *  2.4505612 *  3.6760689    2.7723562 *  2.6085400 *
   7 H       1.1000000 *  2.1363170 *  2.7088408 *  2.4014536 *  3.0438543  
   8 H       1.1000000 *  2.1363170 *  2.5524705 *  3.0438543    2.5324685 *

                6 F          7 H          8 H     

   1 C       1.5000000 *  1.1000000 *  1.1000000 *
   2 C       2.4505612 *  2.1363170 *  2.1363170 *
   3 F       3.6760689    2.7088408 *  2.5524705 *
   4 H       2.7723562 *  2.4014536 *  3.0438543  
   5 H       2.6085400 *  3.0438543    2.5324685 *
   6 F       0.0000000    2.1345124 *  2.1345124 *
   7 H       2.1345124 *  0.0000000    1.7955050 *
   8 H       2.1345124 *  1.7955050 *  0.0000000  

  * ... LESS THAN  3.000


     ATOMIC BASIS SET
     ----------------
 THE CONTRACTED PRIMITIVE FUNCTIONS HAVE BEEN UNNORMALIZED
 THE CONTRACTED BASIS FUNCTIONS ARE NOW NORMALIZED TO UNITY

  SHELL TYPE  PRIMITIVE        EXPONENT          CONTRACTION COEFFICIENT(S)

 C         

      1   S       1          1243.2000000    0.005630097702
      1   S       2           187.1450000    0.041950603854
      1   S       3            42.5126000    0.184664360492
      1   S       4            11.7393000    0.466557421368
      1   S       5             3.5054800    0.448234778316

      2   S       6             5.3908900   -0.148114817444
      2   S       7             0.4933410    1.051981714281

      3   S       8             0.1497410    1.000000000000

      4   P       9             9.1805600    0.063992052045
      4   P      10             1.9365800    0.333521296407
      4   P      11             0.5262960    0.741161730513

      5   P      12             0.1363190    1.000000000000

      6   D      13             0.8000000    1.000000000000

 C         

      7   S      14          1243.2000000    0.005630097702
      7   S      15           187.1450000    0.041950603854
      7   S      16            42.5126000    0.184664360492
      7   S      17            11.7393000    0.466557421368
      7   S      18             3.5054800    0.448234778316

      8   S      19             5.3908900   -0.148114817444
      8   S      20             0.4933410    1.051981714281

      9   S      21             0.1497410    1.000000000000

     10   P      22             9.1805600    0.063992052045
     10   P      23             1.9365800    0.333521296407
     10   P      24             0.5262960    0.741161730513

     11   P      25             0.1363190    1.000000000000

     12   D      26             0.8000000    1.000000000000

 F         

     13   S      27          2931.5500000    0.005390132259
     13   S      28           441.1250000    0.040296704072
     13   S      29           100.2320000    0.180202178717
     13   S      30            27.8655000    0.465064284210
     13   S      31             8.4447000    0.452433138251

     14   S      32            13.6123000   -0.151660908297
     14   S      33             1.2612200    1.053515343452

     15   S      34             0.3708000    1.000000000000

     16   P      35            21.9305000    0.070356827475
     16   P      36             4.7855200    0.356742371235
     16   P      37             1.2837800    0.719732016372

     17   P      38             0.3115580    1.000000000000

     18   D      39             1.1000000    1.000000000000

 H         

     19   S      40            12.2518000    0.037217389296
     19   S      41             1.8687100    0.253808206955
     19   S      42             0.4182080    0.797386763917

     20   S      43             0.1061000    1.000000000000

     21   P      44             1.0000000    1.000000000000

 H         

     22   S      45            12.2518000    0.037217389296
     22   S      46             1.8687100    0.253808206955
     22   S      47             0.4182080    0.797386763917

     23   S      48             0.1061000    1.000000000000

     24   P      49             1.0000000    1.000000000000

 F         

     25   S      50          2931.5500000    0.005390132259
     25   S      51           441.1250000    0.040296704072
     25   S      52           100.2320000    0.180202178717
     25   S      53            27.8655000    0.465064284210
     25   S      54             8.4447000    0.452433138251

     26   S      55            13.6123000   -0.151660908297
     26   S      56             1.2612200    1.053515343452

     27   S      57             0.3708000    1.000000000000

     28   P      58            21.9305000    0.070356827475
     28   P      59             4.7855200    0.356742371235
     28   P      60             1.2837800    0.719732016372

     29   P      61             0.3115580    1.000000000000

     30   D      62             1.1000000    1.000000000000

 H         

     31   S      63            12.2518000    0.037217389296
     31   S      64             1.8687100    0.253808206955
     31   S      65             0.4182080    0.797386763917

     32   S      66             0.1061000    1.000000000000

     33   P      67             1.0000000    1.000000000000

 H         

     34   S      68            12.2518000    0.037217389296
     34   S      69             1.8687100    0.253808206955
     34   S      70             0.4182080    0.797386763917

     35   S      71             0.1061000    1.000000000000

     36   P      72             1.0000000    1.000000000000

 TOTAL NUMBER OF BASIS SET SHELLS             =   36
 NUMBER OF CARTESIAN GAUSSIAN BASIS FUNCTIONS =   80
 NOTE: THIS RUN WILL RESTRICT THE MO VARIATION SPACE TO SPHERICAL HARMONICS.
 THE NUMBER OF ORBITALS KEPT IN THE VARIATIONAL SPACE WILL BE PRINTED LATER.
 NUMBER OF ELECTRONS                          =   34
 CHARGE OF MOLECULE                           =    0
 SPIN MULTIPLICITY                            =    1
 NUMBER OF OCCUPIED ORBITALS (ALPHA)          =   17
 NUMBER OF OCCUPIED ORBITALS (BETA )          =   17
 TOTAL NUMBER OF ATOMS                        =    8
 THE NUCLEAR REPULSION ENERGY IS      122.6809463903

     LEBEDEV GRID-BASED DFT OPTIONS
     ------------------------------
     DFTTYP=PBE     
     NRAD  =      96     NLEB  =     302
     NRAD0 =      24     NLEB0 =     110
     SWOFF =    5.00E-03 (PURE SCF -> DFT)
     SWITCH=    3.00E-04 (COARSE -> TIGHT GRID)
     THRESH=    0.00E+00 GTHRE=    1.00E+00

 GRIMME'S EMPIRICAL DISPERSION CORRECTION= F

     $CONTRL OPTIONS
     ---------------
 SCFTYP=RHF          RUNTYP=OPTIMIZE     EXETYP=RUN     
 MPLEVL=       0     CITYP =NONE         CCTYP =NONE         VBTYP =NONE    
 DFTTYP=PBE          TDDFT =NONE    
 MULT  =       1     ICHARG=       0     NZVAR =      18     COORD =ZMT     
 PP    =NONE         RELWFN=NONE         LOCAL =NONE         NUMGRD=       F
 ISPHER=       1     NOSYM =       0     MAXIT =      30     UNITS =ANGS    
 PLTORB=       F     MOLPLT=       F     AIMPAC=       F     FRIEND=        
 NPRINT=       7     IREST =       0     GEOM  =INPUT   
 NORMF =       0     NORMP =       0     ITOL  =      20     ICUT  =       9
 INTTYP=BEST         GRDTYP=BEST         QMTTOL= 1.0E-06

     $SYSTEM OPTIONS
     ---------------
  REPLICATED MEMORY=     1000000 WORDS (ON EVERY NODE).
 DISTRIBUTED MEMDDI=           0 MILLION WORDS IN AGGREGATE,
 MEMDDI DISTRIBUTED OVER   1 PROCESSORS IS           0 WORDS/PROCESSOR.
 TOTAL MEMORY REQUESTED ON EACH PROCESSOR=     1000000 WORDS.
 TIMLIM=      525600.00 MINUTES, OR     365.0 DAYS.
 PARALL= F  BALTYP=  DLB     KDIAG=    0  COREFL= F
 MXSEQ2=     300 MXSEQ3=     150  mem10=         0

          ----------------
          PROPERTIES INPUT
          ----------------

     MOMENTS            FIELD           POTENTIAL          DENSITY
 IEMOM =       1   IEFLD =       0   IEPOT =       0   IEDEN =       0
 WHERE =COMASS     WHERE =NUCLEI     WHERE =NUCLEI     WHERE =NUCLEI  
 OUTPUT=BOTH       OUTPUT=BOTH       OUTPUT=BOTH       OUTPUT=BOTH    
 IEMINT=       0   IEFINT=       0                     IEDINT=       0
                                                       MORB  =       0
          EXTRAPOLATION IN EFFECT
          DIIS IN EFFECT
 ORBITAL PRINTING OPTION: NPREO=     1    80     2     1

     -------------------------------
     INTEGRAL TRANSFORMATION OPTIONS
     -------------------------------
     NWORD  =            0
     CUTOFF = 1.0E-09     MPTRAN =       0
     DIRTRF =       F     AOINTS =DUP     

          ----------------------
          INTEGRAL INPUT OPTIONS
          ----------------------
 NOPK  =       1 NORDER=       0 SCHWRZ=       T

   --- ENCODED Z MATRIX ---
 COORD  TYPE   I   J   K   L   M   N
    1      1    2   1
    2      1    3   2
    3      2    3   2   1
    4      1    4   2
    5      2    4   2   1
    6      3    4   2   1   3
    7      1    5   2
    8      2    5   2   1
    9      3    5   2   1   3
   10      1    6   1
   11      2    6   1   2
   12      3    6   1   2   3
   13      1    7   1
   14      2    7   1   2
   15      3    7   1   2   6
   16      1    8   1
   17      2    8   1   2
   18      3    8   1   2   6

 THE DETERMINANT OF THE G MATRIX IS 10**(   -12)


                     --------------------
                     INTERNAL COORDINATES
                     --------------------

                 - - ATOMS - -         COORDINATE      COORDINATE
 NO.   TYPE    I  J  K  L  M  N        (BOHR,RAD)       (ANG,DEG)
 ----------------------------------------------------------------
   1 STRETCH   2  1                     2.8345890       1.5000000
   2 STRETCH   3  2                     2.6456164       1.4000000
   3 BEND      3  2  1                  1.9118710     109.5421400
   4 STRETCH   4  2                     2.0786986       1.1000000
   5 BEND      4  2  1                  1.9118710     109.5421400
   6 TORSION   4  2  1  3               2.0943951     120.0000000
   7 STRETCH   5  2                     2.0786986       1.1000000
   8 BEND      5  2  1                  1.9118710     109.5421400
   9 TORSION   5  2  1  3              -2.0943951    -120.0000000
  10 STRETCH   6  1                     2.8345890       1.5000000
  11 BEND      6  1  2                  1.9118710     109.5421400
  12 TORSION   6  1  2  3               2.9670597     170.0000000
  13 STRETCH   7  1                     2.0786986       1.1000000
  14 BEND      7  1  2                  1.9118710     109.5421400
  15 TORSION   7  1  2  6               2.0943951     120.0000000
  16 STRETCH   8  1                     2.0786986       1.1000000
  17 BEND      8  1  2                  1.9118710     109.5421400
  18 TORSION   8  1  2  6              -2.0943951    -120.0000000

     ------------------------------------------
     THE POINT GROUP IS C1 , NAXIS= 0, ORDER= 1
     ------------------------------------------

 -- VARIATIONAL SPACE WILL BE RESTRICTED TO PURE SPHERICAL HARMONICS ONLY --
 AFTER EXCLUDING CONTAMINANT COMBINATIONS FROM THE CARTESIAN GAUSSIAN BASIS
 SET, THE NUMBER OF SPHERICAL HARMONICS KEPT IN THE VARIATION SPACE IS   76

     DIMENSIONS OF THE SYMMETRY SUBSPACES ARE
 A   =   76

 ..... DONE SETTING UP THE RUN .....
 STEP CPU TIME =     0.01 TOTAL CPU TIME =          0.0 (      0.0 MIN)
 TOTAL WALL CLOCK TIME=          0.0 SECONDS, CPU UTILIZATION IS    50.00%


          -----------------------------
          STATIONARY POINT LOCATION RUN
          -----------------------------

 OBTAINING INITIAL HESSIAN, HESS=GUESS   
 DIAGONAL GUESS HESSIAN IN INTERNAL COORDS IS
     1  0.3892     2  0.3267     3  0.2379     4  0.3397     5  0.2253
     6  0.2500     7  0.3397     8  0.2253     9  0.2500    10  0.2690
    11  0.2315    12  0.2500    13  0.3397    14  0.2253    15  0.2500
    16  0.3397    17  0.2253    18  0.2500

          PARAMETERS CONTROLLING GEOMETRY SEARCH ARE
          METHOD =QA                  UPHESS =BFGS    
          NNEG   =         0          NFRZ   =         1
          NSTEP  =        50          IFOLOW =         1
          HESS   =GUESS               RESTAR =         F
          IHREP  =         0          HSSEND =         F
          NPRT   =         0          NPUN   =         0
          OPTTOL = 1.000E-04          RMIN   = 1.500E-03
          RMAX   = 1.000E-01          RLIM   = 7.000E-02
          DXMAX  = 3.000E-01          PURIFY =         F
          MOVIE  =         F          TRUPD  =         T
          TRMAX  = 5.000E-01          TRMIN  = 5.000E-02
          ITBMAT =         5          STPT   =         F
          STSTEP = 1.000E-02          PROJCT=          T
          FROZEN COORD(S)=  12

 BEGINNING GEOMETRY SEARCH POINT NSERCH=   0 ...

 COORDINATES OF ALL ATOMS ARE (ANGS)
   ATOM   CHARGE       X              Y              Z
 ------------------------------------------------------------
 C           6.0  -0.5150390522   0.5328510221   0.0633765257
 C           6.0   0.5667216860  -0.5062706093   0.0678420053
 F           9.0   1.8146221691   0.1163033310  -0.0552273775
 H           1.0   0.5312602149  -1.0702774390   1.0115786106
 H           1.0   0.4177578011  -1.1961187744  -0.7759110806
 F           9.0  -1.8527771964  -0.1359820612  -0.0511615216
 H           1.0  -0.4742249912   1.1105046638   0.9986040288
 H           1.0  -0.3709130215   1.2103647307  -0.7911425565


                     --------------------
                     INTERNAL COORDINATES
                     --------------------

                 - - ATOMS - -         COORDINATE      COORDINATE
 NO.   TYPE    I  J  K  L  M  N        (BOHR,RAD)       (ANG,DEG)
 ----------------------------------------------------------------
   1 STRETCH   2  1                     2.8345890       1.5000000
   2 STRETCH   3  2                     2.6456164       1.4000000
   3 BEND      3  2  1                  1.9118710     109.5421400
   4 STRETCH   4  2                     2.0786986       1.1000000
   5 BEND      4  2  1                  1.9118710     109.5421400
   6 TORSION   4  2  1  3               2.0943951     120.0000000
   7 STRETCH   5  2                     2.0786986       1.1000000
   8 BEND      5  2  1                  1.9118710     109.5421400
   9 TORSION   5  2  1  3              -2.0943951    -120.0000000
  10 STRETCH   6  1                     2.8345890       1.5000000
  11 BEND      6  1  2                  1.9118710     109.5421400
  12 TORSION   6  1  2  3               2.9670597     170.0000000
  13 STRETCH   7  1                     2.0786986       1.1000000
  14 BEND      7  1  2                  1.9118710     109.5421400
  15 TORSION   7  1  2  6               2.0943951     120.0000000
  16 STRETCH   8  1                     2.0786986       1.1000000
  17 BEND      8  1  2                  1.9118710     109.5421400
  18 TORSION   8  1  2  6              -2.0943951    -120.0000000

 THE CURRENT FULLY SUBSTITUTED Z-MATRIX IS
 C   
 C      1   1.5000000
 F      2   1.4000000  1   109.5421400
 H      2   1.1000000  1   109.5421400  3   120.0000000  0
 H      2   1.1000000  1   109.5421400  3  -120.0000000  0
 F      1   1.5000000  2   109.5421400  3   170.0000000  0
 H      1   1.1000000  2   109.5421400  6   120.0000000  0
 H      1   1.1000000  2   109.5421400  6  -120.0000000  0

          ********************
          1 ELECTRON INTEGRALS
          ********************
 ...... END OF ONE-ELECTRON INTEGRALS ......
 STEP CPU TIME =     0.01 TOTAL CPU TIME =          0.0 (      0.0 MIN)
 TOTAL WALL CLOCK TIME=          0.0 SECONDS, CPU UTILIZATION IS    66.67%

          -------------
          GUESS OPTIONS
          -------------
          GUESS =HUCKEL            NORB  =       0          NORDER=       0
          MIX   =       F          PRTMO =       F          PUNMO =       F
          TOLZ  = 1.0E-08          TOLE  = 1.0E-05
          SYMDEN=       F          PURIFY=       F

 INITIAL GUESS ORBITALS GENERATED BY HUCKEL   ROUTINE.
 HUCKEL GUESS REQUIRES     54920 WORDS.

 STATISTICS FOR GENERATION OF SYMMETRY ORBITAL -Q- MATRIX
 NUMBER OF CARTESIAN ATOMIC ORBITALS=         80
 NUMBER OF SPHERICAL CONTAMINANTS DROPPED=     4
 NUMBER OF LINEARLY DEPENDENT MOS DROPPED=     0
 TOTAL NUMBER OF MOS IN VARIATION SPACE=      76

 SYMMETRIES FOR INITIAL GUESS ORBITALS FOLLOW.   BOTH SET(S).
    17 ORBITALS ARE OCCUPIED (    4 CORE ORBITALS).
     5=A        6=A        7=A        8=A        9=A       10=A       11=A   
    12=A       13=A       14=A       15=A       16=A       17=A       18=A   
    19=A       20=A       21=A       22=A       23=A       24=A       25=A   
    26=A       27=A   
 ...... END OF INITIAL ORBITAL SELECTION ......
 STEP CPU TIME =     0.00 TOTAL CPU TIME =          0.0 (      0.0 MIN)
 TOTAL WALL CLOCK TIME=          0.0 SECONDS, CPU UTILIZATION IS    66.67%

                    ----------------------
                    AO INTEGRAL TECHNOLOGY
                    ----------------------
     S,P,L SHELL ROTATED AXIS INTEGRALS, REPROGRAMMED BY
        KAZUYA ISHIMURA (IMS) AND JOSE SIERRA (SYNSTAR).
     S,P,D,L SHELL ROTATED AXIS INTEGRALS PROGRAMMED BY
        KAZUYA ISHIMURA (INSTITUTE FOR MOLECULAR SCIENCE).
     S,P,D,F,G SHELL TO TOTAL QUARTET ANGULAR MOMENTUM SUM 5,
        ERIC PROGRAM BY GRAHAM FLETCHER (ELORET AND NASA ADVANCED
        SUPERCOMPUTING DIVISION, AMES RESEARCH CENTER).
     S,P,D,F,G,L SHELL GENERAL RYS QUADRATURE PROGRAMMED BY
        MICHEL DUPUIS (PACIFIC NORTHWEST NATIONAL LABORATORY).

          --------------------
          2 ELECTRON INTEGRALS
          --------------------

 THE -PK- OPTION IS OFF, THE INTEGRALS ARE NOT IN SUPERMATRIX FORM.
 STORING   15000 INTEGRALS/RECORD ON DISK, USING 12 BYTES/INTEGRAL.
 TWO ELECTRON INTEGRAL EVALUATION REQUIRES   91062 WORDS OF MEMORY.
 SCHWARZ INEQUALITY OVERHEAD:      3217 INTEGRALS, T=        0.00
 II,JST,KST,LST =  1  1  1  1 NREC =         1 INTLOC =    1
 II,JST,KST,LST =  2  1  1  1 NREC =         1 INTLOC =    2
 II,JST,KST,LST =  3  1  1  1 NREC =         1 INTLOC =    7
 II,JST,KST,LST =  4  1  1  1 NREC =         1 INTLOC =   22
 II,JST,KST,LST =  5  1  1  1 NREC =         1 INTLOC =   67
 II,JST,KST,LST =  6  1  1  1 NREC =         1 INTLOC =  214
 II,JST,KST,LST =  7  1  1  1 NREC =         1 INTLOC = 1189
 II,JST,KST,LST =  8  1  1  1 NREC =         1 INTLOC = 3193
 II,JST,KST,LST =  9  1  1  1 NREC =         1 INTLOC = 5654
 II,JST,KST,LST = 10  1  1  1 NREC =         1 INTLOC = 8575
 II,JST,KST,LST = 11  1  1  1 NREC =         2 INTLOC = 5476
 II,JST,KST,LST = 12  1  1  1 NREC =         3 INTLOC = 8132
 II,JST,KST,LST = 13  1  1  1 NREC =         7 INTLOC = 5999
 II,JST,KST,LST = 14  1  1  1 NREC =         8 INTLOC = 3655
 II,JST,KST,LST = 15  1  1  1 NREC =         9 INTLOC = 4397
 II,JST,KST,LST = 16  1  1  1 NREC =        10 INTLOC = 7229
 II,JST,KST,LST = 17  1  1  1 NREC =        14 INTLOC = 8829
 II,JST,KST,LST = 18  1  1  1 NREC =        19 INTLOC =14676
 II,JST,KST,LST = 19  1  1  1 NREC =        34 INTLOC = 9296
 II,JST,KST,LST = 20  1  1  1 NREC =        37 INTLOC =12437
 II,JST,KST,LST = 21  1  1  1 NREC =        41 INTLOC = 3940
 II,JST,KST,LST = 22  1  1  1 NREC =        52 INTLOC =12183
 II,JST,KST,LST = 23  1  1  1 NREC =        57 INTLOC = 2896
 II,JST,KST,LST = 24  1  1  1 NREC =        61 INTLOC =12737
 II,JST,KST,LST = 25  1  1  1 NREC =        77 INTLOC = 5365
 II,JST,KST,LST = 26  1  1  1 NREC =        80 INTLOC = 4468
 II,JST,KST,LST = 27  1  1  1 NREC =        84 INTLOC =11056
 II,JST,KST,LST = 28  1  1  1 NREC =        90 INTLOC = 9000
 II,JST,KST,LST = 29  1  1  1 NREC =       105 INTLOC =13320
 II,JST,KST,LST = 30  1  1  1 NREC =       128 INTLOC = 4529
 II,JST,KST,LST = 31  1  1  1 NREC =       173 INTLOC = 1892
 II,JST,KST,LST = 32  1  1  1 NREC =       184 INTLOC =  666
 II,JST,KST,LST = 33  1  1  1 NREC =       195 INTLOC =10383
 II,JST,KST,LST = 34  1  1  1 NREC =       230 INTLOC =13921
 II,JST,KST,LST = 35  1  1  1 NREC =       244 INTLOC = 6765
 II,JST,KST,LST = 36  1  1  1 NREC =       258 INTLOC =11850
 SCHWARZ INEQUALITY TEST SKIPPED       19601 INTEGRAL BLOCKS.
 TOTAL NUMBER OF NONZERO TWO-ELECTRON INTEGRALS =             4517788
        302 INTEGRAL RECORDS WERE STORED ON DISK FILE  8.
  ...... END OF TWO-ELECTRON INTEGRALS .....
 STEP CPU TIME =     0.45 TOTAL CPU TIME =          0.5 (      0.0 MIN)
 TOTAL WALL CLOCK TIME=          0.5 SECONDS, CPU UTILIZATION IS    97.92%

          --------------------------
               R-PBE SCF CALCULATION
          --------------------------

     NUCLEAR ENERGY =       122.6809463903
     MAXIT =   30     NPUNCH=    2
     EXTRAP=T  DAMP=F  SHIFT=F  RSTRCT=F  DIIS=T  DEM=F  SOSCF=F
         DENSITY MATRIX CONVERGENCE THRESHOLD=  1.00E-05
     COARSE -> FINE DFT GRID SWITCH THRESHOLD=  3.00E-04 (SWITCH IN $DFT)
                   HF -> DFT SWITCH THRESHOLD=  5.00E-03 (SWOFF IN $DFT)
     MEMORY REQUIRED FOR RHF ITERS=    365468 WORDS.

 DFT CODE IS SWITCHING FROM THE FINE GRID NRAD= 96,  NLEB=  302
                      TO THE COARSE GRID NRAD0= 24, NLEB0=  110

     EXCHANGE FUNCTIONAL   =PBE       
     CORRELATION FUNCTIONAL=PBE       
     DFT THRESHOLD         =.172E-07
     GRID CHANGE THRESHOLD =.300E-03
 FOR AN EULER-MACLAURIN QUADRATURE USING  96 RADIAL POINTS:
 SMALLEST GAUSSIAN PRIMITIVE EXPONENT=        0.1061000000 OF TYPE -S-
 ON ATOM NUMBER   4 HAS RADIAL NORMALIZATION=  1.000000
  LARGEST GAUSSIAN PRIMITIVE EXPONENT=     2931.5500000000 OF TYPE -S-
 ON ATOM NUMBER   3 HAS RADIAL NORMALIZATION=  1.000000
 DFT IS SWITCHED OFF, PERFORMING PURE SCF UNTIL SWOFF THRESHOLD IS REACHED.

 ITER EX DEM     TOTAL ENERGY        E CHANGE  DENSITY CHANGE    DIIS ERROR
   1  0  0     -276.1215905292  -276.1215905292   0.191449323   0.776553958
          * * *   INITIATING DIIS PROCEDURE   * * *
   2  1  0     -276.7771876466    -0.6555971174   0.092082215   0.113782865
   3  2  0     -276.8193751954    -0.0421875489   0.047477658   0.045636668
   4  3  0     -276.8341837400    -0.0148085446   0.008902517   0.013233541
   5  4  0     -276.8349952566    -0.0008115166   0.002484586   0.002162333
 CONVERGED TO SWOFF, SO DFT CALCULATION IS NOW SWITCHED ON.
          * * *   INITIATING DIIS PROCEDURE   * * *
   6  5  0     -277.9023622604    -1.0673670038   0.095839280   0.097370576
   7  6  0     -277.9171866520    -0.0148243916   0.085450959   0.048569041
   8  7  0     -277.9154768908     0.0017097613   0.052211959   0.045494969
   9  8  0     -277.9310999968    -0.0156231060   0.006834208   0.005610263
  10  9  0     -277.9313305245    -0.0002305277   0.001857780   0.001448286
  11 10  0     -277.9313433781    -0.0000128537   0.000576633   0.000462062
  12 11  0     -277.9313455786    -0.0000022005   0.000038131   0.000086424
 DFT CODE IS SWITCHING BACK TO THE FINE GRID
          * * *   INITIATING DIIS PROCEDURE   * * *
  13 12  0     -277.9305064379     0.0008391408   0.004817348   0.004572936
  14 13  0     -277.9305552151    -0.0000487772   0.005267420   0.002168724
  15 14  0     -277.9305413453     0.0000138698   0.003029263   0.002666783
  16 15  0     -277.9305765103    -0.0000351650   0.000203293   0.000125950
  17 16  0     -277.9305766097    -0.0000000994   0.000062192   0.000052830
  18 17  0     -277.9305766310    -0.0000000213   0.000016144   0.000010956
  19 18  0     -277.9305766313    -0.0000000003   0.000005997   0.000004951
  20 19  0     -277.9305766315    -0.0000000002   0.000000531   0.000000425

          -----------------
          DENSITY CONVERGED
          -----------------
     TIME TO FORM FOCK OPERATORS=       9.7 SECONDS (       0.5 SEC/ITER)
     TIME TO SOLVE SCF EQUATIONS=       0.0 SECONDS (       0.0 SEC/ITER)

 FINAL R-PBE ENERGY IS     -277.9305766315 AFTER  20 ITERATIONS
 DFT EXCHANGE + CORRELATION ENERGY =       -32.8959146201
 TOTAL ELECTRON NUMBER             =        34.0000422495

          ------------
          EIGENVECTORS
          ------------

                      1          2          3          4          5
                  -24.2479   -24.2348    -9.9753    -9.9731    -1.1078
                     A          A          A          A          A   
    1  C  1  S    0.000042  -0.000183   0.993024  -0.025724  -0.012919
    2  C  1  S    0.000088  -0.000928   0.036733  -0.001955   0.022026
    3  C  1  S   -0.003612   0.008970  -0.022080   0.006296   0.024310
    4  C  1  X   -0.000261  -0.000883  -0.000451  -0.000671   0.012656
    5  C  1  Y    0.000200  -0.000314   0.000135   0.000726  -0.009109
    6  C  1  Z   -0.000018  -0.000071  -0.000006   0.000001  -0.000837
    7  C  1  X   -0.001980  -0.002503  -0.002856   0.002075   0.010505
    8  C  1  Y    0.001040  -0.003464   0.001071  -0.002217  -0.008900
    9  C  1  Z    0.000451  -0.000469  -0.000087   0.000088   0.000783
   10  C  1 XX   -0.000156   0.000473  -0.000266  -0.000324   0.003099
   11  C  1 YY    0.000094  -0.000134  -0.000057  -0.000167  -0.000382
   12  C  1 ZZ    0.000062  -0.000339   0.000323   0.000490  -0.002717
   13  C  1 XY    0.000099   0.000460   0.000206   0.000830  -0.002308
   14  C  1 XZ   -0.000012   0.000073  -0.000027  -0.000005   0.000033
   15  C  1 YZ   -0.000021   0.000051  -0.000006   0.000001   0.000166
   16  C  2  S   -0.000136   0.000041   0.025922   0.992974  -0.064450
   17  C  2  S   -0.000574   0.000133  -0.000073   0.037086   0.121493
   18  C  2  S    0.010082  -0.003505   0.005418  -0.021619   0.010300
   19  C  2  X    0.001098   0.000192   0.000702   0.000882   0.086262
   20  C  2  Y    0.000378  -0.000177  -0.000725   0.000202   0.049608
   21  C  2  Z   -0.000099  -0.000012   0.000005  -0.000056  -0.008895
   22  C  2  X    0.002484   0.001953  -0.002036   0.003026   0.011569
   23  C  2  Y    0.003499  -0.000908   0.002247  -0.001063  -0.000526
   24  C  2  Z   -0.000539   0.000490   0.000063  -0.000108  -0.000706
   25  C  2 XX    0.000240  -0.000169  -0.000317  -0.000017   0.014872
   26  C  2 YY   -0.000080   0.000097  -0.000179  -0.000110  -0.003322
   27  C  2 ZZ   -0.000160   0.000072   0.000496   0.000128  -0.011550
   28  C  2 XY    0.000253   0.000027   0.000840   0.000362   0.013956
   29  C  2 XZ   -0.000041   0.000011  -0.000003  -0.000016  -0.002891
   30  C  2 YZ   -0.000033   0.000017   0.000006  -0.000010  -0.001541
   31  F  3  S    0.993084   0.001114   0.000005   0.000065  -0.237949
   32  F  3  S    0.034048  -0.000185  -0.000169   0.000473   0.484178
   33  F  3  S   -0.016971   0.000501   0.000058  -0.000803   0.497448
   34  F  3  X   -0.001087   0.000075   0.000096   0.000295  -0.090096
   35  F  3  Y   -0.000537  -0.000101  -0.000008   0.000096  -0.042043
   36  F  3  Z    0.000104   0.000008  -0.000011  -0.000026   0.008792
   37  F  3  X    0.003477  -0.000537  -0.000186   0.001646  -0.042448
   38  F  3  Y    0.001678   0.000362   0.000206   0.001148  -0.018458
   39  F  3  Z   -0.000318  -0.000053   0.000015  -0.000183   0.004177
   40  F  3 XX   -0.000325   0.000054   0.000054  -0.000886   0.009011
   41  F  3 YY    0.000130  -0.000028   0.000023   0.000234  -0.002741
   42  F  3 ZZ    0.000195  -0.000026  -0.000077   0.000653  -0.006270
   43  F  3 XY   -0.000351   0.000002  -0.000163  -0.000873   0.008040
   44  F  3 XZ    0.000061   0.000002   0.000001   0.000176  -0.001755
   45  F  3 YZ    0.000026   0.000013   0.000006   0.000092  -0.000816
   46  H  4  S   -0.000925   0.000078  -0.000330  -0.001179   0.021874
   47  H  4  S    0.000017  -0.000535   0.000580   0.003385   0.000912
   48  H  4  X   -0.000310   0.000052  -0.000120  -0.000179   0.001066
   49  H  4  Y   -0.000282  -0.000070   0.000060  -0.000620   0.003043
   50  H  4  Z    0.000058   0.000023   0.000045   0.001094  -0.004278
   51  H  5  S   -0.000929   0.000158  -0.000314  -0.001158   0.021803
   52  H  5  S   -0.000134   0.000056   0.000786   0.003408   0.001214
   53  H  5  X   -0.000323   0.000079  -0.000134  -0.000310   0.001546
   54  H  5  Y   -0.000283  -0.000064   0.000070  -0.000753   0.003607
   55  H  5  Z    0.000023  -0.000018  -0.000041  -0.000960   0.003643
   56  F  6  S   -0.001117   0.993091   0.000047   0.000003  -0.011820
   57  F  6  S   -0.000244   0.033702   0.000404  -0.000168   0.023869
   58  F  6  S    0.000469  -0.015963  -0.000046   0.000070   0.024502
   59  F  6  X   -0.000084   0.001019  -0.000089  -0.000091   0.004901
   60  F  6  Y    0.000090   0.000513   0.000009   0.000020   0.001751
   61  F  6  Z    0.000006   0.000084  -0.000006  -0.000010   0.000331
   62  F  6  X    0.000499  -0.003257  -0.001077   0.000252   0.001568
   63  F  6  Y   -0.000341  -0.001585  -0.000874  -0.000149   0.001724
   64  F  6  Z   -0.000043  -0.000256  -0.000107   0.000025   0.000194
   65  F  6 XX    0.000049  -0.000319  -0.000815   0.000092   0.000514
   66  F  6 YY   -0.000031   0.000125   0.000207  -0.000001  -0.000088
   67  F  6 ZZ   -0.000017   0.000195   0.000608  -0.000091  -0.000426
   68  F  6 XY   -0.000007  -0.000338  -0.000829  -0.000108   0.000533
   69  F  6 XZ   -0.000004  -0.000051  -0.000142   0.000008   0.000082
   70  F  6 YZ   -0.000013  -0.000022  -0.000076  -0.000005   0.000053
   71  H  7  S    0.000077  -0.000738  -0.001183  -0.000254   0.003511
   72  H  7  S   -0.000569   0.000137   0.003477   0.000387   0.001221
   73  H  7  X   -0.000071   0.000325   0.000198   0.000108   0.000088
   74  H  7  Y    0.000069   0.000247   0.000646  -0.000090  -0.000484
   75  H  7  Z    0.000026  -0.000017   0.001111  -0.000009  -0.000948
   76  H  8  S    0.000146  -0.000740  -0.001161  -0.000237   0.004588
   77  H  8  S   -0.000035  -0.000004   0.003514   0.000578   0.003209
   78  H  8  X   -0.000093   0.000331   0.000321   0.000115   0.000339
   79  H  8  Y    0.000068   0.000238   0.000752  -0.000105  -0.000861
   80  H  8  Z   -0.000028   0.000083  -0.000997   0.000008   0.000997

                      6          7          8          9         10
                   -1.0675    -0.7132    -0.5824    -0.4710    -0.4682
                     A          A          A          A          A   
    1  C  1  S   -0.052303  -0.154238   0.127007  -0.000049  -0.002723
    2  C  1  S    0.100335   0.316897  -0.275801  -0.000521   0.009322
    3  C  1  S    0.016148   0.178474  -0.142785  -0.001686  -0.007187
    4  C  1  X   -0.069357   0.098211   0.046614  -0.033446  -0.113385
    5  C  1  Y   -0.038708  -0.051510  -0.126019  -0.035699  -0.174119
    6  C  1  Z   -0.005999   0.004929  -0.001670   0.278338  -0.068499
    7  C  1  X   -0.014476   0.030744   0.004199  -0.009756  -0.016985
    8  C  1  Y   -0.001486  -0.009236  -0.056484  -0.018266  -0.070656
    9  C  1  Z   -0.001137   0.001524  -0.005138   0.116467  -0.021195
   10  C  1 XX    0.010991   0.000879  -0.000887  -0.001301  -0.003087
   11  C  1 YY   -0.002412   0.003511   0.004709   0.001363   0.008987
   12  C  1 ZZ   -0.008578  -0.004389  -0.003822  -0.000061  -0.005900
   13  C  1 XY    0.010674  -0.008844  -0.008486   0.000557   0.005424
   14  C  1 XZ    0.001886   0.000185   0.000060   0.005587  -0.000289
   15  C  1 YZ    0.000988  -0.000179   0.000084  -0.003142   0.001896
   16  C  2  S   -0.005550  -0.148989  -0.127725  -0.002201  -0.008302
   17  C  2  S    0.008273   0.306273   0.279352   0.000942   0.009179
   18  C  2  S    0.018438   0.164724   0.130742   0.016258   0.050424
   19  C  2  X   -0.020066  -0.100723   0.069757  -0.047200  -0.228117
   20  C  2  Y    0.003218   0.057133  -0.125137  -0.055801  -0.212896
   21  C  2  Z    0.000035   0.004682   0.001883   0.320985  -0.076538
   22  C  2  X   -0.010185  -0.032242   0.004525   0.000625  -0.031078
   23  C  2  Y    0.007267   0.009391  -0.059772  -0.012037  -0.068167
   24  C  2  Z    0.001094   0.002170   0.005917   0.136368  -0.042376
   25  C  2 XX    0.001342  -0.000042   0.003294  -0.001639  -0.005958
   26  C  2 YY   -0.000094   0.004374  -0.006363  -0.002091  -0.005615
   27  C  2 ZZ   -0.001249  -0.004332   0.003068   0.003731   0.011573
   28  C  2 XY   -0.003180  -0.009153   0.009098  -0.004560  -0.015063
   29  C  2 XZ    0.000270   0.000011  -0.000383   0.001076   0.002187
   30  C  2 YZ   -0.000019   0.000081   0.000159   0.005342   0.000966
   31  F  3  S    0.015555   0.061146   0.046134  -0.014219  -0.041803
   32  F  3  S   -0.032013  -0.132196  -0.102094   0.029798   0.086817
   33  F  3  S   -0.032876  -0.160329  -0.120142   0.044068   0.131111
   34  F  3  X    0.004110  -0.099061  -0.143332   0.149274   0.395342
   35  F  3  Y    0.002643  -0.024591  -0.139523   0.037410   0.091710
   36  F  3  Z   -0.000529   0.008411   0.018500   0.209386  -0.107041
   37  F  3  X    0.002503  -0.055339  -0.088108   0.091889   0.243242
   38  F  3  Y    0.000630  -0.017566  -0.083333   0.021341   0.053571
   39  F  3  Z   -0.000237   0.004533   0.011135   0.126543  -0.064333
   40  F  3 XX   -0.000402   0.005705   0.003153  -0.005616  -0.011772
   41  F  3 YY    0.000141  -0.002410   0.000575   0.001553   0.005857
   42  F  3 ZZ    0.000261  -0.003295  -0.003728   0.004063   0.005915
   43  F  3 XY   -0.000444   0.002748   0.009274  -0.002203  -0.004451
   44  F  3 XZ    0.000102  -0.000859  -0.001147  -0.010298   0.005350
   45  F  3 YZ    0.000044  -0.000286  -0.000887  -0.004934   0.002125
   46  H  4  S    0.001217   0.108219   0.162736   0.207847   0.045776
   47  H  4  S    0.000801  -0.004263   0.006313   0.023471   0.015013
   48  H  4  X   -0.000141  -0.001470   0.001594  -0.001316  -0.005055
   49  H  4  Y    0.000124   0.006154   0.004888   0.007977  -0.003079
   50  H  4  Z   -0.000450  -0.009341  -0.012104  -0.006244  -0.003940
   51  H  5  S    0.002292   0.106105   0.165231  -0.133134   0.161460
   52  H  5  S    0.003160  -0.006069   0.010240  -0.006584   0.019916
   53  H  5  X   -0.000413  -0.000096   0.003044  -0.001893  -0.004207
   54  H  5  Y    0.000431   0.007126   0.006769  -0.008514   0.003429
   55  H  5  Z    0.000542   0.008409   0.011050  -0.001034   0.007003
   56  F  6  S   -0.242387   0.054368  -0.036552   0.003560   0.028721
   57  F  6  S    0.493155  -0.117434   0.082366  -0.007429  -0.060784
   58  F  6  S    0.515960  -0.141410   0.091668  -0.011834  -0.091895
   59  F  6  X    0.072977   0.080410  -0.104716   0.020875   0.240420
   60  F  6  Y    0.034317   0.023190  -0.097687  -0.002275   0.027034
   61  F  6  Z    0.006226   0.006197  -0.011214   0.134753  -0.011110
   62  F  6  X    0.038547   0.045395  -0.068385   0.013528   0.151583
   63  F  6  Y    0.017054   0.017056  -0.059945  -0.001255   0.015365
   64  F  6  Z    0.003350   0.003376  -0.007091   0.080111  -0.007031
   65  F  6 XX    0.008648   0.004706  -0.002986   0.000273   0.008483
   66  F  6 YY   -0.002573  -0.001848  -0.000174  -0.000790  -0.004189
   67  F  6 ZZ   -0.006075  -0.002858   0.003160   0.000517  -0.004294
   68  F  6 XY    0.007945   0.002811  -0.007213  -0.000260   0.001626
   69  F  6 XZ    0.001492   0.000658  -0.000804   0.006982  -0.000487
   70  F  6 YZ    0.000703   0.000256  -0.000582   0.003180  -0.000511
   71  H  7  S    0.018885   0.114104  -0.164432   0.149447  -0.101621
   72  H  7  S    0.001129  -0.004212  -0.006883   0.017529  -0.015074
   73  H  7  X   -0.001093   0.001404   0.001308  -0.000032  -0.003703
   74  H  7  Y   -0.002607  -0.006581   0.005035  -0.007582   0.000996
   75  H  7  Z   -0.003455  -0.009862   0.012102  -0.003248   0.004858
   76  H  8  S    0.018705   0.112044  -0.167505  -0.166224  -0.042860
   77  H  8  S    0.001036  -0.006559  -0.011793  -0.014424   0.001211
   78  H  8  X   -0.001477   0.000056   0.002553  -0.000862  -0.003355
   79  H  8  Y   -0.002948  -0.007367   0.006614   0.008096  -0.001324
   80  H  8  Z    0.002989   0.009076  -0.011296  -0.003551  -0.003922

                     11         12         13         14         15
                   -0.4367    -0.4099    -0.3942    -0.3359    -0.3092
                     A          A          A          A          A   
    1  C  1  S    0.007579   0.011366   0.001351   0.032394   0.000054
    2  C  1  S   -0.023427  -0.012962  -0.003050  -0.070974  -0.001739
    3  C  1  S   -0.009594  -0.049829  -0.002730  -0.136896   0.004507
    4  C  1  X    0.293730  -0.067538   0.004325  -0.092353  -0.002888
    5  C  1  Y   -0.111414  -0.300681   0.014459   0.029993   0.026812
    6  C  1  Z   -0.001052   0.000127  -0.296547  -0.003802  -0.106406
    7  C  1  X    0.090377   0.014583   0.004640  -0.057787   0.000385
    8  C  1  Y   -0.055682  -0.098063   0.009762   0.066404   0.016837
    9  C  1  Z   -0.001226   0.002164  -0.160819   0.008359  -0.036469
   10  C  1 XX   -0.009006   0.016727   0.000366   0.014574  -0.000213
   11  C  1 YY    0.006942  -0.001770   0.000119  -0.009803   0.002066
   12  C  1 ZZ    0.002064  -0.014957  -0.000485  -0.004772  -0.001853
   13  C  1 XY   -0.012434   0.009897   0.000577  -0.006082   0.001693
   14  C  1 XZ   -0.001425   0.001967   0.010436   0.000225  -0.017063
   15  C  1 YZ   -0.000832   0.001332  -0.008949  -0.001571  -0.004554
   16  C  2  S   -0.011373   0.009310  -0.002499  -0.027268  -0.000396
   17  C  2  S    0.020643  -0.010892   0.004861   0.056065  -0.000893
   18  C  2  S    0.032938  -0.037468   0.008332   0.130547   0.006938
   19  C  2  X   -0.243944  -0.007049   0.006407  -0.022824  -0.003022
   20  C  2  Y    0.159557   0.237509  -0.009157  -0.081106  -0.032488
   21  C  2  Z    0.006163   0.011912   0.200383   0.012957  -0.176860
   22  C  2  X   -0.078122  -0.039216   0.008035  -0.026499  -0.003613
   23  C  2  Y    0.081661   0.075100   0.000259   0.013927  -0.018952
   24  C  2  Z    0.003472   0.007099   0.114125  -0.005018  -0.079249
   25  C  2 XX   -0.015901   0.013656  -0.000713  -0.019678   0.000136
   26  C  2 YY    0.013700  -0.001472   0.000356   0.011377   0.002676
   27  C  2 ZZ    0.002201  -0.012183   0.000357   0.008301  -0.002812
   28  C  2 XY   -0.006894   0.010428  -0.000369   0.010752   0.002664
   29  C  2 XZ    0.001748  -0.000415   0.017626  -0.000253   0.017637
   30  C  2 YZ   -0.000301  -0.001623  -0.006490  -0.002090   0.010337
   31  F  3  S   -0.015746   0.007202  -0.000547   0.000845   0.000443
   32  F  3  S    0.030578  -0.013318   0.000562  -0.002982  -0.002079
   33  F  3  S    0.050065  -0.014151   0.001108  -0.007019   0.001047
   34  F  3  X    0.092705  -0.267658   0.052282  -0.149336   0.025281
   35  F  3  Y    0.331700   0.097185   0.032026   0.435944   0.051281
   36  F  3  Z   -0.028028   0.053469   0.339362  -0.052935   0.432772
   37  F  3  X    0.056346  -0.164946   0.033058  -0.102921   0.015553
   38  F  3  Y    0.205511   0.060418   0.020960   0.297014   0.037391
   39  F  3  Z   -0.017545   0.034960   0.220203  -0.035690   0.303584
   40  F  3 XX    0.003871   0.009620  -0.002081   0.006801  -0.000736
   41  F  3 YY   -0.006251  -0.007444  -0.000311  -0.007157  -0.000415
   42  F  3 ZZ    0.002380  -0.002176   0.002392   0.000356   0.001150
   43  F  3 XY   -0.012030  -0.002212  -0.001630  -0.007179  -0.001061
   44  F  3 XZ    0.000704  -0.002427  -0.011370   0.000688  -0.007036
   45  F  3 YZ    0.001481  -0.000224  -0.006483   0.001366  -0.002666
   46  H  4  S   -0.035892  -0.104947   0.141457   0.102526  -0.143962
   47  H  4  S   -0.005698  -0.034767   0.027918   0.034261  -0.030035
   48  H  4  X   -0.004916  -0.000719   0.002605  -0.000931   0.001588
   49  H  4  Y    0.001086   0.002577   0.003960  -0.000543  -0.004245
   50  H  4  Z    0.002956   0.005377  -0.003066  -0.003822   0.001183
   51  H  5  S   -0.036861  -0.137045  -0.109917   0.085407   0.163375
   52  H  5  S    0.003203  -0.046461  -0.017540   0.011386   0.032713
   53  H  5  X   -0.005373  -0.002706  -0.003053   0.000942  -0.000381
   54  H  5  Y    0.000672   0.000566  -0.004404  -0.000532   0.003670
   55  H  5  Z   -0.002437  -0.006179  -0.000765   0.003828   0.001971
   56  F  6  S   -0.029786   0.020348   0.000927   0.000757   0.000468
   57  F  6  S    0.062119  -0.042180  -0.001832  -0.001305  -0.002128
   58  F  6  S    0.092494  -0.055228  -0.002529   0.003301   0.000742
   59  F  6  X   -0.242634   0.376269   0.032455  -0.134217  -0.033206
   60  F  6  Y   -0.277206   0.013419   0.034955   0.452399  -0.039289
   61  F  6  Z   -0.036676   0.042648  -0.290851   0.035786   0.459298
   62  F  6  X   -0.156069   0.238965   0.021281  -0.088416  -0.020648
   63  F  6  Y   -0.172236   0.012086   0.022157   0.304684  -0.028622
   64  F  6  Z   -0.023027   0.027856  -0.186386   0.023870   0.317786
   65  F  6 XX   -0.002538   0.011521   0.001237  -0.007047  -0.000942
   66  F  6 YY   -0.002127  -0.006865   0.000631   0.007566  -0.000253
   67  F  6 ZZ    0.004665  -0.004656  -0.001868  -0.000519   0.001195
   68  F  6 XY   -0.011373   0.001946   0.001552   0.008021  -0.001010
   69  F  6 XZ   -0.001446   0.002044  -0.010235   0.000378   0.007622
   70  F  6 YZ   -0.001302   0.000337  -0.005716   0.001167   0.003564
   71  H  7  S   -0.049330  -0.146444  -0.199126  -0.047224  -0.081958
   72  H  7  S   -0.007259  -0.043425  -0.035531  -0.012406  -0.005384
   73  H  7  X    0.006909  -0.001597   0.001983  -0.002455  -0.002016
   74  H  7  Y    0.000151  -0.002945   0.006654   0.000378   0.002644
   75  H  7  Z    0.003320   0.007290   0.003669   0.001422   0.000264
   76  H  8  S   -0.032898  -0.170504   0.189484  -0.039421   0.101045
   77  H  8  S    0.002602  -0.051037   0.030775   0.008179   0.009422
   78  H  8  X    0.007612   0.000124  -0.003244  -0.000925   0.000948
   79  H  8  Y   -0.000245  -0.001122  -0.006841   0.000322  -0.001789
   80  H  8  Z   -0.002235  -0.008254   0.002435  -0.001603   0.001423

                     16         17         18         19         20
                   -0.2952    -0.2937    -0.0220     0.0277     0.0554
                     A          A          A          A          A   
    1  C  1  S   -0.001874  -0.020620   0.059603  -0.073957   0.048132
    2  C  1  S    0.004822   0.059248  -0.164592   0.128213  -0.093560
    3  C  1  S    0.014322   0.069766  -0.093210   1.172716  -0.674261
    4  C  1  X    0.027297   0.152284   0.392300   0.007405   0.025599
    5  C  1  Y   -0.010382  -0.229042   0.171810   0.185544  -0.062124
    6  C  1  Z   -0.218726   0.002918   0.023751   0.061057   0.270697
    7  C  1  X    0.007035  -0.003693   0.565779   0.113932  -0.021726
    8  C  1  Y   -0.017104  -0.101601   0.125346   0.521100  -0.171047
    9  C  1  Z   -0.005998  -0.007000   0.006702   0.140878   0.671782
   10  C  1 XX    0.002681   0.012922   0.036674   0.007539  -0.002913
   11  C  1 YY    0.000534  -0.007097  -0.019964   0.006880   0.005346
   12  C  1 ZZ   -0.003216  -0.005825  -0.016709  -0.014419  -0.002433
   13  C  1 XY    0.001069  -0.017072   0.024761  -0.002210   0.003294
   14  C  1 XZ   -0.008044   0.000338   0.004599   0.002994   0.009619
   15  C  1 YZ   -0.023133   0.000559   0.005139  -0.003828  -0.024730
   16  C  2  S   -0.001330  -0.020215  -0.026904  -0.071666  -0.009886
   17  C  2  S    0.004291   0.058406   0.079049   0.131684   0.007736
   18  C  2  S   -0.002168   0.085172  -0.127342   1.046935   0.226162
   19  C  2  X    0.002937  -0.154806   0.218967   0.038463  -0.057477
   20  C  2  Y    0.031606   0.224000   0.123657  -0.152497  -0.022921
   21  C  2  Z    0.219923  -0.035105  -0.013900   0.062104   0.258622
   22  C  2  X    0.006607  -0.002726   0.398913  -0.024379  -0.083220
   23  C  2  Y    0.001844   0.114302   0.093275  -0.481710  -0.020156
   24  C  2  Z    0.011838  -0.012390   0.009476   0.149138   0.624692
   25  C  2 XX   -0.000510   0.012287  -0.037961  -0.000381   0.006587
   26  C  2 YY   -0.002293  -0.006040   0.023598   0.011600  -0.001836
   27  C  2 ZZ    0.002803  -0.006247   0.014363  -0.011219  -0.004751
   28  C  2 XY   -0.004108  -0.016500  -0.019763  -0.007060   0.007177
   29  C  2 XZ   -0.007790   0.000979   0.003919  -0.001994  -0.010310
   30  C  2 YZ   -0.022633   0.003170   0.006209   0.004703   0.024226
   31  F  3  S    0.000691  -0.000052   0.048363  -0.004752  -0.004913
   32  F  3  S   -0.001834   0.006551  -0.104322   0.006535   0.008676
   33  F  3  S   -0.003884  -0.031065  -0.320481   0.050032   0.044312
   34  F  3  X    0.013347   0.198226   0.236901   0.041749  -0.022820
   35  F  3  Y   -0.067489  -0.304588   0.051906   0.077495  -0.047903
   36  F  3  Z   -0.320128   0.055466  -0.026852  -0.017018  -0.004034
   37  F  3  X    0.007367   0.146204   0.207711   0.023607  -0.017742
   38  F  3  Y   -0.045349  -0.211278   0.062358   0.087508  -0.039570
   39  F  3  Z   -0.220220   0.037175  -0.025042  -0.020951  -0.041606
   40  F  3 XX   -0.000182  -0.002849   0.001538   0.002616  -0.002279
   41  F  3 YY    0.000687   0.002814   0.000141   0.001978   0.001066
   42  F  3 ZZ   -0.000505   0.000035  -0.001680  -0.004594   0.001212
   43  F  3 XY    0.000472   0.002355  -0.001227   0.003234  -0.001340
   44  F  3 XZ    0.003868  -0.000506  -0.000581  -0.002001  -0.004804
   45  F  3 YZ   -0.000465  -0.000445   0.000554  -0.000576  -0.001072
   46  H  4  S    0.207711  -0.124424   0.022443  -0.063410  -0.104714
   47  H  4  S    0.139414  -0.071085   0.053617  -0.926970  -1.194955
   48  H  4  X   -0.000867  -0.003089   0.012695   0.004071  -0.006244
   49  H  4  Y    0.005194   0.002542   0.001822   0.001368   0.010531
   50  H  4  Z   -0.001653   0.004575   0.003530  -0.015934  -0.011722
   51  H  5  S   -0.224364  -0.074075   0.064491  -0.027159   0.068208
   52  H  5  S   -0.151049  -0.054683   0.195430  -0.539181   0.814201
   53  H  5  X    0.000608  -0.002667   0.011813   0.005399  -0.002470
   54  H  5  Y   -0.005451   0.003120  -0.000418  -0.000630  -0.008819
   55  H  5  Z   -0.001511  -0.004336  -0.005882   0.011456  -0.005575
   56  F  6  S   -0.000658  -0.000193  -0.061417  -0.013357  -0.003951
   57  F  6  S    0.002500   0.006477   0.126232   0.024787   0.006449
   58  F  6  S   -0.000214  -0.027132   0.406520   0.108856   0.032897
   59  F  6  X   -0.018929  -0.235725   0.329961  -0.001691   0.044194
   60  F  6  Y   -0.013950   0.377947   0.143229  -0.056865   0.039972
   61  F  6  Z    0.387702   0.002213   0.034834  -0.008649  -0.006052
   62  F  6  X   -0.015818  -0.171704   0.297686   0.015562   0.048024
   63  F  6  Y   -0.008507   0.259029   0.142652  -0.061265   0.043982
   64  F  6  Z    0.265081   0.000459   0.031558  -0.011747  -0.038656
   65  F  6 XX   -0.000327  -0.003983  -0.002495   0.002148  -0.001491
   66  F  6 YY   -0.000260   0.003790   0.000283   0.001761  -0.000240
   67  F  6 ZZ    0.000587   0.000193   0.002212  -0.003909   0.001731
   68  F  6 XY   -0.000085   0.003138  -0.001358   0.003374  -0.003136
   69  F  6 XZ    0.004763  -0.000170  -0.000752   0.001508   0.004121
   70  F  6 YZ    0.000488   0.000513   0.000182   0.000515   0.000459
   71  H  7  S   -0.224163  -0.090642  -0.006667  -0.077441  -0.061617
   72  H  7  S   -0.147001  -0.049045   0.029992  -1.008472  -0.631471
   73  H  7  X   -0.000873   0.003001   0.019060  -0.001626   0.003136
   74  H  7  Y    0.004302  -0.003669   0.004085  -0.001867  -0.005915
   75  H  7  Z    0.002191   0.004260  -0.003474  -0.017462  -0.005319
   76  H  8  S    0.206165  -0.110053  -0.033031  -0.045220   0.125564
   77  H  8  S    0.137610  -0.076137  -0.074842  -0.647990   1.533935
   78  H  8  X    0.001588   0.002416   0.017681  -0.002886   0.001829
   79  H  8  Y   -0.005527  -0.002712   0.002373  -0.000003   0.015951
   80  H  8  Z    0.000743  -0.004522   0.006538   0.013619  -0.012650

                     21         22         23         24         25
                    0.0591     0.1050     0.1079     0.1747     0.3315
                     A          A          A          A          A   
    1  C  1  S   -0.081819  -0.039614  -0.016844   0.078441   0.007838
    2  C  1  S    0.152756   0.137574   0.036531  -0.109944  -0.136485
    3  C  1  S    1.144694   0.171749   0.280938  -1.915145  -0.479810
    4  C  1  X   -0.024398  -0.308207  -0.053722  -0.143049  -0.166048
    5  C  1  Y    0.072190  -0.186185  -0.069463   0.366909   0.371988
    6  C  1  Z    0.088859  -0.055875   0.300569   0.043014   0.015904
    7  C  1  X   -0.022355  -0.534257  -0.024616  -1.397554   0.086105
    8  C  1  Y    0.167150  -0.536764  -0.255284   1.460453  -1.106596
    9  C  1  Z    0.229428  -0.191539   0.989518   0.107848  -0.045019
   10  C  1 XX    0.006979   0.002603  -0.000156   0.026539  -0.023306
   11  C  1 YY   -0.008978  -0.018737  -0.004092   0.006176  -0.033725
   12  C  1 ZZ    0.001998   0.016134   0.004248  -0.032715   0.057031
   13  C  1 XY    0.001058  -0.018315   0.000260  -0.032340   0.041019
   14  C  1 XZ    0.003838  -0.000034  -0.013628   0.000938  -0.001541
   15  C  1 YZ   -0.008168   0.002904  -0.010024   0.001953   0.001947
   16  C  2  S    0.088076  -0.064382  -0.006578  -0.088547   0.008025
   17  C  2  S   -0.152939   0.185489   0.035298   0.144477  -0.146865
   18  C  2  S   -1.358264   0.396851  -0.143821   1.988442  -0.356991
   19  C  2  X    0.048845   0.394086   0.097729  -0.109046   0.188491
   20  C  2  Y    0.152085   0.147797  -0.003620   0.392297  -0.383947
   21  C  2  Z    0.095255   0.075288  -0.308773  -0.048092   0.018670
   22  C  2  X    0.145859   0.939497   0.293880  -1.198288  -0.172159
   23  C  2  Y    0.384044   0.379592  -0.075040   1.592331   1.207121
   24  C  2  Z    0.226502   0.242138  -1.011273  -0.133175  -0.054934
   25  C  2 XX   -0.007249  -0.010552  -0.001548  -0.030040  -0.017053
   26  C  2 YY    0.006299  -0.010280  -0.002666  -0.008090  -0.036766
   27  C  2 ZZ    0.000949   0.020832   0.004214   0.038130   0.053819
   28  C  2 XY   -0.001893  -0.029175  -0.011136   0.025073   0.040392
   29  C  2 XZ   -0.002011   0.008463  -0.011401   0.001951   0.001640
   30  C  2 YZ    0.009209   0.005121  -0.010669   0.002311  -0.000540
   31  F  3  S   -0.001167   0.068300   0.020113   0.011453   0.002401
   32  F  3  S    0.003405  -0.122790  -0.038647  -0.020718   0.022079
   33  F  3  S    0.001954  -0.614077  -0.169423  -0.107364  -0.150101
   34  F  3  X   -0.050953   0.209209   0.051354   0.153842  -0.000262
   35  F  3  Y    0.000982   0.190761   0.052036  -0.047098  -0.064700
   36  F  3  Z   -0.007062  -0.045420   0.085653  -0.001234   0.017190
   37  F  3  X   -0.062692   0.268532   0.065695   0.198253   0.098049
   38  F  3  Y   -0.026490   0.195811   0.063897  -0.111713  -0.135847
   39  F  3  Z   -0.019484  -0.063086   0.109517   0.004874   0.000902
   40  F  3 XX    0.000240   0.001429   0.000166   0.012644  -0.008107
   41  F  3 YY   -0.002221  -0.000650   0.001318  -0.014421  -0.001636
   42  F  3 ZZ    0.001980  -0.000778  -0.001484   0.001777   0.009743
   43  F  3 XY   -0.002949   0.008248   0.001949   0.003638   0.005287
   44  F  3 XZ   -0.001964  -0.003119   0.007985  -0.000287   0.002005
   45  F  3 YZ    0.000285  -0.001256  -0.001083   0.001193  -0.000277
   46  H  4  S    0.030927  -0.014242   0.031114   0.083949   0.286004
   47  H  4  S    0.582260  -0.541730   1.290682   0.562241   0.048583
   48  H  4  X    0.001340   0.021113   0.002201  -0.005497  -0.010404
   49  H  4  Y   -0.003508   0.014137  -0.010565   0.010719   0.022431
   50  H  4  Z    0.006872   0.000793   0.011099   0.016889   0.004732
   51  H  5  S    0.093025  -0.018627  -0.050850   0.075132   0.237688
   52  H  5  S    1.398219   0.331353  -1.273477   0.304922   0.102270
   53  H  5  X    0.000634   0.017286   0.011005  -0.008022  -0.011613
   54  H  5  Y   -0.012932   0.006306   0.014016   0.011663   0.024865
   55  H  5  Z   -0.013750  -0.012177   0.007721  -0.015698  -0.007915
   56  F  6  S    0.012837   0.041600   0.004051   0.000708   0.003283
   57  F  6  S   -0.025494  -0.070145  -0.003781   0.002768   0.017478
   58  F  6  S   -0.091924  -0.375732  -0.049482  -0.032833  -0.142180
   59  F  6  X   -0.076808  -0.135898  -0.023207   0.120494  -0.003745
   60  F  6  Y   -0.006370  -0.161526  -0.028290  -0.073912   0.072522
   61  F  6  Z   -0.000815   0.006686  -0.085242  -0.000105   0.016682
   62  F  6  X   -0.093542  -0.178891  -0.031365   0.128695  -0.093167
   63  F  6  Y   -0.026114  -0.135906  -0.013973  -0.130836   0.111138
   64  F  6  Z   -0.014830   0.001459  -0.103870  -0.008005  -0.000731
   65  F  6 XX   -0.000706   0.002614   0.000806  -0.011665  -0.004843
   66  F  6 YY    0.001532  -0.001766  -0.001685   0.012591  -0.003230
   67  F  6 ZZ   -0.000826  -0.000849   0.000880  -0.000926   0.008072
   68  F  6 XY    0.002585   0.008630   0.001959  -0.001792   0.001421
   69  F  6 XZ    0.001370  -0.000782   0.007474  -0.000253  -0.001877
   70  F  6 YZ    0.000933   0.001377  -0.000478   0.000997  -0.000047
   71  H  7  S   -0.089884  -0.000352  -0.036701  -0.077568   0.298979
   72  H  7  S   -1.162031   0.363471  -1.285893  -0.564234   0.010369
   73  H  7  X    0.000497  -0.011884  -0.005768  -0.009426   0.011775
   74  H  7  Y   -0.012097  -0.006186  -0.015145   0.008109  -0.022996
   75  H  7  Z   -0.010177   0.007841  -0.008646  -0.015907   0.005533
   76  H  8  S   -0.032046  -0.055315   0.036376  -0.078473   0.247225
   77  H  8  S   -0.440703   0.042820   1.297334  -0.283223   0.064232
   78  H  8  X   -0.001458  -0.012188   0.005054  -0.011525   0.012318
   79  H  8  Y   -0.005970  -0.010369   0.009981   0.009487  -0.025332
   80  H  8  Z    0.003433  -0.008804  -0.011855   0.013387  -0.008234

                     26         27         28         29         30
                    0.3707     0.3876     0.4107     0.4888     0.5011
                     A          A          A          A          A   
    1  C  1  S    0.006913  -0.011543   0.012533   0.072965   0.038457
    2  C  1  S   -0.046900   0.175804  -0.118922  -0.530208  -0.290667
    3  C  1  S    0.106938  -0.215538   0.369276   1.500909   0.797679
    4  C  1  X    0.169979  -0.691493   0.384637  -0.328096  -0.184012
    5  C  1  Y    0.023546  -0.111989   0.256631   0.371557   0.149954
    6  C  1  Z   -0.015538  -0.041584   0.044510  -0.217005   0.442632
    7  C  1  X   -0.140824   0.877956  -1.004174   0.886440   0.503738
    8  C  1  Y    0.004056   0.549677  -0.629333  -1.319036  -0.639875
    9  C  1  Z   -0.517977  -0.001888   0.013292   0.956786  -2.029629
   10  C  1 XX   -0.001298  -0.015205   0.007033  -0.006165  -0.007747
   11  C  1 YY   -0.006107   0.036303   0.013503   0.001239   0.000696
   12  C  1 ZZ    0.007405  -0.021098  -0.020536   0.004926   0.007051
   13  C  1 XY   -0.004379  -0.032831  -0.013371  -0.056256  -0.028759
   14  C  1 XZ   -0.019083  -0.000316   0.006914  -0.019888   0.025359
   15  C  1 YZ    0.108724   0.017631  -0.016014  -0.010418   0.002158
   16  C  2  S    0.005419   0.013028   0.018573  -0.070417  -0.036784
   17  C  2  S   -0.011975  -0.168639  -0.175759   0.516063   0.279439
   18  C  2  S    0.032550   0.102425   0.301672  -1.474213  -0.777453
   19  C  2  X   -0.061158  -0.511969  -0.675463  -0.272365  -0.167110
   20  C  2  Y   -0.010138  -0.040871  -0.285806   0.444997   0.178847
   21  C  2  Z   -0.021533   0.018534   0.070236   0.223926  -0.476316
   22  C  2  X    0.039110   0.293761   1.335968   0.830080   0.519285
   23  C  2  Y   -0.126873   0.248458   0.618869  -1.381844  -0.615838
   24  C  2  Z   -0.472869  -0.095514  -0.030631  -0.991473   2.147131
   25  C  2 XX   -0.000470   0.018856   0.034329  -0.006612   0.000029
   26  C  2 YY   -0.002267  -0.038904  -0.007220  -0.002808  -0.001807
   27  C  2 ZZ    0.002736   0.020048  -0.027109   0.009420   0.001778
   28  C  2 XY   -0.009569   0.047969   0.021176   0.053573   0.026424
   29  C  2 XZ    0.023501   0.003167  -0.011265  -0.013335   0.017324
   30  C  2 YZ   -0.105773  -0.010297   0.012784  -0.009087   0.002947
   31  F  3  S   -0.004801   0.010734   0.008096   0.010944   0.002330
   32  F  3  S    0.018445   0.001151   0.070380  -0.056641  -0.020457
   33  F  3  S    0.002726  -0.245628  -0.596803   0.075377   0.078856
   34  F  3  X   -0.020534  -0.112194  -0.294214   0.043637   0.011739
   35  F  3  Y    0.013412  -0.177555  -0.022164   0.078336   0.035071
   36  F  3  Z    0.134672   0.023812   0.003620   0.091776  -0.185913
   37  F  3  X   -0.019124   0.082232   0.048079  -0.050110  -0.042507
   38  F  3  Y    0.012649  -0.029726   0.071479   0.084394   0.016827
   39  F  3  Z    0.076145   0.008018  -0.020405   0.065232  -0.142691
   40  F  3 XX   -0.000183  -0.019689  -0.037806   0.019197   0.011619
   41  F  3 YY    0.000566   0.001532   0.009398  -0.010112  -0.005645
   42  F  3 ZZ   -0.000383   0.018157   0.028408  -0.009085  -0.005973
   43  F  3 XY   -0.001200  -0.032386  -0.030262  -0.003871  -0.001083
   44  F  3 XZ    0.011690   0.005535   0.005965  -0.002778   0.002259
   45  F  3 YZ   -0.004686   0.003855   0.003356   0.000774  -0.002191
   46  H  4  S    0.543412   0.190225  -0.091106  -0.138311  -0.347797
   47  H  4  S   -0.176312   0.017394   0.089148   0.171748  -1.039291
   48  H  4  X    0.008907  -0.006665  -0.012485  -0.037962   0.022522
   49  H  4  Y   -0.039538   0.004674   0.014424   0.021849  -0.016748
   50  H  4  Z   -0.001415   0.010609  -0.014059  -0.028770   0.020352
   51  H  5  S   -0.565650   0.079087   0.060775  -0.370651   0.056362
   52  H  5  S    0.130770   0.067824   0.024721  -0.630530   0.767233
   53  H  5  X   -0.011041  -0.009964  -0.010584  -0.005675  -0.037154
   54  H  5  Y    0.031737   0.010215   0.008375   0.000422   0.032683
   55  H  5  Z    0.000679  -0.007562   0.012693   0.000008   0.038696
   56  F  6  S    0.000221  -0.022971   0.007893  -0.010401  -0.001713
   57  F  6  S    0.013897   0.002828   0.049494   0.055917   0.020623
   58  F  6  S   -0.080341   0.487846  -0.451778  -0.054995  -0.075881
   59  F  6  X    0.040789  -0.168713   0.192555   0.021619   0.005425
   60  F  6  Y    0.017702  -0.131419  -0.043726   0.076524   0.033929
   61  F  6  Z    0.140101   0.011542  -0.007034  -0.093112   0.181799
   62  F  6  X   -0.015940   0.154665  -0.075688  -0.063788  -0.052173
   63  F  6  Y   -0.014272   0.043777  -0.078530   0.077006   0.016651
   64  F  6  Z    0.063625   0.018737  -0.020330  -0.054754   0.115031
   65  F  6 XX   -0.004487   0.026839  -0.025546  -0.013575  -0.008553
   66  F  6 YY    0.001285  -0.003709   0.007793   0.005396   0.003722
   67  F  6 ZZ    0.003202  -0.023129   0.017753   0.008179   0.004832
   68  F  6 XY   -0.006887   0.033948  -0.011839   0.001929   0.000753
   69  F  6 XZ   -0.013091   0.002779  -0.002636   0.000386  -0.002486
   70  F  6 YZ    0.001268   0.003723  -0.000706   0.002006  -0.005046
   71  H  7  S    0.604240  -0.061053  -0.092673   0.213612   0.370527
   72  H  7  S   -0.184812  -0.097068   0.101209  -0.189405   0.937592
   73  H  7  X   -0.006571  -0.005626   0.003844  -0.041969   0.024129
   74  H  7  Y    0.037673   0.019745  -0.011315   0.022578  -0.018232
   75  H  7  Z    0.000339  -0.007572  -0.012887   0.035620  -0.012959
   76  H  8  S   -0.551896  -0.237337   0.067918   0.437790   0.000562
   77  H  8  S    0.170197  -0.052368   0.010405   0.538303  -0.724175
   78  H  8  X    0.009609  -0.005695   0.003435  -0.005529  -0.041669
   79  H  8  Y   -0.034341   0.008143  -0.005418   0.002050   0.033404
   80  H  8  Z   -0.001523   0.006083   0.010494  -0.009687  -0.041686

                     31         32         33         34         35
                    0.5451     0.5523     0.5563     0.5695     0.7738
                     A          A          A          A          A   
    1  C  1  S   -0.051635  -0.015570  -0.015582   0.063510   0.025338
    2  C  1  S    0.355858   0.115119   0.134313  -0.394288  -1.250853
    3  C  1  S   -0.459163  -0.091798  -0.222021  -0.442045   2.390362
    4  C  1  X   -0.076690  -0.020081  -0.070215  -0.010402  -0.119617
    5  C  1  Y    0.459866   0.149846   0.068729  -0.510452   0.024067
    6  C  1  Z   -0.224503  -0.010356   0.813856  -0.063640   0.016157
    7  C  1  X    0.290528   0.181355   0.210907  -0.694213  -0.009580
    8  C  1  Y   -0.370513  -0.150458   0.093275   1.622862   0.571223
    9  C  1  Z    0.471403  -0.664819  -1.171001   0.132809  -0.051392
   10  C  1 XX    0.054617   0.018220   0.015988  -0.087374  -0.007978
   11  C  1 YY    0.020372  -0.007735   0.021472   0.035652   0.010174
   12  C  1 ZZ   -0.074989  -0.010485  -0.037460   0.051722  -0.002196
   13  C  1 XY   -0.003340  -0.010358   0.007169   0.015122   0.075431
   14  C  1 XZ    0.007108   0.059488  -0.040596  -0.000501  -0.003960
   15  C  1 YZ    0.027273   0.057560  -0.105318   0.004066   0.005840
   16  C  2  S   -0.059526  -0.013509  -0.019727  -0.071133   0.018885
   17  C  2  S    0.421505   0.118936   0.156481   0.450299  -1.261423
   18  C  2  S   -0.718164  -0.276629  -0.231294   0.400260   2.738918
   19  C  2  X    0.056774   0.056619   0.037242   0.021468   0.173745
   20  C  2  Y   -0.361447  -0.004769  -0.105693  -0.522941   0.008974
   21  C  2  Z   -0.257175   0.721010   0.280733   0.074099   0.008609
   22  C  2  X   -0.129031  -0.097495  -0.190825  -0.751042  -0.089871
   23  C  2  Y    0.070400  -0.202035  -0.033218   1.601412  -0.510084
   24  C  2  Z    0.478023  -0.723965  -1.008062  -0.162637  -0.037613
   25  C  2 XX    0.044454   0.009131   0.016437   0.092616   0.003586
   26  C  2 YY    0.021388   0.028133   0.000644  -0.032737   0.004816
   27  C  2 ZZ   -0.065842  -0.037264  -0.017081  -0.059880  -0.008403
   28  C  2 XY   -0.001354   0.012420  -0.006727  -0.017659   0.077437
   29  C  2 XZ   -0.014681   0.055850  -0.032831  -0.002666   0.001631
   30  C  2 YZ   -0.038918   0.121693  -0.014899   0.003601  -0.006853
   31  F  3  S    0.015521   0.000569   0.002632   0.015894   0.043806
   32  F  3  S   -0.088515  -0.014353  -0.021355  -0.042393  -0.198626
   33  F  3  S    0.094651   0.065413   0.051136  -0.124197  -0.183950
   34  F  3  X    0.062535   0.012480   0.038267  -0.009431   0.022049
   35  F  3  Y   -0.020385  -0.018200   0.006485   0.030990  -0.138446
   36  F  3  Z    0.005063  -0.132894   0.104745  -0.014220  -0.016661
   37  F  3  X   -0.012482  -0.014560  -0.007570   0.138397   0.192341
   38  F  3  Y    0.009548   0.006516  -0.002969  -0.090373   0.247121
   39  F  3  Z   -0.038019   0.095319   0.065041   0.007309  -0.000077
   40  F  3 XX   -0.003435  -0.001485   0.000222  -0.013962  -0.015306
   41  F  3 YY    0.009765  -0.000549   0.002029   0.006484   0.006905
   42  F  3 ZZ   -0.006330   0.002034  -0.002250   0.007478   0.008402
   43  F  3 XY    0.006625  -0.001768   0.002572   0.009942  -0.040417
   44  F  3 XZ    0.004750  -0.025428   0.006434  -0.001344   0.003438
   45  F  3 YZ    0.003431  -0.019484  -0.000127  -0.000791   0.002979
   46  H  4  S   -0.426375  -0.672026   0.073263  -0.470502  -0.338541
   47  H  4  S   -0.076275   1.294056   0.652819   1.210661  -0.621006
   48  H  4  X   -0.020630   0.027294   0.001961   0.010318  -0.025539
   49  H  4  Y   -0.006117   0.047123  -0.007436   0.025115  -0.023741
   50  H  4  Z   -0.040735  -0.066254  -0.044278  -0.063140   0.011327
   51  H  5  S   -0.620653   0.428774  -0.395990  -0.412259  -0.341170
   52  H  5  S    0.875969  -1.201958  -0.336053   1.011625  -0.760555
   53  H  5  X    0.006707  -0.039108  -0.003041   0.013583  -0.036996
   54  H  5  Y    0.029814  -0.054261   0.013499   0.026196  -0.021767
   55  H  5  Z    0.078438  -0.023661  -0.006818   0.054111  -0.008465
   56  F  6  S    0.014052   0.002993   0.000555  -0.013734   0.040166
   57  F  6  S   -0.078814  -0.017409  -0.014863   0.033867  -0.190266
   58  F  6  S    0.064430   0.017057   0.062829   0.127637  -0.117501
   59  F  6  X   -0.050693  -0.028804  -0.021622  -0.015291  -0.057833
   60  F  6  Y    0.036081  -0.006489   0.015834   0.025640   0.130124
   61  F  6  Z   -0.013542   0.141665  -0.059681   0.012936  -0.018693
   62  F  6  X    0.001298  -0.001222   0.013612   0.130500  -0.126894
   63  F  6  Y    0.015564   0.011514   0.003849  -0.086996  -0.229794
   64  F  6  Z   -0.030569   0.010744   0.118200  -0.005869   0.006862
   65  F  6 XX   -0.005310   0.000068  -0.000873   0.009812  -0.011165
   66  F  6 YY    0.008096   0.002251   0.000133  -0.002837   0.004947
   67  F  6 ZZ   -0.002786  -0.002320   0.000740  -0.006974   0.006218
   68  F  6 XY    0.005324   0.003215  -0.000256  -0.007759  -0.038366
   69  F  6 XZ   -0.001372  -0.015662   0.016056  -0.001315  -0.002263
   70  F  6 YZ   -0.001536  -0.009032   0.015265  -0.000404  -0.002759
   71  H  7  S   -0.469979   0.273743  -0.559922   0.413426  -0.299633
   72  H  7  S    0.100029   0.175594   1.519906  -1.163714  -0.607622
   73  H  7  X    0.014311   0.011629  -0.027148   0.010417   0.024954
   74  H  7  Y    0.002173   0.021505  -0.041979   0.026401   0.023422
   75  H  7  Z   -0.044345  -0.020862  -0.078314   0.056391   0.010612
   76  H  8  S   -0.558340  -0.552933   0.257005   0.354279  -0.302392
   77  H  8  S    0.915800   0.206181  -1.274710  -0.984216  -0.749556
   78  H  8  X   -0.006480  -0.015500   0.035583   0.011971   0.034573
   79  H  8  Y   -0.024336  -0.032002   0.046667   0.025406   0.021418
   80  H  8  Z    0.078943   0.008320  -0.030207  -0.048974  -0.009339

                     36         37         38         39         40
                    0.9099     0.9898     0.9998     1.0286     1.1274
                     A          A          A          A          A   
    1  C  1  S   -0.015575   0.000124   0.002805   0.021344  -0.025279
    2  C  1  S   -0.844976   0.098797   0.120735  -0.126119  -0.979059
    3  C  1  S    4.064861  -0.197074  -0.309197  -0.996137   3.576751
    4  C  1  X   -0.109519   0.024592   0.074353   0.195562   0.008705
    5  C  1  Y   -0.118678   0.004939  -0.010423   0.158665  -0.006878
    6  C  1  Z   -0.012225   0.007049   0.022486   0.017502  -0.000420
    7  C  1  X    0.942581  -0.059863  -0.004953  -0.106112   1.225864
    8  C  1  Y   -0.939731  -0.035260  -0.206579   0.127577  -0.593043
    9  C  1  Z   -0.019713  -0.129267  -0.130052  -0.037861   0.154636
   10  C  1 XX    0.160240   0.008007   0.052151  -0.047251  -0.031298
   11  C  1 YY   -0.138873   0.018414  -0.129074  -0.095108   0.063527
   12  C  1 ZZ   -0.021367  -0.026422   0.076923   0.142359  -0.032230
   13  C  1 XY    0.019686   0.006401  -0.041151  -0.111488   0.025867
   14  C  1 XZ   -0.009487  -0.198471  -0.024614  -0.030678   0.005865
   15  C  1 YZ   -0.002029   0.088984  -0.016332  -0.016293   0.013580
   16  C  2  S    0.019153   0.000460  -0.008030  -0.003433   0.018884
   17  C  2  S    0.642903   0.086290   0.255310  -0.524550   0.722218
   18  C  2  S   -3.968565  -0.194205   0.199714   1.150296  -3.186327
   19  C  2  X   -0.180581  -0.038894   0.233047  -0.085343   0.230965
   20  C  2  Y   -0.180872  -0.011641   0.106790  -0.084904   0.033614
   21  C  2  Z    0.022144  -0.003849  -0.030530  -0.004655  -0.007125
   22  C  2  X    0.947438   0.050069   0.095381  -0.333446   0.417458
   23  C  2  Y   -0.951150   0.050510  -0.191622   0.111942  -0.739382
   24  C  2  Z    0.037427  -0.170462   0.093219   0.085665  -0.255807
   25  C  2 XX   -0.171846   0.013405   0.018490  -0.057285   0.053703
   26  C  2 YY    0.126139   0.000671   0.140132   0.034307  -0.093687
   27  C  2 ZZ    0.045706  -0.014076  -0.158622   0.022977   0.039984
   28  C  2 XY   -0.046576  -0.000228   0.120953  -0.047179   0.089360
   29  C  2 XZ    0.002257   0.190648  -0.029794   0.010321  -0.007263
   30  C  2 YZ   -0.001174  -0.094331  -0.035750  -0.004835  -0.019675
   31  F  3  S   -0.054670  -0.002480   0.041505  -0.019308  -0.001306
   32  F  3  S    0.210694   0.009526  -0.208533   0.113231  -0.010976
   33  F  3  S    0.321656   0.003172   0.019277  -0.097221   0.281663
   34  F  3  X    0.445337   0.007998  -0.234621   0.284508  -0.450415
   35  F  3  Y   -0.129563  -0.087492  -0.617007   0.131843   0.337645
   36  F  3  Z   -0.005259  -0.550447   0.057851  -0.041167  -0.137633
   37  F  3  X   -0.898596  -0.037344   0.504202  -0.413287   0.599266
   38  F  3  Y   -0.003216   0.095630   0.877158  -0.211927  -0.461334
   39  F  3  Z    0.040112   0.669200  -0.100543   0.052500   0.220556
   40  F  3 XX    0.019044  -0.002467   0.039142  -0.027896   0.071826
   41  F  3 YY    0.003748  -0.001891  -0.012168   0.005658  -0.011511
   42  F  3 ZZ   -0.022792   0.004358  -0.026974   0.022238  -0.060316
   43  F  3 XY   -0.025959  -0.001344   0.023929  -0.023120   0.011102
   44  F  3 XZ   -0.000155  -0.005076  -0.005506   0.005655  -0.000604
   45  F  3 YZ    0.001088  -0.017542  -0.002829   0.002558   0.000835
   46  H  4  S    0.256819   0.093262  -0.046765  -0.210760   0.320876
   47  H  4  S    0.148749   0.033218  -0.106967  -0.135529   0.181634
   48  H  4  X   -0.000412   0.114237  -0.055757   0.002889  -0.052898
   49  H  4  Y   -0.009100  -0.016331  -0.092274  -0.007783   0.043169
   50  H  4  Z   -0.033934  -0.018354  -0.051819  -0.002190   0.002879
   51  H  5  S    0.271657  -0.010062  -0.038650  -0.221001   0.210062
   52  H  5  S    0.178004   0.075230   0.010941   0.008258   0.015109
   53  H  5  X    0.024172  -0.095437  -0.043382  -0.000506  -0.052665
   54  H  5  Y   -0.007860   0.009656  -0.085986  -0.008286   0.060217
   55  H  5  Z    0.031655  -0.004071   0.069503   0.002567  -0.029415
   56  F  6  S    0.049459  -0.000942  -0.007476  -0.055658   0.010149
   57  F  6  S   -0.209170   0.003061   0.039949   0.325895  -0.035855
   58  F  6  S   -0.235796   0.000350  -0.006552  -0.090083  -0.115293
   59  F  6  X    0.351853  -0.010711   0.098836  -0.404696   0.035509
   60  F  6  Y   -0.177024   0.117885  -0.335066  -0.539376  -0.376422
   61  F  6  Z   -0.011193  -0.537223  -0.039599  -0.087034  -0.020830
   62  F  6  X   -0.720961   0.028806  -0.079240   0.710154  -0.218922
[...]
   27  C  2 ZZ   -0.002953  -0.001295  -0.020808  -0.037250   0.054352
   28  C  2 XY    0.003472  -0.004778   0.027095  -0.026304   0.044287
   29  C  2 XZ   -0.000420  -0.012268  -0.005611  -0.002364  -0.000432
   30  C  2 YZ   -0.000915  -0.009929   0.000184  -0.002792   0.008416
   31  F  3  S   -0.018406   0.004560  -0.059522  -0.012039   0.001961
   32  F  3  S    0.036819  -0.010138   0.100944   0.024782   0.021776
   33  F  3  S    0.140144  -0.031360   0.570452   0.098457  -0.141090
   34  F  3  X   -0.105789   0.002648  -0.168800  -0.157579  -0.003254
   35  F  3  Y   -0.022821   0.009138  -0.197688   0.056279  -0.068223
   36  F  3  Z    0.005260   0.090415   0.020331   0.004490   0.002736
   37  F  3  X   -0.124354   0.005553  -0.234461  -0.201268   0.092701
   38  F  3  Y   -0.054852   0.019928  -0.191055   0.115498  -0.136253
   39  F  3  Z    0.008455   0.117666   0.031251  -0.003930  -0.008297
   40  F  3 XX    0.000756  -0.000469  -0.002050  -0.012164  -0.008761
   41  F  3 YY   -0.002432   0.001755   0.001488   0.014025  -0.001357
   42  F  3 ZZ    0.001675  -0.001287   0.000562  -0.001861   0.010118
   43  F  3 XY   -0.002993   0.000086  -0.009540  -0.003081   0.004466
   44  F  3 XZ    0.000193   0.008187   0.000882   0.000376   0.001200
   45  F  3 YZ    0.000667  -0.000624   0.001496  -0.001184   0.000306
   46  H  4  S    0.060504   0.029300  -0.008593  -0.070802   0.226916
   47  H  4  S    0.947827   1.299143   0.074979  -0.599664   0.089641
   48  H  4  X   -0.001799  -0.001309  -0.018397   0.006028  -0.013943
   49  H  4  Y   -0.008847  -0.013213  -0.010940  -0.010547   0.028225
   50  H  4  Z    0.008802   0.009550  -0.004118  -0.017600   0.004460
   51  H  5  S    0.055294  -0.044451   0.031539  -0.081274   0.294082
   52  H  5  S    0.921271  -1.324623  -0.085818  -0.272241   0.068616
   53  H  5  X   -0.003164   0.006479  -0.015640   0.008431  -0.011837
   54  H  5  Y   -0.009587   0.012029  -0.010738  -0.011496   0.023288
   55  H  5  Z   -0.007771   0.010522   0.009816   0.014750  -0.006633
   56  F  6  S    0.018422  -0.004650  -0.059479   0.012065   0.001968
   57  F  6  S   -0.036848   0.010296   0.100846  -0.024815   0.021810
   58  F  6  S   -0.140280   0.032181   0.570160  -0.098788  -0.141401
   59  F  6  X   -0.105728   0.002653   0.168614  -0.157641   0.003300
   60  F  6  Y   -0.022787   0.007815   0.198113   0.056041   0.068222
   61  F  6  Z   -0.004602  -0.090556   0.016454  -0.004954   0.001615
   62  F  6  X   -0.124325   0.005558   0.234290  -0.201355  -0.092883
   63  F  6  Y   -0.054862   0.018113   0.191670   0.115362   0.136017
   64  F  6  Z   -0.007397  -0.117973   0.027327   0.002509  -0.010284
   65  F  6 XX   -0.000769   0.000510  -0.002042   0.012163  -0.008784
   66  F  6 YY    0.002454  -0.001771   0.001434  -0.014055  -0.001360
   67  F  6 ZZ   -0.001685   0.001260   0.000608   0.001892   0.010144
   68  F  6 XY    0.002990   0.000042  -0.009563   0.003099   0.004438
   69  F  6 XZ    0.000166   0.008188  -0.000716   0.000285  -0.001210
   70  F  6 YZ    0.000581  -0.000564  -0.001486  -0.000867  -0.000090
   71  H  7  S   -0.060930  -0.029295  -0.008599   0.071022   0.227132
   72  H  7  S   -0.953000  -1.298886   0.077028   0.599174   0.089681
   73  H  7  X   -0.001805  -0.001312   0.018381   0.006071   0.013970
   74  H  7  Y   -0.009053  -0.013353   0.010884  -0.010236  -0.028144
   75  H  7  Z   -0.008683  -0.009325  -0.004344   0.017755   0.004905
   76  H  8  S   -0.054807   0.044439   0.031510   0.081000   0.293704
   77  H  8  S   -0.914665   1.324697  -0.087997   0.273059   0.069317
   78  H  8  X   -0.003136   0.006460   0.015664   0.008397   0.011831
   79  H  8  Y   -0.009396   0.011868   0.010884  -0.011765  -0.023409
   80  H  8  Z    0.007886  -0.010730   0.009588  -0.014591  -0.006265

                     26         27
                    0.3664     0.3952
                     A          A   
    1  C  1  S   -0.007417   0.011161
    2  C  1  S    0.032589  -0.165352
    3  C  1  S    0.035668   0.145051
    4  C  1  X   -0.064422   0.638945
    5  C  1  Y   -0.033296   0.087525
    6  C  1  Z    0.007521   0.039086
    7  C  1  X   -0.020891  -0.635570
    8  C  1  Y    0.037603  -0.333786
    9  C  1  Z    0.509629  -0.036799
   10  C  1 XX    0.002697   0.031289
   11  C  1 YY    0.004436  -0.041664
   12  C  1 ZZ   -0.007133   0.010374
   13  C  1 XY    0.000840   0.050121
   14  C  1 XZ    0.027669  -0.000009
   15  C  1 YZ   -0.105756  -0.001577
   16  C  2  S   -0.007447  -0.011172
   17  C  2  S    0.032781   0.165380
   18  C  2  S    0.033639  -0.144894
   19  C  2  X    0.063827   0.638526
   20  C  2  Y    0.033393   0.086633
   21  C  2  Z    0.006674  -0.042517
   22  C  2  X    0.024476  -0.634773
   23  C  2  Y   -0.030310  -0.332570
   24  C  2  Z    0.510379   0.044964
   25  C  2 XX    0.002631  -0.031301
   26  C  2 YY    0.007578   0.041632
   27  C  2 ZZ   -0.010208  -0.010330
   28  C  2 XY    0.000719  -0.050107
   29  C  2 XZ   -0.027690   0.000911
   30  C  2 YZ    0.105459  -0.002391
   31  F  3  S    0.003798  -0.014236
   32  F  3  S   -0.017035  -0.012994
   33  F  3  S    0.009398   0.384944
   34  F  3  X    0.015046   0.173468
   35  F  3  Y    0.016966   0.161171
   36  F  3  Z   -0.137794  -0.009062
   37  F  3  X    0.000875  -0.097805
   38  F  3  Y    0.013076   0.001526
   39  F  3  Z   -0.083768   0.006271
   40  F  3 XX    0.000834   0.025978
   41  F  3 YY    0.000495  -0.002530
   42  F  3 ZZ   -0.001328  -0.023448
   43  F  3 XY    0.002867   0.036956
   44  F  3 XZ   -0.011547  -0.005100
   45  F  3 YZ    0.004540  -0.004533
   46  H  4  S   -0.613811  -0.077005
   47  H  4  S    0.177597  -0.043286
   48  H  4  X   -0.007487   0.009229
   49  H  4  Y    0.033780  -0.011380
   50  H  4  Z   -0.000379  -0.006634
   51  H  5  S    0.520822  -0.114723
   52  H  5  S   -0.164142  -0.051186
   53  H  5  X    0.013893   0.010237
   54  H  5  Y   -0.033517  -0.008188
   55  H  5  Z    0.003828   0.003957
   56  F  6  S    0.003764   0.014246
   57  F  6  S   -0.016977   0.013029
   58  F  6  S    0.009762  -0.385323
   59  F  6  X   -0.015648   0.173605
   60  F  6  Y   -0.019332   0.161291
   61  F  6  Z   -0.137432   0.005600
   62  F  6  X   -0.001094  -0.097912
   63  F  6  Y   -0.014385   0.001354
   64  F  6  Z   -0.083510  -0.006086
   65  F  6 XX    0.000915  -0.025998
   66  F  6 YY    0.000349   0.002383
   67  F  6 ZZ   -0.001263   0.023615
   68  F  6 XY    0.003085  -0.037064
   69  F  6 XZ    0.011495  -0.004272
   70  F  6 YZ   -0.004575  -0.004004
   71  H  7  S   -0.613380   0.076510
   72  H  7  S    0.177917   0.043380
   73  H  7  X    0.007494   0.009264
   74  H  7  Y   -0.033786  -0.011295
   75  H  7  Z    0.000210   0.006805
   76  H  8  S    0.521293   0.115166
   77  H  8  S   -0.164285   0.051143
   78  H  8  X   -0.013897   0.010218
   79  H  8  Y    0.033581  -0.008221
   80  H  8  Z    0.003251  -0.003850

     ---------------------------------------------------------------------
     PROPERTIES FOR THE PBE      DFT FUNCTIONAL (RHF  TYPE) DENSITY MATRIX
     ---------------------------------------------------------------------

          -----------------
          ENERGY COMPONENTS
          -----------------

         WAVEFUNCTION NORMALIZATION =       1.0000000000

                ONE ELECTRON ENERGY =    -630.9338172683
                TWO ELECTRON ENERGY =     228.3816531480
           NUCLEAR REPULSION ENERGY =     124.6154555524
                                      ------------------
                       TOTAL ENERGY =    -277.9367085679

 ELECTRON-ELECTRON POTENTIAL ENERGY =     228.3816531480
  NUCLEUS-ELECTRON POTENTIAL ENERGY =    -908.0003300727
   NUCLEUS-NUCLEUS POTENTIAL ENERGY =     124.6154555524
                                      ------------------
             TOTAL POTENTIAL ENERGY =    -555.0032213723
               TOTAL KINETIC ENERGY =     277.0665128045
                 VIRIAL RATIO (V/T) =       2.0031407468

          ---------------------------------------
          MULLIKEN AND LOWDIN POPULATION ANALYSES
          ---------------------------------------

     ATOMIC MULLIKEN POPULATION IN EACH MOLECULAR ORBITAL

                      1          2          3          4          5

                  2.000000   2.000000   2.000000   2.000000   2.000000

    1             0.000678   0.000489   1.045727   0.954052   0.108135
    2             0.000551   0.000616   0.953563   1.046217   0.108147
    3             0.910093   1.088752  -0.000237  -0.000280   0.883527
    4             0.000006  -0.000010   0.000274   0.000077   0.003623
    5            -0.000001  -0.000007   0.000316   0.000071   0.004750
    6             1.088668   0.910176  -0.000261  -0.000256   0.883445
    7             0.000007  -0.000011   0.000288   0.000063   0.003624
    8            -0.000002  -0.000006   0.000331   0.000056   0.004749

                      6          7          8          9         10

                  2.000000   2.000000   2.000000   2.000000   2.000000

    1             0.088704   0.693028   0.489921   0.528889   0.326562
    2             0.088708   0.693144   0.489805   0.529047   0.326352
    3             0.908595   0.173869   0.253168   0.220183   0.583951
    4             0.001537   0.067247   0.126922   0.143431   0.039209
    5             0.001121   0.065755   0.130017   0.106700   0.051264
    6             0.908675   0.173949   0.253148   0.221715   0.582017
    7             0.001538   0.067269   0.126945   0.146940   0.035760
    8             0.001121   0.065739   0.130073   0.103095   0.054885

                     11         12         13         14         15

                  2.000000   2.000000   2.000000   2.000000   2.000000

    1             0.385235   0.337333   0.296791   0.052518   0.112014
    2             0.385182   0.337473   0.296867   0.052558   0.111889
    3             0.608866   0.458333   0.515544   0.906115   0.761471
    4             0.002568   0.083264   0.105648   0.024188   0.055724
    5             0.003082   0.121166   0.082116   0.016961   0.070298
    6             0.609443   0.458062   0.515260   0.906554   0.762342
    7             0.002534   0.082931   0.105862   0.024152   0.055859
    8             0.003090   0.121437   0.081912   0.016954   0.070404

                     16         17

                  2.000000   2.000000

    1             0.170499   0.292675
    2             0.170742   0.292545
    3             0.453314   0.603070
    4             0.186456   0.054190
    5             0.189939   0.050432
    6             0.452980   0.602439
    7             0.184938   0.055676
    8             0.191133   0.048974

               ----- POPULATIONS IN EACH AO -----
                             MULLIKEN      LOWDIN
              1  C  1  S      1.99340     1.97168
              2  C  1  S      0.76204     0.38625
              3  C  1  S      0.37186     0.28142
              4  C  1  X      0.56933     0.52765
              5  C  1  Y      0.71312     0.64704
              6  C  1  Z      0.77835     0.69886
              7  C  1  X      0.09798     0.20699
              8  C  1  Y      0.22937     0.32518
              9  C  1  Z      0.30466     0.40019
             10  C  1 XX      0.00891     0.16357
             11  C  1 YY      0.01368     0.14993
             12  C  1 ZZ      0.01857     0.15503
             13  C  1 XY      0.00945     0.03703
             14  C  1 XZ      0.01252     0.01852
             15  C  1 YZ      0.00000     0.03219
             16  C  2  S      1.99340     1.97168
             17  C  2  S      0.76203     0.38625
             18  C  2  S      0.37194     0.28142
             19  C  2  X      0.56942     0.52770
             20  C  2  Y      0.71351     0.64739
             21  C  2  Z      0.77789     0.69845
             22  C  2  X      0.09805     0.20706
             23  C  2  Y      0.22981     0.32550
             24  C  2  Z      0.30423     0.39983
             25  C  2 XX      0.00896     0.16358
             26  C  2 YY      0.01367     0.14994
             27  C  2 ZZ      0.01855     0.15514
             28  C  2 XY      0.00949     0.03701
             29  C  2 XZ      0.01247     0.01858
             30  C  2 YZ      0.00000     0.03201
             31  F  3  S      1.99544     1.97164
             32  F  3  S      0.94918     0.75172
             33  F  3  S      0.99904     0.52554
             34  F  3  X      1.00805     0.96142
             35  F  3  Y      1.16807     1.13417
             36  F  3  Z      1.23550     1.20602
             37  F  3  X      0.58097     0.61500
             38  F  3  Y      0.67257     0.70140
             39  F  3  Z      0.70909     0.73653
             40  F  3 XX      0.00137     0.19593
             41  F  3 YY      0.00292     0.19082
             42  F  3 ZZ      0.00353     0.18838
             43  F  3 XY      0.00192     0.00455
             44  F  3 XZ      0.00068     0.00300
             45  F  3 YZ      0.00000     0.00111
             46  H  4  S      0.77078     0.65219
             47  H  4  S      0.10687     0.21589
             48  H  4  X      0.00198     0.00563
             49  H  4  Y      0.00546     0.01297
             50  H  4  Z      0.00926     0.01940
             51  H  5  S      0.76929     0.65076
             52  H  5  S      0.10798     0.21644
             53  H  5  X      0.00217     0.00610
             54  H  5  Y      0.00630     0.01460
             55  H  5  Z      0.00824     0.01728
             56  F  6  S      1.99544     1.97164
             57  F  6  S      0.94918     0.75172
             58  F  6  S      0.99905     0.52555
             59  F  6  X      1.00801     0.96138
             60  F  6  Y      1.16756     1.13363
             61  F  6  Z      1.23604     1.20660
             62  F  6  X      0.58095     0.61498
             63  F  6  Y      0.67228     0.70117
             64  F  6  Z      0.70942     0.73678
             65  F  6 XX      0.00137     0.19593
             66  F  6 YY      0.00293     0.19083
             67  F  6 ZZ      0.00354     0.18836
             68  F  6 XY      0.00191     0.00456
             69  F  6 XZ      0.00068     0.00299
             70  F  6 YZ      0.00000     0.00111
             71  H  7  S      0.77080     0.65213
             72  H  7  S      0.10687     0.21588
             73  H  7  X      0.00198     0.00564
             74  H  7  Y      0.00560     0.01322
             75  H  7  Z      0.00913     0.01913
             76  H  8  S      0.76927     0.65078
             77  H  8  S      0.10796     0.21644
             78  H  8  X      0.00216     0.00608
             79  H  8  Y      0.00615     0.01433
             80  H  8  Z      0.00840     0.01758

          ----- MULLIKEN ATOMIC OVERLAP POPULATIONS -----
          (OFF-DIAGONAL ELEMENTS NEED TO BE MULTIPLIED BY 2)

             1           2           3           4           5

    1    4.6177376
    2    0.3886563   4.6179102
    3   -0.0347737   0.2336702   9.1708990
    4   -0.0354578   0.3774233  -0.0278601   0.6267831
    5   -0.0413184   0.3772702  -0.0264115  -0.0468140   0.6266758
    6    0.2336733  -0.0347927   0.0005535   0.0053913   0.0068790
    7    0.3774346  -0.0354904   0.0053925  -0.0194002   0.0143011
    8    0.3772993  -0.0412403   0.0068641   0.0142870  -0.0166015

             6           7           8

    6    9.1709249
    7   -0.0278540   0.6268119
    8   -0.0264180  -0.0468223   0.6265762

          TOTAL MULLIKEN AND LOWDIN ATOMIC POPULATIONS
       ATOM         MULL.POP.    CHARGE          LOW.POP.     CHARGE
    1 C             5.883251    0.116749         6.001534   -0.001534
    2 C             5.883407    0.116593         6.001545   -0.001545
    3 F             9.328334   -0.328334         9.187217   -0.187217
    4 H             0.894353    0.105647         0.906081    0.093919
    5 H             0.893981    0.106019         0.905173    0.094827
    6 F             9.328357   -0.328357         9.187232   -0.187232
    7 H             0.894373    0.105627         0.906002    0.093998
    8 H             0.893945    0.106055         0.905216    0.094784

          MULLIKEN SPHERICAL HARMONIC POPULATIONS
       ATOM           S       P       D      F      G      H      I    TOTAL
    1 C             3.13    2.69    0.06   0.00   0.00   0.00   0.00    5.88
    2 C             3.13    2.69    0.06   0.00   0.00   0.00   0.00    5.88
    3 F             3.94    5.37    0.01   0.00   0.00   0.00   0.00    9.33
    4 H             0.88    0.02    0.00   0.00   0.00   0.00   0.00    0.89
    5 H             0.88    0.02    0.00   0.00   0.00   0.00   0.00    0.89
    6 F             3.94    5.37    0.01   0.00   0.00   0.00   0.00    9.33
    7 H             0.88    0.02    0.00   0.00   0.00   0.00   0.00    0.89
    8 H             0.88    0.02    0.00   0.00   0.00   0.00   0.00    0.89

          -------------------------------
          BOND ORDER AND VALENCE ANALYSIS     BOND ORDER THRESHOLD=0.050
          -------------------------------

                   BOND                       BOND                       BOND
  ATOM PAIR DIST  ORDER      ATOM PAIR DIST  ORDER      ATOM PAIR DIST  ORDER
    1   2  1.520  1.046        1   6  1.400  0.910        1   7  1.106  0.938
    1   8  1.107  0.938        2   3  1.400  0.910        2   4  1.106  0.938
    2   5  1.107  0.938

                       TOTAL       BONDED        FREE
      ATOM            VALENCE     VALENCE     VALENCE
    1 C                 3.847       3.847       0.000
    2 C                 3.847       3.847       0.000
    3 F                 0.982       0.982      -0.000
    4 H                 0.948       0.948      -0.000
    5 H                 0.953       0.953      -0.000
    6 F                 0.982       0.982      -0.000
    7 H                 0.948       0.948      -0.000
    8 H                 0.953       0.953      -0.000

          ---------------------
          ELECTROSTATIC MOMENTS
          ---------------------

 POINT   1           X           Y           Z (BOHR)    CHARGE
                 0.000000    0.000000    0.000000       -0.00 (A.U.)
         DX          DY          DZ         /D/  (DEBYE)
     0.000077    0.003188    0.282807    0.282825
 ...... END OF PROPERTY EVALUATION ......
 STEP CPU TIME =     0.02 TOTAL CPU TIME =         89.6 (      1.5 MIN)
 TOTAL WALL CLOCK TIME=         90.1 SECONDS, CPU UTILIZATION IS    99.49%
  $VIB   
          IVIB=   0 IATOM=   0 ICOORD=   0 E=     -277.9367085679
 -4.692593232E-05 6.201065715E-06-3.825999826E-05 7.016493892E-05 2.232008855E-05
  6.947924121E-06-7.590741599E-06-4.243869423E-06-2.984607662E-07-1.911218146E-05
 -1.004202314E-05 1.118757707E-05-1.698720112E-05-1.209251882E-05-8.168321893E-06
  3.015405063E-06-5.100501921E-06 1.301398689E-05 7.725906316E-06-5.228305508E-06
  7.836648925E-06 9.709806200E-06 8.186064545E-06 7.740643905E-06
  7.703948303E-05 3.188261890E-03 2.828069144E-01
 ......END OF GEOMETRY SEARCH......
 STEP CPU TIME =     0.00 TOTAL CPU TIME =         89.6 (      1.5 MIN)
 TOTAL WALL CLOCK TIME=         90.1 SECONDS, CPU UTILIZATION IS    99.48%
                991181  WORDS OF DYNAMIC MEMORY USED
 EXECUTION OF GAMESS TERMINATED NORMALLY Sun Oct  6 23:47:49 2019
 DDI: 263640 bytes (0.3 MB / 0 MWords) used by master data server.

 ----------------------------------------
 CPU timing information for all processes
 ========================================
 0: 88.109 + 1.507 = 89.616
 ----------------------------------------
 ddikick.x: exited gracefully.
----- accounting info -----
Files used on the master node d12chas543.crc.nd.edu were:
-rw-r--r-- 1 wschnei1 campus 378327 Oct  6 23:47 /scratch365/wschnei1/170-PC1.F07
Sun Oct  6 23:47:52 EDT 2019
0.460u 0.311s 1:33.78 0.8%	0+0k 0+40io 0pf+0w
