----- GAMESS execution script 'rungms' -----
This job is running on host d12chas543.crc.nd.edu
under operating system Linux at Sun Oct 6 23:47:52 EDT 2019
SGE has assigned the following compute nodes to this run:
Available scratch disk space (Kbyte units) at beginning of the job is
Filesystem      1K-blocks     Used  Available Use% Mounted on
/dev/sda2      1949705068 64913408 1884791660   4% /
GAMESS temporary binary files will be written to /tmp/474112.1.debug
GAMESS supplementary output files will be written to /afs/crc.nd.edu/user/w/wschnei1/scr
Copying input file 180-PC1.inp to your run's scratch directory...
reading your own /afs/crc.nd.edu/user/w/wschnei1/.gmsrc

 Distributed Data Interface kickoff program.
 Initiating 1 compute processes on 1 nodes to run the following command:
 /afs/crc.nd.edu/x86_64_linux/g/gamess/nov-2017/gamess/gamess.00.x 180-PC1 

          ******************************************************
          *         GAMESS VERSION = 11 NOV 2017 (R3)         *
          *             FROM IOWA STATE UNIVERSITY             *
          * M.W.SCHMIDT, K.K.BALDRIDGE, J.A.BOATZ, S.T.ELBERT, *
          *   M.S.GORDON, J.H.JENSEN, S.KOSEKI, N.MATSUNAGA,   *
          *          K.A.NGUYEN, S.J.SU, T.L.WINDUS,           *
          *       TOGETHER WITH M.DUPUIS, J.A.MONTGOMERY       *
          *         J.COMPUT.CHEM.  14, 1347-1363(1993)        *
          **************** 64 BIT INTEL VERSION ****************

  SINCE 1993, STUDENTS AND POSTDOCS WORKING AT IOWA STATE UNIVERSITY
  AND ALSO IN THEIR VARIOUS JOBS AFTER LEAVING ISU HAVE MADE IMPORTANT
  CONTRIBUTIONS TO THE CODE:
     IVANA ADAMOVIC, CHRISTINE AIKENS, YURI ALEXEEV, POOJA ARORA,
     ANDREY ASADCHEV, ROB BELL, PRADIPTA BANDYOPADHYAY, JONATHAN BENTZ,
     BRETT BODE, KURT BRORSEN, CALEB CARLIN, GALINA CHABAN, WEI CHEN,
     CHEOL HO CHOI, PAUL DAY, ALBERT DEFUSCO, NUWAN DESILVA, TIM DUDLEY,
     DMITRI FEDOROV, ALEX FINDLATER, GRAHAM FLETCHER, MARK FREITAG,
     KURT GLAESEMANN, ANASTASIA GUININA,
     DAN KEMP, GRANT MERRILL, NORIYUKI MINEZAWA, JONATHAN MULLIN,
     TAKESHI NAGATA, SEAN NEDD, HEATHER NETZLOFF, BOSILJKA NJEGIC, RYAN OLSON,
     MIKE PAK, BUU PHAM,
     SPENCER PRUITT, LUKE ROSKOP, JIM SHOEMAKER, LYUDMILA SLIPCHENKO,
     TONY SMITH, SAROM SOK LEANG, JIE SONG, TETSUYA TAKETSUGU, SIMON WEBB,
     PENG XU, SOOHAENG YOO, FEDERICO ZAHARIEV

  ADDITIONAL CODE HAS BEEN PROVIDED BY COLLABORATORS IN OTHER GROUPS:
     IOWA STATE UNIVERSITY:
          JOE IVANIC, AARON WEST, LAIMUTIS BYTAUTAS, KLAUS RUEDENBERG
     UNIVERSITY OF TOKYO: KIMIHIKO HIRAO, TAKAHITO NAKAJIMA,
          TAKAO TSUNEDA, MUNEAKI KAMIYA, SUSUMU YANAGISAWA,
          KIYOSHI YAGI, MAHITO CHIBA, SEIKEN TOKURA, NAOAKI KAWAKAMI
     UNIVERSITY OF AARHUS: FRANK JENSEN
     UNIVERSITY OF IOWA: VISVALDAS KAIRYS, HUI LI
     NATIONAL INST. OF STANDARDS AND TECHNOLOGY: WALT STEVENS, DAVID GARMER
     UNIVERSITY OF PISA: BENEDETTA MENNUCCI, JACOPO TOMASI
     UNIVERSITY OF MEMPHIS: HENRY KURTZ, PRAKASHAN KORAMBATH
     UNIVERSITY OF ALBERTA: TOBY ZENG, MARIUSZ KLOBUKOWSKI
     UNIVERSITY OF NEW ENGLAND: MARK SPACKMAN
     MIE UNIVERSITY: HIROAKI UMEDA
     NAT. INST. OF ADVANCED INDUSTRIAL SCIENCE AND TECHNOLOGY: KAZUO KITAURA
     MICHIGAN STATE UNIVERSITY:
          KAROL KOWALSKI, MARTA WLOCH, JEFFREY GOUR, JESSE LUTZ,
          WEI LI, PIOTR PIECUCH
     UNIVERSITY OF SILESIA: MONIKA MUSIAL, STANISLAW KUCHARSKI
     FACULTES UNIVERSITAIRES NOTRE-DAME DE LA PAIX:
          OLIVIER QUINET, BENOIT CHAMPAGNE
     UNIVERSITY OF CALIFORNIA - SANTA BARBARA: BERNARD KIRTMAN
     INSTITUTE FOR MOLECULAR SCIENCE:
          KAZUYA ISHIMURA, MICHIO KATOUDA, AND SHIGERU NAGASE
     UNIVERSITY OF NOTRE DAME: ANNA POMOGAEVA, DAN CHIPMAN
     KYUSHU UNIVERSITY:
          HARUYUKI NAKANO,
          FENG LONG GU, JACEK KORCHOWIEC, MARCIN MAKOWSKI, AND YURIKO AOKI,
          HIROTOSHI MORI AND EISAKU MIYOSHI
     PENNSYLVANIA STATE UNIVERSITY:
          TZVETELIN IORDANOV, CHET SWALINA, JONATHAN SKONE,
          SHARON HAMMES-SCHIFFER
     WASEDA UNIVERSITY:
          MASATO KOBAYASHI, TOMOKO AKAMA, TSUGUKI TOUMA,
          TAKESHI YOSHIKAWA, YASUHIRO IKABATA, JUNJI SEINO,
          YUYA NAKAJIMA, HIROMI NAKAI
     NANJING UNIVERSITY: SHUHUA LI
     UNIVERSITY OF NEBRASKA:
          PEIFENG SU, DEJUN SI, NANDUN THELLAMUREGE, YALI WANG, HUI LI
     UNIVERSITY OF ZURICH: ROBERTO PEVERATI, KIM BALDRIDGE
     N. COPERNICUS UNIVERSITY AND JACKSON STATE UNIVERSITY:
          MARIA BARYSZ
     UNIVERSITY OF COPENHAGEN: Jimmy Kromann, CASPER STEINMANN
     TOKYO INSTITUTE OF TECHNOLOGY: HIROYA NAKATA
     NAGOYA UNIVERSITY: YOSHIO NISHIMOTO, STEPHAN IRLE
     MOSCOW STATE UNIVERSITY: VLADIMIR MIRONOV

 EXECUTION OF GAMESS BEGUN Sun Oct  6 23:47:53 2019

            ECHO OF THE FIRST FEW INPUT CARDS -
 INPUT CARD> $CONTRL SCFTYP=RHF DFTTYP=PBE RUNTYP=OPTIMIZE COORD=ZMT NZVAR=18 ISPHER=1 $END 
 INPUT CARD> $BASIS GBASIS=PCseg-1 $END                                                     
 INPUT CARD> $STATPT IFREEZ(1)=12 $END                                                      
 INPUT CARD> $DATA                                                                          
 INPUT CARD>FCH2CH2F eclipsed TS                                                            
 INPUT CARD>C1                                                                              
 INPUT CARD>C                                                                               
 INPUT CARD>C   1   r1                                                                      
 INPUT CARD>F   2   r2   1   A1                                                             
 INPUT CARD>H   2   r3   1   A2   3   D1                                                    
 INPUT CARD>H   2   r4   1   A3   3   D2                                                    
 INPUT CARD>F   1   r5   2   A4   3   D3                                                    
 INPUT CARD>H   1   r6   2   A5   6   D4                                                    
 INPUT CARD>H   1   r7   2   A6   6   D5                                                    
 INPUT CARD>                                                                                
 INPUT CARD>r1=1.5                                                                          
 INPUT CARD>r2=1.4                                                                          
 INPUT CARD>r3=1.1                                                                          
 INPUT CARD>r4=1.1                                                                          
 INPUT CARD>r5=1.5                                                                          
 INPUT CARD>r6=1.1                                                                          
 INPUT CARD>r7=1.1                                                                          
 INPUT CARD>A1=109.54214                                                                    
 INPUT CARD>A2=109.54214                                                                    
 INPUT CARD>A3=109.54214                                                                    
 INPUT CARD>A4=109.54214                                                                    
 INPUT CARD>A5=109.54214                                                                    
 INPUT CARD>A6=109.54214                                                                    
 INPUT CARD>D1=120.                                                                         
 INPUT CARD>D2=-120.                                                                        
 INPUT CARD>D3=180                                                                          
 INPUT CARD>D4=120.                                                                         
 INPUT CARD>D5=-120.                                                                        
 INPUT CARD> $END                                                                           
 INPUT CARD>                                                                                
    1000000 WORDS OF MEMORY AVAILABLE

     BASIS OPTIONS
     -------------
     GBASIS=PCSEG-1      IGAUSS=       0      POLAR=NONE    
     NDFUNC=       0     NFFUNC=       0     DIFFSP=       F
     NPFUNC=       0      DIFFS=       F     BASNAM=        


     RUN TITLE
     ---------
 FCH2CH2F eclipsed TS                                                            

 THE POINT GROUP OF THE MOLECULE IS C1      
 THE ORDER OF THE PRINCIPAL AXIS IS     0

 YOUR FULLY SUBSTITUTED Z-MATRIX IS
 C   
 C      1   1.5000000
 F      2   1.4000000  1  109.5421
 H      2   1.1000000  1  109.5421  3  120.0000  0
 H      2   1.1000000  1  109.5421  3 -120.0000  0
 F      1   1.5000000  2  109.5421  3  180.0000  0
 H      1   1.1000000  2  109.5421  6  120.0000  0
 H      1   1.1000000  2  109.5421  6 -120.0000  0

 THE MOMENTS OF INERTIA ARE (AMU-ANGSTROM**2)
 IXX=    15.692   IYY=   139.374   IZZ=   148.567

 ATOM      ATOMIC                      COORDINATES (BOHR)
           CHARGE         X                   Y                   Z
 C           6.0    -0.9713032326        1.0083128845        0.0000000000
 C           6.0     1.0686379006       -0.9598169048        0.0000000000
 F           9.0     3.4366142758        0.2200025439        0.0000000000
 H           1.0     0.8889579522       -2.1474908981        1.6965062379
 H           1.0     0.8889579522       -2.1474908981       -1.6965062379
 F           9.0    -3.5084207774       -0.2557793819        0.0000000000
 H           1.0    -0.7916232841        2.1959868778        1.6965062379
 H           1.0    -0.7916232841        2.1959868778       -1.6965062379

          INTERNUCLEAR DISTANCES (ANGS.)
          ------------------------------

                1 C          2 C          3 F          4 H          5 H     

   1 C       0.0000000    1.5000000 *  2.3695781 *  2.1363170 *  2.1363170 *
   2 C       1.5000000 *  0.0000000    1.4000000 *  1.1000000 *  1.1000000 *
   3 F       2.3695781 *  1.4000000 *  0.0000000    2.0476979 *  2.0476979 *
   4 H       2.1363170 *  1.1000000 *  2.0476979 *  0.0000000    1.7955050 *
   5 H       2.1363170 *  1.1000000 *  2.0476979 *  1.7955050 *  0.0000000  
   6 F       1.5000000 *  2.4505612 *  3.6837685    2.6875560 *  2.6875560 *
   7 H       1.1000000 *  2.1363170 *  2.6278667 *  2.4645207 *  3.0492131  
   8 H       1.1000000 *  2.1363170 *  2.6278667 *  3.0492131    2.4645207 *

                6 F          7 H          8 H     

   1 C       1.5000000 *  1.1000000 *  1.1000000 *
   2 C       2.4505612 *  2.1363170 *  2.1363170 *
   3 F       3.6837685    2.6278667 *  2.6278667 *
   4 H       2.6875560 *  2.4645207 *  3.0492131  
   5 H       2.6875560 *  3.0492131    2.4645207 *
   6 F       0.0000000    2.1345124 *  2.1345124 *
   7 H       2.1345124 *  0.0000000    1.7955050 *
   8 H       2.1345124 *  1.7955050 *  0.0000000  

  * ... LESS THAN  3.000


     ATOMIC BASIS SET
     ----------------
 THE CONTRACTED PRIMITIVE FUNCTIONS HAVE BEEN UNNORMALIZED
 THE CONTRACTED BASIS FUNCTIONS ARE NOW NORMALIZED TO UNITY

  SHELL TYPE  PRIMITIVE        EXPONENT          CONTRACTION COEFFICIENT(S)

 C         

      1   S       1          1243.2000000    0.005630097702
      1   S       2           187.1450000    0.041950603854
      1   S       3            42.5126000    0.184664360492
      1   S       4            11.7393000    0.466557421368
      1   S       5             3.5054800    0.448234778316

      2   S       6             5.3908900   -0.148114817444
      2   S       7             0.4933410    1.051981714281

      3   S       8             0.1497410    1.000000000000

      4   P       9             9.1805600    0.063992052045
      4   P      10             1.9365800    0.333521296407
      4   P      11             0.5262960    0.741161730513

      5   P      12             0.1363190    1.000000000000

      6   D      13             0.8000000    1.000000000000

 C         

      7   S      14          1243.2000000    0.005630097702
      7   S      15           187.1450000    0.041950603854
      7   S      16            42.5126000    0.184664360492
      7   S      17            11.7393000    0.466557421368
      7   S      18             3.5054800    0.448234778316

      8   S      19             5.3908900   -0.148114817444
      8   S      20             0.4933410    1.051981714281

      9   S      21             0.1497410    1.000000000000

     10   P      22             9.1805600    0.063992052045
     10   P      23             1.9365800    0.333521296407
     10   P      24             0.5262960    0.741161730513

     11   P      25             0.1363190    1.000000000000

     12   D      26             0.8000000    1.000000000000

 F         

     13   S      27          2931.5500000    0.005390132259
     13   S      28           441.1250000    0.040296704072
     13   S      29           100.2320000    0.180202178717
     13   S      30            27.8655000    0.465064284210
     13   S      31             8.4447000    0.452433138251

     14   S      32            13.6123000   -0.151660908297
     14   S      33             1.2612200    1.053515343452

     15   S      34             0.3708000    1.000000000000

     16   P      35            21.9305000    0.070356827475
     16   P      36             4.7855200    0.356742371235
     16   P      37             1.2837800    0.719732016372

     17   P      38             0.3115580    1.000000000000

     18   D      39             1.1000000    1.000000000000

 H         

     19   S      40            12.2518000    0.037217389296
     19   S      41             1.8687100    0.253808206955
     19   S      42             0.4182080    0.797386763917

     20   S      43             0.1061000    1.000000000000

     21   P      44             1.0000000    1.000000000000

 H         

     22   S      45            12.2518000    0.037217389296
     22   S      46             1.8687100    0.253808206955
     22   S      47             0.4182080    0.797386763917

     23   S      48             0.1061000    1.000000000000

     24   P      49             1.0000000    1.000000000000

 F         

     25   S      50          2931.5500000    0.005390132259
     25   S      51           441.1250000    0.040296704072
     25   S      52           100.2320000    0.180202178717
     25   S      53            27.8655000    0.465064284210
     25   S      54             8.4447000    0.452433138251

     26   S      55            13.6123000   -0.151660908297
     26   S      56             1.2612200    1.053515343452

     27   S      57             0.3708000    1.000000000000

     28   P      58            21.9305000    0.070356827475
     28   P      59             4.7855200    0.356742371235
     28   P      60             1.2837800    0.719732016372

     29   P      61             0.3115580    1.000000000000

     30   D      62             1.1000000    1.000000000000

 H         

     31   S      63            12.2518000    0.037217389296
     31   S      64             1.8687100    0.253808206955
     31   S      65             0.4182080    0.797386763917

     32   S      66             0.1061000    1.000000000000

     33   P      67             1.0000000    1.000000000000

 H         

     34   S      68            12.2518000    0.037217389296
     34   S      69             1.8687100    0.253808206955
     34   S      70             0.4182080    0.797386763917

     35   S      71             0.1061000    1.000000000000

     36   P      72             1.0000000    1.000000000000

 TOTAL NUMBER OF BASIS SET SHELLS             =   36
 NUMBER OF CARTESIAN GAUSSIAN BASIS FUNCTIONS =   80
 NOTE: THIS RUN WILL RESTRICT THE MO VARIATION SPACE TO SPHERICAL HARMONICS.
 THE NUMBER OF ORBITALS KEPT IN THE VARIATIONAL SPACE WILL BE PRINTED LATER.
 NUMBER OF ELECTRONS                          =   34
 CHARGE OF MOLECULE                           =    0
 SPIN MULTIPLICITY                            =    1
 NUMBER OF OCCUPIED ORBITALS (ALPHA)          =   17
 NUMBER OF OCCUPIED ORBITALS (BETA )          =   17
 TOTAL NUMBER OF ATOMS                        =    8
 THE NUCLEAR REPULSION ENERGY IS      122.6572528944

     LEBEDEV GRID-BASED DFT OPTIONS
     ------------------------------
     DFTTYP=PBE     
     NRAD  =      96     NLEB  =     302
     NRAD0 =      24     NLEB0 =     110
     SWOFF =    5.00E-03 (PURE SCF -> DFT)
     SWITCH=    3.00E-04 (COARSE -> TIGHT GRID)
     THRESH=    0.00E+00 GTHRE=    1.00E+00

 GRIMME'S EMPIRICAL DISPERSION CORRECTION= F

     $CONTRL OPTIONS
     ---------------
 SCFTYP=RHF          RUNTYP=OPTIMIZE     EXETYP=RUN     
 MPLEVL=       0     CITYP =NONE         CCTYP =NONE         VBTYP =NONE    
 DFTTYP=PBE          TDDFT =NONE    
 MULT  =       1     ICHARG=       0     NZVAR =      18     COORD =ZMT     
 PP    =NONE         RELWFN=NONE         LOCAL =NONE         NUMGRD=       F
 ISPHER=       1     NOSYM =       0     MAXIT =      30     UNITS =ANGS    
 PLTORB=       F     MOLPLT=       F     AIMPAC=       F     FRIEND=        
 NPRINT=       7     IREST =       0     GEOM  =INPUT   
 NORMF =       0     NORMP =       0     ITOL  =      20     ICUT  =       9
 INTTYP=BEST         GRDTYP=BEST         QMTTOL= 1.0E-06

     $SYSTEM OPTIONS
     ---------------
  REPLICATED MEMORY=     1000000 WORDS (ON EVERY NODE).
 DISTRIBUTED MEMDDI=           0 MILLION WORDS IN AGGREGATE,
 MEMDDI DISTRIBUTED OVER   1 PROCESSORS IS           0 WORDS/PROCESSOR.
 TOTAL MEMORY REQUESTED ON EACH PROCESSOR=     1000000 WORDS.
 TIMLIM=      525600.00 MINUTES, OR     365.0 DAYS.
 PARALL= F  BALTYP=  DLB     KDIAG=    0  COREFL= F
 MXSEQ2=     300 MXSEQ3=     150  mem10=         0

          ----------------
          PROPERTIES INPUT
          ----------------

     MOMENTS            FIELD           POTENTIAL          DENSITY
 IEMOM =       1   IEFLD =       0   IEPOT =       0   IEDEN =       0
 WHERE =COMASS     WHERE =NUCLEI     WHERE =NUCLEI     WHERE =NUCLEI  
 OUTPUT=BOTH       OUTPUT=BOTH       OUTPUT=BOTH       OUTPUT=BOTH    
 IEMINT=       0   IEFINT=       0                     IEDINT=       0
                                                       MORB  =       0
          EXTRAPOLATION IN EFFECT
          DIIS IN EFFECT
 ORBITAL PRINTING OPTION: NPREO=     1    80     2     1

     -------------------------------
     INTEGRAL TRANSFORMATION OPTIONS
     -------------------------------
     NWORD  =            0
     CUTOFF = 1.0E-09     MPTRAN =       0
     DIRTRF =       F     AOINTS =DUP     

          ----------------------
          INTEGRAL INPUT OPTIONS
          ----------------------
 NOPK  =       1 NORDER=       0 SCHWRZ=       T

   --- ENCODED Z MATRIX ---
 COORD  TYPE   I   J   K   L   M   N
    1      1    2   1
    2      1    3   2
    3      2    3   2   1
    4      1    4   2
    5      2    4   2   1
    6      3    4   2   1   3
    7      1    5   2
    8      2    5   2   1
    9      3    5   2   1   3
   10      1    6   1
   11      2    6   1   2
   12      3    6   1   2   3
   13      1    7   1
   14      2    7   1   2
   15      3    7   1   2   6
   16      1    8   1
   17      2    8   1   2
   18      3    8   1   2   6

 THE DETERMINANT OF THE G MATRIX IS 10**(   -12)


                     --------------------
                     INTERNAL COORDINATES
                     --------------------

                 - - ATOMS - -         COORDINATE      COORDINATE
 NO.   TYPE    I  J  K  L  M  N        (BOHR,RAD)       (ANG,DEG)
 ----------------------------------------------------------------
   1 STRETCH   2  1                     2.8345890       1.5000000
   2 STRETCH   3  2                     2.6456164       1.4000000
   3 BEND      3  2  1                  1.9118710     109.5421400
   4 STRETCH   4  2                     2.0786986       1.1000000
   5 BEND      4  2  1                  1.9118710     109.5421400
   6 TORSION   4  2  1  3               2.0943951     120.0000000
   7 STRETCH   5  2                     2.0786986       1.1000000
   8 BEND      5  2  1                  1.9118710     109.5421400
   9 TORSION   5  2  1  3              -2.0943951    -120.0000000
  10 STRETCH   6  1                     2.8345890       1.5000000
  11 BEND      6  1  2                  1.9118710     109.5421400
  12 TORSION   6  1  2  3               3.1415927     180.0000000
  13 STRETCH   7  1                     2.0786986       1.1000000
  14 BEND      7  1  2                  1.9118710     109.5421400
  15 TORSION   7  1  2  6               2.0943951     120.0000000
  16 STRETCH   8  1                     2.0786986       1.1000000
  17 BEND      8  1  2                  1.9118710     109.5421400
  18 TORSION   8  1  2  6              -2.0943951    -120.0000000

     ------------------------------------------
     THE POINT GROUP IS C1 , NAXIS= 0, ORDER= 1
     ------------------------------------------

 -- VARIATIONAL SPACE WILL BE RESTRICTED TO PURE SPHERICAL HARMONICS ONLY --
 AFTER EXCLUDING CONTAMINANT COMBINATIONS FROM THE CARTESIAN GAUSSIAN BASIS
 SET, THE NUMBER OF SPHERICAL HARMONICS KEPT IN THE VARIATION SPACE IS   76

     DIMENSIONS OF THE SYMMETRY SUBSPACES ARE
 A   =   76

 ..... DONE SETTING UP THE RUN .....
 STEP CPU TIME =     0.01 TOTAL CPU TIME =          0.0 (      0.0 MIN)
 TOTAL WALL CLOCK TIME=          0.0 SECONDS, CPU UTILIZATION IS    50.00%


          -----------------------------
          STATIONARY POINT LOCATION RUN
          -----------------------------

 OBTAINING INITIAL HESSIAN, HESS=GUESS   
 DIAGONAL GUESS HESSIAN IN INTERNAL COORDS IS
     1  0.3892     2  0.3267     3  0.2379     4  0.3397     5  0.2253
     6  0.2500     7  0.3397     8  0.2253     9  0.2500    10  0.2690
    11  0.2315    12  0.2500    13  0.3397    14  0.2253    15  0.2500
    16  0.3397    17  0.2253    18  0.2500

          PARAMETERS CONTROLLING GEOMETRY SEARCH ARE
          METHOD =QA                  UPHESS =BFGS    
          NNEG   =         0          NFRZ   =         1
          NSTEP  =        50          IFOLOW =         1
          HESS   =GUESS               RESTAR =         F
          IHREP  =         0          HSSEND =         F
          NPRT   =         0          NPUN   =         0
          OPTTOL = 1.000E-04          RMIN   = 1.500E-03
          RMAX   = 1.000E-01          RLIM   = 7.000E-02
          DXMAX  = 3.000E-01          PURIFY =         F
          MOVIE  =         F          TRUPD  =         T
          TRMAX  = 5.000E-01          TRMIN  = 5.000E-02
          ITBMAT =         5          STPT   =         F
          STSTEP = 1.000E-02          PROJCT=          T
          FROZEN COORD(S)=  12

 BEGINNING GEOMETRY SEARCH POINT NSERCH=   0 ...

 COORDINATES OF ALL ATOMS ARE (ANGS)
   ATOM   CHARGE       X              Y              Z
 ------------------------------------------------------------
 C           6.0  -0.5139915728   0.5335762386   0.0000000000
 C           6.0   0.5654988647  -0.5079132694   0.0000000000
 F           9.0   1.8185780892   0.1164203410   0.0000000000
 H           1.0   0.4704163238  -1.1364033262   0.8977525043
 H           1.0   0.4704163238  -1.1364033262  -0.8977525043
 F           9.0  -1.8565764562  -0.1353526297   0.0000000000
 H           1.0  -0.4189090319   1.1620662954   0.8977525043
 H           1.0  -0.4189090319   1.1620662954  -0.8977525043


                     --------------------
                     INTERNAL COORDINATES
                     --------------------

                 - - ATOMS - -         COORDINATE      COORDINATE
 NO.   TYPE    I  J  K  L  M  N        (BOHR,RAD)       (ANG,DEG)
 ----------------------------------------------------------------
   1 STRETCH   2  1                     2.8345890       1.5000000
   2 STRETCH   3  2                     2.6456164       1.4000000
   3 BEND      3  2  1                  1.9118710     109.5421400
   4 STRETCH   4  2                     2.0786986       1.1000000
   5 BEND      4  2  1                  1.9118710     109.5421400
   6 TORSION   4  2  1  3               2.0943951     120.0000000
   7 STRETCH   5  2                     2.0786986       1.1000000
   8 BEND      5  2  1                  1.9118710     109.5421400
   9 TORSION   5  2  1  3              -2.0943951    -120.0000000
  10 STRETCH   6  1                     2.8345890       1.5000000
  11 BEND      6  1  2                  1.9118710     109.5421400
  12 TORSION   6  1  2  3               3.1415927     180.0000000
  13 STRETCH   7  1                     2.0786986       1.1000000
  14 BEND      7  1  2                  1.9118710     109.5421400
  15 TORSION   7  1  2  6               2.0943951     120.0000000
  16 STRETCH   8  1                     2.0786986       1.1000000
  17 BEND      8  1  2                  1.9118710     109.5421400
  18 TORSION   8  1  2  6              -2.0943951    -120.0000000

 THE CURRENT FULLY SUBSTITUTED Z-MATRIX IS
 C   
 C      1   1.5000000
 F      2   1.4000000  1   109.5421400
 H      2   1.1000000  1   109.5421400  3   120.0000000  0
 H      2   1.1000000  1   109.5421400  3  -120.0000000  0
 F      1   1.5000000  2   109.5421400  3   180.0000000  0
 H      1   1.1000000  2   109.5421400  6   120.0000000  0
 H      1   1.1000000  2   109.5421400  6  -120.0000000  0

          ********************
          1 ELECTRON INTEGRALS
          ********************
 ...... END OF ONE-ELECTRON INTEGRALS ......
 STEP CPU TIME =     0.01 TOTAL CPU TIME =          0.0 (      0.0 MIN)
 TOTAL WALL CLOCK TIME=          0.0 SECONDS, CPU UTILIZATION IS    66.67%

          -------------
          GUESS OPTIONS
          -------------
          GUESS =HUCKEL            NORB  =       0          NORDER=       0
          MIX   =       F          PRTMO =       F          PUNMO =       F
          TOLZ  = 1.0E-08          TOLE  = 1.0E-05
          SYMDEN=       F          PURIFY=       F

 INITIAL GUESS ORBITALS GENERATED BY HUCKEL   ROUTINE.
 HUCKEL GUESS REQUIRES     54920 WORDS.

 STATISTICS FOR GENERATION OF SYMMETRY ORBITAL -Q- MATRIX
 NUMBER OF CARTESIAN ATOMIC ORBITALS=         80
 NUMBER OF SPHERICAL CONTAMINANTS DROPPED=     4
 NUMBER OF LINEARLY DEPENDENT MOS DROPPED=     0
 TOTAL NUMBER OF MOS IN VARIATION SPACE=      76

 SYMMETRIES FOR INITIAL GUESS ORBITALS FOLLOW.   BOTH SET(S).
    17 ORBITALS ARE OCCUPIED (    4 CORE ORBITALS).
     5=A        6=A        7=A        8=A        9=A       10=A       11=A   
    12=A       13=A       14=A       15=A       16=A       17=A       18=A   
    19=A       20=A       21=A       22=A       23=A       24=A       25=A   
    26=A       27=A   
 ...... END OF INITIAL ORBITAL SELECTION ......
 STEP CPU TIME =     0.00 TOTAL CPU TIME =          0.0 (      0.0 MIN)
 TOTAL WALL CLOCK TIME=          0.0 SECONDS, CPU UTILIZATION IS    50.00%

                    ----------------------
                    AO INTEGRAL TECHNOLOGY
                    ----------------------
     S,P,L SHELL ROTATED AXIS INTEGRALS, REPROGRAMMED BY
        KAZUYA ISHIMURA (IMS) AND JOSE SIERRA (SYNSTAR).
     S,P,D,L SHELL ROTATED AXIS INTEGRALS PROGRAMMED BY
        KAZUYA ISHIMURA (INSTITUTE FOR MOLECULAR SCIENCE).
     S,P,D,F,G SHELL TO TOTAL QUARTET ANGULAR MOMENTUM SUM 5,
        ERIC PROGRAM BY GRAHAM FLETCHER (ELORET AND NASA ADVANCED
        SUPERCOMPUTING DIVISION, AMES RESEARCH CENTER).
     S,P,D,F,G,L SHELL GENERAL RYS QUADRATURE PROGRAMMED BY
        MICHEL DUPUIS (PACIFIC NORTHWEST NATIONAL LABORATORY).

          --------------------
          2 ELECTRON INTEGRALS
          --------------------

 THE -PK- OPTION IS OFF, THE INTEGRALS ARE NOT IN SUPERMATRIX FORM.
 STORING   15000 INTEGRALS/RECORD ON DISK, USING 12 BYTES/INTEGRAL.
 TWO ELECTRON INTEGRAL EVALUATION REQUIRES   91062 WORDS OF MEMORY.
 SCHWARZ INEQUALITY OVERHEAD:      3217 INTEGRALS, T=        0.00
 II,JST,KST,LST =  1  1  1  1 NREC =         1 INTLOC =    1
 II,JST,KST,LST =  2  1  1  1 NREC =         1 INTLOC =    2
 II,JST,KST,LST =  3  1  1  1 NREC =         1 INTLOC =    7
 II,JST,KST,LST =  4  1  1  1 NREC =         1 INTLOC =   22
 II,JST,KST,LST =  5  1  1  1 NREC =         1 INTLOC =   67
 II,JST,KST,LST =  6  1  1  1 NREC =         1 INTLOC =  214
 II,JST,KST,LST =  7  1  1  1 NREC =         1 INTLOC = 1189
 II,JST,KST,LST =  8  1  1  1 NREC =         1 INTLOC = 2361
 II,JST,KST,LST =  9  1  1  1 NREC =         1 INTLOC = 3798
 II,JST,KST,LST = 10  1  1  1 NREC =         1 INTLOC = 5535
 II,JST,KST,LST = 11  1  1  1 NREC =         1 INTLOC =11900
 II,JST,KST,LST = 12  1  1  1 NREC =         2 INTLOC = 6293
 II,JST,KST,LST = 13  1  1  1 NREC =         4 INTLOC = 7019
 II,JST,KST,LST = 14  1  1  1 NREC =         4 INTLOC =14080
 II,JST,KST,LST = 15  1  1  1 NREC =         5 INTLOC = 7982
 II,JST,KST,LST = 16  1  1  1 NREC =         6 INTLOC = 3175
 II,JST,KST,LST = 17  1  1  1 NREC =         8 INTLOC = 5629
 II,JST,KST,LST = 18  1  1  1 NREC =        11 INTLOC = 2970
 II,JST,KST,LST = 19  1  1  1 NREC =        18 INTLOC =13023
 II,JST,KST,LST = 20  1  1  1 NREC =        22 INTLOC = 1020
 II,JST,KST,LST = 21  1  1  1 NREC =        25 INTLOC = 7372
 II,JST,KST,LST = 22  1  1  1 NREC =        37 INTLOC =  379
 II,JST,KST,LST = 23  1  1  1 NREC =        41 INTLOC = 5501
 II,JST,KST,LST = 24  1  1  1 NREC =        45 INTLOC =14700
 II,JST,KST,LST = 25  1  1  1 NREC =        61 INTLOC = 4238
 II,JST,KST,LST = 26  1  1  1 NREC =        63 INTLOC = 5990
 II,JST,KST,LST = 27  1  1  1 NREC =        66 INTLOC =11723
 II,JST,KST,LST = 28  1  1  1 NREC =        71 INTLOC = 4274
 II,JST,KST,LST = 29  1  1  1 NREC =        82 INTLOC = 7973
 II,JST,KST,LST = 30  1  1  1 NREC =        98 INTLOC =13851
 II,JST,KST,LST = 31  1  1  1 NREC =       131 INTLOC = 5367
 II,JST,KST,LST = 32  1  1  1 NREC =       142 INTLOC = 3261
 II,JST,KST,LST = 33  1  1  1 NREC =       153 INTLOC =11667
 II,JST,KST,LST = 34  1  1  1 NREC =       188 INTLOC =12221
 II,JST,KST,LST = 35  1  1  1 NREC =       202 INTLOC = 3139
 II,JST,KST,LST = 36  1  1  1 NREC =       216 INTLOC = 6344
 SCHWARZ INEQUALITY TEST SKIPPED       19698 INTEGRAL BLOCKS.
 TOTAL NUMBER OF NONZERO TWO-ELECTRON INTEGRALS =             3873284
        259 INTEGRAL RECORDS WERE STORED ON DISK FILE  8.
  ...... END OF TWO-ELECTRON INTEGRALS .....
 STEP CPU TIME =     0.45 TOTAL CPU TIME =          0.5 (      0.0 MIN)
 TOTAL WALL CLOCK TIME=          0.5 SECONDS, CPU UTILIZATION IS    95.92%

          --------------------------
               R-PBE SCF CALCULATION
          --------------------------

     NUCLEAR ENERGY =       122.6572528944
     MAXIT =   30     NPUNCH=    2
     EXTRAP=T  DAMP=F  SHIFT=F  RSTRCT=F  DIIS=T  DEM=F  SOSCF=F
         DENSITY MATRIX CONVERGENCE THRESHOLD=  1.00E-05
     COARSE -> FINE DFT GRID SWITCH THRESHOLD=  3.00E-04 (SWITCH IN $DFT)
                   HF -> DFT SWITCH THRESHOLD=  5.00E-03 (SWOFF IN $DFT)
     MEMORY REQUIRED FOR RHF ITERS=    365468 WORDS.

 DFT CODE IS SWITCHING FROM THE FINE GRID NRAD= 96,  NLEB=  302
                      TO THE COARSE GRID NRAD0= 24, NLEB0=  110

     EXCHANGE FUNCTIONAL   =PBE       
     CORRELATION FUNCTIONAL=PBE       
     DFT THRESHOLD         =.172E-07
     GRID CHANGE THRESHOLD =.300E-03
 FOR AN EULER-MACLAURIN QUADRATURE USING  96 RADIAL POINTS:
 SMALLEST GAUSSIAN PRIMITIVE EXPONENT=        0.1061000000 OF TYPE -S-
 ON ATOM NUMBER   4 HAS RADIAL NORMALIZATION=  1.000000
  LARGEST GAUSSIAN PRIMITIVE EXPONENT=     2931.5500000000 OF TYPE -S-
 ON ATOM NUMBER   3 HAS RADIAL NORMALIZATION=  1.000000
 DFT IS SWITCHED OFF, PERFORMING PURE SCF UNTIL SWOFF THRESHOLD IS REACHED.

 ITER EX DEM     TOTAL ENERGY        E CHANGE  DENSITY CHANGE    DIIS ERROR
   1  0  0     -276.1215632941  -276.1215632941   0.191572322   0.781234599
          * * *   INITIATING DIIS PROCEDURE   * * *
   2  1  0     -276.7775785632    -0.6560152691   0.092110748   0.117081147
   3  2  0     -276.8197507637    -0.0421722006   0.047449686   0.046140215
   4  3  0     -276.8345204790    -0.0147697152   0.008911813   0.013294572
   5  4  0     -276.8353330580    -0.0008125790   0.002499969   0.002229165
 CONVERGED TO SWOFF, SO DFT CALCULATION IS NOW SWITCHED ON.
          * * *   INITIATING DIIS PROCEDURE   * * *
   6  5  0     -277.9035442305    -1.0682111725   0.096538568   0.098191361
   7  6  0     -277.9182646845    -0.0147204540   0.086165861   0.048725512
   8  7  0     -277.9166352247     0.0016294598   0.052447064   0.045481454
   9  8  0     -277.9322285462    -0.0155933215   0.006802975   0.005613959
  10  9  0     -277.9324572794    -0.0002287332   0.001865153   0.001451716
  11 10  0     -277.9324702550    -0.0000129756   0.000575345   0.000471420
  12 11  0     -277.9324724461    -0.0000021911   0.000038794   0.000086305
 DFT CODE IS SWITCHING BACK TO THE FINE GRID
          * * *   INITIATING DIIS PROCEDURE   * * *
  13 12  0     -277.9308505901     0.0016218560   0.004638414   0.004687088
  14 13  0     -277.9309029073    -0.0000523173   0.005027810   0.002057964
  15 14  0     -277.9308873294     0.0000155780   0.002992661   0.002621102
  16 15  0     -277.9309216969    -0.0000343675   0.000239536   0.000144475
  17 16  0     -277.9309218205    -0.0000001236   0.000073310   0.000059527
  18 17  0     -277.9309218456    -0.0000000252   0.000013024   0.000009714
  19 18  0     -277.9309218458    -0.0000000002   0.000005730   0.000004547
  20 19  0     -277.9309218460    -0.0000000001   0.000000623   0.000000532

          -----------------
          DENSITY CONVERGED
          -----------------
     TIME TO FORM FOCK OPERATORS=       9.4 SECONDS (       0.5 SEC/ITER)
     TIME TO SOLVE SCF EQUATIONS=       0.0 SECONDS (       0.0 SEC/ITER)

 FINAL R-PBE ENERGY IS     -277.9309218460 AFTER  20 ITERATIONS
 DFT EXCHANGE + CORRELATION ENERGY =       -32.8954396976
 TOTAL ELECTRON NUMBER             =        34.0003133958

          ------------
          EIGENVECTORS
          ------------

                      1          2          3          4          5
                  -24.2483   -24.2352    -9.9754    -9.9732    -1.1081
                     A          A          A          A          A   
    1  C  1  S    0.000041  -0.000183   0.993032  -0.025415  -0.012878
    2  C  1  S    0.000080  -0.000928   0.036731  -0.001938   0.021947
    3  C  1  S   -0.003574   0.008979  -0.022069   0.006270   0.024286
    4  C  1  X   -0.000261  -0.000886  -0.000450  -0.000670   0.012663
    5  C  1  Y    0.000200  -0.000313   0.000134   0.000727  -0.009108
    6  C  1  Z    0.000000   0.000000  -0.000000   0.000000  -0.000000
    7  C  1  X   -0.001962  -0.002516  -0.002852   0.002076   0.010596
    8  C  1  Y    0.001091  -0.003473   0.001081  -0.002208  -0.008785
    9  C  1  Z   -0.000000   0.000000   0.000000   0.000000  -0.000000
   10  C  1 XX   -0.000160   0.000483  -0.000265  -0.000320   0.003100
   11  C  1 YY    0.000094  -0.000135  -0.000059  -0.000170  -0.000368
   12  C  1 ZZ    0.000066  -0.000347   0.000324   0.000490  -0.002732
   13  C  1 XY    0.000102   0.000462   0.000205   0.000831  -0.002308
   14  C  1 XZ    0.000000   0.000000   0.000000   0.000000  -0.000000
   15  C  1 YZ    0.000000   0.000000  -0.000000   0.000000   0.000000
   16  C  2  S   -0.000136   0.000040   0.025614   0.992982  -0.064422
   17  C  2  S   -0.000574   0.000124  -0.000079   0.037084   0.121422
   18  C  2  S    0.010091  -0.003466   0.005405  -0.021603   0.010320
   19  C  2  X    0.001102   0.000192   0.000701   0.000885   0.086640
   20  C  2  Y    0.000379  -0.000177  -0.000726   0.000204   0.049741
   21  C  2  Z    0.000000   0.000000  -0.000000  -0.000000  -0.000000
   22  C  2  X    0.002500   0.001932  -0.002040   0.003022   0.011519
   23  C  2  Y    0.003518  -0.000970   0.002238  -0.001069  -0.000599
   24  C  2  Z    0.000000  -0.000000  -0.000000   0.000000   0.000000
   25  C  2 XX    0.000247  -0.000174  -0.000314  -0.000014   0.015082
   26  C  2 YY   -0.000080   0.000097  -0.000182  -0.000111  -0.003280
   27  C  2 ZZ   -0.000166   0.000077   0.000496   0.000125  -0.011802
   28  C  2 XY    0.000255   0.000029   0.000840   0.000363   0.014068
   29  C  2 XZ    0.000000   0.000000   0.000000  -0.000000  -0.000000
   30  C  2 YZ   -0.000000   0.000000   0.000000   0.000000  -0.000000
   31  F  3  S    0.993084   0.001144   0.000005   0.000065  -0.237973
   32  F  3  S    0.034048  -0.000189  -0.000174   0.000473   0.484241
   33  F  3  S   -0.016970   0.000507   0.000073  -0.000803   0.497520
   34  F  3  X   -0.001094   0.000077   0.000096   0.000296  -0.090501
   35  F  3  Y   -0.000538  -0.000104  -0.000009   0.000096  -0.042149
   36  F  3  Z   -0.000000   0.000000   0.000000   0.000000  -0.000000
   37  F  3  X    0.003496  -0.000543  -0.000191   0.001655  -0.042637
   38  F  3  Y    0.001681   0.000379   0.000211   0.001153  -0.018516
   39  F  3  Z    0.000000   0.000000   0.000000   0.000000  -0.000000
   40  F  3 XX   -0.000331   0.000055   0.000053  -0.000900   0.009149
   41  F  3 YY    0.000130  -0.000031   0.000024   0.000231  -0.002727
   42  F  3 ZZ    0.000201  -0.000025  -0.000077   0.000668  -0.006422
   43  F  3 XY   -0.000353  -0.000000  -0.000163  -0.000880   0.008092
   44  F  3 XZ    0.000000   0.000000   0.000000  -0.000000   0.000000
   45  F  3 YZ    0.000000   0.000000   0.000000  -0.000000   0.000000
   46  H  4  S   -0.000925   0.000107  -0.000321  -0.001168   0.021807
   47  H  4  S   -0.000055  -0.000262   0.000685   0.003393   0.001029
   48  H  4  X   -0.000319   0.000069  -0.000127  -0.000249   0.001324
   49  H  4  Y   -0.000282  -0.000070   0.000066  -0.000688   0.003333
   50  H  4  Z    0.000017   0.000024   0.000042   0.001031  -0.003974
   51  H  5  S   -0.000925   0.000107  -0.000321  -0.001168   0.021807
   52  H  5  S   -0.000055  -0.000262   0.000685   0.003393   0.001029
   53  H  5  X   -0.000319   0.000069  -0.000127  -0.000249   0.001324
   54  H  5  Y   -0.000282  -0.000070   0.000066  -0.000688   0.003333
   55  H  5  Z   -0.000017  -0.000024  -0.000042  -0.001031   0.003974
   56  F  6  S   -0.001146   0.993091   0.000047   0.000003  -0.011689
   57  F  6  S   -0.000249   0.033701   0.000404  -0.000172   0.023585
   58  F  6  S    0.000475  -0.015960  -0.000044   0.000083   0.024299
   59  F  6  X   -0.000086   0.001025  -0.000090  -0.000092   0.004858
   60  F  6  Y    0.000092   0.000513   0.000010   0.000021   0.001732
   61  F  6  Z    0.000000  -0.000000   0.000000   0.000000  -0.000000
   62  F  6  X    0.000505  -0.003272  -0.001083   0.000257   0.001578
   63  F  6  Y   -0.000356  -0.001584  -0.000877  -0.000154   0.001707
   64  F  6  Z    0.000000   0.000000  -0.000000  -0.000000   0.000000
   65  F  6 XX    0.000049  -0.000324  -0.000826   0.000092   0.000514
   66  F  6 YY   -0.000033   0.000125   0.000207  -0.000000  -0.000087
   67  F  6 ZZ   -0.000016   0.000199   0.000619  -0.000092  -0.000428
   68  F  6 XY   -0.000010  -0.000339  -0.000833  -0.000109   0.000530
   69  F  6 XZ    0.000000   0.000000   0.000000   0.000000  -0.000000
   70  F  6 YZ    0.000000   0.000000   0.000000   0.000000   0.000000
   71  H  7  S    0.000100  -0.000737  -0.001171  -0.000245   0.004002
   72  H  7  S   -0.000324   0.000070   0.003491   0.000487   0.002199
   73  H  7  X   -0.000086   0.000330   0.000263   0.000111   0.000206
   74  H  7  Y    0.000072   0.000241   0.000699  -0.000098  -0.000663
   75  H  7  Z    0.000030  -0.000051   0.001057  -0.000008  -0.000982
   76  H  8  S    0.000100  -0.000737  -0.001171  -0.000245   0.004002
   77  H  8  S   -0.000324   0.000070   0.003491   0.000487   0.002199
   78  H  8  X   -0.000086   0.000330   0.000263   0.000111   0.000206
   79  H  8  Y    0.000072   0.000241   0.000699  -0.000098  -0.000663
   80  H  8  Z   -0.000030   0.000051  -0.001057   0.000008   0.000982

                      6          7          8          9         10
                   -1.0678    -0.7132    -0.5824    -0.4709    -0.4685
                     A          A          A          A          A   
    1  C  1  S   -0.052289  -0.154251   0.127010   0.000000  -0.002549
    2  C  1  S    0.100297   0.316973  -0.275818   0.000000   0.008536
    3  C  1  S    0.016183   0.178328  -0.142703  -0.000002  -0.006862
    4  C  1  X   -0.069603   0.098155   0.046396   0.000000  -0.117994
    5  C  1  Y   -0.038720  -0.051684  -0.126049   0.000000  -0.177105
    6  C  1  Z   -0.000000  -0.000000   0.000000   0.287099   0.000001
    7  C  1  X   -0.014435   0.030556   0.003971  -0.000000  -0.018437
    8  C  1  Y   -0.001423  -0.009543  -0.056891  -0.000001  -0.072676
    9  C  1  Z    0.000000   0.000001  -0.000002   0.118328  -0.000001
   10  C  1 XX    0.011133   0.000844  -0.000930   0.000000  -0.003243
   11  C  1 YY   -0.002412   0.003550   0.004740   0.000000   0.009087
   12  C  1 ZZ   -0.008721  -0.004394  -0.003810  -0.000000  -0.005843
   13  C  1 XY    0.010719  -0.008842  -0.008484  -0.000000   0.005492
   14  C  1 XZ    0.000000   0.000000  -0.000000   0.005594  -0.000000
   15  C  1 YZ    0.000000   0.000000  -0.000000  -0.003402  -0.000000
   16  C  2  S   -0.005582  -0.148995  -0.127718   0.000000  -0.008810
   17  C  2  S    0.008325   0.306330   0.279363   0.000000   0.009664
   18  C  2  S    0.018469   0.164540   0.130553  -0.000002   0.052894
   19  C  2  X   -0.020010  -0.100652   0.069633   0.000000  -0.233111
   20  C  2  Y    0.003271   0.057284  -0.125163   0.000000  -0.219751
   21  C  2  Z   -0.000000  -0.000000  -0.000000   0.330207   0.000000
   22  C  2  X   -0.010281  -0.032077   0.004316   0.000000  -0.029464
   23  C  2  Y    0.007109   0.009644  -0.060177   0.000001  -0.068713
   24  C  2  Z   -0.000000   0.000001   0.000002   0.143251   0.000002
   25  C  2 XX    0.001340  -0.000087   0.003364   0.000000  -0.006389
   26  C  2 YY   -0.000085   0.004417  -0.006401   0.000000  -0.006038
   27  C  2 ZZ   -0.001254  -0.004330   0.003037  -0.000000   0.012427
   28  C  2 XY   -0.003174  -0.009146   0.009101   0.000000  -0.015926
   29  C  2 XZ    0.000000   0.000000  -0.000000   0.000433  -0.000000
   30  C  2 YZ   -0.000000  -0.000000  -0.000000   0.004820  -0.000000
   31  F  3  S    0.015398   0.061164   0.046149   0.000000  -0.044053
   32  F  3  S   -0.031714  -0.132210  -0.102153  -0.000000   0.091499
   33  F  3  S   -0.032464  -0.160548  -0.120128  -0.000000   0.138187
   34  F  3  X    0.004097  -0.099602  -0.144510  -0.000001   0.423667
   35  F  3  Y    0.002621  -0.024774  -0.140002  -0.000000   0.099931
   36  F  3  Z    0.000000   0.000000   0.000000   0.233896   0.000000
   37  F  3  X    0.002466  -0.055633  -0.088849  -0.000001   0.260565
   38  F  3  Y    0.000641  -0.017670  -0.083568  -0.000000   0.058282
   39  F  3  Z    0.000000  -0.000000  -0.000000   0.141351   0.000000
   40  F  3 XX   -0.000407   0.005774   0.003260   0.000000  -0.013042
   41  F  3 YY    0.000138  -0.002408   0.000596  -0.000000   0.006022
   42  F  3 ZZ    0.000269  -0.003366  -0.003855  -0.000000   0.007020
   43  F  3 XY   -0.000445   0.002786   0.009327   0.000000  -0.004997
   44  F  3 XZ   -0.000000   0.000000   0.000000  -0.011675  -0.000000
   45  F  3 YZ   -0.000000   0.000000   0.000000  -0.005429  -0.000000
   46  H  4  S    0.001725   0.107134   0.163862   0.179868   0.110266
   47  H  4  S    0.001952  -0.005078   0.008139   0.015259   0.019105
   48  H  4  X   -0.000264  -0.000760   0.002357   0.000489  -0.004934
   49  H  4  Y    0.000269   0.006656   0.005844   0.008869   0.000099
   50  H  4  Z   -0.000509  -0.008911  -0.011624  -0.003966  -0.006059
   51  H  5  S    0.001725   0.107135   0.163863  -0.179868   0.110266
   52  H  5  S    0.001952  -0.005077   0.008142  -0.015257   0.019107
   53  H  5  X   -0.000264  -0.000760   0.002357  -0.000489  -0.004934
   54  H  5  Y    0.000269   0.006657   0.005844  -0.008869   0.000099
   55  H  5  Z    0.000509   0.008911   0.011624  -0.003966   0.006059
   56  F  6  S   -0.242406   0.054376  -0.036562  -0.000000   0.028686
   57  F  6  S    0.493211  -0.117420   0.082424   0.000000  -0.060637
   58  F  6  S    0.516011  -0.141601   0.091609   0.000000  -0.092061
   59  F  6  X    0.073279   0.080800  -0.105468  -0.000000   0.239065
   60  F  6  Y    0.034314   0.023246  -0.097811  -0.000000   0.025984
   61  F  6  Z   -0.000000   0.000000  -0.000000   0.136928   0.000000
   62  F  6  X    0.038700   0.045587  -0.068902  -0.000000   0.150695
   63  F  6  Y    0.017064   0.017100  -0.059968   0.000000   0.014740
   64  F  6  Z   -0.000000  -0.000000   0.000000   0.081661   0.000000
   65  F  6 XX    0.008769   0.004756  -0.003065  -0.000000   0.008375
   66  F  6 YY   -0.002579  -0.001850  -0.000172   0.000000  -0.004243
   67  F  6 ZZ   -0.006189  -0.002906   0.003237   0.000000  -0.004132
   68  F  6 XY    0.007972   0.002835  -0.007233   0.000000   0.001547
   69  F  6 XZ   -0.000000  -0.000000   0.000000   0.007148   0.000000
   70  F  6 YZ   -0.000000  -0.000000   0.000000   0.003277   0.000000
   71  H  7  S    0.018776   0.113077  -0.165855   0.160940  -0.072412
   72  H  7  S    0.001054  -0.005294  -0.009171   0.017852  -0.006440
   73  H  7  X   -0.001298   0.000712   0.001971   0.000364  -0.003586
   74  H  7  Y   -0.002783  -0.006987   0.005831  -0.007952  -0.000084
   75  H  7  Z   -0.003229  -0.009499   0.011733  -0.003483   0.004359
   76  H  8  S    0.018776   0.113077  -0.165856  -0.160940  -0.072413
   77  H  8  S    0.001055  -0.005293  -0.009174  -0.017851  -0.006442
   78  H  8  X   -0.001298   0.000712   0.001971  -0.000364  -0.003586
   79  H  8  Y   -0.002783  -0.006987   0.005831   0.007952  -0.000084
   80  H  8  Z    0.003229   0.009499  -0.011733  -0.003483  -0.004359

                     11         12         13         14         15
                   -0.4368    -0.4103    -0.3942    -0.3362    -0.3095
                     A          A          A          A          A   
    1  C  1  S    0.007493   0.011451  -0.000000   0.032351  -0.000000
    2  C  1  S   -0.023370  -0.013077  -0.000000  -0.070968  -0.000000
    3  C  1  S   -0.008937  -0.050153   0.000002  -0.136448   0.000001
    4  C  1  X    0.293453  -0.067913  -0.000000  -0.092448  -0.000000
    5  C  1  Y   -0.111557  -0.300758  -0.000000   0.030612  -0.000000
    6  C  1  Z    0.000000   0.000000  -0.296156   0.000000  -0.107384
    7  C  1  X    0.090416   0.015013  -0.000000  -0.057224   0.000000
    8  C  1  Y   -0.055162  -0.097873   0.000001   0.067842   0.000000
    9  C  1  Z   -0.000000  -0.000001  -0.162479  -0.000001  -0.038462
   10  C  1 XX   -0.009161   0.016837  -0.000000   0.014521  -0.000000
   11  C  1 YY    0.006952  -0.001648  -0.000000  -0.009808  -0.000000
   12  C  1 ZZ    0.002209  -0.015189   0.000000  -0.004713   0.000000
   13  C  1 XY   -0.012474   0.010001   0.000000  -0.006190   0.000000
   14  C  1 XZ   -0.000000  -0.000000   0.010316  -0.000000  -0.017122
   15  C  1 YZ   -0.000000  -0.000000  -0.009028  -0.000000  -0.004584
   16  C  2  S   -0.011393   0.009436   0.000000  -0.027309  -0.000000
   17  C  2  S    0.020545  -0.011035   0.000000   0.056220  -0.000000
   18  C  2  S    0.033564  -0.038271  -0.000002   0.130528   0.000002
   19  C  2  X   -0.243522  -0.007422  -0.000000  -0.023528   0.000000
   20  C  2  Y    0.159723   0.237257  -0.000000  -0.082072   0.000000
   21  C  2  Z    0.000000  -0.000000   0.199922  -0.000000  -0.178866
   22  C  2  X   -0.078334  -0.039947  -0.000000  -0.025956  -0.000000
   23  C  2  Y    0.081115   0.074537   0.000001   0.014797  -0.000001
   24  C  2  Z   -0.000000  -0.000001   0.115780   0.000001  -0.081712
   25  C  2 XX   -0.016025   0.013692   0.000000  -0.019617  -0.000000
   26  C  2 YY    0.013744  -0.001341  -0.000000   0.011496  -0.000000
   27  C  2 ZZ    0.002282  -0.012351  -0.000000   0.008121   0.000000
   28  C  2 XY   -0.006857   0.010528  -0.000000   0.010916   0.000000
   29  C  2 XZ    0.000000  -0.000000   0.017530  -0.000000   0.017798
   30  C  2 YZ    0.000000   0.000000  -0.006614  -0.000000   0.010578
   31  F  3  S   -0.015720   0.007324  -0.000000   0.000856  -0.000000
   32  F  3  S    0.030510  -0.013618  -0.000000  -0.002959   0.000000
   33  F  3  S    0.050081  -0.014260   0.000000  -0.007257  -0.000000
   34  F  3  X    0.093971  -0.273104  -0.000000  -0.145401   0.000000
   35  F  3  Y    0.332407   0.095481  -0.000000   0.439791  -0.000000
   36  F  3  Z   -0.000000  -0.000000   0.346983   0.000000   0.436988
   37  F  3  X    0.057144  -0.168465  -0.000000  -0.100108   0.000000
   38  F  3  Y    0.205977   0.059242  -0.000000   0.299515   0.000000
   39  F  3  Z    0.000000  -0.000000   0.224977  -0.000000   0.306463
   40  F  3 XX    0.003794   0.009932  -0.000000   0.006692   0.000000
   41  F  3 YY   -0.006298  -0.007426   0.000000  -0.007228  -0.000000
   42  F  3 ZZ    0.002504  -0.002505  -0.000000   0.000536  -0.000000
   43  F  3 XY   -0.012123  -0.002126   0.000000  -0.007321  -0.000000
   44  F  3 XZ   -0.000000   0.000000  -0.011753   0.000000  -0.007182
   45  F  3 YZ   -0.000000   0.000000  -0.006674   0.000000  -0.002774
   46  H  4  S   -0.036487  -0.121635   0.125930   0.094578  -0.153432
   47  H  4  S   -0.001503  -0.040742   0.021886   0.023237  -0.029490
   48  H  4  X   -0.005109  -0.001696   0.002928  -0.000035   0.000943
   49  H  4  Y    0.000877   0.001602   0.004260  -0.000502  -0.003926
   50  H  4  Z    0.002720   0.005882  -0.001917  -0.003835   0.001546
   51  H  5  S   -0.036487  -0.121635  -0.125929   0.094579   0.153431
   52  H  5  S   -0.001503  -0.040744  -0.021884   0.023239   0.029488
   53  H  5  X   -0.005109  -0.001696  -0.002928  -0.000035  -0.000943
   54  H  5  Y    0.000877   0.001602  -0.004260  -0.000502   0.003926
   55  H  5  Z   -0.002720  -0.005882  -0.001917   0.003835   0.001546
   56  F  6  S   -0.029865   0.020472   0.000000   0.000765  -0.000000
   57  F  6  S    0.062238  -0.042479  -0.000000  -0.001379   0.000000
   58  F  6  S    0.092920  -0.055452  -0.000000   0.003415   0.000000
   59  F  6  X   -0.245721   0.379749   0.000000  -0.132360  -0.000000
   60  F  6  Y   -0.278203   0.013357  -0.000000   0.455146   0.000000
   61  F  6  Z    0.000000   0.000000  -0.294569  -0.000000   0.463568
   62  F  6  X   -0.157948   0.241182   0.000000  -0.086974  -0.000000
   63  F  6  Y   -0.172880   0.012132  -0.000000   0.306382  -0.000000
   64  F  6  Z    0.000000   0.000000  -0.188625  -0.000000   0.320616
   65  F  6 XX   -0.002709   0.011738   0.000000  -0.006998   0.000000
   66  F  6 YY   -0.002136  -0.006874  -0.000000   0.007617   0.000000
   67  F  6 ZZ    0.004845  -0.004864   0.000000  -0.000618  -0.000000
   68  F  6 XY   -0.011488   0.001959  -0.000000   0.008133  -0.000000
   69  F  6 XZ    0.000000   0.000000  -0.010428   0.000000   0.007784
   70  F  6 YZ    0.000000   0.000000  -0.005849  -0.000000   0.003650
   71  H  7  S   -0.040771  -0.158861  -0.193827  -0.043476  -0.090883
   72  H  7  S   -0.002467  -0.047194  -0.031879  -0.002448  -0.005228
   73  H  7  X    0.007258  -0.000752   0.002664  -0.001745  -0.001422
   74  H  7  Y   -0.000037  -0.002052   0.006754   0.000402   0.002173
   75  H  7  Z    0.002743   0.007842   0.003042   0.001483   0.000809
   76  H  8  S   -0.040771  -0.158862   0.193826  -0.043476   0.090882
   77  H  8  S   -0.002467  -0.047197   0.031876  -0.002448   0.005228
   78  H  8  X    0.007258  -0.000752  -0.002664  -0.001745   0.001422
   79  H  8  Y   -0.000037  -0.002051  -0.006754   0.000402  -0.002173
   80  H  8  Z   -0.002743  -0.007842   0.003042  -0.001483   0.000809

                     16         17         18         19         20
                   -0.2955    -0.2939    -0.0223     0.0283     0.0554
                     A          A          A          A          A   
    1  C  1  S    0.000000  -0.020588   0.059863  -0.076005   0.000001
    2  C  1  S   -0.000001   0.059341  -0.165300   0.132215  -0.000001
    3  C  1  S    0.000002   0.069334  -0.092878   1.203875  -0.000020
    4  C  1  X   -0.000000   0.153002   0.393672   0.008454   0.000000
    5  C  1  Y    0.000000  -0.231581   0.170435   0.190264  -0.000000
    6  C  1  Z   -0.219703  -0.000000   0.000000   0.000002  -0.290931
    7  C  1  X   -0.000000  -0.004211   0.566991   0.125364   0.000000
    8  C  1  Y    0.000001  -0.104826   0.117817   0.537544  -0.000004
    9  C  1  Z   -0.003433  -0.000001   0.000001   0.000004  -0.724872
   10  C  1 XX   -0.000000   0.013055   0.037006   0.007630  -0.000000
   11  C  1 YY    0.000000  -0.007134  -0.019943   0.006615   0.000000
   12  C  1 ZZ    0.000000  -0.005921  -0.017063  -0.014245  -0.000000
   13  C  1 XY    0.000000  -0.017067   0.024913  -0.002555  -0.000000
   14  C  1 XZ   -0.008320  -0.000000  -0.000000   0.000000  -0.010271
   15  C  1 YZ   -0.023521  -0.000000   0.000000  -0.000000   0.026219
   16  C  2  S    0.000000  -0.020107  -0.027187  -0.073237  -0.000003
   17  C  2  S    0.000000   0.058406   0.079884   0.135411   0.000005
   18  C  2  S   -0.000003   0.083245  -0.128320   1.062837   0.000036
   19  C  2  X    0.000000  -0.152932   0.220591   0.040967  -0.000000
   20  C  2  Y   -0.000000   0.228567   0.123082  -0.155937  -0.000005
   21  C  2  Z    0.223836   0.000000  -0.000000   0.000003  -0.282440
   22  C  2  X   -0.000000  -0.000917   0.400917  -0.027466  -0.000001
   23  C  2  Y    0.000001   0.116710   0.086595  -0.498613  -0.000010
   24  C  2  Z    0.010599  -0.000001  -0.000000   0.000007  -0.684862
   25  C  2 XX    0.000000   0.012173  -0.038350  -0.000981   0.000000
   26  C  2 YY    0.000000  -0.006337   0.023307   0.011576  -0.000000
   27  C  2 ZZ   -0.000000  -0.005836   0.015043  -0.010595  -0.000000
   28  C  2 XY   -0.000000  -0.016919  -0.020116  -0.007854  -0.000000
   29  C  2 XZ   -0.008190  -0.000000  -0.000000  -0.000000   0.009578
   30  C  2 YZ   -0.023320   0.000000   0.000000   0.000000  -0.026882
   31  F  3  S    0.000000  -0.000014   0.048739  -0.004160   0.000000
   32  F  3  S   -0.000000   0.006593  -0.105402   0.005189  -0.000000
   33  F  3  S    0.000000  -0.031784  -0.321947   0.046369  -0.000001
   34  F  3  X   -0.000000   0.195619   0.239975   0.047543   0.000002
   35  F  3  Y    0.000001  -0.311586   0.052112   0.082397   0.000001
   36  F  3  Z   -0.324564  -0.000000   0.000000  -0.000000   0.011487
   37  F  3  X   -0.000000   0.144482   0.209795   0.028626   0.000002
   38  F  3  Y    0.000000  -0.216081   0.063221   0.092289   0.000001
   39  F  3  Z   -0.223052  -0.000000   0.000000  -0.000001   0.052325
   40  F  3 XX   -0.000000  -0.002796   0.001583   0.003004  -0.000000
   41  F  3 YY   -0.000000   0.002872   0.000126   0.001967   0.000000
   42  F  3 ZZ    0.000000  -0.000075  -0.001709  -0.004971  -0.000000
   43  F  3 XY    0.000000   0.002450  -0.001286   0.003497   0.000000
   44  F  3 XZ    0.003890   0.000000   0.000000  -0.000000   0.005698
   45  F  3 YZ   -0.000402  -0.000000   0.000000  -0.000000   0.001184
   46  H  4  S    0.218586  -0.099936   0.043192  -0.045286   0.092767
   47  H  4  S    0.148013  -0.062683   0.122250  -0.743198   1.113829
   48  H  4  X   -0.000765  -0.002961   0.012408   0.005254   0.001684
   49  H  4  Y    0.005390   0.002857   0.000659   0.000536  -0.010835
   50  H  4  Z   -0.001609   0.004493   0.004712  -0.013646   0.009908
   51  H  5  S   -0.218585  -0.099937   0.043192  -0.045284  -0.092770
   52  H  5  S   -0.148009  -0.062685   0.122250  -0.743179  -1.113882
   53  H  5  X    0.000765  -0.002961   0.012408   0.005254  -0.001684
   54  H  5  Y   -0.005390   0.002857   0.000659   0.000536   0.010836
   55  H  5  Z   -0.001609  -0.004493  -0.004712   0.013647   0.009908
   56  F  6  S   -0.000000  -0.000252  -0.061631  -0.013542  -0.000000
   57  F  6  S    0.000000   0.006817   0.126982   0.025159   0.000001
   58  F  6  S   -0.000000  -0.027532   0.406733   0.110493   0.000002
   59  F  6  X    0.000000  -0.232770   0.332692  -0.004126   0.000001
   60  F  6  Y   -0.000000   0.378017   0.142724  -0.060304  -0.000000
   61  F  6  Z    0.386428   0.000000  -0.000000  -0.000000   0.007312
   62  F  6  X    0.000000  -0.170090   0.299423   0.013677   0.000002
   63  F  6  Y   -0.000000   0.259200   0.142632  -0.064242   0.000000
   64  F  6  Z    0.264123   0.000000  -0.000000  -0.000000   0.043739
   65  F  6 XX    0.000000  -0.003926  -0.002552   0.002438   0.000000
   66  F  6 YY   -0.000000   0.003762   0.000260   0.001741  -0.000000
   67  F  6 ZZ   -0.000000   0.000164   0.002292  -0.004179  -0.000000
   68  F  6 XY   -0.000000   0.003192  -0.001315   0.003626  -0.000000
   69  F  6 XZ    0.004749   0.000000   0.000000   0.000000  -0.004635
   70  F  6 YZ    0.000464   0.000000  -0.000000   0.000000  -0.000988
   71  H  7  S   -0.216458  -0.101093  -0.019281  -0.062578   0.096977
   72  H  7  S   -0.145341  -0.062428  -0.018966  -0.847798   1.160108
   73  H  7  X   -0.001292   0.002789   0.018491  -0.002517  -0.001011
   74  H  7  Y    0.004991  -0.003274   0.003157  -0.001145   0.011306
   75  H  7  Z    0.001487   0.004493  -0.004953  -0.015657   0.009980
   76  H  8  S    0.216457  -0.101093  -0.019281  -0.062576  -0.096974
   77  H  8  S    0.145338  -0.062429  -0.018965  -0.847785  -1.160079
   78  H  8  X    0.001292   0.002789   0.018491  -0.002517   0.001011
   79  H  8  Y   -0.004991  -0.003274   0.003157  -0.001144  -0.011306
   80  H  8  Z    0.001487  -0.004493   0.004953   0.015658   0.009979

                     21         22         23         24         25
                    0.0586     0.1057     0.1075     0.1744     0.3309
                     A          A          A          A          A   
    1  C  1  S    0.092775  -0.043750   0.000000   0.078696   0.007556
    2  C  1  S   -0.174014   0.145665   0.000000  -0.110402  -0.135038
    3  C  1  S   -1.303793   0.247042  -0.000001  -1.922176  -0.479120
    4  C  1  X    0.028672  -0.316066   0.000003  -0.140918  -0.166417
    5  C  1  Y   -0.088648  -0.194673   0.000002   0.370126   0.373397
    6  C  1  Z    0.000005  -0.000002  -0.307519  -0.000000   0.000000
    7  C  1  X    0.008504  -0.526535   0.000006  -1.396583   0.080417
    8  C  1  Y   -0.211381  -0.577165   0.000003   1.466774  -1.111788
    9  C  1  Z    0.000014  -0.000007  -1.015336  -0.000002  -0.000002
   10  C  1 XX   -0.007625   0.002290   0.000000   0.026791  -0.023119
   11  C  1 YY    0.010369  -0.019295   0.000000   0.005986  -0.033753
   12  C  1 ZZ   -0.002744   0.017005  -0.000000  -0.032777   0.056872
   13  C  1 XY   -0.000115  -0.018124   0.000000  -0.032490   0.041050
   14  C  1 XZ    0.000000   0.000000   0.013606   0.000000  -0.000000
   15  C  1 YZ   -0.000001  -0.000000   0.010779   0.000000   0.000000
   16  C  2  S   -0.086671  -0.065133   0.000001  -0.089058   0.007705
   17  C  2  S    0.147081   0.191202  -0.000004   0.145771  -0.145288
   18  C  2  S    1.364898   0.363346  -0.000006   1.996786  -0.356650
   19  C  2  X   -0.066654   0.409446  -0.000003  -0.105102   0.188458
   20  C  2  Y   -0.150912   0.140548  -0.000000   0.396413  -0.385618
   21  C  2  Z    0.000007   0.000004   0.319342  -0.000000   0.000000
   22  C  2  X   -0.168843   0.985050  -0.000007  -1.193173  -0.164965
   23  C  2  Y   -0.367639   0.346594  -0.000004   1.602568   1.212860
   24  C  2  Z    0.000016   0.000010   1.047089   0.000001  -0.000001
   25  C  2 XX    0.009213  -0.011230   0.000000  -0.030441  -0.016974
   26  C  2 YY   -0.006615  -0.010737   0.000000  -0.007987  -0.036717
   27  C  2 ZZ   -0.002598   0.021967  -0.000000   0.038428   0.053691
   28  C  2 XY    0.004352  -0.031499   0.000000   0.025036   0.040405
   29  C  2 XZ   -0.000000   0.000000   0.013324   0.000000   0.000000
   30  C  2 YZ    0.000001   0.000000   0.011773   0.000000  -0.000000
   31  F  3  S   -0.000884   0.071163  -0.000001   0.011259   0.002308
   32  F  3  S    0.000352  -0.128374   0.000001  -0.020540   0.022905
   33  F  3  S    0.015554  -0.638261   0.000005  -0.104971  -0.151800
   34  F  3  X    0.039388   0.217711  -0.000002   0.154970  -0.001824
   35  F  3  Y   -0.016925   0.201799  -0.000002  -0.046851  -0.063374
   36  F  3  Z   -0.000001  -0.000001  -0.096703  -0.000000   0.000000
   37  F  3  X    0.051938   0.279310  -0.000003   0.197361   0.098201
   38  F  3  Y    0.011888   0.209100  -0.000002  -0.112413  -0.135882
   39  F  3  Z   -0.000001  -0.000001  -0.123686  -0.000000   0.000000
   40  F  3 XX   -0.001000   0.001696  -0.000000   0.012826  -0.008219
   41  F  3 YY    0.002406  -0.000323  -0.000000  -0.014620  -0.001656
   42  F  3 ZZ   -0.001406  -0.001373   0.000000   0.001794   0.009875
   43  F  3 XY    0.002358   0.008860  -0.000000   0.003605   0.005488
   44  F  3 XZ   -0.000000  -0.000000  -0.008586  -0.000000   0.000000
   45  F  3 YZ   -0.000000  -0.000000   0.000715   0.000000  -0.000000
   46  H  4  S   -0.064741  -0.018395  -0.040274   0.079612   0.261622
   47  H  4  S   -1.000757  -0.107942  -1.349245   0.429850   0.074441
   48  H  4  X   -0.002424   0.020516   0.004911  -0.006764  -0.010935
   49  H  4  Y    0.008034   0.010677   0.012864   0.011191   0.023843
   50  H  4  Z   -0.010874   0.006826  -0.010554   0.016295   0.006217
   51  H  5  S   -0.064737  -0.018395   0.040274   0.079612   0.261619
   52  H  5  S   -1.000706  -0.107915   1.349249   0.429853   0.074442
   53  H  5  X   -0.002424   0.020516  -0.004911  -0.006764  -0.010935
   54  H  5  Y    0.008033   0.010677  -0.012865   0.011191   0.023844
   55  H  5  Z    0.010874  -0.006826  -0.010554  -0.016295  -0.006217
   56  F  6  S   -0.012899   0.041443  -0.000000   0.001062   0.003133
   57  F  6  S    0.025122  -0.068887   0.000000   0.002338   0.018416
   58  F  6  S    0.094114  -0.378617   0.000003  -0.036860  -0.143208
   59  F  6  X    0.085104  -0.139263   0.000001   0.120912  -0.002101
   60  F  6  Y    0.018614  -0.167572   0.000001  -0.074629   0.071066
   61  F  6  Z    0.000000   0.000001   0.087822   0.000000   0.000000
   62  F  6  X    0.102119  -0.183699   0.000001   0.126786  -0.093240
   63  F  6  Y    0.038627  -0.138374   0.000001  -0.132137   0.111323
   64  F  6  Z   -0.000001   0.000001   0.104616   0.000000   0.000000
   65  F  6 XX    0.000175   0.002955  -0.000000  -0.011807  -0.004960
   66  F  6 YY   -0.001457  -0.002108   0.000000   0.012740  -0.003260
   67  F  6 ZZ    0.001283  -0.000846   0.000000  -0.000933   0.008220
   68  F  6 XY   -0.003509   0.009236  -0.000000  -0.001684   0.001621
   69  F  6 XZ    0.000000  -0.000000  -0.007598  -0.000000  -0.000000
   70  F  6 YZ    0.000000   0.000000   0.000739   0.000000   0.000000
   71  H  7  S    0.067717  -0.027781   0.042884  -0.077995   0.272893
   72  H  7  S    0.904207   0.189571   1.302704  -0.420483   0.036410
   73  H  7  X    0.001176  -0.012039   0.005503  -0.010547   0.011990
   74  H  7  Y    0.010220  -0.009020   0.012808   0.008704  -0.024358
   75  H  7  Z    0.007623   0.008551   0.010079  -0.014599   0.006808
   76  H  8  S    0.067722  -0.027782  -0.042882  -0.077995   0.272890
   77  H  8  S    0.904252   0.189554  -1.302707  -0.420487   0.036411
   78  H  8  X    0.001176  -0.012039  -0.005503  -0.010547   0.011990
   79  H  8  Y    0.010220  -0.009020  -0.012808   0.008704  -0.024358
   80  H  8  Z   -0.007624  -0.008551   0.010079   0.014599  -0.006809

                     26         27         28         29         30
                    0.3697     0.3878     0.4104     0.4918     0.4961
                     A          A          A          A          A   
    1  C  1  S    0.000000  -0.011859   0.013041   0.082816   0.000001
    2  C  1  S   -0.000001   0.178612  -0.119797  -0.606462  -0.000004
    3  C  1  S   -0.000000  -0.223777   0.376485   1.695569   0.000012
    4  C  1  X   -0.000001  -0.713871   0.388045  -0.369638  -0.000003
    5  C  1  Y    0.000000  -0.108854   0.255991   0.398023   0.000003
    6  C  1  Z    0.026434  -0.000000   0.000000  -0.000003   0.491924
    7  C  1  X    0.000001   0.903228  -1.000136   1.004665   0.000007
    8  C  1  Y   -0.000002   0.540210  -0.615340  -1.465028  -0.000012
    9  C  1  Z    0.513951   0.000000   0.000001   0.000017  -2.234289
   10  C  1 XX   -0.000000  -0.014496   0.006386  -0.010206  -0.000000
   11  C  1 YY   -0.000000   0.037041   0.013510   0.001243  -0.000000
   12  C  1 ZZ    0.000000  -0.022544  -0.019897   0.008963   0.000000
   13  C  1 XY    0.000000  -0.032136  -0.014733  -0.063331  -0.000000
   14  C  1 XZ    0.019404  -0.000000   0.000000  -0.000000   0.032250
   15  C  1 YZ   -0.111924   0.000000  -0.000000  -0.000000   0.007523
   16  C  2  S    0.000000   0.011614   0.019211  -0.079780  -0.000000
   17  C  2  S   -0.000002  -0.162227  -0.178835   0.589034   0.000002
   18  C  2  S    0.000000   0.088974   0.305984  -1.662044  -0.000009
   19  C  2  X    0.000001  -0.498579  -0.692038  -0.312339  -0.000003
   20  C  2  Y    0.000000  -0.030111  -0.285311   0.477394   0.000005
   21  C  2  Z    0.028632  -0.000000   0.000000   0.000005  -0.525013
   22  C  2  X   -0.000001   0.280719   1.345206   0.961406   0.000008
   23  C  2  Y    0.000002   0.247526   0.605464  -1.512338  -0.000013
   24  C  2  Z    0.480977  -0.000000   0.000000  -0.000021   2.354245
   25  C  2 XX   -0.000000   0.018271   0.034606  -0.004955  -0.000000
   26  C  2 YY   -0.000000  -0.038653  -0.008327  -0.003008  -0.000000
   27  C  2 ZZ    0.000000   0.020382  -0.026278   0.007963   0.000000
   28  C  2 XY    0.000000   0.048912   0.021063   0.059778   0.000001
   29  C  2 XZ   -0.024598   0.000000  -0.000000  -0.000000   0.021978
   30  C  2 YZ    0.107904  -0.000000   0.000000  -0.000000   0.007584
   31  F  3  S    0.000000   0.011483   0.007707   0.010662   0.000000
   32  F  3  S   -0.000000  -0.003384   0.072391  -0.058942  -0.000000
   33  F  3  S   -0.000000  -0.237956  -0.599142   0.103377   0.000000
   34  F  3  X    0.000000  -0.104859  -0.297952   0.043443   0.000000
   35  F  3  Y   -0.000000  -0.178953  -0.023303   0.088702   0.000000
   36  F  3  Z   -0.134054   0.000000  -0.000000   0.000002  -0.208908
   37  F  3  X    0.000000   0.083179   0.048073  -0.062250  -0.000000
   38  F  3  Y   -0.000000  -0.030566   0.072562   0.082036   0.000001
   39  F  3  Z   -0.077218   0.000000  -0.000000   0.000001  -0.158059
   40  F  3 XX    0.000000  -0.019292  -0.038480   0.022430   0.000000
   41  F  3 YY   -0.000000   0.001033   0.009356  -0.011488  -0.000000
   42  F  3 ZZ    0.000000   0.018259   0.029124  -0.010942  -0.000000
   43  F  3 XY    0.000000  -0.032251  -0.031043  -0.003460  -0.000000
   44  F  3 XZ   -0.011577   0.000000  -0.000000  -0.000000   0.003418
   45  F  3 YZ    0.004805   0.000000   0.000000   0.000000  -0.002210
   46  H  4  S   -0.563821   0.134504  -0.012517  -0.296475  -0.236013
   47  H  4  S    0.160515   0.043159   0.053359  -0.261831  -0.969561
   48  H  4  X   -0.010382  -0.008150  -0.011812  -0.022742   0.034268
   49  H  4  Y    0.036175   0.007678   0.011138   0.013545  -0.026934
   50  H  4  Z    0.000466   0.009522  -0.013131  -0.017418   0.032620
   51  H  5  S    0.563823   0.134504  -0.012516  -0.296479   0.236011
   52  H  5  S   -0.160515   0.043160   0.053358  -0.261848   0.969553
   53  H  5  X    0.010382  -0.008150  -0.011812  -0.022742  -0.034268
   54  H  5  Y   -0.036175   0.007678   0.011138   0.013545   0.026934
   55  H  5  Z    0.000467  -0.009522   0.013131   0.017417   0.032621
   56  F  6  S    0.000000  -0.023120   0.007267  -0.009903  -0.000000
   57  F  6  S   -0.000000   0.001998   0.051599   0.058586   0.000001
   58  F  6  S    0.000000   0.496668  -0.449158  -0.084324  -0.000001
   59  F  6  X   -0.000000  -0.172582   0.193288   0.021094   0.000000
   60  F  6  Y    0.000000  -0.132399  -0.045633   0.085956   0.000000
   61  F  6  Z   -0.139379   0.000000  -0.000000  -0.000002   0.205753
   62  F  6  X   -0.000000   0.156104  -0.074483  -0.079448  -0.000001
   63  F  6  Y    0.000000   0.046869  -0.079118   0.075191   0.000001
   64  F  6  Z   -0.066430   0.000000  -0.000000  -0.000001   0.128897
   65  F  6 XX    0.000000   0.027497  -0.025630  -0.015968  -0.000000
   66  F  6 YY   -0.000000  -0.003727   0.007872   0.006412   0.000000
   67  F  6 ZZ    0.000000  -0.023770   0.017758   0.009556   0.000000
   68  F  6 XY    0.000000   0.034904  -0.011737   0.001645   0.000000
   69  F  6 XZ    0.012349  -0.000000   0.000000   0.000000  -0.002271
   70  F  6 YZ   -0.002026   0.000000  -0.000000   0.000000  -0.005364
   71  H  7  S   -0.591345  -0.150938  -0.011216   0.378293   0.219052
   72  H  7  S    0.186689  -0.071759   0.052093   0.199274   0.890183
   73  H  7  X    0.008238  -0.005928   0.003678  -0.025190   0.037941
   74  H  7  Y   -0.036859   0.013679  -0.007935   0.014491  -0.027752
   75  H  7  Z    0.000833  -0.007105  -0.011605   0.027206  -0.030009
   76  H  8  S    0.591347  -0.150939  -0.011215   0.378298  -0.219045
   77  H  8  S   -0.186689  -0.071758   0.052093   0.199286  -0.890180
   78  H  8  X   -0.008238  -0.005928   0.003678  -0.025189  -0.037941
   79  H  8  Y    0.036859   0.013679  -0.007934   0.014490   0.027752
   80  H  8  Z    0.000833   0.007105   0.011605  -0.027206  -0.030011

                     31         32         33         34         35
                    0.5463     0.5526     0.5563     0.5697     0.7731
                     A          A          A          A          A   
    1  C  1  S    0.055992   0.000000  -0.000000   0.063252   0.025437
    2  C  1  S   -0.394206  -0.000003  -0.000001  -0.389341  -1.249676
    3  C  1  S    0.507827  -0.000003   0.000006  -0.465400   2.386493
    4  C  1  X    0.093634  -0.000001  -0.000000  -0.014813  -0.118408
    5  C  1  Y   -0.484219  -0.000002   0.000002  -0.516656   0.024970
    6  C  1  Z   -0.000002  -0.205523  -0.825304  -0.000000   0.000001
    7  C  1  X   -0.365396  -0.000003   0.000003  -0.693343  -0.020651
    8  C  1  Y    0.361376   0.000009  -0.000007   1.648787   0.561671
    9  C  1  Z    0.000008   0.968634   1.059595  -0.000007  -0.000002
   10  C  1 XX   -0.060344  -0.000000   0.000000  -0.087729  -0.007648
   11  C  1 YY   -0.023726   0.000000  -0.000000   0.036814   0.009476
   12  C  1 ZZ    0.084070   0.000000   0.000000   0.050915  -0.001827
   13  C  1 XY    0.002916   0.000000  -0.000000   0.016053   0.075445
   14  C  1 XZ   -0.000000  -0.046454   0.057149   0.000001  -0.000000
   15  C  1 YZ   -0.000000  -0.027369   0.121345   0.000001   0.000000
   16  C  2  S    0.064116  -0.000001   0.000000  -0.070881   0.018998
   17  C  2  S   -0.463241   0.000005  -0.000002   0.444823  -1.261431
   18  C  2  S    0.797478  -0.000001  -0.000003   0.425191   2.742752
   19  C  2  X   -0.075533   0.000001  -0.000000   0.016718   0.173447
   20  C  2  Y    0.367631  -0.000006   0.000002  -0.530613   0.008635
   21  C  2  Z   -0.000003  -0.813222  -0.130805   0.000005   0.000001
   22  C  2  X    0.190775  -0.000006   0.000004  -0.748921  -0.080087
   23  C  2  Y   -0.011648   0.000012  -0.000007   1.630181  -0.498534
   24  C  2  Z    0.000000   1.040765   0.854643  -0.000002  -0.000002
   25  C  2 XX   -0.048906   0.000001  -0.000000   0.093224   0.004264
   26  C  2 YY   -0.027696  -0.000000   0.000000  -0.033972   0.004185
   27  C  2 ZZ    0.076603  -0.000001   0.000000  -0.059252  -0.008449
   28  C  2 XY   -0.000677  -0.000000   0.000000  -0.018416   0.077632
   29  C  2 XZ   -0.000000  -0.052631   0.042998   0.000001   0.000000
   30  C  2 YZ   -0.000001  -0.124532   0.038643   0.000001  -0.000000
   31  F  3  S   -0.015524   0.000000  -0.000000   0.016210   0.044487
   32  F  3  S    0.092992  -0.000001   0.000000  -0.042920  -0.201581
   33  F  3  S   -0.117488  -0.000001   0.000000  -0.128664  -0.187035
   34  F  3  X   -0.072574   0.000000   0.000000  -0.009314   0.020996
   35  F  3  Y    0.022970   0.000000  -0.000000   0.030289  -0.140419
   36  F  3  Z    0.000001   0.107652  -0.131169  -0.000002   0.000000
   37  F  3  X    0.018622   0.000001  -0.000000   0.141179   0.195768
   38  F  3  Y   -0.011455  -0.000001   0.000000  -0.092013   0.249778
   39  F  3  Z   -0.000000  -0.114158  -0.043682   0.000001  -0.000000
   40  F  3 XX    0.003548  -0.000000   0.000000  -0.014093  -0.015785
   41  F  3 YY   -0.009566   0.000000  -0.000000   0.006668   0.007134
   42  F  3 ZZ    0.006018   0.000000  -0.000000   0.007425   0.008650
   43  F  3 XY   -0.006348   0.000000  -0.000000   0.009958  -0.040572
   44  F  3 XZ    0.000000   0.024303  -0.011787  -0.000000   0.000000
   45  F  3 YZ    0.000000   0.019687  -0.004252  -0.000000  -0.000000
   46  H  4  S    0.561347   0.499065  -0.342065  -0.440162  -0.337609
   47  H  4  S   -0.426913  -1.415322  -0.241963   1.115461  -0.690681
   48  H  4  X    0.008056  -0.036476   0.002655   0.012632  -0.031393
   49  H  4  Y   -0.011261  -0.050835   0.019338   0.025774  -0.022385
   50  H  4  Z    0.066222   0.053260   0.016255  -0.058282   0.010455
   51  H  5  S    0.561341  -0.499078   0.342068  -0.440151  -0.337610
   52  H  5  S   -0.426903   1.415342   0.241955   1.115444  -0.690684
   53  H  5  X    0.008056   0.036476  -0.002656   0.012631  -0.031393
   54  H  5  Y   -0.011260   0.050836  -0.019338   0.025773  -0.022385
   55  H  5  Z   -0.066222   0.053262   0.016255   0.058281  -0.010454
   56  F  6  S   -0.014166  -0.000000   0.000000  -0.014010   0.040769
   57  F  6  S    0.082848  -0.000000  -0.000000   0.034200  -0.193166
   58  F  6  S   -0.080943   0.000001  -0.000001   0.131718  -0.119342
   59  F  6  X    0.060777  -0.000000   0.000000  -0.015295  -0.057549
   60  F  6  Y   -0.038196   0.000001   0.000000   0.025137   0.132491
   61  F  6  Z   -0.000001  -0.124234   0.090910   0.000002   0.000000
   62  F  6  X   -0.005888   0.000001  -0.000001   0.133476  -0.128687
   63  F  6  Y   -0.016706  -0.000001   0.000000  -0.088621  -0.232133
   64  F  6  Z   -0.000000  -0.040355  -0.116180   0.000000   0.000000
   65  F  6 XX    0.005266   0.000000  -0.000000   0.009878  -0.011542
   66  F  6 YY   -0.008095   0.000000   0.000000  -0.002937   0.005222
   67  F  6 ZZ    0.002829  -0.000000   0.000000  -0.006940   0.006320
   68  F  6 XY   -0.005476  -0.000000  -0.000000  -0.007741  -0.038513
   69  F  6 XZ    0.000000   0.011412  -0.019584  -0.000000  -0.000000
   70  F  6 YZ    0.000000   0.005217  -0.017262  -0.000000   0.000000
   71  H  7  S    0.553612  -0.298253   0.500052   0.381867  -0.298475
   72  H  7  S   -0.552178  -0.362455  -1.419358  -1.078342  -0.677835
   73  H  7  X   -0.004298  -0.003102   0.036134   0.011886   0.029840
   74  H  7  Y    0.011122  -0.013191   0.051456   0.025952   0.021941
   75  H  7  Z    0.067852   0.020885   0.053901   0.052266   0.010428
   76  H  8  S    0.553615   0.298254  -0.500054   0.381859  -0.298476
   77  H  8  S   -0.552172   0.362444   1.419364  -1.078343  -0.677838
   78  H  8  X   -0.004297   0.003102  -0.036134   0.011886   0.029840
   79  H  8  Y    0.011122   0.013191  -0.051456   0.025951   0.021941
   80  H  8  Z   -0.067852   0.020885   0.053902  -0.052266  -0.010426

                     36         37         38         39         40
                    0.9096     0.9920     1.0004     1.0285     1.1274
                     A          A          A          A          A   
    1  C  1  S   -0.015708  -0.000000   0.001855   0.021168  -0.022904
    2  C  1  S   -0.861622  -0.000000   0.096538  -0.148684  -0.837591
    3  C  1  S    4.131377   0.000000  -0.177570  -0.918273   2.973083
    4  C  1  X   -0.110372  -0.000000   0.074181   0.196803  -0.043791
    5  C  1  Y   -0.118643   0.000000  -0.010761   0.158363  -0.016714
    6  C  1  Z    0.000000   0.004074  -0.000000  -0.000000   0.000001
    7  C  1  X    0.956449   0.000000   0.024729  -0.087468   1.123298
    8  C  1  Y   -0.958239   0.000000  -0.247933   0.114561  -0.427791
    9  C  1  Z   -0.000001  -0.130984  -0.000000  -0.000000   0.000002
   10  C  1 XX    0.158372  -0.000000   0.052039  -0.047402  -0.020512
   11  C  1 YY   -0.136480   0.000000  -0.129087  -0.098469   0.051554
   12  C  1 ZZ   -0.021892  -0.000000   0.077048   0.145871  -0.031042
   13  C  1 XY    0.019310   0.000000  -0.041604  -0.113295   0.042324
   14  C  1 XZ    0.000000  -0.198697  -0.000000   0.000000  -0.000000
   15  C  1 YZ    0.000000   0.088704  -0.000000  -0.000000  -0.000000
   16  C  2  S    0.019364  -0.000000  -0.007376  -0.003202   0.013655
   17  C  2  S    0.653833  -0.000000   0.289942  -0.518062   0.533812
   18  C  2  S   -4.023791   0.000000   0.061448   1.118828  -2.466655
   19  C  2  X   -0.181341  -0.000000   0.238127  -0.077709   0.233538
   20  C  2  Y   -0.180779  -0.000000   0.109967  -0.081141   0.038405
   21  C  2  Z   -0.000000  -0.009421   0.000000   0.000000  -0.000000
   22  C  2  X    0.960097  -0.000000   0.126241  -0.323918   0.196899
   23  C  2  Y   -0.972895  -0.000000  -0.229817   0.081651  -0.606859
   24  C  2  Z    0.000000  -0.163345   0.000000   0.000000  -0.000003
   25  C  2 XX   -0.170710  -0.000000   0.020909  -0.058294   0.051771
   26  C  2 YY    0.123757  -0.000000   0.140930   0.038046  -0.083602
   27  C  2 ZZ    0.046953   0.000000  -0.161840   0.020248   0.031831
   28  C  2 XY   -0.046176  -0.000000   0.124721  -0.043868   0.092368
   29  C  2 XZ    0.000000   0.188713  -0.000000  -0.000000   0.000000
   30  C  2 YZ    0.000000  -0.096215  -0.000000  -0.000000  -0.000000
   31  F  3  S   -0.054971  -0.000000   0.041040  -0.018747   0.001176
   32  F  3  S    0.211718   0.000000  -0.206727   0.110406  -0.022274
   33  F  3  S    0.325453  -0.000000   0.027589  -0.094385   0.254842
   34  F  3  X    0.442954   0.000000  -0.245451   0.281016  -0.445791
   35  F  3  Y   -0.126248   0.000000  -0.618561   0.123988   0.408827
   36  F  3  Z   -0.000000  -0.561993   0.000000   0.000000  -0.000001
   37  F  3  X   -0.900230  -0.000000   0.514460  -0.405793   0.624165
   38  F  3  Y   -0.007289  -0.000000   0.880432  -0.199146  -0.558568
   39  F  3  Z    0.000000   0.683004  -0.000001  -0.000001   0.000002
   40  F  3 XX    0.019159  -0.000000   0.041030  -0.026937   0.067919
   41  F  3 YY    0.003984   0.000000  -0.012003   0.005432  -0.014714
   42  F  3 ZZ   -0.023144   0.000000  -0.029027   0.021504  -0.053205
   43  F  3 XY   -0.025979  -0.000000   0.024925  -0.023117   0.006175
   44  F  3 XZ    0.000000  -0.004835  -0.000000  -0.000000   0.000000
   45  F  3 YZ    0.000000  -0.017465  -0.000000  -0.000000   0.000000
   46  H  4  S    0.267866   0.054368  -0.029533  -0.214869   0.179476
   47  H  4  S    0.161728  -0.029815  -0.045536  -0.071102   0.061219
   48  H  4  X    0.011281   0.103688  -0.051119  -0.000999  -0.060270
   49  H  4  Y   -0.006844  -0.013159  -0.088369  -0.009781   0.048525
   50  H  4  Z   -0.033023  -0.011919  -0.061290  -0.003858   0.014717
   51  H  5  S    0.267866  -0.054368  -0.029533  -0.214869   0.179475
   52  H  5  S    0.161728   0.029815  -0.045536  -0.071102   0.061218
   53  H  5  X    0.011281  -0.103688  -0.051119  -0.000999  -0.060271
   54  H  5  Y   -0.006844   0.013159  -0.088370  -0.009781   0.048526
   55  H  5  Z    0.033023  -0.011919   0.061290   0.003859  -0.014717
   56  F  6  S    0.049969   0.000000  -0.005918  -0.055115   0.010977
   57  F  6  S   -0.211168   0.000000   0.032053   0.323202  -0.048909
   58  F  6  S   -0.239515  -0.000000  -0.010807  -0.092443  -0.057453
   59  F  6  X    0.349473  -0.000000   0.103394  -0.407045   0.122253
   60  F  6  Y   -0.174952  -0.000000  -0.333580  -0.551752  -0.408040
   61  F  6  Z    0.000000  -0.552600  -0.000001  -0.000000   0.000002
   62  F  6  X   -0.723522   0.000000  -0.093790   0.709732  -0.323257
[...]
   27  C  2 ZZ    0.003005   0.000000   0.021199   0.037772   0.054919
   28  C  2 XY   -0.003421   0.000000  -0.027428   0.026229   0.044020
   29  C  2 XZ   -0.000000  -0.012444  -0.000000   0.000000   0.000000
   30  C  2 YZ    0.000000  -0.010115   0.000000   0.000000  -0.000001
   31  F  3  S    0.018092   0.000000   0.059480   0.012046   0.001546
   32  F  3  S   -0.036276  -0.000000  -0.100593  -0.025087   0.023823
   33  F  3  S   -0.137609   0.000000  -0.571917  -0.097678  -0.142292
   34  F  3  X    0.104556   0.000000   0.169165   0.159878  -0.005842
   35  F  3  Y    0.022737   0.000000   0.200955  -0.055554  -0.068150
   36  F  3  Z   -0.000000   0.092788   0.000000   0.000000   0.000002
   37  F  3  X    0.122978   0.000000   0.235880   0.201261   0.092815
   38  F  3  Y    0.055258  -0.000000   0.193993  -0.115537  -0.136905
   39  F  3  Z   -0.000001   0.120310   0.000000  -0.000000   0.000001
   40  F  3 XX   -0.000772   0.000000   0.002177   0.012398  -0.008952
   41  F  3 YY    0.002431  -0.000000  -0.001405  -0.014264  -0.001381
   42  F  3 ZZ   -0.001659  -0.000000  -0.000772   0.001866   0.010332
   43  F  3 XY    0.003021   0.000000   0.009881   0.003086   0.004401
   44  F  3 XZ   -0.000000   0.008275  -0.000000   0.000000   0.000000
   45  F  3 YZ   -0.000000  -0.000501  -0.000000   0.000000  -0.000000
   46  H  4  S   -0.058143   0.037127  -0.012223   0.076513   0.262430
   47  H  4  S   -0.935365   1.321893   0.003430   0.435793   0.077710
   48  H  4  X    0.002489  -0.004012   0.017216  -0.007218  -0.013054
   49  H  4  Y    0.009218  -0.012674   0.011065   0.010950   0.025783
   50  H  4  Z   -0.008311   0.010240   0.007019   0.016294   0.005571
   51  H  5  S   -0.058141  -0.037126  -0.012223   0.076513   0.262418
   52  H  5  S   -0.935329  -1.321890   0.003436   0.435800   0.077717
   53  H  5  X    0.002489   0.004012   0.017216  -0.007218  -0.013055
   54  H  5  Y    0.009218   0.012674   0.011065   0.010950   0.025784
   55  H  5  Z    0.008311   0.010240  -0.007019  -0.016294  -0.005571
   56  F  6  S   -0.018107  -0.000000   0.059434  -0.012062   0.001552
   57  F  6  S    0.036297   0.000000  -0.100490   0.025101   0.023864
   58  F  6  S    0.137754   0.000000  -0.571586   0.097921  -0.142610
   59  F  6  X    0.104572   0.000000  -0.168926   0.159904   0.005935
   60  F  6  Y    0.022761   0.000000  -0.201044  -0.055411   0.068146
   61  F  6  Z   -0.000000  -0.092782   0.000000  -0.000000   0.000002
   62  F  6  X    0.123012   0.000000  -0.235625   0.201317  -0.092943
   63  F  6  Y    0.055274  -0.000000  -0.194085  -0.115360   0.136838
   64  F  6  Z   -0.000001  -0.120293   0.000000   0.000000   0.000001
   65  F  6 XX    0.000775  -0.000000   0.002166  -0.012395  -0.008974
   66  F  6 YY   -0.002432   0.000000  -0.001395   0.014262  -0.001375
   67  F  6 ZZ    0.001657  -0.000000  -0.000771  -0.001867   0.010349
   68  F  6 XY   -0.003021  -0.000000   0.009886  -0.003101   0.004388
   69  F  6 XZ    0.000000   0.008273   0.000000  -0.000000  -0.000000
   70  F  6 YZ    0.000000  -0.000501   0.000000   0.000000   0.000000
   71  H  7  S    0.058128  -0.037091  -0.012200  -0.076521   0.262402
   72  H  7  S    0.935229  -1.321911   0.003437  -0.435916   0.077937
   73  H  7  X    0.002487  -0.004007  -0.017212  -0.007217   0.013062
   74  H  7  Y    0.009221  -0.012673  -0.011063   0.010956  -0.025784
   75  H  7  Z    0.008309  -0.010240   0.007013  -0.016298   0.005571
   76  H  8  S    0.058132   0.037090  -0.012201  -0.076520   0.262390
   77  H  8  S    0.935265   1.321906   0.003444  -0.435924   0.077943
   78  H  8  X    0.002487   0.004007  -0.017212  -0.007217   0.013063
   79  H  8  Y    0.009221   0.012673  -0.011063   0.010956  -0.025785
   80  H  8  Z   -0.008310  -0.010239  -0.007013   0.016299  -0.005572

                     26         27
                    0.3655     0.3956
                     A          A   
    1  C  1  S    0.000000  -0.010555
    2  C  1  S   -0.000002   0.163275
    3  C  1  S   -0.000006  -0.146784
    4  C  1  X   -0.000003  -0.642553
    5  C  1  Y    0.000003  -0.079788
    6  C  1  Z    0.014610  -0.000000
    7  C  1  X    0.000002   0.637603
    8  C  1  Y   -0.000015   0.329408
    9  C  1  Z    0.507579   0.000002
   10  C  1 XX   -0.000000  -0.031173
   11  C  1 YY   -0.000000   0.042136
   12  C  1 ZZ    0.000001  -0.010963
   13  C  1 XY    0.000000  -0.050361
   14  C  1 XZ    0.027772  -0.000000
   15  C  1 YZ   -0.106998  -0.000000
   16  C  2  S    0.000000   0.010558
   17  C  2  S   -0.000002  -0.163284
   18  C  2  S   -0.000006   0.146456
   19  C  2  X    0.000003  -0.642040
   20  C  2  Y   -0.000002  -0.079629
   21  C  2  Z    0.014454   0.000000
   22  C  2  X   -0.000002   0.636614
   23  C  2  Y    0.000014   0.329038
   24  C  2  Z    0.508041  -0.000002
   25  C  2 XX   -0.000000   0.031184
   26  C  2 YY   -0.000000  -0.042165
   27  C  2 ZZ    0.000001   0.010981
   28  C  2 XY    0.000000   0.050366
   29  C  2 XZ   -0.027732  -0.000000
   30  C  2 YZ    0.107011  -0.000000
   31  F  3  S    0.000000   0.014630
   32  F  3  S    0.000000   0.011430
   33  F  3  S   -0.000002  -0.385515
   34  F  3  X    0.000000  -0.171912
   35  F  3  Y   -0.000001  -0.161836
   36  F  3  Z   -0.135436   0.000000
   37  F  3  X    0.000001   0.099095
   38  F  3  Y   -0.000002  -0.000659
   39  F  3  Z   -0.083521   0.000000
   40  F  3 XX   -0.000000  -0.026115
   41  F  3 YY   -0.000000   0.002160
   42  F  3 ZZ    0.000000   0.023955
   43  F  3 XY    0.000000  -0.037359
   44  F  3 XZ   -0.011167   0.000000
   45  F  3 YZ    0.004954   0.000000
   46  H  4  S   -0.572321   0.095911
   47  H  4  S    0.175417   0.046921
   48  H  4  X   -0.010777  -0.009708
   49  H  4  Y    0.034072   0.009782
   50  H  4  Z    0.001847   0.005681
   51  H  5  S    0.572329   0.095910
   52  H  5  S   -0.175415   0.046921
   53  H  5  X    0.010777  -0.009707
   54  H  5  Y   -0.034071   0.009782
   55  H  5  Z    0.001847  -0.005681
   56  F  6  S    0.000000  -0.014638
   57  F  6  S    0.000000  -0.011490
   58  F  6  S   -0.000002   0.385986
   59  F  6  X   -0.000000  -0.172087
   60  F  6  Y    0.000001  -0.161812
   61  F  6  Z   -0.135394  -0.000000
   62  F  6  X   -0.000002   0.099171
   63  F  6  Y    0.000002  -0.000547
   64  F  6  Z   -0.083491  -0.000000
   65  F  6 XX   -0.000000   0.026116
   66  F  6 YY   -0.000000  -0.002145
   67  F  6 ZZ    0.000000  -0.023971
   68  F  6 XY    0.000000   0.037378
   69  F  6 XZ    0.011170   0.000000
   70  F  6 YZ   -0.004950   0.000000
   71  H  7  S   -0.572228  -0.095893
   72  H  7  S    0.175482  -0.046900
   73  H  7  X    0.010792  -0.009713
   74  H  7  Y   -0.034080   0.009776
   75  H  7  Z    0.001838  -0.005683
   76  H  8  S    0.572236  -0.095892
   77  H  8  S   -0.175480  -0.046899
   78  H  8  X   -0.010792  -0.009713
   79  H  8  Y    0.034079   0.009776
   80  H  8  Z    0.001838   0.005683

     ---------------------------------------------------------------------
     PROPERTIES FOR THE PBE      DFT FUNCTIONAL (RHF  TYPE) DENSITY MATRIX
     ---------------------------------------------------------------------

          -----------------
          ENERGY COMPONENTS
          -----------------

         WAVEFUNCTION NORMALIZATION =       1.0000000000

                ONE ELECTRON ENERGY =    -630.9579077837
                TWO ELECTRON ENERGY =     228.3908816058
           NUCLEAR REPULSION ENERGY =     124.6300187968
                                      ------------------
                       TOTAL ENERGY =    -277.9370073811

 ELECTRON-ELECTRON POTENTIAL ENERGY =     228.3908816058
  NUCLEUS-ELECTRON POTENTIAL ENERGY =    -908.0241076476
   NUCLEUS-NUCLEUS POTENTIAL ENERGY =     124.6300187968
                                      ------------------
             TOTAL POTENTIAL ENERGY =    -555.0032072449
               TOTAL KINETIC ENERGY =     277.0661998638
                 VIRIAL RATIO (V/T) =       2.0031429583

          ---------------------------------------
          MULLIKEN AND LOWDIN POPULATION ANALYSES
          ---------------------------------------

     ATOMIC MULLIKEN POPULATION IN EACH MOLECULAR ORBITAL

                      1          2          3          4          5

                  2.000000   2.000000   2.000000   2.000000   2.000000

    1             0.000462   0.000705   1.025481   0.974300   0.107866
    2             0.000766   0.000401   0.973811   1.025970   0.108471
    3             1.214038   0.784806  -0.000243  -0.000275   0.886828
    4             0.000003  -0.000009   0.000298   0.000071   0.004144
    5             0.000003  -0.000009   0.000298   0.000071   0.004144
    6             0.784723   1.214122  -0.000257  -0.000262   0.880290
    7             0.000002  -0.000009   0.000306   0.000063   0.004129
    8             0.000002  -0.000009   0.000306   0.000063   0.004129

                      6          7          8          9         10

                  2.000000   2.000000   2.000000   2.000000   2.000000

    1             0.089078   0.692460   0.490328   0.529666   0.325223
    2             0.088513   0.692567   0.490240   0.529588   0.325366
    3             0.905302   0.174284   0.253302   0.220177   0.584793
    4             0.001305   0.066580   0.128209   0.125075   0.045140
    5             0.001305   0.066582   0.128212   0.125073   0.045142
    6             0.911855   0.174346   0.253228   0.220201   0.584034
    7             0.001321   0.066589   0.128239   0.125110   0.045150
    8             0.001321   0.066591   0.128242   0.125110   0.045151

                     11         12         13         14         15

                  2.000000   2.000000   2.000000   2.000000   2.000000

    1             0.386371   0.336284   0.296144   0.052412   0.110845
    2             0.386328   0.336296   0.296150   0.052438   0.110772
    3             0.607502   0.459023   0.518592   0.906189   0.764075
    4             0.002950   0.102358   0.092703   0.020616   0.062275
    5             0.002950   0.102360   0.092701   0.020616   0.062275
    6             0.608022   0.458968   0.518243   0.906565   0.765041
    7             0.002939   0.102355   0.092734   0.020582   0.062358
    8             0.002939   0.102357   0.092733   0.020582   0.062358

                     16         17

                  2.000000   2.000000

    1             0.171228   0.294377
    2             0.171390   0.294365
    3             0.447946   0.601687
    4             0.190604   0.051993
    5             0.190601   0.051993
    6             0.447319   0.601631
    7             0.190457   0.051978
    8             0.190455   0.051978

               ----- POPULATIONS IN EACH AO -----
                             MULLIKEN      LOWDIN
              1  C  1  S      1.99340     1.97168
              2  C  1  S      0.76210     0.38622
              3  C  1  S      0.37131     0.28132
              4  C  1  X      0.56735     0.52604
              5  C  1  Y      0.71363     0.64740
              6  C  1  Z      0.77987     0.70016
              7  C  1  X      0.09660     0.20562
              8  C  1  Y      0.22967     0.32519
              9  C  1  Z      0.30604     0.40131
             10  C  1 XX      0.00890     0.16359
             11  C  1 YY      0.01376     0.14998
             12  C  1 ZZ      0.01861     0.15500
             13  C  1 XY      0.00932     0.03707
             14  C  1 XZ      0.01265     0.01830
             15  C  1 YZ      0.00000     0.03253
             16  C  2  S      1.99339     1.97168
             17  C  2  S      0.76208     0.38621
             18  C  2  S      0.37140     0.28132
             19  C  2  X      0.56733     0.52602
             20  C  2  Y      0.71368     0.64744
             21  C  2  Z      0.77987     0.70015
             22  C  2  X      0.09660     0.20561
             23  C  2  Y      0.22977     0.32524
             24  C  2  Z      0.30606     0.40132
             25  C  2 XX      0.00890     0.16361
             26  C  2 YY      0.01377     0.14997
             27  C  2 ZZ      0.01862     0.15499
             28  C  2 XY      0.00932     0.03708
             29  C  2 XZ      0.01265     0.01832
             30  C  2 YZ      0.00000     0.03252
             31  F  3  S      1.99544     1.97164
             32  F  3  S      0.94917     0.75172
             33  F  3  S      0.99908     0.52547
             34  F  3  X      1.00609     0.95931
             35  F  3  Y      1.16755     1.13360
             36  F  3  Z      1.23796     1.20857
             37  F  3  X      0.57988     0.61407
             38  F  3  Y      0.67212     0.70112
             39  F  3  Z      0.71029     0.73759
             40  F  3 XX      0.00138     0.19602
             41  F  3 YY      0.00296     0.19084
             42  F  3 ZZ      0.00356     0.18829
             43  F  3 XY      0.00187     0.00459
             44  F  3 XZ      0.00067     0.00296
             45  F  3 YZ      0.00000     0.00108
             46  H  4  S      0.77018     0.65165
             47  H  4  S      0.10744     0.21621
             48  H  4  X      0.00203     0.00578
             49  H  4  Y      0.00587     0.01377
             50  H  4  Z      0.00879     0.01842
             51  H  5  S      0.77018     0.65165
             52  H  5  S      0.10745     0.21621
             53  H  5  X      0.00203     0.00578
             54  H  5  Y      0.00587     0.01377
             55  H  5  Z      0.00879     0.01842
             56  F  6  S      1.99544     1.97164
             57  F  6  S      0.94917     0.75172
             58  F  6  S      0.99910     0.52548
             59  F  6  X      1.00616     0.95939
             60  F  6  Y      1.16746     1.13351
             61  F  6  Z      1.23796     1.20858
             62  F  6  X      0.57995     0.61412
             63  F  6  Y      0.67209     0.70109
             64  F  6  Z      0.71031     0.73760
             65  F  6 XX      0.00138     0.19602
             66  F  6 YY      0.00296     0.19085
             67  F  6 ZZ      0.00356     0.18829
             68  F  6 XY      0.00187     0.00459
             69  F  6 XZ      0.00067     0.00296
             70  F  6 YZ      0.00000     0.00109
             71  H  7  S      0.77018     0.65165
             72  H  7  S      0.10743     0.21620
             73  H  7  X      0.00203     0.00579
             74  H  7  Y      0.00587     0.01377
             75  H  7  Z      0.00879     0.01842
             76  H  8  S      0.77018     0.65165
             77  H  8  S      0.10743     0.21620
             78  H  8  X      0.00203     0.00579
             79  H  8  Y      0.00587     0.01377
             80  H  8  Z      0.00879     0.01842

          ----- MULLIKEN ATOMIC OVERLAP POPULATIONS -----
          (OFF-DIAGONAL ELEMENTS NEED TO BE MULTIPLIED BY 2)

             1           2           3           4           5

    1    4.6161766
    2    0.3895639   4.6163971
    3   -0.0343855   0.2334567   9.1703292
    4   -0.0380529   0.3772430  -0.0271060   0.6280485
    5   -0.0380534   0.3772483  -0.0271063  -0.0477066   0.6280452
    6    0.2334466  -0.0343952   0.0005526   0.0061464   0.0061463
    7    0.3772649  -0.0380397   0.0061420  -0.0187332   0.0144750
    8    0.3772696  -0.0380403   0.0061419   0.0144751  -0.0187319

             6           7           8

    6    9.1703850
    7   -0.0271051   0.6280069
    8   -0.0271053  -0.0477072   0.6280039

          TOTAL MULLIKEN AND LOWDIN ATOMIC POPULATIONS
       ATOM         MULL.POP.    CHARGE          LOW.POP.     CHARGE
    1 C             5.883230    0.116770         6.001411   -0.001411
    2 C             5.883434    0.116566         6.001470   -0.001470
    3 F             9.328025   -0.328025         9.186867   -0.186867
    4 H             0.894314    0.105686         0.905840    0.094160
    5 H             0.894317    0.105683         0.905839    0.094161
    6 F             9.328071   -0.328071         9.186905   -0.186905
    7 H             0.894304    0.105696         0.905833    0.094167
    8 H             0.894306    0.105694         0.905833    0.094167

          MULLIKEN SPHERICAL HARMONIC POPULATIONS
       ATOM           S       P       D      F      G      H      I    TOTAL
    1 C             3.13    2.69    0.06   0.00   0.00   0.00   0.00    5.88
    2 C             3.13    2.69    0.06   0.00   0.00   0.00   0.00    5.88
    3 F             3.94    5.37    0.01   0.00   0.00   0.00   0.00    9.33
    4 H             0.88    0.02    0.00   0.00   0.00   0.00   0.00    0.89
    5 H             0.88    0.02    0.00   0.00   0.00   0.00   0.00    0.89
    6 F             3.94    5.37    0.01   0.00   0.00   0.00   0.00    9.33
    7 H             0.88    0.02    0.00   0.00   0.00   0.00   0.00    0.89
    8 H             0.88    0.02    0.00   0.00   0.00   0.00   0.00    0.89

          -------------------------------
          BOND ORDER AND VALENCE ANALYSIS     BOND ORDER THRESHOLD=0.050
          -------------------------------

                   BOND                       BOND                       BOND
  ATOM PAIR DIST  ORDER      ATOM PAIR DIST  ORDER      ATOM PAIR DIST  ORDER
    1   2  1.519  1.048        1   6  1.400  0.910        1   7  1.107  0.938
    1   8  1.107  0.938        2   3  1.400  0.910        2   4  1.107  0.938
    2   5  1.107  0.938

                       TOTAL       BONDED        FREE
      ATOM            VALENCE     VALENCE     VALENCE
    1 C                 3.849       3.849       0.000
    2 C                 3.849       3.849       0.000
    3 F                 0.982       0.982      -0.000
    4 H                 0.950       0.950       0.000
    5 H                 0.950       0.950      -0.000
    6 F                 0.982       0.982      -0.000
    7 H                 0.950       0.950       0.000
    8 H                 0.950       0.950      -0.000

          ---------------------
          ELECTROSTATIC MOMENTS
          ---------------------

 POINT   1           X           Y           Z (BOHR)    CHARGE
                -0.000000    0.000000    0.000000       -0.00 (A.U.)
         DX          DY          DZ         /D/  (DEBYE)
    -0.000199    0.000701   -0.000011    0.000729
 ...... END OF PROPERTY EVALUATION ......
 STEP CPU TIME =     0.02 TOTAL CPU TIME =         88.2 (      1.5 MIN)
 TOTAL WALL CLOCK TIME=         88.8 SECONDS, CPU UTILIZATION IS    99.30%
  $VIB   
          IVIB=   0 IATOM=   0 ICOORD=   0 E=     -277.9370073811
 -3.609392886E-05 4.868267356E-06 2.221678170E-09 6.963350593E-05 2.637486898E-05
  1.396591995E-09-7.842504042E-06-8.865934944E-06-8.588674577E-10-1.826205115E-05
 -9.475753841E-06 7.248367442E-06-1.826191268E-05-9.474794756E-06-7.249133884E-06
  1.400693958E-06-6.154616733E-06-5.094636316E-10 4.712772662E-06 1.364234396E-06
  5.688254098E-07 4.713424179E-06 1.363729541E-06-5.703089064E-07
 -1.994631880E-04 7.011571788E-04-1.055903089E-05
 ......END OF GEOMETRY SEARCH......
 STEP CPU TIME =     0.00 TOTAL CPU TIME =         88.2 (      1.5 MIN)
 TOTAL WALL CLOCK TIME=         88.8 SECONDS, CPU UTILIZATION IS    99.29%
                991181  WORDS OF DYNAMIC MEMORY USED
 EXECUTION OF GAMESS TERMINATED NORMALLY Sun Oct  6 23:49:21 2019
 DDI: 263640 bytes (0.3 MB / 0 MWords) used by master data server.

 ----------------------------------------
 CPU timing information for all processes
 ========================================
 0: 86.734 + 1.446 = 88.181
 ----------------------------------------
 ddikick.x: exited gracefully.
----- accounting info -----
Files used on the master node d12chas543.crc.nd.edu were:
-rw-r--r-- 1 wschnei1 campus 378327 Oct  6 23:49 /scratch365/wschnei1/180-PC1.F07
Sun Oct  6 23:49:24 EDT 2019
0.440u 0.350s 1:32.52 0.8%	0+0k 0+32io 0pf+0w
