----- GAMESS execution script 'rungms' -----
This job is running on host d12chas543.crc.nd.edu
under operating system Linux at Sun Oct 6 23:21:54 EDT 2019
SGE has assigned the following compute nodes to this run:
Available scratch disk space (Kbyte units) at beginning of the job is
Filesystem      1K-blocks     Used  Available Use% Mounted on
/dev/sda2      1949705068 63983468 1885721600   4% /
GAMESS temporary binary files will be written to /tmp/474112.1.debug
GAMESS supplementary output files will be written to /afs/crc.nd.edu/user/w/wschnei1/scr
Copying input file 20-PC1.inp to your run's scratch directory...
reading your own /afs/crc.nd.edu/user/w/wschnei1/.gmsrc

 Distributed Data Interface kickoff program.
 Initiating 1 compute processes on 1 nodes to run the following command:
 /afs/crc.nd.edu/x86_64_linux/g/gamess/nov-2017/gamess/gamess.00.x 20-PC1 

          ******************************************************
          *         GAMESS VERSION = 11 NOV 2017 (R3)         *
          *             FROM IOWA STATE UNIVERSITY             *
          * M.W.SCHMIDT, K.K.BALDRIDGE, J.A.BOATZ, S.T.ELBERT, *
          *   M.S.GORDON, J.H.JENSEN, S.KOSEKI, N.MATSUNAGA,   *
          *          K.A.NGUYEN, S.J.SU, T.L.WINDUS,           *
          *       TOGETHER WITH M.DUPUIS, J.A.MONTGOMERY       *
          *         J.COMPUT.CHEM.  14, 1347-1363(1993)        *
          **************** 64 BIT INTEL VERSION ****************

  SINCE 1993, STUDENTS AND POSTDOCS WORKING AT IOWA STATE UNIVERSITY
  AND ALSO IN THEIR VARIOUS JOBS AFTER LEAVING ISU HAVE MADE IMPORTANT
  CONTRIBUTIONS TO THE CODE:
     IVANA ADAMOVIC, CHRISTINE AIKENS, YURI ALEXEEV, POOJA ARORA,
     ANDREY ASADCHEV, ROB BELL, PRADIPTA BANDYOPADHYAY, JONATHAN BENTZ,
     BRETT BODE, KURT BRORSEN, CALEB CARLIN, GALINA CHABAN, WEI CHEN,
     CHEOL HO CHOI, PAUL DAY, ALBERT DEFUSCO, NUWAN DESILVA, TIM DUDLEY,
     DMITRI FEDOROV, ALEX FINDLATER, GRAHAM FLETCHER, MARK FREITAG,
     KURT GLAESEMANN, ANASTASIA GUININA,
     DAN KEMP, GRANT MERRILL, NORIYUKI MINEZAWA, JONATHAN MULLIN,
     TAKESHI NAGATA, SEAN NEDD, HEATHER NETZLOFF, BOSILJKA NJEGIC, RYAN OLSON,
     MIKE PAK, BUU PHAM,
     SPENCER PRUITT, LUKE ROSKOP, JIM SHOEMAKER, LYUDMILA SLIPCHENKO,
     TONY SMITH, SAROM SOK LEANG, JIE SONG, TETSUYA TAKETSUGU, SIMON WEBB,
     PENG XU, SOOHAENG YOO, FEDERICO ZAHARIEV

  ADDITIONAL CODE HAS BEEN PROVIDED BY COLLABORATORS IN OTHER GROUPS:
     IOWA STATE UNIVERSITY:
          JOE IVANIC, AARON WEST, LAIMUTIS BYTAUTAS, KLAUS RUEDENBERG
     UNIVERSITY OF TOKYO: KIMIHIKO HIRAO, TAKAHITO NAKAJIMA,
          TAKAO TSUNEDA, MUNEAKI KAMIYA, SUSUMU YANAGISAWA,
          KIYOSHI YAGI, MAHITO CHIBA, SEIKEN TOKURA, NAOAKI KAWAKAMI
     UNIVERSITY OF AARHUS: FRANK JENSEN
     UNIVERSITY OF IOWA: VISVALDAS KAIRYS, HUI LI
     NATIONAL INST. OF STANDARDS AND TECHNOLOGY: WALT STEVENS, DAVID GARMER
     UNIVERSITY OF PISA: BENEDETTA MENNUCCI, JACOPO TOMASI
     UNIVERSITY OF MEMPHIS: HENRY KURTZ, PRAKASHAN KORAMBATH
     UNIVERSITY OF ALBERTA: TOBY ZENG, MARIUSZ KLOBUKOWSKI
     UNIVERSITY OF NEW ENGLAND: MARK SPACKMAN
     MIE UNIVERSITY: HIROAKI UMEDA
     NAT. INST. OF ADVANCED INDUSTRIAL SCIENCE AND TECHNOLOGY: KAZUO KITAURA
     MICHIGAN STATE UNIVERSITY:
          KAROL KOWALSKI, MARTA WLOCH, JEFFREY GOUR, JESSE LUTZ,
          WEI LI, PIOTR PIECUCH
     UNIVERSITY OF SILESIA: MONIKA MUSIAL, STANISLAW KUCHARSKI
     FACULTES UNIVERSITAIRES NOTRE-DAME DE LA PAIX:
          OLIVIER QUINET, BENOIT CHAMPAGNE
     UNIVERSITY OF CALIFORNIA - SANTA BARBARA: BERNARD KIRTMAN
     INSTITUTE FOR MOLECULAR SCIENCE:
          KAZUYA ISHIMURA, MICHIO KATOUDA, AND SHIGERU NAGASE
     UNIVERSITY OF NOTRE DAME: ANNA POMOGAEVA, DAN CHIPMAN
     KYUSHU UNIVERSITY:
          HARUYUKI NAKANO,
          FENG LONG GU, JACEK KORCHOWIEC, MARCIN MAKOWSKI, AND YURIKO AOKI,
          HIROTOSHI MORI AND EISAKU MIYOSHI
     PENNSYLVANIA STATE UNIVERSITY:
          TZVETELIN IORDANOV, CHET SWALINA, JONATHAN SKONE,
          SHARON HAMMES-SCHIFFER
     WASEDA UNIVERSITY:
          MASATO KOBAYASHI, TOMOKO AKAMA, TSUGUKI TOUMA,
          TAKESHI YOSHIKAWA, YASUHIRO IKABATA, JUNJI SEINO,
          YUYA NAKAJIMA, HIROMI NAKAI
     NANJING UNIVERSITY: SHUHUA LI
     UNIVERSITY OF NEBRASKA:
          PEIFENG SU, DEJUN SI, NANDUN THELLAMUREGE, YALI WANG, HUI LI
     UNIVERSITY OF ZURICH: ROBERTO PEVERATI, KIM BALDRIDGE
     N. COPERNICUS UNIVERSITY AND JACKSON STATE UNIVERSITY:
          MARIA BARYSZ
     UNIVERSITY OF COPENHAGEN: Jimmy Kromann, CASPER STEINMANN
     TOKYO INSTITUTE OF TECHNOLOGY: HIROYA NAKATA
     NAGOYA UNIVERSITY: YOSHIO NISHIMOTO, STEPHAN IRLE
     MOSCOW STATE UNIVERSITY: VLADIMIR MIRONOV

 EXECUTION OF GAMESS BEGUN Sun Oct  6 23:21:54 2019

            ECHO OF THE FIRST FEW INPUT CARDS -
 INPUT CARD> $CONTRL SCFTYP=RHF DFTTYP=PBE RUNTYP=OPTIMIZE COORD=ZMT NZVAR=18 ISPHER=1 $END 
 INPUT CARD> $BASIS GBASIS=PCseg-1 $END                                                     
 INPUT CARD> $STATPT IFREEZ(1)=12 $END                                                      
 INPUT CARD> $DATA                                                                          
 INPUT CARD>FCH2CH2F eclipsed TS                                                            
 INPUT CARD>C1                                                                              
 INPUT CARD>C                                                                               
 INPUT CARD>C   1   r1                                                                      
 INPUT CARD>F   2   r2   1   A1                                                             
 INPUT CARD>H   2   r3   1   A2   3   D1                                                    
 INPUT CARD>H   2   r4   1   A3   3   D2                                                    
 INPUT CARD>F   1   r5   2   A4   3   D3                                                    
 INPUT CARD>H   1   r6   2   A5   6   D4                                                    
 INPUT CARD>H   1   r7   2   A6   6   D5                                                    
 INPUT CARD>                                                                                
 INPUT CARD>r1=1.5                                                                          
 INPUT CARD>r2=1.4                                                                          
 INPUT CARD>r3=1.1                                                                          
 INPUT CARD>r4=1.1                                                                          
 INPUT CARD>r5=1.5                                                                          
 INPUT CARD>r6=1.1                                                                          
 INPUT CARD>r7=1.1                                                                          
 INPUT CARD>A1=109.54214                                                                    
 INPUT CARD>A2=109.54214                                                                    
 INPUT CARD>A3=109.54214                                                                    
 INPUT CARD>A4=109.54214                                                                    
 INPUT CARD>A5=109.54214                                                                    
 INPUT CARD>A6=109.54214                                                                    
 INPUT CARD>D1=120.                                                                         
 INPUT CARD>D2=-120.                                                                        
 INPUT CARD>D3=20                                                                           
 INPUT CARD>D4=120.                                                                         
 INPUT CARD>D5=-120.                                                                        
 INPUT CARD> $END                                                                           
 INPUT CARD>                                                                                
    1000000 WORDS OF MEMORY AVAILABLE

     BASIS OPTIONS
     -------------
     GBASIS=PCSEG-1      IGAUSS=       0      POLAR=NONE    
     NDFUNC=       0     NFFUNC=       0     DIFFSP=       F
     NPFUNC=       0      DIFFS=       F     BASNAM=        


     RUN TITLE
     ---------
 FCH2CH2F eclipsed TS                                                            

 THE POINT GROUP OF THE MOLECULE IS C1      
 THE ORDER OF THE PRINCIPAL AXIS IS     0

 YOUR FULLY SUBSTITUTED Z-MATRIX IS
 C   
 C      1   1.5000000
 F      2   1.4000000  1  109.5421
 H      2   1.1000000  1  109.5421  3  120.0000  0
 H      2   1.1000000  1  109.5421  3 -120.0000  0
 F      1   1.5000000  2  109.5421  3   20.0000  0
 H      1   1.1000000  2  109.5421  6  120.0000  0
 H      1   1.1000000  2  109.5421  6 -120.0000  0

 THE MOMENTS OF INERTIA ARE (AMU-ANGSTROM**2)
 IXX=    37.153   IYY=    81.975   IZZ=   111.649

 ATOM      ATOMIC                      COORDINATES (BOHR)
           CHARGE         X                   Y                   Z
 C           6.0    -1.2981360941       -1.4847054027        0.2019290922
 C           6.0     1.5012225831       -1.3172818520       -0.2109329252
 F           9.0     2.2944803534        1.1864903626        0.1071124365
 H           1.0     2.4805368379       -2.5316453459        1.1628402396
 H           1.0     1.9586828136       -1.9469609406       -2.1384240916
 F           9.0    -2.4562939660        1.0849359200       -0.0989172320
 H           1.0    -2.1299120355       -2.7843300126       -1.1909501094
 H           1.0    -1.6770928278       -2.1926914442        2.1192541488

          INTERNUCLEAR DISTANCES (ANGS.)
          ------------------------------

                1 C          2 C          3 F          4 H          5 H     

   1 C       0.0000000    1.5000000 *  2.3695781 *  2.1363170 *  2.1363170 *
   2 C       1.5000000 *  0.0000000    1.4000000 *  1.1000000 *  1.1000000 *
   3 F       2.3695781 *  1.4000000 *  0.0000000    2.0476979 *  2.0476979 *
   4 H       2.1363170 *  1.1000000 *  2.0476979 *  0.0000000    1.7955050 *
   5 H       2.1363170 *  1.1000000 *  2.0476979 *  1.7955050 *  0.0000000  
   6 F       1.5000000 *  2.4505612 *  2.5169385 *  3.3065741    3.0326985  
   7 H       1.1000000 *  2.1363170 *  3.2200611    2.7425689 *  2.2646995 *
   8 H       1.1000000 *  2.1363170 *  2.9577637 *  2.2646995 *  2.9656158 *

                6 F          7 H          8 H     

   1 C       1.5000000 *  1.1000000 *  1.1000000 *
   2 C       2.4505612 *  2.1363170 *  2.1363170 *
   3 F       2.5169385 *  3.2200611    2.9577637 *
   4 H       3.3065741    2.7425689 *  2.2646995 *
   5 H       3.0326985    2.2646995 *  2.9656158 *
   6 F       0.0000000    2.1345124 *  2.1345124 *
   7 H       2.1345124 *  0.0000000    1.7955050 *
   8 H       2.1345124 *  1.7955050 *  0.0000000  

  * ... LESS THAN  3.000


     ATOMIC BASIS SET
     ----------------
 THE CONTRACTED PRIMITIVE FUNCTIONS HAVE BEEN UNNORMALIZED
 THE CONTRACTED BASIS FUNCTIONS ARE NOW NORMALIZED TO UNITY

  SHELL TYPE  PRIMITIVE        EXPONENT          CONTRACTION COEFFICIENT(S)

 C         

      1   S       1          1243.2000000    0.005630097702
      1   S       2           187.1450000    0.041950603854
      1   S       3            42.5126000    0.184664360492
      1   S       4            11.7393000    0.466557421368
      1   S       5             3.5054800    0.448234778316

      2   S       6             5.3908900   -0.148114817444
      2   S       7             0.4933410    1.051981714281

      3   S       8             0.1497410    1.000000000000

      4   P       9             9.1805600    0.063992052045
      4   P      10             1.9365800    0.333521296407
      4   P      11             0.5262960    0.741161730513

      5   P      12             0.1363190    1.000000000000

      6   D      13             0.8000000    1.000000000000

 C         

      7   S      14          1243.2000000    0.005630097702
      7   S      15           187.1450000    0.041950603854
      7   S      16            42.5126000    0.184664360492
      7   S      17            11.7393000    0.466557421368
      7   S      18             3.5054800    0.448234778316

      8   S      19             5.3908900   -0.148114817444
      8   S      20             0.4933410    1.051981714281

      9   S      21             0.1497410    1.000000000000

     10   P      22             9.1805600    0.063992052045
     10   P      23             1.9365800    0.333521296407
     10   P      24             0.5262960    0.741161730513

     11   P      25             0.1363190    1.000000000000

     12   D      26             0.8000000    1.000000000000

 F         

     13   S      27          2931.5500000    0.005390132259
     13   S      28           441.1250000    0.040296704072
     13   S      29           100.2320000    0.180202178717
     13   S      30            27.8655000    0.465064284210
     13   S      31             8.4447000    0.452433138251

     14   S      32            13.6123000   -0.151660908297
     14   S      33             1.2612200    1.053515343452

     15   S      34             0.3708000    1.000000000000

     16   P      35            21.9305000    0.070356827475
     16   P      36             4.7855200    0.356742371235
     16   P      37             1.2837800    0.719732016372

     17   P      38             0.3115580    1.000000000000

     18   D      39             1.1000000    1.000000000000

 H         

     19   S      40            12.2518000    0.037217389296
     19   S      41             1.8687100    0.253808206955
     19   S      42             0.4182080    0.797386763917

     20   S      43             0.1061000    1.000000000000

     21   P      44             1.0000000    1.000000000000

 H         

     22   S      45            12.2518000    0.037217389296
     22   S      46             1.8687100    0.253808206955
     22   S      47             0.4182080    0.797386763917

     23   S      48             0.1061000    1.000000000000

     24   P      49             1.0000000    1.000000000000

 F         

     25   S      50          2931.5500000    0.005390132259
     25   S      51           441.1250000    0.040296704072
     25   S      52           100.2320000    0.180202178717
     25   S      53            27.8655000    0.465064284210
     25   S      54             8.4447000    0.452433138251

     26   S      55            13.6123000   -0.151660908297
     26   S      56             1.2612200    1.053515343452

     27   S      57             0.3708000    1.000000000000

     28   P      58            21.9305000    0.070356827475
     28   P      59             4.7855200    0.356742371235
     28   P      60             1.2837800    0.719732016372

     29   P      61             0.3115580    1.000000000000

     30   D      62             1.1000000    1.000000000000

 H         

     31   S      63            12.2518000    0.037217389296
     31   S      64             1.8687100    0.253808206955
     31   S      65             0.4182080    0.797386763917

     32   S      66             0.1061000    1.000000000000

     33   P      67             1.0000000    1.000000000000

 H         

     34   S      68            12.2518000    0.037217389296
     34   S      69             1.8687100    0.253808206955
     34   S      70             0.4182080    0.797386763917

     35   S      71             0.1061000    1.000000000000

     36   P      72             1.0000000    1.000000000000

 TOTAL NUMBER OF BASIS SET SHELLS             =   36
 NUMBER OF CARTESIAN GAUSSIAN BASIS FUNCTIONS =   80
 NOTE: THIS RUN WILL RESTRICT THE MO VARIATION SPACE TO SPHERICAL HARMONICS.
 THE NUMBER OF ORBITALS KEPT IN THE VARIATIONAL SPACE WILL BE PRINTED LATER.
 NUMBER OF ELECTRONS                          =   34
 CHARGE OF MOLECULE                           =    0
 SPIN MULTIPLICITY                            =    1
 NUMBER OF OCCUPIED ORBITALS (ALPHA)          =   17
 NUMBER OF OCCUPIED ORBITALS (BETA )          =   17
 TOTAL NUMBER OF ATOMS                        =    8
 THE NUCLEAR REPULSION ENERGY IS      127.0447899432

     LEBEDEV GRID-BASED DFT OPTIONS
     ------------------------------
     DFTTYP=PBE     
     NRAD  =      96     NLEB  =     302
     NRAD0 =      24     NLEB0 =     110
     SWOFF =    5.00E-03 (PURE SCF -> DFT)
     SWITCH=    3.00E-04 (COARSE -> TIGHT GRID)
     THRESH=    0.00E+00 GTHRE=    1.00E+00

 GRIMME'S EMPIRICAL DISPERSION CORRECTION= F

     $CONTRL OPTIONS
     ---------------
 SCFTYP=RHF          RUNTYP=OPTIMIZE     EXETYP=RUN     
 MPLEVL=       0     CITYP =NONE         CCTYP =NONE         VBTYP =NONE    
 DFTTYP=PBE          TDDFT =NONE    
 MULT  =       1     ICHARG=       0     NZVAR =      18     COORD =ZMT     
 PP    =NONE         RELWFN=NONE         LOCAL =NONE         NUMGRD=       F
 ISPHER=       1     NOSYM =       0     MAXIT =      30     UNITS =ANGS    
 PLTORB=       F     MOLPLT=       F     AIMPAC=       F     FRIEND=        
 NPRINT=       7     IREST =       0     GEOM  =INPUT   
 NORMF =       0     NORMP =       0     ITOL  =      20     ICUT  =       9
 INTTYP=BEST         GRDTYP=BEST         QMTTOL= 1.0E-06

     $SYSTEM OPTIONS
     ---------------
  REPLICATED MEMORY=     1000000 WORDS (ON EVERY NODE).
 DISTRIBUTED MEMDDI=           0 MILLION WORDS IN AGGREGATE,
 MEMDDI DISTRIBUTED OVER   1 PROCESSORS IS           0 WORDS/PROCESSOR.
 TOTAL MEMORY REQUESTED ON EACH PROCESSOR=     1000000 WORDS.
 TIMLIM=      525600.00 MINUTES, OR     365.0 DAYS.
 PARALL= F  BALTYP=  DLB     KDIAG=    0  COREFL= F
 MXSEQ2=     300 MXSEQ3=     150  mem10=         0

          ----------------
          PROPERTIES INPUT
          ----------------

     MOMENTS            FIELD           POTENTIAL          DENSITY
 IEMOM =       1   IEFLD =       0   IEPOT =       0   IEDEN =       0
 WHERE =COMASS     WHERE =NUCLEI     WHERE =NUCLEI     WHERE =NUCLEI  
 OUTPUT=BOTH       OUTPUT=BOTH       OUTPUT=BOTH       OUTPUT=BOTH    
 IEMINT=       0   IEFINT=       0                     IEDINT=       0
                                                       MORB  =       0
          EXTRAPOLATION IN EFFECT
          DIIS IN EFFECT
 ORBITAL PRINTING OPTION: NPREO=     1    80     2     1

     -------------------------------
     INTEGRAL TRANSFORMATION OPTIONS
     -------------------------------
     NWORD  =            0
     CUTOFF = 1.0E-09     MPTRAN =       0
     DIRTRF =       F     AOINTS =DUP     

          ----------------------
          INTEGRAL INPUT OPTIONS
          ----------------------
 NOPK  =       1 NORDER=       0 SCHWRZ=       T

   --- ENCODED Z MATRIX ---
 COORD  TYPE   I   J   K   L   M   N
    1      1    2   1
    2      1    3   2
    3      2    3   2   1
    4      1    4   2
    5      2    4   2   1
    6      3    4   2   1   3
    7      1    5   2
    8      2    5   2   1
    9      3    5   2   1   3
   10      1    6   1
   11      2    6   1   2
   12      3    6   1   2   3
   13      1    7   1
   14      2    7   1   2
   15      3    7   1   2   6
   16      1    8   1
   17      2    8   1   2
   18      3    8   1   2   6

 THE DETERMINANT OF THE G MATRIX IS 10**(   -12)


                     --------------------
                     INTERNAL COORDINATES
                     --------------------

                 - - ATOMS - -         COORDINATE      COORDINATE
 NO.   TYPE    I  J  K  L  M  N        (BOHR,RAD)       (ANG,DEG)
 ----------------------------------------------------------------
   1 STRETCH   2  1                     2.8345890       1.5000000
   2 STRETCH   3  2                     2.6456164       1.4000000
   3 BEND      3  2  1                  1.9118710     109.5421400
   4 STRETCH   4  2                     2.0786986       1.1000000
   5 BEND      4  2  1                  1.9118710     109.5421400
   6 TORSION   4  2  1  3               2.0943951     120.0000000
   7 STRETCH   5  2                     2.0786986       1.1000000
   8 BEND      5  2  1                  1.9118710     109.5421400
   9 TORSION   5  2  1  3              -2.0943951    -120.0000000
  10 STRETCH   6  1                     2.8345890       1.5000000
  11 BEND      6  1  2                  1.9118710     109.5421400
  12 TORSION   6  1  2  3               0.3490659      20.0000000
  13 STRETCH   7  1                     2.0786986       1.1000000
  14 BEND      7  1  2                  1.9118710     109.5421400
  15 TORSION   7  1  2  6               2.0943951     120.0000000
  16 STRETCH   8  1                     2.0786986       1.1000000
  17 BEND      8  1  2                  1.9118710     109.5421400
  18 TORSION   8  1  2  6              -2.0943951    -120.0000000

     ------------------------------------------
     THE POINT GROUP IS C1 , NAXIS= 0, ORDER= 1
     ------------------------------------------

 -- VARIATIONAL SPACE WILL BE RESTRICTED TO PURE SPHERICAL HARMONICS ONLY --
 AFTER EXCLUDING CONTAMINANT COMBINATIONS FROM THE CARTESIAN GAUSSIAN BASIS
 SET, THE NUMBER OF SPHERICAL HARMONICS KEPT IN THE VARIATION SPACE IS   76

     DIMENSIONS OF THE SYMMETRY SUBSPACES ARE
 A   =   76

 ..... DONE SETTING UP THE RUN .....
 STEP CPU TIME =     0.02 TOTAL CPU TIME =          0.0 (      0.0 MIN)
 TOTAL WALL CLOCK TIME=          0.0 SECONDS, CPU UTILIZATION IS    66.67%


          -----------------------------
          STATIONARY POINT LOCATION RUN
          -----------------------------

 OBTAINING INITIAL HESSIAN, HESS=GUESS   
 DIAGONAL GUESS HESSIAN IN INTERNAL COORDS IS
     1  0.3892     2  0.3267     3  0.2379     4  0.3397     5  0.2253
     6  0.2500     7  0.3397     8  0.2253     9  0.2500    10  0.2690
    11  0.2315    12  0.2500    13  0.3397    14  0.2253    15  0.2500
    16  0.3397    17  0.2253    18  0.2500

          PARAMETERS CONTROLLING GEOMETRY SEARCH ARE
          METHOD =QA                  UPHESS =BFGS    
          NNEG   =         0          NFRZ   =         1
          NSTEP  =        50          IFOLOW =         1
          HESS   =GUESS               RESTAR =         F
          IHREP  =         0          HSSEND =         F
          NPRT   =         0          NPUN   =         0
          OPTTOL = 1.000E-04          RMIN   = 1.500E-03
          RMAX   = 1.000E-01          RLIM   = 7.000E-02
          DXMAX  = 3.000E-01          PURIFY =         F
          MOVIE  =         F          TRUPD  =         T
          TRMAX  = 5.000E-01          TRMIN  = 5.000E-02
          ITBMAT =         5          STPT   =         F
          STSTEP = 1.000E-02          PROJCT=          T
          FROZEN COORD(S)=  12

 BEGINNING GEOMETRY SEARCH POINT NSERCH=   0 ...

 COORDINATES OF ALL ATOMS ARE (ANGS)
   ATOM   CHARGE       X              Y              Z
 ------------------------------------------------------------
 C           6.0  -0.6869440874  -0.7856723209   0.1068562816
 C           6.0   0.7944128370  -0.6970755869  -0.1116209052
 F           9.0   1.2141868019   0.6278637063   0.0566814645
 H           1.0   1.3126436605  -1.3396891202   0.6153485993
 H           1.0   1.0364903834  -1.0302874349  -1.1316053785
 F           9.0  -1.2998148842   0.5741234058  -0.0523447487
 H           1.0  -1.1271009921  -1.4734040970  -0.6302237029
 H           1.0  -0.8874793693  -1.1603224269   1.1214610809


                     --------------------
                     INTERNAL COORDINATES
                     --------------------

                 - - ATOMS - -         COORDINATE      COORDINATE
 NO.   TYPE    I  J  K  L  M  N        (BOHR,RAD)       (ANG,DEG)
 ----------------------------------------------------------------
   1 STRETCH   2  1                     2.8345890       1.5000000
   2 STRETCH   3  2                     2.6456164       1.4000000
   3 BEND      3  2  1                  1.9118710     109.5421400
   4 STRETCH   4  2                     2.0786986       1.1000000
   5 BEND      4  2  1                  1.9118710     109.5421400
   6 TORSION   4  2  1  3               2.0943951     120.0000000
   7 STRETCH   5  2                     2.0786986       1.1000000
   8 BEND      5  2  1                  1.9118710     109.5421400
   9 TORSION   5  2  1  3              -2.0943951    -120.0000000
  10 STRETCH   6  1                     2.8345890       1.5000000
  11 BEND      6  1  2                  1.9118710     109.5421400
  12 TORSION   6  1  2  3               0.3490659      20.0000000
  13 STRETCH   7  1                     2.0786986       1.1000000
  14 BEND      7  1  2                  1.9118710     109.5421400
  15 TORSION   7  1  2  6               2.0943951     120.0000000
  16 STRETCH   8  1                     2.0786986       1.1000000
  17 BEND      8  1  2                  1.9118710     109.5421400
  18 TORSION   8  1  2  6              -2.0943951    -120.0000000

 THE CURRENT FULLY SUBSTITUTED Z-MATRIX IS
 C   
 C      1   1.5000000
 F      2   1.4000000  1   109.5421400
 H      2   1.1000000  1   109.5421400  3   120.0000000  0
 H      2   1.1000000  1   109.5421400  3  -120.0000000  0
 F      1   1.5000000  2   109.5421400  3    20.0000000  0
 H      1   1.1000000  2   109.5421400  6   120.0000000  0
 H      1   1.1000000  2   109.5421400  6  -120.0000000  0

          ********************
          1 ELECTRON INTEGRALS
          ********************
 ...... END OF ONE-ELECTRON INTEGRALS ......
 STEP CPU TIME =     0.00 TOTAL CPU TIME =          0.0 (      0.0 MIN)
 TOTAL WALL CLOCK TIME=          0.0 SECONDS, CPU UTILIZATION IS    50.00%

          -------------
          GUESS OPTIONS
          -------------
          GUESS =HUCKEL            NORB  =       0          NORDER=       0
          MIX   =       F          PRTMO =       F          PUNMO =       F
          TOLZ  = 1.0E-08          TOLE  = 1.0E-05
          SYMDEN=       F          PURIFY=       F

 INITIAL GUESS ORBITALS GENERATED BY HUCKEL   ROUTINE.
 HUCKEL GUESS REQUIRES     54920 WORDS.

 STATISTICS FOR GENERATION OF SYMMETRY ORBITAL -Q- MATRIX
 NUMBER OF CARTESIAN ATOMIC ORBITALS=         80
 NUMBER OF SPHERICAL CONTAMINANTS DROPPED=     4
 NUMBER OF LINEARLY DEPENDENT MOS DROPPED=     0
 TOTAL NUMBER OF MOS IN VARIATION SPACE=      76

 SYMMETRIES FOR INITIAL GUESS ORBITALS FOLLOW.   BOTH SET(S).
    17 ORBITALS ARE OCCUPIED (    4 CORE ORBITALS).
     5=A        6=A        7=A        8=A        9=A       10=A       11=A   
    12=A       13=A       14=A       15=A       16=A       17=A       18=A   
    19=A       20=A       21=A       22=A       23=A       24=A       25=A   
    26=A       27=A   
 ...... END OF INITIAL ORBITAL SELECTION ......
 STEP CPU TIME =     0.01 TOTAL CPU TIME =          0.0 (      0.0 MIN)
 TOTAL WALL CLOCK TIME=          0.1 SECONDS, CPU UTILIZATION IS    60.00%

                    ----------------------
                    AO INTEGRAL TECHNOLOGY
                    ----------------------
     S,P,L SHELL ROTATED AXIS INTEGRALS, REPROGRAMMED BY
        KAZUYA ISHIMURA (IMS) AND JOSE SIERRA (SYNSTAR).
     S,P,D,L SHELL ROTATED AXIS INTEGRALS PROGRAMMED BY
        KAZUYA ISHIMURA (INSTITUTE FOR MOLECULAR SCIENCE).
     S,P,D,F,G SHELL TO TOTAL QUARTET ANGULAR MOMENTUM SUM 5,
        ERIC PROGRAM BY GRAHAM FLETCHER (ELORET AND NASA ADVANCED
        SUPERCOMPUTING DIVISION, AMES RESEARCH CENTER).
     S,P,D,F,G,L SHELL GENERAL RYS QUADRATURE PROGRAMMED BY
        MICHEL DUPUIS (PACIFIC NORTHWEST NATIONAL LABORATORY).

          --------------------
          2 ELECTRON INTEGRALS
          --------------------

 THE -PK- OPTION IS OFF, THE INTEGRALS ARE NOT IN SUPERMATRIX FORM.
 STORING   15000 INTEGRALS/RECORD ON DISK, USING 12 BYTES/INTEGRAL.
 TWO ELECTRON INTEGRAL EVALUATION REQUIRES   91062 WORDS OF MEMORY.
 SCHWARZ INEQUALITY OVERHEAD:      3237 INTEGRALS, T=        0.00
 II,JST,KST,LST =  1  1  1  1 NREC =         1 INTLOC =    1
 II,JST,KST,LST =  2  1  1  1 NREC =         1 INTLOC =    2
 II,JST,KST,LST =  3  1  1  1 NREC =         1 INTLOC =    7
 II,JST,KST,LST =  4  1  1  1 NREC =         1 INTLOC =   22
 II,JST,KST,LST =  5  1  1  1 NREC =         1 INTLOC =   67
 II,JST,KST,LST =  6  1  1  1 NREC =         1 INTLOC =  214
 II,JST,KST,LST =  7  1  1  1 NREC =         1 INTLOC = 1189
 II,JST,KST,LST =  8  1  1  1 NREC =         1 INTLOC = 3204
 II,JST,KST,LST =  9  1  1  1 NREC =         1 INTLOC = 5668
 II,JST,KST,LST = 10  1  1  1 NREC =         1 INTLOC = 8592
 II,JST,KST,LST = 11  1  1  1 NREC =         2 INTLOC = 5505
 II,JST,KST,LST = 12  1  1  1 NREC =         3 INTLOC = 8184
 II,JST,KST,LST = 13  1  1  1 NREC =         7 INTLOC = 6089
 II,JST,KST,LST = 14  1  1  1 NREC =         8 INTLOC = 3858
 II,JST,KST,LST = 15  1  1  1 NREC =         9 INTLOC = 4614
 II,JST,KST,LST = 16  1  1  1 NREC =        10 INTLOC = 7436
 II,JST,KST,LST = 17  1  1  1 NREC =        14 INTLOC = 9287
 II,JST,KST,LST = 18  1  1  1 NREC =        20 INTLOC =  200
 II,JST,KST,LST = 19  1  1  1 NREC =        34 INTLOC =10809
 II,JST,KST,LST = 20  1  1  1 NREC =        37 INTLOC =13950
 II,JST,KST,LST = 21  1  1  1 NREC =        41 INTLOC = 5436
 II,JST,KST,LST = 22  1  1  1 NREC =        52 INTLOC =13199
 II,JST,KST,LST = 23  1  1  1 NREC =        57 INTLOC = 3901
 II,JST,KST,LST = 24  1  1  1 NREC =        61 INTLOC =13741
 II,JST,KST,LST = 25  1  1  1 NREC =        77 INTLOC = 5896
 II,JST,KST,LST = 26  1  1  1 NREC =        80 INTLOC = 9083
 II,JST,KST,LST = 27  1  1  1 NREC =        85 INTLOC = 8398
 II,JST,KST,LST = 28  1  1  1 NREC =        91 INTLOC =12564
 II,JST,KST,LST = 29  1  1  1 NREC =       108 INTLOC =13353
 II,JST,KST,LST = 30  1  1  1 NREC =       132 INTLOC =11016
 II,JST,KST,LST = 31  1  1  1 NREC =       184 INTLOC =10742
 II,JST,KST,LST = 32  1  1  1 NREC =       195 INTLOC =10982
 II,JST,KST,LST = 33  1  1  1 NREC =       207 INTLOC =10479
 II,JST,KST,LST = 34  1  1  1 NREC =       240 INTLOC = 8983
 II,JST,KST,LST = 35  1  1  1 NREC =       254 INTLOC = 3396
 II,JST,KST,LST = 36  1  1  1 NREC =       268 INTLOC =12729
 SCHWARZ INEQUALITY TEST SKIPPED       15341 INTEGRAL BLOCKS.
 TOTAL NUMBER OF NONZERO TWO-ELECTRON INTEGRALS =             4657565
        311 INTEGRAL RECORDS WERE STORED ON DISK FILE  8.
  ...... END OF TWO-ELECTRON INTEGRALS .....
 STEP CPU TIME =     0.48 TOTAL CPU TIME =          0.5 (      0.0 MIN)
 TOTAL WALL CLOCK TIME=          0.5 SECONDS, CPU UTILIZATION IS    96.23%

          --------------------------
               R-PBE SCF CALCULATION
          --------------------------

     NUCLEAR ENERGY =       127.0447899432
     MAXIT =   30     NPUNCH=    2
     EXTRAP=T  DAMP=F  SHIFT=F  RSTRCT=F  DIIS=T  DEM=F  SOSCF=F
         DENSITY MATRIX CONVERGENCE THRESHOLD=  1.00E-05
     COARSE -> FINE DFT GRID SWITCH THRESHOLD=  3.00E-04 (SWITCH IN $DFT)
                   HF -> DFT SWITCH THRESHOLD=  5.00E-03 (SWOFF IN $DFT)
     MEMORY REQUIRED FOR RHF ITERS=    365468 WORDS.

 DFT CODE IS SWITCHING FROM THE FINE GRID NRAD= 96,  NLEB=  302
                      TO THE COARSE GRID NRAD0= 24, NLEB0=  110

     EXCHANGE FUNCTIONAL   =PBE       
     CORRELATION FUNCTIONAL=PBE       
     DFT THRESHOLD         =.172E-07
     GRID CHANGE THRESHOLD =.300E-03
 FOR AN EULER-MACLAURIN QUADRATURE USING  96 RADIAL POINTS:
 SMALLEST GAUSSIAN PRIMITIVE EXPONENT=        0.1061000000 OF TYPE -S-
 ON ATOM NUMBER   4 HAS RADIAL NORMALIZATION=  1.000000
  LARGEST GAUSSIAN PRIMITIVE EXPONENT=     2931.5500000000 OF TYPE -S-
 ON ATOM NUMBER   3 HAS RADIAL NORMALIZATION=  1.000000
 DFT IS SWITCHED OFF, PERFORMING PURE SCF UNTIL SWOFF THRESHOLD IS REACHED.

 ITER EX DEM     TOTAL ENERGY        E CHANGE  DENSITY CHANGE    DIIS ERROR
   1  0  0     -276.1152217674  -276.1152217674   0.193114484   0.746715243
          * * *   INITIATING DIIS PROCEDURE   * * *
   2  1  0     -276.7645586351    -0.6493368677   0.091167572   0.088310027
   3  2  0     -276.8062318659    -0.0416732308   0.048690560   0.051208649
   4  3  0     -276.8216282561    -0.0153963901   0.009022818   0.012532031
   5  4  0     -276.8223598818    -0.0007316257   0.002277844   0.001787707
 CONVERGED TO SWOFF, SO DFT CALCULATION IS NOW SWITCHED ON.
          * * *   INITIATING DIIS PROCEDURE   * * *
   6  5  0     -277.8907064698    -1.0683465880   0.108095585   0.088279745
   7  6  0     -277.9044499679    -0.0137434981   0.091871861   0.049182869
   8  7  0     -277.9023572842     0.0020926837   0.055590514   0.055521377
   9  8  0     -277.9195571544    -0.0171998701   0.007042474   0.005103775
  10  9  0     -277.9198163232    -0.0002591688   0.002137625   0.001320545
  11 10  0     -277.9198307659    -0.0000144427   0.000654393   0.000490400
  12 11  0     -277.9198330052    -0.0000022393   0.000094101   0.000096621
 DFT CODE IS SWITCHING BACK TO THE FINE GRID
          * * *   INITIATING DIIS PROCEDURE   * * *
  13 12  0     -277.9194497813     0.0003832239   0.004863768   0.003524280
  14 13  0     -277.9194929897    -0.0000432084   0.005413371   0.002049197
  15 14  0     -277.9194857282     0.0000072615   0.003002557   0.002217894
  16 15  0     -277.9195177309    -0.0000320026   0.000302757   0.000150893
  17 16  0     -277.9195178755    -0.0000001446   0.000144173   0.000097762
  18 17  0     -277.9195179443    -0.0000000688   0.000026396   0.000019623
  19 18  0     -277.9195179465    -0.0000000022   0.000006754   0.000005772
  20 19  0     -277.9195179467    -0.0000000002   0.000000576   0.000000283

          -----------------
          DENSITY CONVERGED
          -----------------
     TIME TO FORM FOCK OPERATORS=       9.7 SECONDS (       0.5 SEC/ITER)
     TIME TO SOLVE SCF EQUATIONS=       0.1 SECONDS (       0.0 SEC/ITER)

 FINAL R-PBE ENERGY IS     -277.9195179467 AFTER  20 ITERATIONS
 DFT EXCHANGE + CORRELATION ENERGY =       -32.8989723570
 TOTAL ELECTRON NUMBER             =        33.9997612727

          ------------
          EIGENVECTORS
          ------------

                      1          2          3          4          5
                  -24.2331   -24.2236    -9.9737    -9.9724    -1.0954
                     A          A          A          A          A   
    1  C  1  S    0.000054  -0.000182   0.992520  -0.040704  -0.020198
    2  C  1  S    0.000105  -0.000960   0.036687  -0.002617   0.036145
    3  C  1  S   -0.003820   0.008657  -0.021852   0.007024   0.026506
    4  C  1  X   -0.000335  -0.000519  -0.000454  -0.000953   0.011205
    5  C  1  Y   -0.000128   0.000824   0.000089  -0.000175   0.020383
    6  C  1  Z    0.000017  -0.000078  -0.000000   0.000146  -0.003202
    7  C  1  X   -0.001413   0.000065  -0.002712   0.002854   0.008143
    8  C  1  Y   -0.001402   0.004176   0.000848   0.000234   0.003947
    9  C  1  Z    0.000470  -0.000569   0.000182  -0.000352  -0.001180
   10  C  1 XX   -0.000037  -0.000179  -0.000361  -0.000938   0.002615
   11  C  1 YY    0.000052   0.000490   0.000031   0.000477   0.001088
   12  C  1 ZZ   -0.000015  -0.000311   0.000330   0.000460  -0.003703
   13  C  1 XY   -0.000130  -0.000401   0.000103  -0.000124  -0.000261
   14  C  1 XZ   -0.000023   0.000060   0.000106   0.000230  -0.000468
   15  C  1 YZ    0.000012  -0.000117   0.000070   0.000026  -0.000710
   16  C  2  S   -0.000135   0.000050   0.040890   0.992469  -0.065335
   17  C  2  S   -0.000595   0.000126   0.000376   0.037077   0.123305
   18  C  2  S    0.009780  -0.003540   0.005568  -0.021658   0.017366
   19  C  2  X    0.000512   0.000281   0.001010   0.000483   0.022342
   20  C  2  Y    0.001072  -0.000107  -0.000021   0.000622   0.095256
   21  C  2  Z    0.000111  -0.000017  -0.000143   0.000090   0.013408
   22  C  2  X   -0.000599   0.001443  -0.002721   0.002776   0.005260
   23  C  2  Y    0.004176  -0.001253   0.000023   0.001338   0.007780
   24  C  2  Z    0.000601  -0.000376   0.000377  -0.000195   0.001040
   25  C  2 XX   -0.000155  -0.000029  -0.000973  -0.000350  -0.005976
   26  C  2 YY    0.000287   0.000037   0.000499   0.000218   0.017211
   27  C  2 ZZ   -0.000131  -0.000008   0.000474   0.000132  -0.011235
   28  C  2 XY    0.000133   0.000137  -0.000047   0.000014   0.009812
   29  C  2 XZ    0.000040  -0.000029   0.000245   0.000109   0.000827
   30  C  2 YZ    0.000070   0.000001  -0.000007  -0.000004   0.004433
   31  F  3  S    0.993082   0.002001   0.000008   0.000063  -0.231813
   32  F  3  S    0.034008  -0.000175  -0.000158   0.000424   0.471704
   33  F  3  S   -0.016869   0.000798  -0.000030  -0.000631   0.483353
   34  F  3  X   -0.000332   0.000052   0.000086   0.000117  -0.030192
   35  F  3  Y   -0.001172  -0.000004   0.000049   0.000276  -0.093918
   36  F  3  Z   -0.000147   0.000046  -0.000002   0.000028  -0.010917
   37  F  3  X    0.001148  -0.000038  -0.000312   0.000349  -0.013651
   38  F  3  Y    0.003626  -0.000203   0.000170   0.001902  -0.043537
   39  F  3  Z    0.000489  -0.000168   0.000074   0.000283  -0.004783
   40  F  3 XX    0.000212  -0.000065   0.000189   0.000433  -0.004280
   41  F  3 YY   -0.000398   0.000025  -0.000138  -0.001065   0.010322
   42  F  3 ZZ    0.000186   0.000040  -0.000052   0.000632  -0.006042
   43  F  3 XY   -0.000242  -0.000011   0.000017  -0.000606   0.006359
   44  F  3 XZ   -0.000046   0.000027  -0.000039  -0.000066   0.000651
   45  F  3 YZ   -0.000088   0.000002  -0.000023  -0.000255   0.002281
   46  H  4  S   -0.000942   0.000178  -0.000343  -0.001245   0.022325
   47  H  4  S   -0.000012   0.000244   0.000473   0.003417   0.001193
   48  H  4  X    0.000007  -0.000113  -0.000114   0.000508  -0.002070
   49  H  4  Y   -0.000411   0.000092  -0.000074  -0.000821   0.003886
   50  H  4  Z   -0.000040   0.000004   0.000072   0.000873  -0.003112
   51  H  5  S   -0.000981   0.000196  -0.000397  -0.001194   0.022186
   52  H  5  S   -0.000267  -0.000422   0.000447   0.003432   0.001717
   53  H  5  X   -0.000005   0.000022  -0.000126   0.000165  -0.000836
   54  H  5  Y   -0.000412   0.000056  -0.000039  -0.000437   0.002493
   55  H  5  Z   -0.000103  -0.000003  -0.000055  -0.001178   0.004704
   56  F  6  S   -0.002000   0.993089   0.000046   0.000003  -0.047768
   57  F  6  S   -0.000306   0.033662   0.000352  -0.000174   0.096081
   58  F  6  S    0.000808  -0.015864   0.000108   0.000025   0.099788
   59  F  6  X   -0.000058   0.000439  -0.000061  -0.000089   0.011265
   60  F  6  Y    0.000015  -0.001056   0.000053   0.000027  -0.016094
   61  F  6  Z   -0.000040   0.000121   0.000000   0.000006   0.001736
   62  F  6  X    0.000096  -0.001465  -0.000299   0.000298   0.006553
   63  F  6  Y   -0.000273   0.003259   0.001303   0.000036  -0.007148
   64  F  6  Z    0.000138  -0.000401  -0.000190  -0.000047   0.000874
   65  F  6 XX   -0.000067   0.000146   0.000291   0.000140   0.000338
   66  F  6 YY    0.000035  -0.000334  -0.000885  -0.000055   0.001452
   67  F  6 ZZ    0.000032   0.000189   0.000594  -0.000085  -0.001789
   68  F  6 XY   -0.000003   0.000310   0.000736  -0.000039  -0.001885
   69  F  6 XZ    0.000022  -0.000048  -0.000081  -0.000028   0.000216
   70  F  6 YZ    0.000002   0.000071   0.000207   0.000001  -0.000419
   71  H  7  S    0.000199  -0.000764  -0.001257  -0.000214   0.004767
   72  H  7  S    0.000288   0.000092   0.003491   0.000232   0.000113
   73  H  7  X    0.000095   0.000082  -0.000399   0.000161   0.000293
   74  H  7  Y    0.000106  -0.000373  -0.000879   0.000014   0.000890
   75  H  7  Z   -0.000012   0.000093  -0.000905  -0.000000   0.000815
   76  H  8  S    0.000200  -0.000794  -0.001206  -0.000278   0.005137
   77  H  8  S   -0.000483  -0.000123   0.003541   0.000155   0.000124
   78  H  8  X   -0.000036   0.000074  -0.000098   0.000137   0.000091
   79  H  8  Y    0.000049  -0.000396  -0.000480   0.000013   0.000615
   80  H  8  Z   -0.000002   0.000022   0.001194  -0.000041  -0.001265

                      6          7          8          9         10
                   -1.0546    -0.7160    -0.5755    -0.4691    -0.4629
                     A          A          A          A          A   
    1  C  1  S   -0.050512  -0.153724   0.128300   0.000694  -0.007760
    2  C  1  S    0.097511   0.314341  -0.278954  -0.000542   0.032484
    3  C  1  S    0.016200   0.175780  -0.146068  -0.004796  -0.010473
    4  C  1  X   -0.032383   0.105795   0.116216   0.040794   0.046874
    5  C  1  Y    0.070833  -0.041064   0.047257   0.027670   0.227907
    6  C  1  Z   -0.009030  -0.011235  -0.028056   0.288460  -0.027299
    7  C  1  X   -0.009682   0.031451   0.039822   0.010010   0.019240
    8  C  1  Y    0.009799  -0.023154   0.039338   0.010305   0.067515
    9  C  1  Z   -0.001096  -0.004671  -0.015458   0.118078  -0.006653
   10  C  1 XX   -0.003881   0.009411   0.008995   0.002190  -0.001448
   11  C  1 YY    0.011779  -0.005488  -0.005614  -0.001439   0.008423
   12  C  1 ZZ   -0.007897  -0.003923  -0.003380  -0.000751  -0.006975
   13  C  1 XY   -0.010151  -0.000203   0.000833  -0.000242   0.005834
   14  C  1 XZ    0.001066  -0.002620  -0.002846   0.006578  -0.001683
   15  C  1 YZ   -0.002868   0.000102  -0.000237  -0.002256  -0.003815
   16  C  2  S    0.006141  -0.148780  -0.128683   0.000467   0.003304
   17  C  2  S   -0.013963   0.304366   0.281625   0.001317   0.010748
   18  C  2  S    0.014725   0.164626   0.134324  -0.006506  -0.049577
   19  C  2  X   -0.021965  -0.105304   0.134441   0.043575  -0.105439
   20  C  2  Y   -0.018897  -0.054679  -0.019078   0.017207   0.306444
   21  C  2  Z   -0.001839   0.011599  -0.028095   0.329167  -0.015685
   22  C  2  X   -0.009396  -0.030178   0.046719   0.009539  -0.046259
   23  C  2  Y   -0.001575  -0.029369  -0.038144  -0.001585   0.074629
   24  C  2  Z    0.000097   0.004463  -0.015607   0.134073  -0.014241
   25  C  2 XX    0.004500   0.009493  -0.009156  -0.002342  -0.003215
   26  C  2 YY   -0.005222  -0.005762   0.006483   0.003061   0.014832
   27  C  2 ZZ    0.000722  -0.003730   0.002673  -0.000719  -0.011618
   28  C  2 XY   -0.003488   0.001426   0.000802  -0.000669  -0.003277
   29  C  2 XZ   -0.000781  -0.002756   0.003120  -0.003472  -0.001989
   30  C  2 YZ   -0.000976  -0.000475   0.000213   0.001765   0.005741
   31  F  3  S    0.054400   0.057034   0.052599   0.011419   0.039437
   32  F  3  S   -0.112094  -0.123374  -0.116620  -0.023278  -0.081268
   33  F  3  S   -0.115368  -0.144139  -0.138643  -0.038988  -0.126285
   34  F  3  X    0.001185  -0.039878  -0.019972  -0.024332  -0.249718
   35  F  3  Y    0.020117  -0.076766  -0.196709  -0.110397  -0.277300
   36  F  3  Z    0.002330  -0.006233  -0.034895   0.190089  -0.066449
   37  F  3  X   -0.000969  -0.017009  -0.016624  -0.015424  -0.152749
   38  F  3  Y    0.010561  -0.045641  -0.117330  -0.065302  -0.168408
   39  F  3  Z    0.000985  -0.004935  -0.020955   0.111956  -0.039091
   40  F  3 XX    0.001998  -0.001419  -0.005228  -0.001013   0.001074
   41  F  3 YY   -0.002705   0.004097   0.009268   0.004930   0.004492
   42  F  3 ZZ    0.000707  -0.002678  -0.004040  -0.003917  -0.005566
   43  F  3 XY   -0.001033   0.003675   0.001593   0.001398   0.012120
   44  F  3 XZ   -0.000072   0.000280   0.000669  -0.003327   0.001649
   45  F  3 YZ   -0.000484   0.000730   0.002533  -0.010371   0.003236
   46  H  4  S   -0.004203   0.113378   0.164561   0.159319  -0.172046
   47  H  4  S   -0.000091  -0.005921   0.009990   0.021990  -0.042001
   48  H  4  X    0.000328  -0.007147  -0.004183  -0.006370   0.004557
   49  H  4  Y   -0.000740   0.005631   0.007316   0.006867  -0.000339
   50  H  4  Z    0.000490  -0.007551  -0.009924  -0.000097   0.007367
   51  H  5  S   -0.003848   0.109616   0.164503  -0.205752  -0.074634
   52  H  5  S   -0.001068  -0.001701   0.006604  -0.027546  -0.024085
   53  H  5  X    0.000136  -0.004110  -0.000590   0.006320  -0.000807
   54  H  5  Y   -0.000474   0.002189   0.003429  -0.003857   0.005298
   55  H  5  Z   -0.000609   0.010501   0.012626  -0.007099  -0.005030
   56  F  6  S   -0.237803   0.050561  -0.042988  -0.004204   0.031570
   57  F  6  S    0.484371  -0.109441   0.096551   0.008612  -0.065947
   58  F  6  S    0.505922  -0.126930   0.110624   0.015117  -0.101653
   59  F  6  X    0.031393   0.038369  -0.037630  -0.004180   0.181600
   60  F  6  Y   -0.072733  -0.061721   0.143681   0.040609  -0.179306
   61  F  6  Z    0.007625   0.004935  -0.023483   0.123530   0.016992
   62  F  6  X    0.015682   0.017248  -0.028014  -0.003192   0.112518
   63  F  6  Y   -0.038374  -0.038744   0.088748   0.023134  -0.111973
   64  F  6  Z    0.003730   0.004072  -0.014563   0.071820   0.009688
   65  F  6 XX   -0.003139  -0.000926   0.003439   0.000496   0.002312
   66  F  6 YY    0.008835   0.003322  -0.006938  -0.002304   0.002143
   67  F  6 ZZ   -0.005696  -0.002396   0.003498   0.001808  -0.004455
   68  F  6 XY   -0.007832  -0.003718   0.003221   0.000292  -0.008311
   69  F  6 XZ    0.000751   0.000293  -0.000777   0.003191   0.000596
   70  F  6 YZ   -0.001877  -0.000639   0.001738  -0.006524  -0.000710
   71  H  7  S    0.019067   0.117799  -0.165527  -0.161895  -0.089168
   72  H  7  S    0.001533  -0.006175  -0.011707  -0.023758  -0.025011
   73  H  7  X    0.001206   0.006585  -0.003584  -0.006010  -0.002968
   74  H  7  Y    0.003459   0.006645  -0.007463  -0.006417   0.001085
   75  H  7  Z    0.002516   0.008067  -0.010034  -0.001041  -0.004683
   76  H  8  S    0.018843   0.114653  -0.166045   0.172111  -0.067961
   77  H  8  S    0.002015  -0.001890  -0.006456   0.020755  -0.018751
   78  H  8  X    0.000343   0.003889  -0.000371   0.005463  -0.001063
   79  H  8  Y    0.002309   0.003000  -0.003501   0.004544   0.003788
   80  H  8  Z   -0.003709  -0.011023   0.012653  -0.005526   0.003846

                     11         12         13         14         15
                   -0.4326    -0.4060    -0.3891    -0.3128    -0.3045
                     A          A          A          A          A   
    1  C  1  S    0.008142  -0.011735   0.002083  -0.022579  -0.014422
    2  C  1  S   -0.019511   0.017336  -0.002582   0.049275   0.030537
    3  C  1  S   -0.017743   0.041541  -0.010359   0.130019   0.092337
    4  C  1  X    0.323225   0.035887  -0.009673   0.092583   0.043847
    5  C  1  Y    0.037497  -0.286531  -0.014181   0.004428  -0.012836
    6  C  1  Z   -0.024098  -0.003769  -0.305714   0.043204  -0.078932
    7  C  1  X    0.121890  -0.007903  -0.002621   0.107295   0.081085
    8  C  1  Y    0.032534  -0.078309  -0.006672  -0.036268   0.004577
    9  C  1  Z   -0.005614  -0.005130  -0.141498  -0.019624  -0.015061
   10  C  1 XX    0.006762   0.002248   0.003693  -0.007662  -0.006318
   11  C  1 YY   -0.003536  -0.013980   0.002196   0.004061   0.006215
   12  C  1 ZZ   -0.003227   0.011732  -0.005889   0.003600   0.000103
   13  C  1 XY    0.006055   0.018131   0.000197   0.006150   0.007022
   14  C  1 XZ   -0.003786   0.000123   0.013313   0.004730  -0.009071
   15  C  1 YZ   -0.000519   0.004431   0.001458  -0.011806   0.014229
   16  C  2  S   -0.010874   0.015064   0.002277   0.016355   0.008550
   17  C  2  S    0.020171  -0.029656  -0.003058  -0.031941  -0.014450
   18  C  2  S    0.041010  -0.048802  -0.010741  -0.114226  -0.076350
   19  C  2  X   -0.312409  -0.067357  -0.003674  -0.004933  -0.037317
   20  C  2  Y   -0.095527   0.188320  -0.007563   0.022122   0.042391
   21  C  2  Z    0.032174   0.005954   0.226938   0.087488  -0.123723
   22  C  2  X   -0.117747  -0.046893  -0.002206   0.061199   0.048883
   23  C  2  Y   -0.006070   0.043146  -0.009254   0.056954   0.017696
   24  C  2  Z    0.013468  -0.001603   0.107436   0.011145  -0.041728
   25  C  2 XX    0.006185  -0.004908   0.003818   0.012447   0.008692
   26  C  2 YY   -0.008723   0.014818   0.001008  -0.005082  -0.009634
   27  C  2 ZZ    0.002539  -0.009910  -0.004826  -0.007365   0.000941
   28  C  2 XY   -0.014578   0.015194   0.000757   0.011642   0.012183
   29  C  2 XZ   -0.004026  -0.001195   0.016433  -0.002654   0.004248
   30  C  2 YZ   -0.000777   0.003171   0.007668  -0.013889   0.018250
   31  F  3  S   -0.020184   0.014045   0.001008   0.004226   0.002993
   32  F  3  S    0.040224  -0.026285  -0.001492  -0.007178  -0.007873
   33  F  3  S    0.062685  -0.043127  -0.002141  -0.027828  -0.006440
   34  F  3  X   -0.161227  -0.156890   0.003566   0.381159   0.297514
   35  F  3  Y    0.324145  -0.232549  -0.083874  -0.095044  -0.153425
   36  F  3  Z    0.074968  -0.058872   0.308286  -0.275482   0.331333
   37  F  3  X   -0.099294  -0.097001   0.004059   0.252088   0.196736
   38  F  3  Y    0.201193  -0.141270  -0.054131  -0.057098  -0.101639
   39  F  3  Z    0.045484  -0.037913   0.198822  -0.191090   0.235454
   40  F  3 XX    0.009830  -0.001515  -0.000632  -0.002751  -0.002239
   41  F  3 YY   -0.012588   0.004323   0.003961   0.002809   0.004141
   42  F  3 ZZ    0.002759  -0.002808  -0.003329  -0.000059  -0.001901
   43  F  3 XY    0.006032   0.006293   0.000477  -0.009475  -0.006343
   44  F  3 XZ    0.000106   0.001148  -0.002624   0.001252  -0.003425
   45  F  3 YZ   -0.003862   0.002252  -0.012522   0.005523  -0.005721
   46  H  4  S   -0.039425  -0.136905   0.119201   0.021749  -0.167390
   47  H  4  S   -0.005913  -0.039384   0.034994   0.024049  -0.087321
   48  H  4  X   -0.004788   0.001225  -0.002084  -0.001905   0.004384
   49  H  4  Y   -0.004321   0.000060   0.005351   0.000581  -0.000459
   50  H  4  Z    0.002892   0.005625   0.000186   0.001997   0.001681
   51  H  5  S   -0.039763  -0.083140  -0.172135  -0.131773   0.092690
   52  H  5  S   -0.010187  -0.025810  -0.050687  -0.054416   0.034008
   53  H  5  X   -0.005246  -0.001309   0.000683   0.002338  -0.004388
   54  H  5  Y   -0.003114   0.003074  -0.004373   0.000352   0.000711
   55  H  5  Z   -0.002545  -0.004443  -0.004570  -0.003020   0.000675
   56  F  6  S   -0.012614  -0.030746   0.001942  -0.004133  -0.002897
   57  F  6  S    0.026340   0.062704  -0.003288   0.007693   0.008564
   58  F  6  S    0.037692   0.094489  -0.007283   0.023249   0.001840
   59  F  6  X    0.119847  -0.214935   0.001563   0.335292   0.226682
   60  F  6  Y    0.219008   0.396470  -0.078403   0.133547   0.179048
   61  F  6  Z   -0.031570  -0.075983  -0.253230  -0.296143   0.349833
   62  F  6  X    0.072545  -0.136458  -0.000298   0.218109   0.144510
   63  F  6  Y    0.140529   0.251806  -0.050628   0.081942   0.118177
   64  F  6  Z   -0.019105  -0.048685  -0.160623  -0.202628   0.245557
   65  F  6 XX    0.008428   0.002645  -0.000724   0.004244   0.002772
   66  F  6 YY   -0.010131  -0.008372   0.003459  -0.004087  -0.004797
   67  F  6 ZZ    0.001703   0.005726  -0.002736  -0.000158   0.002025
   68  F  6 XY   -0.002608   0.009135  -0.000822  -0.007715  -0.004480
   69  F  6 XZ    0.000139  -0.001521  -0.003397  -0.002209   0.003736
   70  F  6 YZ    0.001891   0.003101   0.010285   0.005737  -0.005919
   71  H  7  S   -0.118577   0.153924   0.180368  -0.042776   0.086096
   72  H  7  S   -0.023849   0.045997   0.053623  -0.038115   0.049807
   73  H  7  X    0.003663   0.004185   0.003435  -0.000237   0.004722
   74  H  7  Y   -0.004473  -0.002321   0.007055  -0.000467  -0.000490
   75  H  7  Z   -0.006117   0.006335   0.000208   0.000218  -0.000006
   76  H  8  S   -0.085578   0.084284  -0.232833   0.069729  -0.064613
   77  H  8  S   -0.022611   0.027043  -0.064696   0.028231  -0.025001
   78  H  8  X    0.005689   0.001274  -0.002217   0.004075  -0.002535
   79  H  8  Y   -0.001301  -0.006084  -0.005325  -0.000245   0.000287
   80  H  8  Z    0.005163  -0.004609   0.005861  -0.001012   0.000676

                     16         17         18         19         20
                   -0.2917    -0.2805    -0.0238     0.0139     0.0396
                     A          A          A          A          A   
    1  C  1  S    0.017539  -0.003761  -0.058218  -0.084195   0.000563
    2  C  1  S   -0.052508   0.011894   0.168000   0.154697   0.003943
    3  C  1  S   -0.045867   0.020506   0.228256   1.157175  -0.060869
    4  C  1  X   -0.253708   0.051985  -0.149023  -0.148297  -0.051611
    5  C  1  Y   -0.086398  -0.011054   0.376646  -0.088759  -0.031580
    6  C  1  Z   -0.014645  -0.200181  -0.059436   0.026231  -0.282365
    7  C  1  X   -0.063809   0.019694  -0.233029  -0.334017  -0.132036
    8  C  1  Y   -0.027799  -0.012546   0.497637  -0.194520  -0.150976
    9  C  1  Z    0.018365  -0.034974  -0.132741   0.068080  -0.646469
   10  C  1 XX   -0.018417   0.006888   0.007415   0.010613  -0.005060
   11  C  1 YY    0.014864   0.004301  -0.028484  -0.002152  -0.004169
   12  C  1 ZZ    0.003553  -0.011189   0.021069  -0.008461   0.009229
   13  C  1 XY    0.010369  -0.002648   0.036252  -0.001771  -0.003199
   14  C  1 XZ    0.004154   0.005080   0.002101  -0.003888  -0.023553
   15  C  1 YZ    0.003537   0.017728   0.005558  -0.000346  -0.017435
   16  C  2  S    0.018807  -0.003320  -0.023447  -0.073570   0.002105
   17  C  2  S   -0.054898   0.011114   0.081402   0.126702  -0.011112
   18  C  2  S   -0.074134   0.019991   0.041981   1.121025   0.040845
   19  C  2  X    0.263753  -0.048017   0.065049   0.138245  -0.058285
   20  C  2  Y   -0.049515  -0.020024   0.239133  -0.119829   0.015042
   21  C  2  Z    0.008386   0.206268   0.039300  -0.030718  -0.284860
   22  C  2  X    0.093759  -0.018292   0.136953   0.317804  -0.163708
   23  C  2  Y   -0.009969  -0.017910   0.370167  -0.222114   0.114185
   24  C  2  Z   -0.024005   0.043684   0.108319  -0.071964  -0.649593
   25  C  2 XX   -0.014444   0.006383   0.014246   0.009312   0.004458
   26  C  2 YY    0.011488   0.005540  -0.031012   0.000736   0.006573
   27  C  2 ZZ    0.002955  -0.011923   0.016766  -0.010047  -0.011031
   28  C  2 XY   -0.012653   0.002748  -0.034336   0.002972  -0.001283
   29  C  2 XZ    0.004906   0.006799   0.004978  -0.002967   0.025154
   30  C  2 YZ   -0.001994  -0.018194  -0.005298   0.000876  -0.014074
   31  F  3  S    0.003159  -0.001645   0.045856  -0.001485  -0.005438
   32  F  3  S   -0.011056   0.002960  -0.088779   0.007593   0.013543
   33  F  3  S    0.003145   0.011663  -0.336842  -0.012729   0.026684
   34  F  3  X   -0.326635   0.035604   0.092232  -0.032446  -0.005290
   35  F  3  Y    0.069865   0.019716   0.213434   0.059535  -0.036136
   36  F  3  Z   -0.013932  -0.370484   0.012247   0.023472   0.056329
   37  F  3  X   -0.242685   0.025428   0.095325  -0.051025   0.000616
   38  F  3  Y    0.051195   0.013507   0.200209   0.081417  -0.035574
   39  F  3  Z   -0.005803  -0.254286   0.011833   0.025346   0.080335
   40  F  3 XX    0.003394   0.000174  -0.000108  -0.000554   0.000723
   41  F  3 YY   -0.002682  -0.000411   0.000588   0.003316  -0.001453
   42  F  3 ZZ   -0.000712   0.000237  -0.000480  -0.002763   0.000731
   43  F  3 XY    0.002622  -0.000522   0.000553  -0.001707  -0.000529
   44  F  3 XZ    0.000888   0.001577   0.000253  -0.000338   0.005045
   45  F  3 YZ   -0.000371   0.004664  -0.000116   0.001267   0.003979
   46  H  4  S    0.156448   0.155467   0.094413  -0.039760   0.093959
   47  H  4  S    0.094000   0.075061   0.165727  -0.781552   1.034352
   48  H  4  X    0.002931  -0.004280   0.011200  -0.000463   0.006746
   49  H  4  Y    0.001232   0.002516   0.008675   0.006441  -0.011584
   50  H  4  Z   -0.004964   0.000889   0.006230  -0.013863   0.007947
   51  H  5  S    0.040906  -0.233293   0.021583  -0.047494  -0.090567
   52  H  5  S    0.017121  -0.131760   0.146027  -0.696238  -1.048492
   53  H  5  X    0.005648   0.000829   0.003490   0.004176  -0.007044
   54  H  5  Y   -0.002226  -0.001593   0.010583   0.002249   0.007383
   55  H  5  Z    0.002865  -0.003564  -0.005311   0.013661   0.012283
   56  F  6  S    0.001876  -0.001448   0.059989   0.004541   0.001771
   57  F  6  S   -0.008389   0.002430  -0.114843  -0.005235  -0.006257
   58  F  6  S    0.008828   0.010561  -0.424016  -0.049475   0.001228
   59  F  6  X    0.427169  -0.041190  -0.156647   0.009517  -0.002782
   60  F  6  Y    0.162315   0.008343   0.314731   0.092852   0.019647
   61  F  6  Z    0.037751   0.412164  -0.024083  -0.026520   0.048007
   62  F  6  X    0.306368  -0.028468  -0.156183   0.025374   0.003150
   63  F  6  Y    0.112339   0.004881   0.295875   0.109848   0.016779
   64  F  6  Z    0.023631   0.281567  -0.022145  -0.026505   0.067622
   65  F  6 XX    0.005084  -0.000145  -0.000708  -0.001050  -0.000557
   66  F  6 YY   -0.004584  -0.000072   0.001516   0.003982   0.001076
   67  F  6 ZZ   -0.000499   0.000217  -0.000809  -0.002932  -0.000519
   68  F  6 XY   -0.003872   0.000499  -0.001717   0.000405  -0.000674
   69  F  6 XZ    0.001073   0.002189   0.000210   0.000007  -0.004618
   70  F  6 YZ    0.000054  -0.004813  -0.000063  -0.001384   0.002991
   71  H  7  S    0.166240   0.148391   0.053207  -0.054094  -0.104245
   72  H  7  S    0.098188   0.071667   0.048451  -0.810284  -1.039012
   73  H  7  X   -0.002842   0.003916  -0.012774  -0.000862   0.005960
   74  H  7  Y    0.000380   0.002649   0.013102   0.008503   0.011882
   75  H  7  Z    0.005164  -0.000801  -0.008027   0.013229   0.008347
   76  H  8  S    0.039493  -0.225324   0.011291  -0.052851   0.094850
   77  H  8  S    0.018923  -0.127598   0.097921  -0.729554   1.050012
   78  H  8  X   -0.005714  -0.000586  -0.006561  -0.005468  -0.005604
   79  H  8  Y   -0.002943  -0.001367   0.015303   0.004262  -0.009706
   80  H  8  Z   -0.002842   0.003261   0.006351  -0.013716   0.011791

                     21         22         23         24         25
                    0.0669     0.1093     0.1175     0.1831     0.3429
                     A          A          A          A          A   
    1  C  1  S    0.092380   0.027995   0.000440  -0.075593   0.004551
    2  C  1  S   -0.158679  -0.119083   0.001648   0.100015   0.022288
    3  C  1  S   -1.457805   0.404231  -0.122127   1.790097   0.561868
    4  C  1  X    0.041703   0.186200  -0.074201   0.339523   0.448441
    5  C  1  Y    0.095421  -0.342325  -0.025814   0.175689  -0.194626
    6  C  1  Z   -0.020152  -0.042789  -0.294851  -0.101085  -0.062351
    7  C  1  X   -0.003091   0.462400  -0.227571   1.959232  -0.875150
    8  C  1  Y    0.302238  -0.678584  -0.014424   0.728927   0.148093
    9  C  1  Z   -0.059840  -0.227445  -1.039387  -0.337271   0.221507
   10  C  1 XX    0.004428  -0.012183   0.001254  -0.043614   0.055507
   11  C  1 YY   -0.004577   0.021584  -0.009263   0.008875  -0.004014
   12  C  1 ZZ    0.000149  -0.009401   0.008010   0.034739  -0.051493
   13  C  1 XY    0.004786   0.006408  -0.009115  -0.008630  -0.009065
   14  C  1 XZ   -0.001183   0.011523   0.001108   0.009309  -0.021327
   15  C  1 YZ    0.001696  -0.006009  -0.005023   0.009036  -0.008761
   16  C  2  S   -0.101843  -0.045540   0.012074   0.078795   0.006433
   17  C  2  S    0.183409   0.155963  -0.043563  -0.110873   0.042296
   18  C  2  S    1.561662  -0.146752  -0.011590  -1.846175   0.411239
   19  C  2  X    0.065861   0.173838   0.016095   0.375498  -0.429272
   20  C  2  Y   -0.057212   0.379717  -0.133765  -0.135294  -0.204940
   21  C  2  Z   -0.011294   0.059380   0.297826  -0.093999   0.060853
   22  C  2  X    0.087089   0.576131   0.017905   1.997256   1.012832
   23  C  2  Y   -0.214938   0.917996  -0.258840  -0.581456  -0.020189
   24  C  2  Z   -0.021430   0.180732   1.060331  -0.348460  -0.284478
   25  C  2 XX   -0.001703   0.017136  -0.006310   0.042969   0.051869
   26  C  2 YY   -0.001686  -0.036910   0.002411  -0.006411   0.007510
   27  C  2 ZZ    0.003389   0.019774   0.003899  -0.036558  -0.059378
   28  C  2 XY   -0.001098   0.000600   0.008543  -0.001186   0.017245
   29  C  2 XZ    0.001585  -0.008755   0.004617  -0.010542  -0.018880
   30  C  2 YZ    0.000451  -0.009110   0.007863   0.008929   0.009417
   31  F  3  S    0.010104   0.068242  -0.011665  -0.018046  -0.000832
   32  F  3  S   -0.016408  -0.126625   0.026275   0.019813   0.021103
   33  F  3  S   -0.093172  -0.597464   0.079764   0.240770  -0.113642
   34  F  3  X    0.053929   0.005694  -0.018020  -0.131112  -0.108450
   35  F  3  Y    0.094462   0.280887  -0.052175  -0.040708  -0.076445
   36  F  3  Z   -0.000959   0.044366  -0.051493  -0.002207   0.015110
   37  F  3  X    0.054416   0.020232  -0.019222  -0.209537  -0.162191
   38  F  3  Y    0.119422   0.314947  -0.039443  -0.083774   0.041081
   39  F  3  Z    0.006301   0.041245  -0.101169   0.010143   0.045121
   40  F  3 XX   -0.001708  -0.004752  -0.000997   0.002326   0.013462
   41  F  3 YY    0.003805   0.005955  -0.000141   0.001587  -0.015910
   42  F  3 ZZ   -0.002097  -0.001203   0.001138  -0.003913   0.002447
   43  F  3 XY    0.000402   0.001488  -0.001360  -0.010557  -0.008490
   44  F  3 XZ   -0.000329  -0.000027  -0.003296  -0.004276  -0.002954
   45  F  3 YZ    0.001035   0.001520  -0.005967   0.003142  -0.002876
   46  H  4  S   -0.048972  -0.049140  -0.009734  -0.097737  -0.220641
   47  H  4  S   -1.023864  -0.113080  -1.443675  -0.631001   0.028178
   48  H  4  X   -0.008514   0.006778  -0.013146   0.013833   0.013790
   49  H  4  Y    0.008518   0.021257   0.008050   0.000887  -0.007217
   50  H  4  Z   -0.006100   0.009540  -0.005317  -0.020145  -0.019377
   51  H  5  S   -0.048994   0.033854   0.038574  -0.102915  -0.262188
   52  H  5  S   -0.965501   0.200658   1.522033  -0.586072  -0.070793
   53  H  5  X   -0.005875   0.011579   0.003506   0.014750   0.019227
   54  H  5  Y    0.003213   0.022383  -0.008087  -0.006447  -0.012125
   55  H  5  Z    0.010051  -0.005811  -0.013357   0.015481   0.006876
   56  F  6  S    0.000445  -0.043835   0.006557   0.011601   0.006304
   57  F  6  S   -0.001746   0.085235  -0.009106  -0.012706   0.012419
   58  F  6  S   -0.003954   0.351806  -0.071630  -0.150582  -0.215181
   59  F  6  X    0.046147   0.016427   0.015040  -0.124799   0.122490
   60  F  6  Y   -0.045437  -0.215378   0.028213   0.018421  -0.054728
   61  F  6  Z   -0.005189   0.045720   0.030820  -0.002572  -0.017248
   62  F  6  X    0.043315   0.023994   0.011828  -0.180757   0.110106
   63  F  6  Y   -0.056256  -0.211491   0.045230   0.038372   0.098753
   64  F  6  Z    0.001286   0.053704   0.069529   0.010574  -0.042544
   65  F  6 XX    0.001202   0.004310  -0.002339   0.000256   0.007087
   66  F  6 YY   -0.003183  -0.006017   0.001726  -0.002788  -0.012396
   67  F  6 ZZ    0.001981   0.001707   0.000613   0.002532   0.005309
   68  F  6 XY    0.001459   0.003344   0.000462  -0.009989   0.014806
   69  F  6 XZ    0.000194  -0.001134  -0.003400   0.003266  -0.002633
   70  F  6 YZ    0.000863   0.002848   0.003817   0.002815   0.001897
   71  H  7  S    0.063518   0.081803  -0.038399   0.092730  -0.209516
   72  H  7  S    0.969456  -0.419623  -1.420457   0.586016   0.097615
   73  H  7  X   -0.009639   0.006600   0.009193   0.015838  -0.010118
   74  H  7  Y   -0.006971  -0.011573   0.015359  -0.000352  -0.004778
   75  H  7  Z   -0.006889   0.009232   0.002723  -0.019060   0.016171
   76  H  8  S    0.054460  -0.000601   0.048377   0.097973  -0.208851
   77  H  8  S    0.974573   0.222469   1.472321   0.622934  -0.010704
   78  H  8  X   -0.006528   0.010742  -0.006460   0.013904  -0.019477
   79  H  8  Y   -0.001523  -0.016500  -0.003072   0.005487  -0.010688
   80  H  8  Z    0.010766  -0.001318   0.013782   0.015500  -0.005400

                     26         27         28         29         30
                    0.3685     0.3792     0.4132     0.4847     0.5140
                     A          A          A          A          A   
    1  C  1  S   -0.017590   0.026399  -0.017905   0.072546  -0.048097
    2  C  1  S    0.133504  -0.250003   0.149943  -0.520471   0.285767
    3  C  1  S    0.044280  -0.044005  -0.022402   1.643430  -0.346487
    4  C  1  X   -0.105635   0.042407  -0.149691  -0.641634  -0.403649
    5  C  1  Y    0.251724  -0.520029   0.430213  -0.014320  -0.296600
    6  C  1  Z   -0.088805   0.161466   0.004642  -0.006119  -0.097212
    7  C  1  X    0.123668   0.079318   0.206404   1.836758   0.459636
    8  C  1  Y   -0.258081   1.016029  -1.400929   0.584750   0.351206
    9  C  1  Z    0.658592  -0.297545  -0.099409  -0.171481  -0.109356
   10  C  1 XX    0.034905  -0.019690   0.008170   0.055478   0.039528
   11  C  1 YY    0.012315   0.004918  -0.009215  -0.057853  -0.006213
   12  C  1 ZZ   -0.047219   0.014772   0.001045   0.002375  -0.033315
   13  C  1 XY    0.023570  -0.039846  -0.005171   0.012710  -0.074694
   14  C  1 XZ    0.059257   0.032292  -0.015804  -0.026567  -0.016278
   15  C  1 YZ    0.064219   0.035254  -0.014691   0.004815  -0.046556
   16  C  2  S    0.001792   0.034203   0.029409  -0.062531  -0.065758
   17  C  2  S    0.004750  -0.267704  -0.250451   0.455107   0.409753
   18  C  2  S   -0.018352   0.003174   0.099264  -1.560765  -0.627311
   19  C  2  X   -0.098146   0.005612  -0.111614  -0.691730   0.312262
   20  C  2  Y   -0.009416  -0.456967  -0.658040  -0.001464  -0.177230
   21  C  2  Z    0.009509  -0.200582  -0.053356  -0.021158   0.097239
   22  C  2  X    0.230333  -0.180445   0.061953   1.925809  -0.108319
   23  C  2  Y   -0.135209   0.395643   1.634476  -0.412603   0.099146
   24  C  2  Z    0.369767   0.632722   0.040699  -0.155066   0.089385
   25  C  2 XX   -0.019308  -0.042018  -0.021543  -0.062424   0.012874
   26  C  2 YY   -0.011694   0.019157   0.036226   0.053028   0.015592
   27  C  2 ZZ    0.031002   0.022861  -0.014684   0.009396  -0.028466
   28  C  2 XY    0.003450   0.045412   0.024771  -0.023258   0.074290
   29  C  2 XZ   -0.076099  -0.006944   0.019319   0.030102  -0.018893
   30  C  2 YZ    0.056993   0.009295  -0.007237   0.001562   0.044125
   31  F  3  S   -0.004341   0.004527   0.010595   0.009803   0.024649
   32  F  3  S    0.005339   0.031768   0.066989  -0.053168  -0.090937
   33  F  3  S    0.040205  -0.249869  -0.632036   0.079327  -0.046751
   34  F  3  X   -0.006992  -0.003033  -0.148930   0.007985  -0.034001
   35  F  3  Y    0.016968  -0.200935  -0.234192   0.021149   0.066538
   36  F  3  Z   -0.134680  -0.094106   0.016667  -0.006807  -0.067438
   37  F  3  X   -0.061524   0.120305   0.029410  -0.099372   0.077866
   38  F  3  Y   -0.007919   0.013318   0.075259   0.010231   0.058889
   39  F  3  Z   -0.057050  -0.070333   0.030045   0.005557   0.003694
   40  F  3 XX    0.000352   0.011132   0.010115   0.017748  -0.008355
   41  F  3 YY   -0.000532  -0.031347  -0.038828  -0.012147   0.009862
   42  F  3 ZZ    0.000179   0.020215   0.028713  -0.005600  -0.001507
   43  F  3 XY    0.003885  -0.018798  -0.026238   0.017860  -0.010836
   44  F  3 XZ   -0.011175  -0.002825   0.000136  -0.001225  -0.004263
   45  F  3 YZ   -0.005181  -0.006781  -0.009613  -0.000980  -0.006829
   46  H  4  S   -0.506729  -0.011167   0.191198  -0.115504  -0.761859
   47  H  4  S    0.093044   0.036880   0.150746  -0.613616   0.681244
   48  H  4  X   -0.025307  -0.006895  -0.023725  -0.014963  -0.032932
   49  H  4  Y    0.007655   0.005299   0.002487  -0.015758   0.048750
   50  H  4  Z    0.008578   0.007567  -0.002362  -0.002260  -0.047341
   51  H  5  S    0.502846   0.310575   0.021267  -0.252727  -0.254662
   52  H  5  S   -0.178966   0.096848   0.153866  -0.220667   0.098679
   53  H  5  X    0.030609  -0.016623  -0.018176  -0.028501  -0.003821
   54  H  5  Y   -0.022270   0.001999   0.005547  -0.009155  -0.012322
   55  H  5  Z   -0.005596   0.008502   0.005753   0.021585   0.039819
   56  F  6  S   -0.003850   0.019025  -0.010973  -0.013069   0.020073
   57  F  6  S   -0.013471   0.010332  -0.044961   0.067531  -0.070266
   58  F  6  S    0.159636  -0.440330   0.496260  -0.061753  -0.074960
   59  F  6  X   -0.018674   0.043422  -0.134839  -0.004574   0.030808
   60  F  6  Y    0.077928  -0.183924   0.116061  -0.032005   0.043404
   61  F  6  Z   -0.159467  -0.007969   0.038109  -0.012031   0.062306
   62  F  6  X    0.028035  -0.151927   0.037275  -0.091893  -0.096215
   63  F  6  Y   -0.031176   0.086856  -0.105677  -0.022971   0.028702
   64  F  6  Z   -0.068547   0.009216   0.039072   0.008871  -0.007852
   65  F  6 XX   -0.003862   0.006069  -0.000039  -0.015167  -0.012194
   66  F  6 YY    0.013719  -0.026830   0.019204   0.008909   0.011326
   67  F  6 ZZ   -0.009856   0.020762  -0.019165   0.006257   0.000868
   68  F  6 XY   -0.008776   0.023985  -0.018904   0.009447   0.009785
   69  F  6 XZ    0.010529   0.002953  -0.000518   0.002574  -0.003806
   70  F  6 YZ   -0.008986   0.003775  -0.004361  -0.000821   0.006798
   71  H  7  S    0.415318   0.342309  -0.238659   0.257964  -0.709860
   72  H  7  S   -0.134018   0.029643  -0.094542   0.454962   0.822642
   73  H  7  X   -0.024454  -0.000259  -0.019296  -0.021329   0.025725
   74  H  7  Y   -0.016437   0.005536  -0.004058   0.005655   0.053331
   75  H  7  Z    0.013677  -0.004872   0.002517  -0.012793   0.047868
   76  H  8  S   -0.648706   0.029096  -0.031699   0.329308  -0.202128
   77  H  8  S    0.135164   0.199329  -0.114663   0.191580   0.164454
   78  H  8  X    0.013515   0.031846  -0.010142  -0.028647   0.002407
   79  H  8  Y    0.018245   0.025119  -0.008962   0.007147  -0.010234
   80  H  8  Z   -0.002018  -0.008111  -0.001392   0.030124  -0.035895

                     31         32         33         34         35
                    0.5367     0.5438     0.5766     0.5779     0.7604
                     A          A          A          A          A   
    1  C  1  S   -0.021697  -0.019435   0.010762  -0.070486   0.024932
    2  C  1  S    0.194647   0.127728  -0.148527   0.517233  -1.244975
    3  C  1  S   -0.500014  -0.062829   0.003564  -0.103767   2.407559
    4  C  1  X   -0.030361  -0.056304  -0.082492  -0.311080  -0.102905
    5  C  1  Y   -0.088971   0.037262  -0.109489  -0.359319   0.140361
    6  C  1  Z   -0.425738   0.771005  -0.361545   0.075998   0.042396
    7  C  1  X   -0.204716   0.096443   0.223140   1.303130  -0.399552
    8  C  1  Y   -0.003785  -0.124339   0.268935   0.562904  -0.418996
    9  C  1  Z    0.810715  -1.195934   2.418487   0.040170  -0.157168
   10  C  1 XX   -0.009940   0.030536  -0.018432   0.039035  -0.062533
   11  C  1 YY    0.007887   0.040415   0.029964   0.027453   0.060757
   12  C  1 ZZ    0.002052  -0.070952  -0.011532  -0.066488   0.001776
   13  C  1 XY   -0.009829   0.005774   0.011568  -0.019574  -0.014298
   14  C  1 XZ   -0.046439   0.022332  -0.018270  -0.014689   0.013222
   15  C  1 YZ   -0.025430   0.093284   0.043078  -0.013765  -0.013086
   16  C  2  S    0.003161  -0.031146  -0.016947   0.073089   0.018347
   17  C  2  S   -0.060679   0.239899   0.050353  -0.576003  -1.232256
   18  C  2  S    0.341150  -0.432047  -0.004509   0.159052   2.669463
   19  C  2  X   -0.009401   0.053834   0.196930  -0.303466   0.105637
   20  C  2  Y    0.126908  -0.004309  -0.186694   0.259103   0.207440
   21  C  2  Z   -0.827546  -0.297797   0.287486   0.196509  -0.030908
   22  C  2  X   -0.155928   0.122525  -0.724278   1.194786   0.350697
   23  C  2  Y   -0.153069  -0.099289   0.391256  -0.287619  -0.425393
   24  C  2  Z    1.490688   0.309633  -2.284970  -0.792144   0.161321
   25  C  2 XX    0.029538   0.017289   0.002319  -0.042817  -0.063407
   26  C  2 YY    0.020517   0.034659   0.034280  -0.015723   0.068426
   27  C  2 ZZ   -0.050055  -0.051948  -0.036599   0.058540  -0.005019
   28  C  2 XY   -0.008808  -0.003346  -0.005942  -0.024766   0.002819
   29  C  2 XZ    0.059592  -0.002145  -0.003772   0.014041   0.008907
   30  C  2 YZ   -0.074183  -0.055953  -0.033547  -0.025517   0.016896
   31  F  3  S    0.004753   0.003864   0.012043  -0.003636   0.041307
   32  F  3  S   -0.012040  -0.028840  -0.061767   0.018024  -0.178881
   33  F  3  S   -0.048012   0.059209   0.018331  -0.017208  -0.189213
   34  F  3  X    0.009206   0.015038   0.134535   0.024690   0.065457
   35  F  3  Y   -0.007783   0.023945  -0.066351  -0.046754  -0.060162
   36  F  3  Z   -0.013630   0.120351   0.189300   0.034870  -0.043702
   37  F  3  X    0.014772  -0.031548   0.026013  -0.054824  -0.025647
   38  F  3  Y    0.044599  -0.007259  -0.004068   0.027638   0.304683
   39  F  3  Z   -0.110624  -0.039646   0.139656   0.051285   0.046876
   40  F  3 XX   -0.001819  -0.001275   0.006015   0.012584   0.022293
   41  F  3 YY   -0.006907   0.001519  -0.010580  -0.013148  -0.029788
   42  F  3 ZZ    0.008726  -0.000244   0.004565   0.000565   0.007495
   43  F  3 XY   -0.001551   0.000108  -0.001565   0.005075  -0.011293
   44  F  3 XZ    0.000917   0.008700  -0.006457  -0.001764  -0.003552
   45  F  3 YZ    0.021259   0.018217   0.008166  -0.001409  -0.007740
   46  H  4  S    0.313057   0.089630   0.222652   0.547487  -0.387442
   47  H  4  S   -1.273079  -0.447815   1.256474  -0.796813  -0.824585
   48  H  4  X    0.034034   0.008125  -0.034770   0.019347  -0.007761
   49  H  4  Y   -0.048917  -0.027499  -0.017718  -0.027055  -0.040885
   50  H  4  Z    0.042048  -0.019359  -0.050052   0.051507   0.012674
   51  H  5  S   -0.345916  -0.592928  -0.540573   0.357206  -0.314008
   52  H  5  S    1.504415   0.762103  -0.764947  -1.284986  -0.504536
   53  H  5  X   -0.009704  -0.018647   0.024322   0.002380  -0.008632
   54  H  5  Y    0.035751   0.030896   0.023599   0.001918  -0.037650
   55  H  5  Z    0.067152   0.047472  -0.003234  -0.076319  -0.015122
   56  F  6  S   -0.002222   0.004786   0.009246   0.006625   0.038375
   57  F  6  S   -0.003622  -0.025074  -0.049109  -0.035001  -0.173237
   58  F  6  S    0.066276   0.012676   0.015913   0.015674  -0.134140
   59  F  6  X    0.004283  -0.018787  -0.124590  -0.028168  -0.062106
   60  F  6  Y    0.022124   0.006471  -0.084469   0.009412  -0.041347
   61  F  6  Z   -0.083161  -0.066585  -0.195792  -0.028407   0.039870
   62  F  6  X    0.034788   0.009094   0.004476  -0.052726   0.010703
   63  F  6  Y   -0.035496   0.014980   0.007461  -0.036826   0.253809
   64  F  6  Z   -0.042886   0.103787  -0.118893   0.003576  -0.040163
   65  F  6 XX   -0.000200  -0.002554   0.010304  -0.008059   0.017993
   66  F  6 YY    0.005669  -0.002059  -0.015104   0.006969  -0.024484
   67  F  6 ZZ   -0.005469   0.004613   0.004801   0.001089   0.006491
   68  F  6 XY   -0.001801   0.000816   0.001264   0.000207   0.016185
   69  F  6 XZ    0.005501   0.007534  -0.003022   0.000508  -0.004234
   70  F  6 YZ    0.001802  -0.021830  -0.012435  -0.003212   0.006844
   71  H  7  S   -0.204033   0.260234   0.368259  -0.438562  -0.344794
   72  H  7  S    0.624158  -1.121875   0.932762   1.167013  -0.829985
   73  H  7  X    0.017946  -0.020571   0.033287   0.028860   0.012594
   74  H  7  Y    0.021141  -0.055290  -0.022156   0.020794  -0.037670
   75  H  7  Z    0.043235  -0.012742   0.030849   0.064701  -0.016147
   76  H  8  S   -0.103739  -0.667709  -0.353339  -0.498701  -0.278523
   77  H  8  S   -0.593560   1.562763  -1.178013   0.916151  -0.502255
   78  H  8  X    0.005687   0.012993  -0.032191  -0.006778   0.014276
   79  H  8  Y   -0.008170   0.048242   0.018646   0.004918  -0.033920
   80  H  8  Z    0.019696  -0.080099   0.030757  -0.068483   0.016216

                     36         37         38         39         40
                    0.9054     0.9674     0.9877     1.0232     1.1372
                     A          A          A          A          A   
    1  C  1  S   -0.000281  -0.006425  -0.013934   0.026958   0.025162
    2  C  1  S   -0.180252  -0.349594  -0.752252   0.094946   1.265300
    3  C  1  S    0.188764   1.581182   3.277384  -2.022841  -4.988314
    4  C  1  X   -0.043173  -0.036107  -0.006013   0.047083  -0.155933
    5  C  1  Y    0.062979   0.025133   0.048254  -0.295749   0.151684
    6  C  1  Z   -0.046239  -0.077696   0.002762   0.034400  -0.008420
    7  C  1  X    0.180478   0.525862   0.912830  -0.558104  -1.707145
    8  C  1  Y    0.132249   0.118242  -0.171080   0.062639   0.116150
    9  C  1  Z    0.393255   0.256044  -0.197133   0.205248   0.275689
   10  C  1 XX   -0.017140   0.049997  -0.020614   0.017456  -0.068408
   11  C  1 YY   -0.067801   0.000013   0.073436  -0.129021   0.069275
   12  C  1 ZZ    0.084941  -0.050011  -0.052822   0.111565  -0.000867
   13  C  1 XY   -0.165079  -0.012017   0.011834   0.099642  -0.007278
   14  C  1 XZ    0.006764   0.193881  -0.101570   0.015484  -0.029046
   15  C  1 YZ    0.073821  -0.091056   0.009468   0.040390   0.016919
   16  C  2  S    0.000413   0.009380   0.022183  -0.005937  -0.033536
   17  C  2  S   -0.211561   0.174197   0.329001  -0.741257  -1.234453
   18  C  2  S    0.453562  -1.511942  -3.118889   2.165387   5.026445
   19  C  2  X    0.037386  -0.038007  -0.022931  -0.029446  -0.115326
   20  C  2  Y    0.089497  -0.127471  -0.298020  -0.164009  -0.099965
   21  C  2  Z    0.060964  -0.069362  -0.031533  -0.007943  -0.004456
   22  C  2  X   -0.281352   0.501749   0.830232  -0.673575  -1.681882
   23  C  2  Y    0.115390  -0.059688   0.255889  -0.154835  -0.342361
   24  C  2  Z   -0.403989   0.197379  -0.301290  -0.021033   0.279353
   25  C  2 XX   -0.057211  -0.038907   0.049085   0.039089   0.075157
   26  C  2 YY   -0.013791  -0.039234  -0.168504  -0.061781  -0.075191
   27  C  2 ZZ    0.071002   0.078142   0.119419   0.022692   0.000033
   28  C  2 XY    0.150880  -0.031959  -0.047011  -0.068569   0.008271
   29  C  2 XZ    0.025263  -0.179156   0.102158  -0.013457   0.025493
   30  C  2 YZ   -0.059735  -0.116794  -0.013552  -0.012180   0.022956
   31  F  3  S    0.007943  -0.035398  -0.061957  -0.010945   0.008065
   32  F  3  S    0.008996   0.172080   0.285997   0.057014  -0.031269
   33  F  3  S   -0.147885   0.079776   0.156268  -0.122606  -0.256418
   34  F  3  X   -0.534919   0.099997   0.070921   0.048382  -0.030743
   35  F  3  Y    0.066751   0.161613   0.548879   0.314081   0.312393
   36  F  3  Z    0.151676   0.502437  -0.181397   0.038550   0.079990
   37  F  3  X    0.673972  -0.188513  -0.245160  -0.032812   0.122721
   38  F  3  Y    0.020906  -0.387451  -1.050868  -0.454834  -0.318309
   39  F  3  Z   -0.104838  -0.628190   0.188383  -0.050828  -0.122922
   40  F  3 XX   -0.026110   0.007346   0.018668   0.016613  -0.009343
   41  F  3 YY    0.007474  -0.014944  -0.019751  -0.046467  -0.046748
   42  F  3 ZZ    0.018636   0.007598   0.001083   0.029855   0.056091
   43  F  3 XY    0.000547   0.004148  -0.016753  -0.018072  -0.044924
   44  F  3 XZ   -0.001904  -0.007328  -0.005005   0.000664   0.007176
   45  F  3 YZ    0.007982   0.015863  -0.009194  -0.010096  -0.028692
   46  H  4  S    0.060934   0.069937   0.284652  -0.261140  -0.514230
   47  H  4  S    0.150380  -0.083682   0.266780  -0.068995  -0.215650
   48  H  4  X   -0.047189  -0.084658   0.032992   0.014938   0.024585
   49  H  4  Y    0.018806  -0.046307   0.099461   0.000242   0.012166
   50  H  4  Z    0.051464   0.019055   0.028928  -0.001226   0.019504
   51  H  5  S   -0.093350   0.152233   0.203666  -0.269123  -0.485239
   52  H  5  S   -0.301231   0.184014   0.114408  -0.181780  -0.163139
   53  H  5  X   -0.048025   0.091126  -0.060027   0.016332  -0.006712
   54  H  5  Y    0.075603   0.085629   0.051299   0.004097  -0.022553
   55  H  5  Z   -0.040058   0.013116  -0.016036  -0.005853  -0.011939
   56  F  6  S    0.003493   0.025591   0.031429  -0.064325  -0.004641
   57  F  6  S    0.021747  -0.133989  -0.150584   0.360464  -0.009629
   58  F  6  S   -0.108028  -0.051404  -0.119062  -0.053792   0.266812
   59  F  6  X    0.509369   0.107556   0.051248  -0.172117   0.041467
   60  F  6  Y    0.144665  -0.010834  -0.132541   0.602463  -0.422148
   61  F  6  Z   -0.169938   0.465707  -0.206870  -0.007655   0.087884
   62  F  6  X   -0.625265  -0.197415  -0.192265   0.348673   0.057660
[...]
   27  C  2 ZZ   -0.000613  -0.006290   0.015433   0.035784  -0.060805
   28  C  2 XY   -0.000987  -0.009768   0.003801   0.002193   0.017578
   29  C  2 XZ   -0.001660  -0.002771  -0.012685   0.007666  -0.020901
   30  C  2 YZ   -0.002335  -0.006912  -0.007391  -0.008892   0.012040
   31  F  3  S    0.000935   0.002715   0.059787   0.021276   0.000577
   32  F  3  S   -0.004117  -0.008229  -0.111076  -0.028677   0.026410
   33  F  3  S    0.001355  -0.007332  -0.537005  -0.257072  -0.173364
   34  F  3  X   -0.051278   0.023162  -0.004666   0.135991  -0.120364
   35  F  3  Y   -0.046391   0.013689   0.247099   0.049574  -0.079066
   36  F  3  Z    0.011262   0.045839   0.041245   0.003831   0.013330
   37  F  3  X   -0.049552   0.024521   0.010035   0.212724  -0.154657
   38  F  3  Y   -0.067734  -0.000882   0.279016   0.084302   0.060910
   39  F  3  Z    0.005167   0.094014   0.048718  -0.008653   0.048489
   40  F  3 XX    0.001193   0.001814  -0.005290  -0.001525   0.013234
   41  F  3 YY   -0.003116  -0.000790   0.006569  -0.002167  -0.017031
   42  F  3 ZZ    0.001923  -0.001024  -0.001280   0.003691   0.003797
   43  F  3 XY   -0.000597   0.001105   0.001313   0.011198  -0.010625
   44  F  3 XZ    0.000424   0.003789  -0.000063   0.003754  -0.003244
   45  F  3 YZ   -0.000646   0.005654   0.002760  -0.003220  -0.003685
   46  H  4  S    0.055166   0.028159  -0.078658   0.066192  -0.224210
   47  H  4  S    1.013287   1.398678  -0.002086   0.600642   0.036663
   48  H  4  X    0.010511   0.011877   0.005472  -0.015317   0.014264
   49  H  4  Y   -0.005800  -0.011044   0.018625   0.000031  -0.007139
   50  H  4  Z    0.007410   0.003941   0.008435   0.019750  -0.018354
   51  H  5  S    0.055048  -0.044756   0.047493   0.094731  -0.242589
   52  H  5  S    0.892483  -1.466497  -0.240310   0.559727  -0.097339
   53  H  5  X    0.007530  -0.005421   0.011418  -0.013805   0.023006
   54  H  5  Y    0.000800   0.004503   0.020139   0.007192  -0.013944
   55  H  5  Z   -0.009968   0.013495   0.000094  -0.014595   0.003646
   56  F  6  S   -0.000996   0.002878  -0.060030  -0.021355   0.000514
   57  F  6  S    0.004223  -0.008562   0.111524   0.028787   0.026403
   58  F  6  S   -0.000806  -0.008619   0.539490   0.258074  -0.171942
   59  F  6  X   -0.054737  -0.024343   0.015748   0.139916   0.126312
   60  F  6  Y    0.041549   0.012966  -0.247518  -0.038350  -0.068636
   61  F  6  Z    0.011856  -0.046081   0.038057   0.003131  -0.015031
   62  F  6  X   -0.054761  -0.024606   0.033159   0.219403   0.149271
   63  F  6  Y    0.063045  -0.001013  -0.278626  -0.066669   0.073569
   64  F  6  Z    0.006026  -0.094500   0.045062  -0.009720  -0.047835
   65  F  6 XX   -0.001080   0.001944   0.005020  -0.000066   0.011555
   66  F  6 YY    0.003009  -0.000799  -0.006348   0.003838  -0.015390
   67  F  6 ZZ   -0.001929  -0.001145   0.001328  -0.003772   0.003834
   68  F  6 XY   -0.000983  -0.000913   0.002399   0.011037   0.013348
   69  F  6 XZ   -0.000386   0.004233  -0.000122  -0.003334  -0.003320
   70  F  6 YZ   -0.000600  -0.005338   0.002630  -0.003425   0.003092
   71  H  7  S   -0.055090   0.027991   0.078714  -0.066311  -0.222251
   72  H  7  S   -1.012652   1.397801   0.006210  -0.599073   0.035709
   73  H  7  X    0.010009  -0.010926   0.006999  -0.015242  -0.013698
   74  H  7  Y    0.006539  -0.011886  -0.018274  -0.001573  -0.008599
   75  H  7  Z    0.007486  -0.004122   0.008181   0.019730   0.018307
   76  H  8  S   -0.054905  -0.044659  -0.046985  -0.094765  -0.245336
   77  H  8  S   -0.891697  -1.466263   0.235811  -0.560386  -0.096064
   78  H  8  X    0.007570   0.004980   0.013069  -0.013152  -0.021653
   79  H  8  Y   -0.000045   0.005194  -0.019181  -0.008102  -0.015636
   80  H  8  Z   -0.009965  -0.013417  -0.000236  -0.014699  -0.003892

                     26         27
                    0.3668     0.3929
                     A          A   
    1  C  1  S   -0.014782   0.033445
    2  C  1  S    0.080415  -0.280117
    3  C  1  S    0.025854  -0.006126
    4  C  1  X   -0.099146   0.032628
    5  C  1  Y    0.128378  -0.537101
    6  C  1  Z   -0.061044   0.213690
    7  C  1  X    0.124583   0.125110
    8  C  1  Y    0.155993   0.713163
    9  C  1  Z    0.555523  -0.505835
   10  C  1 XX    0.026007  -0.031027
   11  C  1 YY    0.008373   0.022277
   12  C  1 ZZ   -0.034380   0.008751
   13  C  1 XY    0.014516  -0.057223
   14  C  1 XZ    0.072600   0.014613
   15  C  1 YZ    0.060833   0.011179
   16  C  2  S    0.014851   0.033470
   17  C  2  S   -0.081291  -0.280751
   18  C  2  S   -0.028972  -0.003152
   19  C  2  X   -0.086086   0.012290
   20  C  2  Y   -0.136418  -0.536615
   21  C  2  Z   -0.063647  -0.221248
   22  C  2  X    0.131477  -0.185568
   23  C  2  Y   -0.150569   0.701007
   24  C  2  Z    0.554647   0.514289
   25  C  2 XX   -0.028392  -0.038566
   26  C  2 YY   -0.007623   0.030157
   27  C  2 ZZ    0.036016   0.008408
   28  C  2 XY    0.013836   0.051170
   29  C  2 XZ   -0.077016   0.016497
   30  C  2 YZ    0.053807  -0.009945
   31  F  3  S   -0.008435   0.008466
   32  F  3  S    0.024372   0.031314
   33  F  3  S    0.032135  -0.344812
   34  F  3  X   -0.004222  -0.026854
   35  F  3  Y   -0.045120  -0.229711
   36  F  3  Z   -0.149401  -0.043690
   37  F  3  X   -0.030137   0.122048
   38  F  3  Y   -0.027171   0.024567
   39  F  3  Z   -0.087025  -0.046609
   40  F  3 XX    0.002986   0.011850
   41  F  3 YY   -0.008418  -0.035585
   42  F  3 ZZ    0.005433   0.023735
   43  F  3 XY   -0.001670  -0.025141
   44  F  3 XZ   -0.011417   0.000389
   45  F  3 YZ   -0.004724  -0.005728
   46  H  4  S   -0.489743   0.138534
   47  H  4  S    0.090614   0.021908
   48  H  4  X   -0.025730  -0.004842
   49  H  4  Y    0.004691   0.002723
   50  H  4  Z    0.009614   0.003439
   51  H  5  S    0.579376   0.123845
   52  H  5  S   -0.159298   0.192358
   53  H  5  X    0.024910  -0.028479
   54  H  5  Y   -0.021181   0.008889
   55  H  5  Z   -0.002259   0.012097
   56  F  6  S    0.008448   0.008339
   57  F  6  S   -0.024368   0.031302
   58  F  6  S   -0.032292  -0.342048
   59  F  6  X   -0.008374   0.045127
   60  F  6  Y    0.046164  -0.227084
   61  F  6  Z   -0.149020   0.041479
   62  F  6  X   -0.033550  -0.122990
   63  F  6  Y    0.025310   0.013046
   64  F  6  Z   -0.086494   0.047160
   65  F  6 XX   -0.002708   0.008003
   66  F  6 YY    0.008167  -0.031810
   67  F  6 ZZ   -0.005459   0.023807
   68  F  6 XY   -0.002844   0.029223
   69  F  6 XZ    0.011747   0.000262
   70  F  6 YZ   -0.003574   0.004899
   71  H  7  S    0.491749   0.135668
   72  H  7  S   -0.090487   0.021952
   73  H  7  X   -0.025107   0.004632
   74  H  7  Y   -0.006888   0.003149
   75  H  7  Z    0.009460  -0.003392
   76  H  8  S   -0.578787   0.125206
   77  H  8  S    0.160672   0.191071
   78  H  8  X    0.023242   0.027540
   79  H  8  Y    0.023306   0.011258
   80  H  8  Z   -0.001940  -0.011982

     ---------------------------------------------------------------------
     PROPERTIES FOR THE PBE      DFT FUNCTIONAL (RHF  TYPE) DENSITY MATRIX
     ---------------------------------------------------------------------

          -----------------
          ENERGY COMPONENTS
          -----------------

         WAVEFUNCTION NORMALIZATION =       1.0000000000

                ONE ELECTRON ENERGY =    -638.0017865091
                TWO ELECTRON ENERGY =     231.9936818565
           NUCLEAR REPULSION ENERGY =     128.0802738849
                                      ------------------
                       TOTAL ENERGY =    -277.9278307677

 ELECTRON-ELECTRON POTENTIAL ENERGY =     231.9936818565
  NUCLEUS-ELECTRON POTENTIAL ENERGY =    -915.0691459734
   NUCLEUS-NUCLEUS POTENTIAL ENERGY =     128.0802738849
                                      ------------------
             TOTAL POTENTIAL ENERGY =    -554.9951902321
               TOTAL KINETIC ENERGY =     277.0673594644
                 VIRIAL RATIO (V/T) =       2.0031056394

          ---------------------------------------
          MULLIKEN AND LOWDIN POPULATION ANALYSES
          ---------------------------------------

     ATOMIC MULLIKEN POPULATION IN EACH MOLECULAR ORBITAL

                      1          2          3          4          5

                  2.000000   2.000000   2.000000   2.000000   2.000000

    1             0.001289  -0.000110   1.726339   0.273494   0.120486
    2            -0.000082   0.001260   0.273244   1.726587   0.115417
    3             0.012293   1.986547  -0.000076  -0.000454   0.851173
    4             0.000000   0.000000   0.000128   0.000214   0.002657
    5            -0.000001  -0.000017   0.000122   0.000236   0.003415
    6             1.986517   0.012322  -0.000467  -0.000067   0.900475
    7            -0.000001   0.000002   0.000350  -0.000008   0.002800
    8            -0.000014  -0.000004   0.000360  -0.000002   0.003576

                      6          7          8          9         10

                  2.000000   2.000000   2.000000   2.000000   2.000000

    1             0.082273   0.704565   0.465150   0.337609   0.525346
    2             0.086894   0.704730   0.465550   0.340483   0.517466
    3             0.935220   0.147612   0.290612   0.527774   0.231814
    4             0.002473   0.074226   0.121274   0.102026   0.091089
    5             0.002769   0.073306   0.122470   0.022294   0.159115
    6             0.885458   0.147911   0.291619   0.550998   0.217081
    7             0.002333   0.074283   0.121158   0.080125   0.114694
    8             0.002580   0.073367   0.122166   0.038691   0.143395

                     11         12         13         14         15

                  2.000000   2.000000   2.000000   2.000000   2.000000

    1             0.456142   0.277299   0.308658   0.052522   0.088650
    2             0.456471   0.280425   0.310789   0.053094   0.087481
    3             0.505258   0.563998   0.465319   0.922264   0.766558
    4             0.020765   0.120602   0.074511   0.002729   0.084786
    5             0.016023   0.041513   0.150780   0.021224   0.059223
    6             0.509587   0.555091   0.466623   0.923629   0.767103
    7             0.019966   0.119269   0.074075   0.002800   0.085882
    8             0.015788   0.041803   0.149243   0.021740   0.060317

                     16         17

                  2.000000   2.000000

    1             0.277398   0.181269
    2             0.277247   0.181518
    3             0.579306   0.529482
    4             0.140630   0.066343
    5             0.004717   0.225379
    6             0.575326   0.524802
    7             0.140642   0.066239
    8             0.004734   0.224969

               ----- POPULATIONS IN EACH AO -----
                             MULLIKEN      LOWDIN
              1  C  1  S      1.99337     1.97155
              2  C  1  S      0.75830     0.38504
              3  C  1  S      0.37157     0.28225
              4  C  1  X      0.71757     0.65798
              5  C  1  Y      0.57262     0.52363
              6  C  1  Z      0.77147     0.69235
              7  C  1  X      0.21277     0.30751
              8  C  1  Y      0.12328     0.23527
              9  C  1  Z      0.29345     0.39662
             10  C  1 XX      0.01009     0.16067
             11  C  1 YY      0.01792     0.16356
             12  C  1 ZZ      0.01516     0.15469
             13  C  1 XY      0.00629     0.02930
             14  C  1 XZ      0.01450     0.01225
             15  C  1 YZ      0.00000     0.03402
             16  C  2  S      1.99337     1.97156
             17  C  2  S      0.75842     0.38518
             18  C  2  S      0.37193     0.28234
             19  C  2  X      0.73055     0.66857
             20  C  2  Y      0.56012     0.51342
             21  C  2  Z      0.77068     0.69170
             22  C  2  X      0.22296     0.31666
             23  C  2  Y      0.11381     0.22679
             24  C  2  Z      0.29292     0.39590
             25  C  2 XX      0.01021     0.15933
             26  C  2 YY      0.01789     0.16454
             27  C  2 ZZ      0.01507     0.15501
             28  C  2 XY      0.00620     0.02978
             29  C  2 XZ      0.01445     0.01264
             30  C  2 YZ      0.00000     0.03313
             31  F  3  S      1.99544     1.97165
             32  F  3  S      0.95037     0.75214
             33  F  3  S      0.99678     0.52482
             34  F  3  X      1.19881     1.16717
             35  F  3  Y      0.97642     0.92690
             36  F  3  Z      1.23677     1.20817
             37  F  3  X      0.68599     0.70924
             38  F  3  Y      0.55560     0.60162
             39  F  3  Z      0.70773     0.73211
             40  F  3 XX      0.00144     0.18956
             41  F  3 YY      0.00351     0.19716
             42  F  3 ZZ      0.00314     0.18834
             43  F  3 XY      0.00026     0.00455
             44  F  3 XZ      0.00243     0.00039
             45  F  3 YZ      0.00000     0.00388
             46  H  4  S      0.77242     0.65101
             47  H  4  S      0.11529     0.21617
             48  H  4  X      0.00481     0.01128
             49  H  4  Y      0.00521     0.01186
             50  H  4  Z      0.00672     0.01407
             51  H  5  S      0.77385     0.65786
             52  H  5  S      0.11212     0.21607
             53  H  5  X      0.00344     0.00908
             54  H  5  Y      0.00270     0.00696
             55  H  5  Z      0.01046     0.02167
             56  F  6  S      1.99544     1.97165
             57  F  6  S      0.95041     0.75206
             58  F  6  S      0.99652     0.52457
             59  F  6  X      1.18243     1.14971
             60  F  6  Y      0.99238     0.94363
             61  F  6  Z      1.23740     1.20880
             62  F  6  X      0.67648     0.70126
             63  F  6  Y      0.56413     0.60909
             64  F  6  Z      0.70803     0.73231
             65  F  6 XX      0.00144     0.19007
             66  F  6 YY      0.00324     0.19629
             67  F  6 ZZ      0.00345     0.18826
             68  F  6 XY      0.00039     0.00476
             69  F  6 XZ      0.00230     0.00059
             70  F  6 YZ      0.00000     0.00367
             71  H  7  S      0.77245     0.65118
             72  H  7  S      0.11542     0.21621
             73  H  7  X      0.00433     0.01039
             74  H  7  Y      0.00560     0.01259
             75  H  7  Z      0.00682     0.01427
             76  H  8  S      0.77383     0.65781
             77  H  8  S      0.11228     0.21615
             78  H  8  X      0.00325     0.00872
             79  H  8  Y      0.00295     0.00745
             80  H  8  Z      0.01039     0.02152

          ----- MULLIKEN ATOMIC OVERLAP POPULATIONS -----
          (OFF-DIAGONAL ELEMENTS NEED TO BE MULTIPLIED BY 2)

             1           2           3           4           5

    1    4.6350574
    2    0.3447772   4.6359931
    3   -0.0451312   0.2576981   9.1571482
    4   -0.0403051   0.3787028  -0.0281670   0.6361920
    5   -0.0408498   0.3879394  -0.0319736  -0.0418013   0.6286842
    6    0.2582211  -0.0452280   0.0009449   0.0028268   0.0013554
    7    0.3787524  -0.0403366   0.0028269   0.0084018  -0.0114122
    8    0.3878575  -0.0409728   0.0013532  -0.0113982   0.0106251

             6           7           8

    6    9.1560862
    7   -0.0282280   0.6365060
    8   -0.0319699  -0.0418996   0.6291146

          TOTAL MULLIKEN AND LOWDIN ATOMIC POPULATIONS
       ATOM         MULL.POP.    CHARGE          LOW.POP.     CHARGE
    1 C             5.878379    0.121621         6.006693   -0.006693
    2 C             5.878573    0.121427         6.006550   -0.006550
    3 F             9.314699   -0.314699         9.177703   -0.177703
    4 H             0.904452    0.095548         0.904392    0.095608
    5 H             0.902567    0.097433         0.911640    0.088360
    6 F             9.314009   -0.314009         9.176720   -0.176720
    7 H             0.904611    0.095389         0.904647    0.095353
    8 H             0.902710    0.097290         0.911656    0.088344

          MULLIKEN SPHERICAL HARMONIC POPULATIONS
       ATOM           S       P       D      F      G      H      I    TOTAL
    1 C             3.12    2.69    0.06   0.00   0.00   0.00   0.00    5.88
    2 C             3.12    2.69    0.06   0.00   0.00   0.00   0.00    5.88
    3 F             3.94    5.36    0.01   0.00   0.00   0.00   0.00    9.31
    4 H             0.89    0.02    0.00   0.00   0.00   0.00   0.00    0.90
    5 H             0.89    0.02    0.00   0.00   0.00   0.00   0.00    0.90
    6 F             3.94    5.36    0.01   0.00   0.00   0.00   0.00    9.31
    7 H             0.89    0.02    0.00   0.00   0.00   0.00   0.00    0.90
    8 H             0.89    0.02    0.00   0.00   0.00   0.00   0.00    0.90

          -------------------------------
          BOND ORDER AND VALENCE ANALYSIS     BOND ORDER THRESHOLD=0.050
          -------------------------------

                   BOND                       BOND                       BOND
  ATOM PAIR DIST  ORDER      ATOM PAIR DIST  ORDER      ATOM PAIR DIST  ORDER
    1   2  1.542  1.005        1   6  1.391  0.945        1   7  1.108  0.944
    1   8  1.108  0.949        2   3  1.391  0.944        2   4  1.108  0.944
    2   5  1.108  0.949

                       TOTAL       BONDED        FREE
      ATOM            VALENCE     VALENCE     VALENCE
    1 C                 3.843       3.843      -0.000
    2 C                 3.842       3.842      -0.000
    3 F                 0.994       0.994      -0.000
    4 H                 0.948       0.948      -0.000
    5 H                 0.950       0.950      -0.000
    6 F                 0.995       0.995       0.000
    7 H                 0.948       0.948      -0.000
    8 H                 0.950       0.950      -0.000

          ---------------------
          ELECTROSTATIC MOMENTS
          ---------------------

 POINT   1           X           Y           Z (BOHR)    CHARGE
                -0.000000    0.000000    0.000000       -0.00 (A.U.)
         DX          DY          DZ         /D/  (DEBYE)
     0.124894   -3.080074   -0.020694    3.082675
 ...... END OF PROPERTY EVALUATION ......
 STEP CPU TIME =     0.02 TOTAL CPU TIME =        108.5 (      1.8 MIN)
 TOTAL WALL CLOCK TIME=        109.0 SECONDS, CPU UTILIZATION IS    99.49%
  $VIB   
          IVIB=   0 IATOM=   0 ICOORD=   0 E=     -277.9278307677
  1.014441031E-05 3.667919452E-06 7.514430917E-06-1.235789340E-05-1.681077337E-05
 -1.023620860E-05 4.240305053E-06 5.485085534E-06 2.116156325E-06 3.366242841E-06
  4.347211088E-06-1.582083783E-06 4.018674258E-06 2.785625622E-06 6.761247200E-06
 -4.744711937E-06 2.202579381E-06-1.355492966E-06-1.925066609E-06 1.238555846E-08
  2.766686177E-06-2.741960526E-06-1.690033263E-06-5.984735272E-06
  1.248938535E-01-3.080074336E+00-2.069363555E-02
 ......END OF GEOMETRY SEARCH......
 STEP CPU TIME =     0.00 TOTAL CPU TIME =        108.5 (      1.8 MIN)
 TOTAL WALL CLOCK TIME=        109.1 SECONDS, CPU UTILIZATION IS    99.47%
                991181  WORDS OF DYNAMIC MEMORY USED
 EXECUTION OF GAMESS TERMINATED NORMALLY Sun Oct  6 23:23:43 2019
 DDI: 263640 bytes (0.3 MB / 0 MWords) used by master data server.

 ----------------------------------------
 CPU timing information for all processes
 ========================================
 0: 106.525 + 1.954 = 108.479
 ----------------------------------------
 ddikick.x: exited gracefully.
----- accounting info -----
Files used on the master node d12chas543.crc.nd.edu were:
-rw-r--r-- 1 wschnei1 campus 401999 Oct  6 23:23 /scratch365/wschnei1/20-PC1.F07
Sun Oct  6 23:23:46 EDT 2019
0.447u 0.321s 1:52.74 0.6%	0+0k 0+32io 0pf+0w
