----- GAMESS execution script 'rungms' -----
This job is running on host d12chas543.crc.nd.edu
under operating system Linux at Sun Oct 6 23:23:47 EDT 2019
SGE has assigned the following compute nodes to this run:
Available scratch disk space (Kbyte units) at beginning of the job is
Filesystem      1K-blocks     Used  Available Use% Mounted on
/dev/sda2      1949705068 64041952 1885663116   4% /
GAMESS temporary binary files will be written to /tmp/474112.1.debug
GAMESS supplementary output files will be written to /afs/crc.nd.edu/user/w/wschnei1/scr
Copying input file 30-PC1.inp to your run's scratch directory...
reading your own /afs/crc.nd.edu/user/w/wschnei1/.gmsrc

 Distributed Data Interface kickoff program.
 Initiating 1 compute processes on 1 nodes to run the following command:
 /afs/crc.nd.edu/x86_64_linux/g/gamess/nov-2017/gamess/gamess.00.x 30-PC1 

          ******************************************************
          *         GAMESS VERSION = 11 NOV 2017 (R3)         *
          *             FROM IOWA STATE UNIVERSITY             *
          * M.W.SCHMIDT, K.K.BALDRIDGE, J.A.BOATZ, S.T.ELBERT, *
          *   M.S.GORDON, J.H.JENSEN, S.KOSEKI, N.MATSUNAGA,   *
          *          K.A.NGUYEN, S.J.SU, T.L.WINDUS,           *
          *       TOGETHER WITH M.DUPUIS, J.A.MONTGOMERY       *
          *         J.COMPUT.CHEM.  14, 1347-1363(1993)        *
          **************** 64 BIT INTEL VERSION ****************

  SINCE 1993, STUDENTS AND POSTDOCS WORKING AT IOWA STATE UNIVERSITY
  AND ALSO IN THEIR VARIOUS JOBS AFTER LEAVING ISU HAVE MADE IMPORTANT
  CONTRIBUTIONS TO THE CODE:
     IVANA ADAMOVIC, CHRISTINE AIKENS, YURI ALEXEEV, POOJA ARORA,
     ANDREY ASADCHEV, ROB BELL, PRADIPTA BANDYOPADHYAY, JONATHAN BENTZ,
     BRETT BODE, KURT BRORSEN, CALEB CARLIN, GALINA CHABAN, WEI CHEN,
     CHEOL HO CHOI, PAUL DAY, ALBERT DEFUSCO, NUWAN DESILVA, TIM DUDLEY,
     DMITRI FEDOROV, ALEX FINDLATER, GRAHAM FLETCHER, MARK FREITAG,
     KURT GLAESEMANN, ANASTASIA GUININA,
     DAN KEMP, GRANT MERRILL, NORIYUKI MINEZAWA, JONATHAN MULLIN,
     TAKESHI NAGATA, SEAN NEDD, HEATHER NETZLOFF, BOSILJKA NJEGIC, RYAN OLSON,
     MIKE PAK, BUU PHAM,
     SPENCER PRUITT, LUKE ROSKOP, JIM SHOEMAKER, LYUDMILA SLIPCHENKO,
     TONY SMITH, SAROM SOK LEANG, JIE SONG, TETSUYA TAKETSUGU, SIMON WEBB,
     PENG XU, SOOHAENG YOO, FEDERICO ZAHARIEV

  ADDITIONAL CODE HAS BEEN PROVIDED BY COLLABORATORS IN OTHER GROUPS:
     IOWA STATE UNIVERSITY:
          JOE IVANIC, AARON WEST, LAIMUTIS BYTAUTAS, KLAUS RUEDENBERG
     UNIVERSITY OF TOKYO: KIMIHIKO HIRAO, TAKAHITO NAKAJIMA,
          TAKAO TSUNEDA, MUNEAKI KAMIYA, SUSUMU YANAGISAWA,
          KIYOSHI YAGI, MAHITO CHIBA, SEIKEN TOKURA, NAOAKI KAWAKAMI
     UNIVERSITY OF AARHUS: FRANK JENSEN
     UNIVERSITY OF IOWA: VISVALDAS KAIRYS, HUI LI
     NATIONAL INST. OF STANDARDS AND TECHNOLOGY: WALT STEVENS, DAVID GARMER
     UNIVERSITY OF PISA: BENEDETTA MENNUCCI, JACOPO TOMASI
     UNIVERSITY OF MEMPHIS: HENRY KURTZ, PRAKASHAN KORAMBATH
     UNIVERSITY OF ALBERTA: TOBY ZENG, MARIUSZ KLOBUKOWSKI
     UNIVERSITY OF NEW ENGLAND: MARK SPACKMAN
     MIE UNIVERSITY: HIROAKI UMEDA
     NAT. INST. OF ADVANCED INDUSTRIAL SCIENCE AND TECHNOLOGY: KAZUO KITAURA
     MICHIGAN STATE UNIVERSITY:
          KAROL KOWALSKI, MARTA WLOCH, JEFFREY GOUR, JESSE LUTZ,
          WEI LI, PIOTR PIECUCH
     UNIVERSITY OF SILESIA: MONIKA MUSIAL, STANISLAW KUCHARSKI
     FACULTES UNIVERSITAIRES NOTRE-DAME DE LA PAIX:
          OLIVIER QUINET, BENOIT CHAMPAGNE
     UNIVERSITY OF CALIFORNIA - SANTA BARBARA: BERNARD KIRTMAN
     INSTITUTE FOR MOLECULAR SCIENCE:
          KAZUYA ISHIMURA, MICHIO KATOUDA, AND SHIGERU NAGASE
     UNIVERSITY OF NOTRE DAME: ANNA POMOGAEVA, DAN CHIPMAN
     KYUSHU UNIVERSITY:
          HARUYUKI NAKANO,
          FENG LONG GU, JACEK KORCHOWIEC, MARCIN MAKOWSKI, AND YURIKO AOKI,
          HIROTOSHI MORI AND EISAKU MIYOSHI
     PENNSYLVANIA STATE UNIVERSITY:
          TZVETELIN IORDANOV, CHET SWALINA, JONATHAN SKONE,
          SHARON HAMMES-SCHIFFER
     WASEDA UNIVERSITY:
          MASATO KOBAYASHI, TOMOKO AKAMA, TSUGUKI TOUMA,
          TAKESHI YOSHIKAWA, YASUHIRO IKABATA, JUNJI SEINO,
          YUYA NAKAJIMA, HIROMI NAKAI
     NANJING UNIVERSITY: SHUHUA LI
     UNIVERSITY OF NEBRASKA:
          PEIFENG SU, DEJUN SI, NANDUN THELLAMUREGE, YALI WANG, HUI LI
     UNIVERSITY OF ZURICH: ROBERTO PEVERATI, KIM BALDRIDGE
     N. COPERNICUS UNIVERSITY AND JACKSON STATE UNIVERSITY:
          MARIA BARYSZ
     UNIVERSITY OF COPENHAGEN: Jimmy Kromann, CASPER STEINMANN
     TOKYO INSTITUTE OF TECHNOLOGY: HIROYA NAKATA
     NAGOYA UNIVERSITY: YOSHIO NISHIMOTO, STEPHAN IRLE
     MOSCOW STATE UNIVERSITY: VLADIMIR MIRONOV

 EXECUTION OF GAMESS BEGUN Sun Oct  6 23:23:47 2019

            ECHO OF THE FIRST FEW INPUT CARDS -
 INPUT CARD> $CONTRL SCFTYP=RHF DFTTYP=PBE RUNTYP=OPTIMIZE COORD=ZMT NZVAR=18 ISPHER=1 $END 
 INPUT CARD> $BASIS GBASIS=PCseg-1 $END                                                     
 INPUT CARD> $STATPT IFREEZ(1)=12 $END                                                      
 INPUT CARD> $DATA                                                                          
 INPUT CARD>FCH2CH2F eclipsed TS                                                            
 INPUT CARD>C1                                                                              
 INPUT CARD>C                                                                               
 INPUT CARD>C   1   r1                                                                      
 INPUT CARD>F   2   r2   1   A1                                                             
 INPUT CARD>H   2   r3   1   A2   3   D1                                                    
 INPUT CARD>H   2   r4   1   A3   3   D2                                                    
 INPUT CARD>F   1   r5   2   A4   3   D3                                                    
 INPUT CARD>H   1   r6   2   A5   6   D4                                                    
 INPUT CARD>H   1   r7   2   A6   6   D5                                                    
 INPUT CARD>                                                                                
 INPUT CARD>r1=1.5                                                                          
 INPUT CARD>r2=1.4                                                                          
 INPUT CARD>r3=1.1                                                                          
 INPUT CARD>r4=1.1                                                                          
 INPUT CARD>r5=1.5                                                                          
 INPUT CARD>r6=1.1                                                                          
 INPUT CARD>r7=1.1                                                                          
 INPUT CARD>A1=109.54214                                                                    
 INPUT CARD>A2=109.54214                                                                    
 INPUT CARD>A3=109.54214                                                                    
 INPUT CARD>A4=109.54214                                                                    
 INPUT CARD>A5=109.54214                                                                    
 INPUT CARD>A6=109.54214                                                                    
 INPUT CARD>D1=120.                                                                         
 INPUT CARD>D2=-120.                                                                        
 INPUT CARD>D3=30                                                                           
 INPUT CARD>D4=120.                                                                         
 INPUT CARD>D5=-120.                                                                        
 INPUT CARD> $END                                                                           
 INPUT CARD>                                                                                
    1000000 WORDS OF MEMORY AVAILABLE

     BASIS OPTIONS
     -------------
     GBASIS=PCSEG-1      IGAUSS=       0      POLAR=NONE    
     NDFUNC=       0     NFFUNC=       0     DIFFSP=       F
     NPFUNC=       0      DIFFS=       F     BASNAM=        


     RUN TITLE
     ---------
 FCH2CH2F eclipsed TS                                                            

 THE POINT GROUP OF THE MOLECULE IS C1      
 THE ORDER OF THE PRINCIPAL AXIS IS     0

 YOUR FULLY SUBSTITUTED Z-MATRIX IS
 C   
 C      1   1.5000000
 F      2   1.4000000  1  109.5421
 H      2   1.1000000  1  109.5421  3  120.0000  0
 H      2   1.1000000  1  109.5421  3 -120.0000  0
 F      1   1.5000000  2  109.5421  3   30.0000  0
 H      1   1.1000000  2  109.5421  6  120.0000  0
 H      1   1.1000000  2  109.5421  6 -120.0000  0

 THE MOMENTS OF INERTIA ARE (AMU-ANGSTROM**2)
 IXX=    36.583   IYY=    84.501   IZZ=   112.461

 ATOM      ATOMIC                      COORDINATES (BOHR)
           CHARGE         X                   Y                   Z
 C           6.0    -1.2848376430       -1.4543334878        0.2992739431
 C           6.0     1.4782507844       -1.2944059655       -0.3128210044
 F           9.0     2.3473740033        1.1604365160        0.1537186683
 H           1.0     2.5321002050       -2.6371158911        0.8735681679
 H           1.0     1.7748760005       -1.7628101606       -2.3162178209
 F           9.0    -2.5011515837        1.0678206250       -0.1414229183
 H           1.0    -2.1856291286       -2.8775929791       -0.9188783188
 H           1.0    -1.5254397666       -1.9983443654        2.2910446620

          INTERNUCLEAR DISTANCES (ANGS.)
          ------------------------------

                1 C          2 C          3 F          4 H          5 H     

   1 C       0.0000000    1.5000000 *  2.3695781 *  2.1363170 *  2.1363170 *
   2 C       1.5000000 *  0.0000000    1.4000000 *  1.1000000 *  1.1000000 *
   3 F       2.3695781 *  1.4000000 *  0.0000000    2.0476979 *  2.0476979 *
   4 H       2.1363170 *  1.1000000 *  2.0476979 *  0.0000000    1.7955050 *
   5 H       2.1363170 *  1.1000000 *  2.0476979 *  1.7955050 *  0.0000000  
   6 F       1.5000000 *  2.4505612 *  2.5709458 *  3.3505899    2.9475988 *
   7 H       1.1000000 *  2.1363170 *  3.2622507    2.6736632 *  2.2993893 *
   8 H       1.1000000 *  2.1363170 *  2.8763471 *  2.2993893 *  3.0016260  

                6 F          7 H          8 H     

   1 C       1.5000000 *  1.1000000 *  1.1000000 *
   2 C       2.4505612 *  2.1363170 *  2.1363170 *
   3 F       2.5709458 *  3.2622507    2.8763471 *
   4 H       3.3505899    2.6736632 *  2.2993893 *
   5 H       2.9475988 *  2.2993893 *  3.0016260  
   6 F       0.0000000    2.1345124 *  2.1345124 *
   7 H       2.1345124 *  0.0000000    1.7955050 *
   8 H       2.1345124 *  1.7955050 *  0.0000000  

  * ... LESS THAN  3.000


     ATOMIC BASIS SET
     ----------------
 THE CONTRACTED PRIMITIVE FUNCTIONS HAVE BEEN UNNORMALIZED
 THE CONTRACTED BASIS FUNCTIONS ARE NOW NORMALIZED TO UNITY

  SHELL TYPE  PRIMITIVE        EXPONENT          CONTRACTION COEFFICIENT(S)

 C         

      1   S       1          1243.2000000    0.005630097702
      1   S       2           187.1450000    0.041950603854
      1   S       3            42.5126000    0.184664360492
      1   S       4            11.7393000    0.466557421368
      1   S       5             3.5054800    0.448234778316

      2   S       6             5.3908900   -0.148114817444
      2   S       7             0.4933410    1.051981714281

      3   S       8             0.1497410    1.000000000000

      4   P       9             9.1805600    0.063992052045
      4   P      10             1.9365800    0.333521296407
      4   P      11             0.5262960    0.741161730513

      5   P      12             0.1363190    1.000000000000

      6   D      13             0.8000000    1.000000000000

 C         

      7   S      14          1243.2000000    0.005630097702
      7   S      15           187.1450000    0.041950603854
      7   S      16            42.5126000    0.184664360492
      7   S      17            11.7393000    0.466557421368
      7   S      18             3.5054800    0.448234778316

      8   S      19             5.3908900   -0.148114817444
      8   S      20             0.4933410    1.051981714281

      9   S      21             0.1497410    1.000000000000

     10   P      22             9.1805600    0.063992052045
     10   P      23             1.9365800    0.333521296407
     10   P      24             0.5262960    0.741161730513

     11   P      25             0.1363190    1.000000000000

     12   D      26             0.8000000    1.000000000000

 F         

     13   S      27          2931.5500000    0.005390132259
     13   S      28           441.1250000    0.040296704072
     13   S      29           100.2320000    0.180202178717
     13   S      30            27.8655000    0.465064284210
     13   S      31             8.4447000    0.452433138251

     14   S      32            13.6123000   -0.151660908297
     14   S      33             1.2612200    1.053515343452

     15   S      34             0.3708000    1.000000000000

     16   P      35            21.9305000    0.070356827475
     16   P      36             4.7855200    0.356742371235
     16   P      37             1.2837800    0.719732016372

     17   P      38             0.3115580    1.000000000000

     18   D      39             1.1000000    1.000000000000

 H         

     19   S      40            12.2518000    0.037217389296
     19   S      41             1.8687100    0.253808206955
     19   S      42             0.4182080    0.797386763917

     20   S      43             0.1061000    1.000000000000

     21   P      44             1.0000000    1.000000000000

 H         

     22   S      45            12.2518000    0.037217389296
     22   S      46             1.8687100    0.253808206955
     22   S      47             0.4182080    0.797386763917

     23   S      48             0.1061000    1.000000000000

     24   P      49             1.0000000    1.000000000000

 F         

     25   S      50          2931.5500000    0.005390132259
     25   S      51           441.1250000    0.040296704072
     25   S      52           100.2320000    0.180202178717
     25   S      53            27.8655000    0.465064284210
     25   S      54             8.4447000    0.452433138251

     26   S      55            13.6123000   -0.151660908297
     26   S      56             1.2612200    1.053515343452

     27   S      57             0.3708000    1.000000000000

     28   P      58            21.9305000    0.070356827475
     28   P      59             4.7855200    0.356742371235
     28   P      60             1.2837800    0.719732016372

     29   P      61             0.3115580    1.000000000000

     30   D      62             1.1000000    1.000000000000

 H         

     31   S      63            12.2518000    0.037217389296
     31   S      64             1.8687100    0.253808206955
     31   S      65             0.4182080    0.797386763917

     32   S      66             0.1061000    1.000000000000

     33   P      67             1.0000000    1.000000000000

 H         

     34   S      68            12.2518000    0.037217389296
     34   S      69             1.8687100    0.253808206955
     34   S      70             0.4182080    0.797386763917

     35   S      71             0.1061000    1.000000000000

     36   P      72             1.0000000    1.000000000000

 TOTAL NUMBER OF BASIS SET SHELLS             =   36
 NUMBER OF CARTESIAN GAUSSIAN BASIS FUNCTIONS =   80
 NOTE: THIS RUN WILL RESTRICT THE MO VARIATION SPACE TO SPHERICAL HARMONICS.
 THE NUMBER OF ORBITALS KEPT IN THE VARIATIONAL SPACE WILL BE PRINTED LATER.
 NUMBER OF ELECTRONS                          =   34
 CHARGE OF MOLECULE                           =    0
 SPIN MULTIPLICITY                            =    1
 NUMBER OF OCCUPIED ORBITALS (ALPHA)          =   17
 NUMBER OF OCCUPIED ORBITALS (BETA )          =   17
 TOTAL NUMBER OF ATOMS                        =    8
 THE NUCLEAR REPULSION ENERGY IS      126.7356941694

     LEBEDEV GRID-BASED DFT OPTIONS
     ------------------------------
     DFTTYP=PBE     
     NRAD  =      96     NLEB  =     302
     NRAD0 =      24     NLEB0 =     110
     SWOFF =    5.00E-03 (PURE SCF -> DFT)
     SWITCH=    3.00E-04 (COARSE -> TIGHT GRID)
     THRESH=    0.00E+00 GTHRE=    1.00E+00

 GRIMME'S EMPIRICAL DISPERSION CORRECTION= F

     $CONTRL OPTIONS
     ---------------
 SCFTYP=RHF          RUNTYP=OPTIMIZE     EXETYP=RUN     
 MPLEVL=       0     CITYP =NONE         CCTYP =NONE         VBTYP =NONE    
 DFTTYP=PBE          TDDFT =NONE    
 MULT  =       1     ICHARG=       0     NZVAR =      18     COORD =ZMT     
 PP    =NONE         RELWFN=NONE         LOCAL =NONE         NUMGRD=       F
 ISPHER=       1     NOSYM =       0     MAXIT =      30     UNITS =ANGS    
 PLTORB=       F     MOLPLT=       F     AIMPAC=       F     FRIEND=        
 NPRINT=       7     IREST =       0     GEOM  =INPUT   
 NORMF =       0     NORMP =       0     ITOL  =      20     ICUT  =       9
 INTTYP=BEST         GRDTYP=BEST         QMTTOL= 1.0E-06

     $SYSTEM OPTIONS
     ---------------
  REPLICATED MEMORY=     1000000 WORDS (ON EVERY NODE).
 DISTRIBUTED MEMDDI=           0 MILLION WORDS IN AGGREGATE,
 MEMDDI DISTRIBUTED OVER   1 PROCESSORS IS           0 WORDS/PROCESSOR.
 TOTAL MEMORY REQUESTED ON EACH PROCESSOR=     1000000 WORDS.
 TIMLIM=      525600.00 MINUTES, OR     365.0 DAYS.
 PARALL= F  BALTYP=  DLB     KDIAG=    0  COREFL= F
 MXSEQ2=     300 MXSEQ3=     150  mem10=         0

          ----------------
          PROPERTIES INPUT
          ----------------

     MOMENTS            FIELD           POTENTIAL          DENSITY
 IEMOM =       1   IEFLD =       0   IEPOT =       0   IEDEN =       0
 WHERE =COMASS     WHERE =NUCLEI     WHERE =NUCLEI     WHERE =NUCLEI  
 OUTPUT=BOTH       OUTPUT=BOTH       OUTPUT=BOTH       OUTPUT=BOTH    
 IEMINT=       0   IEFINT=       0                     IEDINT=       0
                                                       MORB  =       0
          EXTRAPOLATION IN EFFECT
          DIIS IN EFFECT
 ORBITAL PRINTING OPTION: NPREO=     1    80     2     1

     -------------------------------
     INTEGRAL TRANSFORMATION OPTIONS
     -------------------------------
     NWORD  =            0
     CUTOFF = 1.0E-09     MPTRAN =       0
     DIRTRF =       F     AOINTS =DUP     

          ----------------------
          INTEGRAL INPUT OPTIONS
          ----------------------
 NOPK  =       1 NORDER=       0 SCHWRZ=       T

   --- ENCODED Z MATRIX ---
 COORD  TYPE   I   J   K   L   M   N
    1      1    2   1
    2      1    3   2
    3      2    3   2   1
    4      1    4   2
    5      2    4   2   1
    6      3    4   2   1   3
    7      1    5   2
    8      2    5   2   1
    9      3    5   2   1   3
   10      1    6   1
   11      2    6   1   2
   12      3    6   1   2   3
   13      1    7   1
   14      2    7   1   2
   15      3    7   1   2   6
   16      1    8   1
   17      2    8   1   2
   18      3    8   1   2   6

 THE DETERMINANT OF THE G MATRIX IS 10**(   -12)


                     --------------------
                     INTERNAL COORDINATES
                     --------------------

                 - - ATOMS - -         COORDINATE      COORDINATE
 NO.   TYPE    I  J  K  L  M  N        (BOHR,RAD)       (ANG,DEG)
 ----------------------------------------------------------------
   1 STRETCH   2  1                     2.8345890       1.5000000
   2 STRETCH   3  2                     2.6456164       1.4000000
   3 BEND      3  2  1                  1.9118710     109.5421400
   4 STRETCH   4  2                     2.0786986       1.1000000
   5 BEND      4  2  1                  1.9118710     109.5421400
   6 TORSION   4  2  1  3               2.0943951     120.0000000
   7 STRETCH   5  2                     2.0786986       1.1000000
   8 BEND      5  2  1                  1.9118710     109.5421400
   9 TORSION   5  2  1  3              -2.0943951    -120.0000000
  10 STRETCH   6  1                     2.8345890       1.5000000
  11 BEND      6  1  2                  1.9118710     109.5421400
  12 TORSION   6  1  2  3               0.5235988      30.0000000
  13 STRETCH   7  1                     2.0786986       1.1000000
  14 BEND      7  1  2                  1.9118710     109.5421400
  15 TORSION   7  1  2  6               2.0943951     120.0000000
  16 STRETCH   8  1                     2.0786986       1.1000000
  17 BEND      8  1  2                  1.9118710     109.5421400
  18 TORSION   8  1  2  6              -2.0943951    -120.0000000

     ------------------------------------------
     THE POINT GROUP IS C1 , NAXIS= 0, ORDER= 1
     ------------------------------------------

 -- VARIATIONAL SPACE WILL BE RESTRICTED TO PURE SPHERICAL HARMONICS ONLY --
 AFTER EXCLUDING CONTAMINANT COMBINATIONS FROM THE CARTESIAN GAUSSIAN BASIS
 SET, THE NUMBER OF SPHERICAL HARMONICS KEPT IN THE VARIATION SPACE IS   76

     DIMENSIONS OF THE SYMMETRY SUBSPACES ARE
 A   =   76

 ..... DONE SETTING UP THE RUN .....
 STEP CPU TIME =     0.02 TOTAL CPU TIME =          0.0 (      0.0 MIN)
 TOTAL WALL CLOCK TIME=          0.0 SECONDS, CPU UTILIZATION IS    66.67%


          -----------------------------
          STATIONARY POINT LOCATION RUN
          -----------------------------

 OBTAINING INITIAL HESSIAN, HESS=GUESS   
 DIAGONAL GUESS HESSIAN IN INTERNAL COORDS IS
     1  0.3892     2  0.3267     3  0.2379     4  0.3397     5  0.2253
     6  0.2500     7  0.3397     8  0.2253     9  0.2500    10  0.2690
    11  0.2315    12  0.2500    13  0.3397    14  0.2253    15  0.2500
    16  0.3397    17  0.2253    18  0.2500

          PARAMETERS CONTROLLING GEOMETRY SEARCH ARE
          METHOD =QA                  UPHESS =BFGS    
          NNEG   =         0          NFRZ   =         1
          NSTEP  =        50          IFOLOW =         1
          HESS   =GUESS               RESTAR =         F
          IHREP  =         0          HSSEND =         F
          NPRT   =         0          NPUN   =         0
          OPTTOL = 1.000E-04          RMIN   = 1.500E-03
          RMAX   = 1.000E-01          RLIM   = 7.000E-02
          DXMAX  = 3.000E-01          PURIFY =         F
          MOVIE  =         F          TRUPD  =         T
          TRMAX  = 5.000E-01          TRMIN  = 5.000E-02
          ITBMAT =         5          STPT   =         F
          STSTEP = 1.000E-02          PROJCT=          T
          FROZEN COORD(S)=  12

 BEGINNING GEOMETRY SEARCH POINT NSERCH=   0 ...

 COORDINATES OF ALL ATOMS ARE (ANGS)
   ATOM   CHARGE       X              Y              Z
 ------------------------------------------------------------
 C           6.0  -0.6799068496  -0.7696001945   0.1583689620
 C           6.0   0.7822566838  -0.6849701882  -0.1655377586
 F           9.0   1.2421769180   0.6140766035   0.0813444220
 H           1.0   1.3399298213  -1.3955017332   0.4622724001
 H           1.0   0.9392239997  -0.9328390317  -1.2256897751
 F           9.0  -1.3235525150   0.5650663810  -0.0748377909
 H           1.0  -1.1565852101  -1.5227567371  -0.4862495011
 H           1.0  -0.8072280196  -1.0574783743   1.2123687121


                     --------------------
                     INTERNAL COORDINATES
                     --------------------

                 - - ATOMS - -         COORDINATE      COORDINATE
 NO.   TYPE    I  J  K  L  M  N        (BOHR,RAD)       (ANG,DEG)
 ----------------------------------------------------------------
   1 STRETCH   2  1                     2.8345890       1.5000000
   2 STRETCH   3  2                     2.6456164       1.4000000
   3 BEND      3  2  1                  1.9118710     109.5421400
   4 STRETCH   4  2                     2.0786986       1.1000000
   5 BEND      4  2  1                  1.9118710     109.5421400
   6 TORSION   4  2  1  3               2.0943951     120.0000000
   7 STRETCH   5  2                     2.0786986       1.1000000
   8 BEND      5  2  1                  1.9118710     109.5421400
   9 TORSION   5  2  1  3              -2.0943951    -120.0000000
  10 STRETCH   6  1                     2.8345890       1.5000000
  11 BEND      6  1  2                  1.9118710     109.5421400
  12 TORSION   6  1  2  3               0.5235988      30.0000000
  13 STRETCH   7  1                     2.0786986       1.1000000
  14 BEND      7  1  2                  1.9118710     109.5421400
  15 TORSION   7  1  2  6               2.0943951     120.0000000
  16 STRETCH   8  1                     2.0786986       1.1000000
  17 BEND      8  1  2                  1.9118710     109.5421400
  18 TORSION   8  1  2  6              -2.0943951    -120.0000000

 THE CURRENT FULLY SUBSTITUTED Z-MATRIX IS
 C   
 C      1   1.5000000
 F      2   1.4000000  1   109.5421400
 H      2   1.1000000  1   109.5421400  3   120.0000000  0
 H      2   1.1000000  1   109.5421400  3  -120.0000000  0
 F      1   1.5000000  2   109.5421400  3    30.0000000  0
 H      1   1.1000000  2   109.5421400  6   120.0000000  0
 H      1   1.1000000  2   109.5421400  6  -120.0000000  0

          ********************
          1 ELECTRON INTEGRALS
          ********************
 ...... END OF ONE-ELECTRON INTEGRALS ......
 STEP CPU TIME =     0.00 TOTAL CPU TIME =          0.0 (      0.0 MIN)
 TOTAL WALL CLOCK TIME=          0.0 SECONDS, CPU UTILIZATION IS    50.00%

          -------------
          GUESS OPTIONS
          -------------
          GUESS =HUCKEL            NORB  =       0          NORDER=       0
          MIX   =       F          PRTMO =       F          PUNMO =       F
          TOLZ  = 1.0E-08          TOLE  = 1.0E-05
          SYMDEN=       F          PURIFY=       F

 INITIAL GUESS ORBITALS GENERATED BY HUCKEL   ROUTINE.
 HUCKEL GUESS REQUIRES     54920 WORDS.

 STATISTICS FOR GENERATION OF SYMMETRY ORBITAL -Q- MATRIX
 NUMBER OF CARTESIAN ATOMIC ORBITALS=         80
 NUMBER OF SPHERICAL CONTAMINANTS DROPPED=     4
 NUMBER OF LINEARLY DEPENDENT MOS DROPPED=     0
 TOTAL NUMBER OF MOS IN VARIATION SPACE=      76

 SYMMETRIES FOR INITIAL GUESS ORBITALS FOLLOW.   BOTH SET(S).
    17 ORBITALS ARE OCCUPIED (    4 CORE ORBITALS).
     5=A        6=A        7=A        8=A        9=A       10=A       11=A   
    12=A       13=A       14=A       15=A       16=A       17=A       18=A   
    19=A       20=A       21=A       22=A       23=A       24=A       25=A   
    26=A       27=A   
 ...... END OF INITIAL ORBITAL SELECTION ......
 STEP CPU TIME =     0.01 TOTAL CPU TIME =          0.0 (      0.0 MIN)
 TOTAL WALL CLOCK TIME=          0.1 SECONDS, CPU UTILIZATION IS    60.00%

                    ----------------------
                    AO INTEGRAL TECHNOLOGY
                    ----------------------
     S,P,L SHELL ROTATED AXIS INTEGRALS, REPROGRAMMED BY
        KAZUYA ISHIMURA (IMS) AND JOSE SIERRA (SYNSTAR).
     S,P,D,L SHELL ROTATED AXIS INTEGRALS PROGRAMMED BY
        KAZUYA ISHIMURA (INSTITUTE FOR MOLECULAR SCIENCE).
     S,P,D,F,G SHELL TO TOTAL QUARTET ANGULAR MOMENTUM SUM 5,
        ERIC PROGRAM BY GRAHAM FLETCHER (ELORET AND NASA ADVANCED
        SUPERCOMPUTING DIVISION, AMES RESEARCH CENTER).
     S,P,D,F,G,L SHELL GENERAL RYS QUADRATURE PROGRAMMED BY
        MICHEL DUPUIS (PACIFIC NORTHWEST NATIONAL LABORATORY).

          --------------------
          2 ELECTRON INTEGRALS
          --------------------

 THE -PK- OPTION IS OFF, THE INTEGRALS ARE NOT IN SUPERMATRIX FORM.
 STORING   15000 INTEGRALS/RECORD ON DISK, USING 12 BYTES/INTEGRAL.
 TWO ELECTRON INTEGRAL EVALUATION REQUIRES   91062 WORDS OF MEMORY.
 SCHWARZ INEQUALITY OVERHEAD:      3237 INTEGRALS, T=        0.00
 II,JST,KST,LST =  1  1  1  1 NREC =         1 INTLOC =    1
 II,JST,KST,LST =  2  1  1  1 NREC =         1 INTLOC =    2
 II,JST,KST,LST =  3  1  1  1 NREC =         1 INTLOC =    7
 II,JST,KST,LST =  4  1  1  1 NREC =         1 INTLOC =   22
 II,JST,KST,LST =  5  1  1  1 NREC =         1 INTLOC =   67
 II,JST,KST,LST =  6  1  1  1 NREC =         1 INTLOC =  214
 II,JST,KST,LST =  7  1  1  1 NREC =         1 INTLOC = 1189
 II,JST,KST,LST =  8  1  1  1 NREC =         1 INTLOC = 3205
 II,JST,KST,LST =  9  1  1  1 NREC =         1 INTLOC = 5669
 II,JST,KST,LST = 10  1  1  1 NREC =         1 INTLOC = 8593
 II,JST,KST,LST = 11  1  1  1 NREC =         2 INTLOC = 5506
 II,JST,KST,LST = 12  1  1  1 NREC =         3 INTLOC = 8184
 II,JST,KST,LST = 13  1  1  1 NREC =         7 INTLOC = 6091
 II,JST,KST,LST = 14  1  1  1 NREC =         8 INTLOC = 4012
 II,JST,KST,LST = 15  1  1  1 NREC =         9 INTLOC = 4778
 II,JST,KST,LST = 16  1  1  1 NREC =        10 INTLOC = 7615
 II,JST,KST,LST = 17  1  1  1 NREC =        14 INTLOC = 9509
 II,JST,KST,LST = 18  1  1  1 NREC =        20 INTLOC =  489
 II,JST,KST,LST = 19  1  1  1 NREC =        34 INTLOC =11379
 II,JST,KST,LST = 20  1  1  1 NREC =        37 INTLOC =14538
 II,JST,KST,LST = 21  1  1  1 NREC =        41 INTLOC = 6044
 II,JST,KST,LST = 22  1  1  1 NREC =        52 INTLOC =13795
 II,JST,KST,LST = 23  1  1  1 NREC =        57 INTLOC = 4504
 II,JST,KST,LST = 24  1  1  1 NREC =        61 INTLOC =14367
 II,JST,KST,LST = 25  1  1  1 NREC =        77 INTLOC = 6735
 II,JST,KST,LST = 26  1  1  1 NREC =        80 INTLOC =10489
 II,JST,KST,LST = 27  1  1  1 NREC =        85 INTLOC = 9986
 II,JST,KST,LST = 28  1  1  1 NREC =        91 INTLOC =14201
 II,JST,KST,LST = 29  1  1  1 NREC =       109 INTLOC =  311
 II,JST,KST,LST = 30  1  1  1 NREC =       132 INTLOC =13038
 II,JST,KST,LST = 31  1  1  1 NREC =       184 INTLOC = 8416
 II,JST,KST,LST = 32  1  1  1 NREC =       195 INTLOC = 7994
 II,JST,KST,LST = 33  1  1  1 NREC =       207 INTLOC = 7235
 II,JST,KST,LST = 34  1  1  1 NREC =       240 INTLOC =  550
 II,JST,KST,LST = 35  1  1  1 NREC =       253 INTLOC =10095
 II,JST,KST,LST = 36  1  1  1 NREC =       268 INTLOC = 4246
 SCHWARZ INEQUALITY TEST SKIPPED       15922 INTEGRAL BLOCKS.
 TOTAL NUMBER OF NONZERO TWO-ELECTRON INTEGRALS =             4655247
        311 INTEGRAL RECORDS WERE STORED ON DISK FILE  8.
  ...... END OF TWO-ELECTRON INTEGRALS .....
 STEP CPU TIME =     0.48 TOTAL CPU TIME =          0.5 (      0.0 MIN)
 TOTAL WALL CLOCK TIME=          0.5 SECONDS, CPU UTILIZATION IS    96.23%

          --------------------------
               R-PBE SCF CALCULATION
          --------------------------

     NUCLEAR ENERGY =       126.7356941694
     MAXIT =   30     NPUNCH=    2
     EXTRAP=T  DAMP=F  SHIFT=F  RSTRCT=F  DIIS=T  DEM=F  SOSCF=F
         DENSITY MATRIX CONVERGENCE THRESHOLD=  1.00E-05
     COARSE -> FINE DFT GRID SWITCH THRESHOLD=  3.00E-04 (SWITCH IN $DFT)
                   HF -> DFT SWITCH THRESHOLD=  5.00E-03 (SWOFF IN $DFT)
     MEMORY REQUIRED FOR RHF ITERS=    365468 WORDS.

 DFT CODE IS SWITCHING FROM THE FINE GRID NRAD= 96,  NLEB=  302
                      TO THE COARSE GRID NRAD0= 24, NLEB0=  110

     EXCHANGE FUNCTIONAL   =PBE       
     CORRELATION FUNCTIONAL=PBE       
     DFT THRESHOLD         =.172E-07
     GRID CHANGE THRESHOLD =.300E-03
 FOR AN EULER-MACLAURIN QUADRATURE USING  96 RADIAL POINTS:
 SMALLEST GAUSSIAN PRIMITIVE EXPONENT=        0.1061000000 OF TYPE -S-
 ON ATOM NUMBER   4 HAS RADIAL NORMALIZATION=  1.000000
  LARGEST GAUSSIAN PRIMITIVE EXPONENT=     2931.5500000000 OF TYPE -S-
 ON ATOM NUMBER   3 HAS RADIAL NORMALIZATION=  1.000000
 DFT IS SWITCHED OFF, PERFORMING PURE SCF UNTIL SWOFF THRESHOLD IS REACHED.

 ITER EX DEM     TOTAL ENERGY        E CHANGE  DENSITY CHANGE    DIIS ERROR
   1  0  0     -276.1185602987  -276.1185602987   0.192543081   0.757092661
          * * *   INITIATING DIIS PROCEDURE   * * *
   2  1  0     -276.7675084907    -0.6489481920   0.091078792   0.081635683
   3  2  0     -276.8093617272    -0.0418532365   0.048804420   0.047018181
   4  3  0     -276.8249396792    -0.0155779520   0.008982671   0.011523940
   5  4  0     -276.8256721729    -0.0007324937   0.002255228   0.001553724
 CONVERGED TO SWOFF, SO DFT CALCULATION IS NOW SWITCHED ON.
          * * *   INITIATING DIIS PROCEDURE   * * *
   6  5  0     -277.8936159049    -1.0679437320   0.102290258   0.086846405
   7  6  0     -277.9077215949    -0.0141056899   0.089224771   0.044774387
   8  7  0     -277.9055406777     0.0021809172   0.054520335   0.050563460
   9  8  0     -277.9225705170    -0.0170298393   0.007059928   0.004642382
  10  9  0     -277.9228336645    -0.0002631475   0.002070653   0.001220355
  11 10  0     -277.9228474916    -0.0000138271   0.000647704   0.000504935
  12 11  0     -277.9228496953    -0.0000022036   0.000091409   0.000089961
 DFT CODE IS SWITCHING BACK TO THE FINE GRID
          * * *   INITIATING DIIS PROCEDURE   * * *
  13 12  0     -277.9226755537     0.0001741416   0.004813523   0.003194056
  14 13  0     -277.9227177542    -0.0000422006   0.005499544   0.001857589
  15 14  0     -277.9227116147     0.0000061396   0.002986916   0.002092412
  16 15  0     -277.9227440697    -0.0000324551   0.000298744   0.000140289
  17 16  0     -277.9227441998    -0.0000001301   0.000141579   0.000101793
  18 17  0     -277.9227442663    -0.0000000665   0.000025013   0.000017295
  19 18  0     -277.9227442682    -0.0000000018   0.000006931   0.000005086
  20 19  0     -277.9227442683    -0.0000000002   0.000000627   0.000000309

          -----------------
          DENSITY CONVERGED
          -----------------
     TIME TO FORM FOCK OPERATORS=       9.6 SECONDS (       0.5 SEC/ITER)
     TIME TO SOLVE SCF EQUATIONS=       0.0 SECONDS (       0.0 SEC/ITER)

 FINAL R-PBE ENERGY IS     -277.9227442683 AFTER  20 ITERATIONS
 DFT EXCHANGE + CORRELATION ENERGY =       -32.8969059664
 TOTAL ELECTRON NUMBER             =        33.9997764404

          ------------
          EIGENVECTORS
          ------------

                      1          2          3          4          5
                  -24.2336   -24.2238    -9.9743    -9.9731    -1.0957
                     A          A          A          A          A   
    1  C  1  S    0.000047  -0.000180   0.992282  -0.046185  -0.019484
    2  C  1  S    0.000061  -0.000943   0.036672  -0.002798   0.034816
    3  C  1  S   -0.003510   0.008371  -0.021841   0.007091   0.026146
    4  C  1  X   -0.000355  -0.000549  -0.000468  -0.000937   0.011306
    5  C  1  Y   -0.000121   0.000800   0.000082  -0.000170   0.018909
    6  C  1  Z    0.000033  -0.000113   0.000012   0.000219  -0.004503
    7  C  1  X   -0.001188  -0.000148  -0.002732   0.002878   0.008492
    8  C  1  Y   -0.001151   0.004093   0.000802   0.000280   0.004062
    9  C  1  Z    0.000570  -0.000819   0.000252  -0.000593  -0.002052
   10  C  1 XX   -0.000057  -0.000159  -0.000354  -0.000897   0.002709
   11  C  1 YY    0.000055   0.000461   0.000051   0.000475   0.000728
   12  C  1 ZZ    0.000003  -0.000302   0.000304   0.000422  -0.003437
   13  C  1 XY   -0.000133  -0.000426   0.000113  -0.000117  -0.000212
   14  C  1 XZ   -0.000028   0.000089   0.000152   0.000337  -0.000703
   15  C  1 YZ    0.000017  -0.000169   0.000099   0.000037  -0.000953
   16  C  2  S   -0.000132   0.000044   0.046372   0.992230  -0.065439
   17  C  2  S   -0.000574   0.000091   0.000604   0.037072   0.123593
   18  C  2  S    0.009497  -0.003239   0.005388  -0.021709   0.016824
   19  C  2  X    0.000555   0.000298   0.001000   0.000508   0.025729
   20  C  2  Y    0.001044  -0.000092  -0.000020   0.000603   0.093606
   21  C  2  Z    0.000160  -0.000030  -0.000215   0.000122   0.019641
   22  C  2  X   -0.000355   0.001178  -0.002714   0.002839   0.005978
   23  C  2  Y    0.004102  -0.001047   0.000079   0.001276   0.007455
   24  C  2  Z    0.000891  -0.000447   0.000625  -0.000275   0.001518
   25  C  2 XX   -0.000145  -0.000051  -0.000933  -0.000328  -0.005544
   26  C  2 YY    0.000274   0.000040   0.000498   0.000218   0.016128
   27  C  2 ZZ   -0.000129   0.000011   0.000435   0.000110  -0.010584
   28  C  2 XY    0.000157   0.000137  -0.000045   0.000014   0.010691
   29  C  2 XZ    0.000059  -0.000038   0.000358   0.000153   0.001420
   30  C  2 YZ    0.000101   0.000003  -0.000010  -0.000003   0.006369
   31  F  3  S    0.993084   0.001116   0.000008   0.000063  -0.232676
   32  F  3  S    0.034010  -0.000099  -0.000148   0.000421   0.473455
   33  F  3  S   -0.016861   0.000566  -0.000052  -0.000623   0.485265
   34  F  3  X   -0.000371   0.000019   0.000088   0.000127  -0.032940
   35  F  3  Y   -0.001148  -0.000007   0.000047   0.000269  -0.092410
   36  F  3  Z   -0.000215   0.000062  -0.000000   0.000043  -0.016193
   37  F  3  X    0.001275   0.000077  -0.000295   0.000403  -0.014947
   38  F  3  Y    0.003545  -0.000146   0.000180   0.001869  -0.042901
   39  F  3  Z    0.000707  -0.000228   0.000097   0.000409  -0.007162
   40  F  3 XX    0.000193  -0.000078   0.000185   0.000402  -0.003981
   41  F  3 YY   -0.000373   0.000030  -0.000137  -0.001000   0.009730
   42  F  3 ZZ    0.000181   0.000048  -0.000048   0.000598  -0.005750
   43  F  3 XY   -0.000260  -0.000021   0.000008  -0.000653   0.006794
   44  F  3 XZ   -0.000069   0.000035  -0.000058  -0.000108   0.001073
   45  F  3 YZ   -0.000126   0.000002  -0.000032  -0.000367   0.003325
   46  H  4  S   -0.000911   0.000163  -0.000333  -0.001255   0.022437
   47  H  4  S    0.000010   0.000432   0.000527   0.003376   0.000938
   48  H  4  X   -0.000009  -0.000125  -0.000110   0.000557  -0.002227
   49  H  4  Y   -0.000401   0.000090  -0.000087  -0.000906   0.004186
   50  H  4  Z   -0.000074   0.000007   0.000077   0.000762  -0.002609
   51  H  5  S   -0.000971   0.000174  -0.000396  -0.001177   0.022304
   52  H  5  S   -0.000324  -0.000475   0.000540   0.003426   0.001817
   53  H  5  X   -0.000023   0.000070  -0.000132   0.000063  -0.000435
   54  H  5  Y   -0.000403   0.000037  -0.000033  -0.000332   0.002108
   55  H  5  Z   -0.000135  -0.000016  -0.000054  -0.001215   0.004965
   56  F  6  S   -0.001116   0.993091   0.000046   0.000003  -0.044096
   57  F  6  S   -0.000175   0.033666   0.000348  -0.000166   0.088691
   58  F  6  S    0.000566  -0.015862   0.000116   0.000001   0.091921
   59  F  6  X   -0.000023   0.000464  -0.000065  -0.000088   0.010622
   60  F  6  Y    0.000009  -0.001035   0.000051   0.000024  -0.014684
   61  F  6  Z   -0.000054   0.000178  -0.000001   0.000006   0.002358
   62  F  6  X   -0.000024  -0.001550  -0.000318   0.000289   0.006196
   63  F  6  Y   -0.000214   0.003188   0.001283   0.000032  -0.006529
   64  F  6  Z    0.000187  -0.000583  -0.000273  -0.000054   0.001227
   65  F  6 XX   -0.000081   0.000127   0.000265   0.000135   0.000355
   66  F  6 YY    0.000041  -0.000312  -0.000832  -0.000049   0.001258
   67  F  6 ZZ    0.000039   0.000185   0.000568  -0.000086  -0.001613
   68  F  6 XY    0.000005   0.000319   0.000760  -0.000042  -0.001788
   69  F  6 XZ    0.000029  -0.000071  -0.000125  -0.000039   0.000304
   70  F  6 YZ    0.000002   0.000102   0.000297  -0.000003  -0.000573
   71  H  7  S    0.000182  -0.000731  -0.001268  -0.000188   0.004522
   72  H  7  S    0.000484   0.000113   0.003451   0.000259   0.000299
   73  H  7  X    0.000107   0.000097  -0.000443   0.000168   0.000307
   74  H  7  Y    0.000102  -0.000357  -0.000963   0.000019   0.000892
   75  H  7  Z   -0.000017   0.000118  -0.000801  -0.000007   0.000678
   76  H  8  S    0.000171  -0.000785  -0.001192  -0.000267   0.005177
   77  H  8  S   -0.000557  -0.000185   0.003547   0.000198   0.000574
   78  H  8  X   -0.000081   0.000082  -0.000008   0.000133   0.000058
   79  H  8  Y    0.000021  -0.000394  -0.000372   0.000014   0.000523
   80  H  8  Z    0.000011   0.000049   0.001231  -0.000058  -0.001329

                      6          7          8          9         10
                   -1.0552    -0.7159    -0.5765    -0.4687    -0.4633
                     A          A          A          A          A   
    1  C  1  S   -0.050823  -0.153639   0.128323   0.000897  -0.007910
    2  C  1  S    0.098140   0.314264  -0.278772   0.000008   0.032543
    3  C  1  S    0.016140   0.176041  -0.147467  -0.007724  -0.009112
    4  C  1  X   -0.033899   0.104896   0.112829   0.061285   0.041803
    5  C  1  Y    0.069761  -0.040831   0.046136   0.046908   0.226177
    6  C  1  Z   -0.013243  -0.016435  -0.041995   0.279992  -0.048893
    7  C  1  X   -0.010351   0.030724   0.036455   0.014884   0.017922
    8  C  1  Y    0.009248  -0.023782   0.036787   0.017182   0.066712
    9  C  1  Z   -0.001504  -0.005984  -0.021917   0.115726  -0.013271
   10  C  1 XX   -0.003456   0.008936   0.008401   0.003120  -0.001808
   11  C  1 YY    0.011027  -0.005441  -0.005490  -0.001858   0.007708
   12  C  1 ZZ   -0.007571  -0.003494  -0.002910  -0.001262  -0.005900
   13  C  1 XY   -0.010507  -0.000127   0.000694   0.000040   0.005378
   14  C  1 XZ    0.001635  -0.003832  -0.004116   0.006086  -0.002469
   15  C  1 YZ   -0.004116   0.000151  -0.000333  -0.001761  -0.005477
   16  C  2  S    0.004951  -0.148834  -0.128564   0.000657   0.002959
   17  C  2  S   -0.011716   0.304571   0.281150   0.002536   0.010931
   18  C  2  S    0.015246   0.164993   0.135705  -0.010646  -0.046749
   19  C  2  X   -0.022128  -0.104563   0.131451   0.061197  -0.110491
   20  C  2  Y   -0.016894  -0.053925  -0.018933   0.036546   0.306875
   21  C  2  Z   -0.002336   0.016904  -0.042228   0.323021  -0.033332
   22  C  2  X   -0.010032  -0.029559   0.042997   0.012301  -0.048294
   23  C  2  Y   -0.000832  -0.029699  -0.036122  -0.000061   0.076917
   24  C  2  Z    0.000663   0.005634  -0.022618   0.131230  -0.025127
   25  C  2 XX    0.004247   0.008988  -0.008457  -0.003532  -0.003188
   26  C  2 YY   -0.004710  -0.005716   0.006314   0.004720   0.013204
   27  C  2 ZZ    0.000463  -0.003273   0.002143  -0.001187  -0.010016
   28  C  2 XY   -0.003491   0.001219   0.000814  -0.000546  -0.002076
   29  C  2 XZ   -0.001170  -0.004028   0.004502  -0.003221  -0.002504
   30  C  2 YZ   -0.001291  -0.000678   0.000304   0.003677   0.007853
   31  F  3  S    0.050585   0.057264   0.052163   0.018204   0.037159
   32  F  3  S   -0.104198  -0.124066  -0.115375  -0.037158  -0.076823
   33  F  3  S   -0.107585  -0.144366  -0.138217  -0.061695  -0.118212
   34  F  3  X    0.001817  -0.042263  -0.025327  -0.049358  -0.255537
   35  F  3  Y    0.018221  -0.075799  -0.191746  -0.170423  -0.242908
   36  F  3  Z    0.003216  -0.009211  -0.051258   0.168642  -0.100126
   37  F  3  X   -0.000530  -0.019066  -0.019075  -0.030842  -0.156683
   38  F  3  Y    0.009565  -0.045056  -0.114288  -0.101109  -0.147679
   39  F  3  Z    0.001336  -0.007153  -0.030737   0.099584  -0.059023
   40  F  3 XX    0.001757  -0.001187  -0.005138  -0.001362   0.002022
   41  F  3 YY   -0.002347   0.003837   0.008770   0.007073   0.002517
   42  F  3 ZZ    0.000591  -0.002651  -0.003632  -0.005711  -0.004540
   43  F  3 XY   -0.001047   0.003861   0.002024   0.002789   0.011965
   44  F  3 XZ   -0.000129   0.000445   0.001088  -0.003323   0.002701
   45  F  3 YZ   -0.000640   0.001050   0.003678  -0.008797   0.004698
   46  H  4  S   -0.003778   0.114216   0.164407   0.134401  -0.196254
   47  H  4  S    0.000447  -0.006738   0.011190   0.017194  -0.046240
   48  H  4  X    0.000316  -0.007584  -0.004752  -0.005174   0.005878
   49  H  4  Y   -0.000735   0.006449   0.008149   0.006939  -0.002226
   50  H  4  Z    0.000362  -0.006518  -0.008919   0.001886   0.006784
   51  H  5  S   -0.003180   0.108879   0.165149  -0.212081  -0.040407
   52  H  5  S   -0.000617  -0.001439   0.006529  -0.028144  -0.018888
   53  H  5  X    0.000043  -0.003176   0.000443   0.005440  -0.002043
   54  H  5  Y   -0.000363   0.001330   0.002316  -0.002460   0.006291
   55  H  5  Z   -0.000502   0.010886   0.012939  -0.008394  -0.003189
   56  F  6  S   -0.238497   0.050778  -0.042575  -0.005343   0.031692
   57  F  6  S    0.485681  -0.110094   0.095333   0.010833  -0.066467
   58  F  6  S    0.507514  -0.127066   0.110314   0.019665  -0.101710
   59  F  6  X    0.033317   0.039925  -0.039822  -0.001951   0.185664
   60  F  6  Y   -0.071624  -0.060793   0.140026   0.056123  -0.174669
   61  F  6  Z    0.011334   0.007245  -0.034323   0.117881   0.020865
   62  F  6  X    0.016765   0.018787  -0.028587  -0.001803   0.115768
   63  F  6  Y   -0.037763  -0.038112   0.086473   0.031963  -0.108720
   64  F  6  Z    0.005595   0.005876  -0.021288   0.068558   0.011950
   65  F  6 XX   -0.002794  -0.000717   0.003354   0.000864   0.002695
   66  F  6 YY    0.008298   0.003086  -0.006579  -0.003313   0.001786
   67  F  6 ZZ   -0.005505  -0.002369   0.003224   0.002449  -0.004481
   68  F  6 XY   -0.008071  -0.003811   0.003428   0.000338  -0.008247
   69  F  6 XZ    0.001191   0.000453  -0.001187   0.003266   0.000826
   70  F  6 YZ   -0.002734  -0.000911   0.002525  -0.005960  -0.000812
   71  H  7  S    0.019169   0.118345  -0.165235  -0.159407  -0.089509
   72  H  7  S    0.001138  -0.007063  -0.013133  -0.025094  -0.025738
   73  H  7  X    0.001327   0.006979  -0.004132  -0.005711  -0.003208
   74  H  7  Y    0.003698   0.007450  -0.008270  -0.006648   0.000601
   75  H  7  Z    0.002137   0.007045  -0.009084  -0.000029  -0.004668
   76  H  8  S    0.018889   0.113876  -0.166818   0.171179  -0.067127
   77  H  8  S    0.001883  -0.001665  -0.006312   0.019450  -0.018468
   78  H  8  X    0.000055   0.003041   0.000519   0.004974  -0.000656
   79  H  8  Y    0.001990   0.002063  -0.002384   0.004094   0.004238
   80  H  8  Z   -0.003910  -0.011417   0.012972  -0.006286   0.003567

                     11         12         13         14         15
                   -0.4324    -0.4063    -0.3902    -0.3157    -0.3032
                     A          A          A          A          A   
    1  C  1  S    0.008125  -0.011405  -0.002968  -0.024274  -0.011615
    2  C  1  S   -0.019712   0.016848   0.003513   0.053335   0.024463
    3  C  1  S   -0.018206   0.038752   0.015123   0.134511   0.074244
    4  C  1  X    0.322917   0.035950   0.016996   0.098372   0.024690
    5  C  1  Y    0.039047  -0.287932   0.020382   0.005355  -0.019695
    6  C  1  Z   -0.036852  -0.007798   0.306409   0.029562  -0.081224
    7  C  1  X    0.122424  -0.010088   0.005026   0.108156   0.064406
    8  C  1  Y    0.034712  -0.080218   0.010622  -0.041048   0.015271
    9  C  1  Z   -0.010428  -0.007851   0.142088  -0.026683  -0.023814
   10  C  1 XX    0.006044   0.002040  -0.005248  -0.008521  -0.006191
   11  C  1 YY   -0.003760  -0.012597  -0.003138   0.004143   0.006754
   12  C  1 ZZ   -0.002285   0.010557   0.008387   0.004378  -0.000564
   13  C  1 XY    0.005684   0.018894  -0.000077   0.006093   0.007147
   14  C  1 XZ   -0.005313  -0.000059  -0.012149   0.003494  -0.009895
   15  C  1 YZ   -0.000651   0.006089  -0.000465  -0.010349   0.013746
   16  C  2  S   -0.011225   0.014650  -0.003356   0.017832   0.006051
   17  C  2  S    0.020793  -0.029149   0.004434  -0.035544  -0.009483
   18  C  2  S    0.041334  -0.045839   0.016021  -0.118713  -0.059379
   19  C  2  X   -0.310667  -0.067251   0.003156  -0.002861  -0.048353
   20  C  2  Y   -0.094600   0.187995   0.010432   0.021961   0.051904
   21  C  2  Z    0.049312   0.007574  -0.227531   0.075191  -0.133327
   22  C  2  X   -0.116953  -0.049755   0.002584   0.060112   0.038607
   23  C  2  Y   -0.005157   0.045008   0.013555   0.061995   0.007279
   24  C  2  Z    0.022128  -0.002098  -0.106838   0.003975  -0.049246
   25  C  2 XX    0.004967  -0.004915  -0.005459   0.013604   0.007570
   26  C  2 YY   -0.008298   0.013736  -0.001394  -0.005423  -0.011669
   27  C  2 ZZ    0.003330  -0.008821   0.006853  -0.008181   0.004100
   28  C  2 XY   -0.014705   0.016065  -0.001269   0.011585   0.011767
   29  C  2 XZ   -0.005695  -0.001460  -0.015344  -0.002539   0.005304
   30  C  2 YZ   -0.001014   0.004260  -0.007968  -0.011903   0.018197
   31  F  3  S   -0.020369   0.013452  -0.001646   0.003935   0.002121
   32  F  3  S    0.040829  -0.024829   0.002528  -0.006147  -0.006782
   33  F  3  S    0.062482  -0.041711   0.003627  -0.028812   0.001014
   34  F  3  X   -0.145587  -0.166496  -0.001746   0.396499   0.263558
   35  F  3  Y    0.320694  -0.212910   0.123556  -0.101069  -0.178943
   36  F  3  Z    0.113934  -0.085409  -0.291575  -0.257078   0.348758
   37  F  3  X   -0.089161  -0.102079  -0.003640   0.262837   0.174638
   38  F  3  Y    0.199279  -0.129368   0.079593  -0.061228  -0.120773
   39  F  3  Z    0.069147  -0.054953  -0.187970  -0.176000   0.247111
   40  F  3 XX    0.009900  -0.001044   0.000907  -0.003547  -0.002443
   41  F  3 YY   -0.012027   0.003241  -0.005700   0.003162   0.004766
   42  F  3 ZZ    0.002127  -0.002197   0.004794   0.000386  -0.002323
   43  F  3 XY    0.005148   0.006527  -0.000878  -0.009606  -0.004874
   44  F  3 XZ   -0.000100   0.001798   0.002981   0.000562  -0.003766
   45  F  3 YZ   -0.005714   0.003132   0.011386   0.005362  -0.005652
   46  H  4  S   -0.037318  -0.148810  -0.103417   0.001268  -0.176347
   47  H  4  S   -0.004653  -0.041443  -0.028875   0.017984  -0.094190
   48  H  4  X   -0.004794   0.001933   0.001992  -0.000931   0.004563
   49  H  4  Y   -0.004498  -0.000908  -0.005026   0.000422  -0.000815
   50  H  4  Z    0.002889   0.005285  -0.001463   0.002410   0.001081
   51  H  5  S   -0.039719  -0.068269   0.180774  -0.119719   0.114734
   52  H  5  S   -0.009966  -0.020640   0.051814  -0.045919   0.037474
   53  H  5  X   -0.005463  -0.001559   0.000052   0.001407  -0.004492
   54  H  5  Y   -0.002816   0.003598   0.003533   0.000603   0.000664
   55  H  5  Z   -0.002404  -0.003625   0.005350  -0.003068   0.001562
   56  F  6  S   -0.013335  -0.030336  -0.003165  -0.003847  -0.001928
   57  F  6  S    0.028137   0.061720   0.005543   0.006733   0.007418
   58  F  6  S    0.039108   0.093431   0.011418   0.023922  -0.006517
   59  F  6  X    0.108866  -0.224878  -0.006274   0.352501   0.184820
   60  F  6  Y    0.220763   0.377937   0.117088   0.141366   0.195463
   61  F  6  Z   -0.048934  -0.111837   0.241400  -0.273161   0.351801
   62  F  6  X    0.065028  -0.142284  -0.002167   0.229790   0.116521
   63  F  6  Y    0.141534   0.240404   0.075559   0.087255   0.131310
   64  F  6  Z   -0.029595  -0.071595   0.153113  -0.184624   0.246857
   65  F  6 XX    0.008334   0.002164   0.001034   0.004996   0.002487
   66  F  6 YY   -0.009913  -0.007251  -0.005030  -0.004443  -0.005052
   67  F  6 ZZ    0.001579   0.005087   0.003996  -0.000554   0.002564
   68  F  6 XY   -0.002097   0.009344   0.001375  -0.007833  -0.003056
   69  F  6 XZ    0.000068  -0.002362   0.003626  -0.001634   0.003846
   70  F  6 YZ    0.002836   0.004449  -0.009417   0.005501  -0.005639
   71  H  7  S   -0.125395   0.170374  -0.165443  -0.032860   0.089888
   72  H  7  S   -0.023902   0.049825  -0.047847  -0.035889   0.052981
   73  H  7  X    0.003228   0.005049  -0.003254   0.000586   0.004375
   74  H  7  Y   -0.005286  -0.001101  -0.006957  -0.000654  -0.000410
   75  H  7  Z   -0.005955   0.006043   0.001300   0.000358  -0.000136
   76  H  8  S   -0.077175   0.064541   0.242460   0.064268  -0.066653
   77  H  8  S   -0.020618   0.020661   0.064645   0.022728  -0.017227
   78  H  8  X    0.006159   0.000936   0.001481   0.003450  -0.002745
   79  H  8  Y   -0.000634  -0.006726   0.004311  -0.000279   0.000393
   80  H  8  Z    0.004612  -0.003567  -0.006887  -0.001249   0.000916

                     16         17         18         19         20
                   -0.2913    -0.2831    -0.0188     0.0148     0.0428
                     A          A          A          A          A   
    1  C  1  S    0.016882  -0.007262  -0.061771  -0.082100  -0.002235
    2  C  1  S   -0.049834   0.022128   0.175986   0.148266  -0.003574
    3  C  1  S   -0.043066   0.034579   0.270286   1.148728   0.114831
    4  C  1  X   -0.236100   0.095785  -0.164309  -0.142219   0.075528
    5  C  1  Y   -0.092119  -0.006662   0.372947  -0.100263   0.042324
    6  C  1  Z   -0.036726  -0.196620  -0.084411   0.040104   0.274848
    7  C  1  X   -0.053593   0.034122  -0.268895  -0.317252   0.191283
    8  C  1  Y   -0.028569  -0.012649   0.487660  -0.207461   0.212528
    9  C  1  Z    0.023755  -0.035557  -0.178132   0.102440   0.625793
   10  C  1 XX   -0.016092   0.010823   0.008342   0.009545   0.007395
   11  C  1 YY    0.017042   0.004292  -0.026284  -0.001810   0.006216
   12  C  1 ZZ   -0.000950  -0.015115   0.017942  -0.007735  -0.013611
   13  C  1 XY    0.009399  -0.004714   0.037292  -0.003039   0.004549
   14  C  1 XZ    0.005233   0.001563   0.001913  -0.005572   0.022303
   15  C  1 YZ    0.005923   0.015669   0.007748  -0.000623   0.015387
   16  C  2  S    0.018131  -0.006629  -0.024275  -0.072707  -0.001973
   17  C  2  S   -0.052359   0.021060   0.082567   0.123316   0.015007
   18  C  2  S   -0.069105   0.035271   0.066532   1.122055  -0.083238
   19  C  2  X    0.244996  -0.091739   0.072877   0.133122   0.085756
   20  C  2  Y   -0.058540  -0.021753   0.227828  -0.128681  -0.017088
   21  C  2  Z    0.027042   0.199735   0.052976  -0.046033   0.280133
   22  C  2  X    0.081180  -0.033684   0.165911   0.302156   0.240150
   23  C  2  Y   -0.014259  -0.022576   0.347492  -0.237340  -0.158000
   24  C  2  Z   -0.031191   0.044304   0.137664  -0.107356   0.636370
   25  C  2 XX   -0.012387   0.009907   0.015788   0.008276  -0.006245
   26  C  2 YY    0.013831   0.006034  -0.027540   0.001128  -0.009750
   27  C  2 ZZ   -0.001444  -0.015941   0.011752  -0.009404   0.015995
   28  C  2 XY   -0.011534   0.005321  -0.035850   0.004197   0.001265
   29  C  2 XZ    0.006455   0.003129   0.006086  -0.004354  -0.023370
   30  C  2 YZ   -0.003640  -0.015679  -0.006804   0.001483   0.011583
   31  F  3  S    0.002056  -0.002371   0.045054  -0.003540   0.008563
   32  F  3  S   -0.008892   0.004834  -0.088046   0.011923  -0.020825
   33  F  3  S    0.009125   0.014517  -0.330022   0.001155  -0.044976
   34  F  3  X   -0.319625   0.082280   0.094634  -0.033561   0.009253
   35  F  3  Y    0.080197   0.021374   0.204941   0.051610   0.053691
   36  F  3  Z   -0.049674  -0.360106   0.020266   0.032900  -0.045727
   37  F  3  X   -0.237120   0.059846   0.093243  -0.051280   0.000020
   38  F  3  Y    0.057848   0.014741   0.194029   0.072874   0.053639
   39  F  3  Z   -0.029260  -0.248476   0.020945   0.035819  -0.072226
   40  F  3 XX    0.003575  -0.000153   0.000402  -0.000808  -0.001041
   41  F  3 YY   -0.002733  -0.000405   0.000579   0.003306   0.002102
   42  F  3 ZZ   -0.000842   0.000558  -0.000981  -0.002498  -0.001060
   43  F  3 XY    0.002450  -0.001014   0.000432  -0.001378   0.000907
   44  F  3 XZ    0.001402   0.001489   0.000339  -0.000466  -0.004943
   45  F  3 YZ   -0.000070   0.004671  -0.000058   0.001849  -0.003559
   46  H  4  S    0.181150   0.107014   0.107972  -0.039934  -0.091524
   47  H  4  S    0.109484   0.046338   0.164662  -0.816813  -1.029548
   48  H  4  X    0.001610  -0.004817   0.013023  -0.002038  -0.006260
   49  H  4  Y    0.002119   0.001927   0.007926   0.007505   0.012126
   50  H  4  Z   -0.004364   0.002665   0.005412  -0.013372  -0.006376
   51  H  5  S   -0.010825  -0.233556  -0.000801  -0.048058   0.090232
   52  H  5  S   -0.015039  -0.135986   0.107229  -0.679916   1.090078
   53  H  5  X    0.005747  -0.000663   0.002071   0.004962   0.007101
   54  H  5  Y   -0.002696  -0.000646   0.010688   0.000877  -0.005556
   55  H  5  Z    0.001375  -0.004121  -0.003953   0.013168  -0.013462
   56  F  6  S    0.001085  -0.002050   0.061162   0.002243  -0.002755
   57  F  6  S   -0.006838   0.004117  -0.117803  -0.000282   0.009212
   58  F  6  S    0.013022   0.012333  -0.432298  -0.035194   0.000681
   59  F  6  X    0.417657  -0.094329  -0.163708   0.012644   0.004035
   60  F  6  Y    0.173967   0.002226   0.314596   0.081876  -0.028454
   61  F  6  Z    0.092221   0.412984  -0.039277  -0.037088  -0.040141
   62  F  6  X    0.299765  -0.066810  -0.159603   0.027634  -0.004766
   63  F  6  Y    0.119874   0.000627   0.298359   0.098537  -0.024840
   64  F  6  Z    0.060366   0.283350  -0.037141  -0.037418  -0.062460
   65  F  6 XX    0.005204  -0.000685  -0.000400  -0.001187   0.000817
   66  F  6 YY   -0.004677   0.000110   0.001630   0.003803  -0.001531
   67  F  6 ZZ   -0.000526   0.000576  -0.001230  -0.002615   0.000714
   68  F  6 XY   -0.003573   0.001008  -0.001814   0.000144   0.001055
   69  F  6 XZ    0.001793   0.002242   0.000352   0.000024   0.004476
   70  F  6 YZ   -0.000452  -0.005041  -0.000237  -0.001973  -0.002668
   71  H  7  S    0.194243   0.103305   0.057226  -0.054465   0.105180
   72  H  7  S    0.114973   0.045879   0.023388  -0.835337   1.033965
   73  H  7  X   -0.001453   0.004676  -0.014483   0.000595  -0.006141
   74  H  7  Y    0.001366   0.002225   0.012737   0.009371  -0.011933
   75  H  7  Z    0.004644  -0.002555  -0.007722   0.012623  -0.007069
   76  H  8  S   -0.015439  -0.228717  -0.002724  -0.050712  -0.094762
   77  H  8  S   -0.013632  -0.133470   0.076096  -0.710066  -1.089187
   78  H  8  X   -0.005928   0.000647  -0.005920  -0.006264   0.005821
   79  H  8  Y   -0.003278  -0.000333   0.015962   0.002772   0.008511
   80  H  8  Z   -0.001351   0.003785   0.005012  -0.013348  -0.012887

                     21         22         23         24         25
                    0.0660     0.1027     0.1103     0.1788     0.3432
                     A          A          A          A          A   
    1  C  1  S    0.091307   0.029159   0.000513  -0.075090   0.004799
    2  C  1  S   -0.157625  -0.114836   0.001489   0.094156   0.023804
    3  C  1  S   -1.432448   0.325935  -0.151803   1.829709   0.561967
    4  C  1  X    0.042573   0.165360  -0.097222   0.328984   0.441921
    5  C  1  Y    0.101211  -0.337112  -0.037268   0.150947  -0.198007
    6  C  1  Z   -0.025883  -0.053945  -0.277065  -0.140509  -0.090782
    7  C  1  X    0.007858   0.362404  -0.299531   1.944545  -0.848384
    8  C  1  Y    0.315186  -0.700679  -0.029838   0.696774   0.154601
    9  C  1  Z   -0.078114  -0.292501  -0.994392  -0.498792   0.331257
   10  C  1 XX    0.003954  -0.007674   0.001097  -0.042315   0.052546
   11  C  1 YY   -0.004288   0.019555  -0.012567   0.010121  -0.006120
   12  C  1 ZZ    0.000334  -0.011881   0.011469   0.032194  -0.046426
   13  C  1 XY    0.005149   0.005923  -0.011855  -0.007076  -0.010058
   14  C  1 XZ   -0.001297   0.015089   0.001362   0.014433  -0.030269
   15  C  1 YZ    0.002817  -0.009120  -0.002049   0.012893  -0.012073
   16  C  2  S   -0.100726  -0.047126   0.016972   0.078358   0.005097
   17  C  2  S    0.182801   0.153061  -0.057769  -0.105963   0.051431
   18  C  2  S    1.531306  -0.075437  -0.045155  -1.880069   0.410483
   19  C  2  X    0.068897   0.173403   0.026213   0.360443  -0.426210
   20  C  2  Y   -0.061099   0.364974  -0.177931  -0.117982  -0.193895
   21  C  2  Z   -0.013197   0.077671   0.277599  -0.134367   0.091370
   22  C  2  X    0.104780   0.537629   0.062352   1.977706   0.975498
   23  C  2  Y   -0.226961   0.896937  -0.356679  -0.550986  -0.020025
   24  C  2  Z   -0.026503   0.238394   1.024452  -0.518787  -0.418406
   25  C  2 XX   -0.001031   0.013182  -0.006690   0.041459   0.049327
   26  C  2 YY   -0.001695  -0.035424   0.002007  -0.008086   0.004656
   27  C  2 ZZ    0.002726   0.022242   0.004683  -0.033373  -0.053983
   28  C  2 XY   -0.001214  -0.000781   0.011539   0.000662   0.018226
   29  C  2 XZ    0.001749  -0.010829   0.007790  -0.015948  -0.027792
   30  C  2 YZ    0.000974  -0.014339   0.007293   0.012425   0.013705
   31  F  3  S    0.010341   0.068076  -0.014595  -0.015163  -0.001088
   32  F  3  S   -0.017721  -0.124548   0.032681   0.012589   0.020526
   33  F  3  S   -0.091023  -0.601679   0.099488   0.221878  -0.104344
   34  F  3  X    0.055032   0.020349  -0.029775  -0.128680  -0.107402
   35  F  3  Y    0.092940   0.274090  -0.063103  -0.032786  -0.071305
   36  F  3  Z   -0.002326   0.063951  -0.064515  -0.000008   0.022947
   37  F  3  X    0.055079   0.037285  -0.032977  -0.210209  -0.155981
   38  F  3  Y    0.117158   0.310207  -0.045064  -0.071622   0.037495
   39  F  3  Z    0.007688   0.062220  -0.110137   0.018164   0.065446
   40  F  3 XX   -0.001727  -0.004762  -0.001562   0.001716   0.012377
   41  F  3 YY    0.003552   0.005173   0.000270   0.001022  -0.014355
   42  F  3 ZZ   -0.001825  -0.000411   0.001292  -0.002737   0.001978
   43  F  3 XY    0.000498   0.001904  -0.001871  -0.009850  -0.008341
   44  F  3 XZ   -0.000576   0.000375  -0.003333  -0.005901  -0.004456
   45  F  3 YZ    0.001444   0.001958  -0.006068   0.004513  -0.003782
   46  H  4  S   -0.051835  -0.056474  -0.006313  -0.099972  -0.214422
   47  H  4  S   -1.054117  -0.111800  -1.379424  -0.612976   0.048002
   48  H  4  X   -0.008682   0.006679  -0.012692   0.013530   0.011566
   49  H  4  Y    0.009748   0.019944   0.008593   0.002913  -0.005492
   50  H  4  Z   -0.005402   0.011636  -0.003279  -0.020502  -0.021530
   51  H  5  S   -0.051357   0.055418   0.040403  -0.103301  -0.271407
   52  H  5  S   -0.926937   0.229521   1.497308  -0.558453  -0.097354
   53  H  5  X   -0.004605   0.011957  -0.000006   0.015176   0.019787
   54  H  5  Y    0.001697   0.022350  -0.007757  -0.007402  -0.012757
   55  H  5  Z    0.010592  -0.005466  -0.014437   0.013544   0.003448
   56  F  6  S    0.000623  -0.042098   0.009233   0.009054   0.005311
   57  F  6  S   -0.001450   0.080361  -0.012954  -0.005357   0.015060
   58  F  6  S   -0.008442   0.341662  -0.099858  -0.138474  -0.207759
   59  F  6  X    0.044927   0.027118   0.018657  -0.119761   0.123235
   60  F  6  Y   -0.043132  -0.200965   0.039034   0.010227  -0.055194
   61  F  6  Z   -0.008811   0.064751   0.030903  -0.000315  -0.026305
   62  F  6  X    0.042167   0.038867   0.014101  -0.180413   0.105363
   63  F  6  Y   -0.053390  -0.196489   0.062824   0.029103   0.091398
   64  F  6  Z   -0.000247   0.074791   0.064417   0.018273  -0.062234
   65  F  6 XX    0.001264   0.003877  -0.003222   0.000485   0.006090
   66  F  6 YY   -0.002971  -0.004789   0.002228  -0.002375  -0.011444
   67  F  6 ZZ    0.001707   0.000913   0.000994   0.001890   0.005353
   68  F  6 XY    0.001459   0.003583   0.000468  -0.009252   0.014622
   69  F  6 XZ    0.000391  -0.001767  -0.003204   0.004513  -0.003905
   70  F  6 YZ    0.001204   0.003602   0.003494   0.004075   0.002564
   71  H  7  S    0.069105   0.091644  -0.046300   0.095777  -0.203768
   72  H  7  S    0.995764  -0.537659  -1.325224   0.561453   0.113655
   73  H  7  X   -0.010106   0.005651   0.008241   0.016002  -0.007482
   74  H  7  Y   -0.008118  -0.008757   0.016796  -0.001970  -0.003170
   75  H  7  Z   -0.006360   0.010490  -0.000832  -0.019604   0.017890
   76  H  8  S    0.054190  -0.021971   0.061032   0.099556  -0.212195
   77  H  8  S    0.949413   0.331636   1.421535   0.600727  -0.040346
   78  H  8  X   -0.005216   0.012051  -0.004756   0.014192  -0.020871
   79  H  8  Y    0.000225  -0.015906  -0.000732   0.006495  -0.011664
   80  H  8  Z    0.011341   0.000235   0.014788   0.013923  -0.002126

                     26         27         28         29         30
                    0.3724     0.3817     0.4121     0.4808     0.5081
                     A          A          A          A          A   
    1  C  1  S   -0.029452   0.016793  -0.017998   0.071389   0.046431
    2  C  1  S    0.231735  -0.177215   0.149786  -0.498189  -0.283547
    3  C  1  S    0.053843   0.002123  -0.057678   1.574630   0.331781
    4  C  1  X   -0.164852   0.008316  -0.107766  -0.653161   0.378815
    5  C  1  Y    0.440314  -0.354239   0.417968  -0.015372   0.284243
    6  C  1  Z   -0.161570   0.193745  -0.011149   0.023449   0.046275
    7  C  1  X    0.205057   0.088042   0.113208   1.786787  -0.360209
    8  C  1  Y   -0.579941   0.808651  -1.425621   0.515234  -0.316831
    9  C  1  Z    0.782210  -0.257123  -0.134516  -0.285989   0.370548
   10  C  1 XX    0.045649   0.001708  -0.001348   0.051731  -0.037884
   11  C  1 YY    0.013222   0.014554  -0.011992  -0.056846   0.023826
   12  C  1 ZZ   -0.058871  -0.016262   0.013340   0.005114   0.014057
   13  C  1 XY    0.034991  -0.023819  -0.008566   0.013527   0.081631
   14  C  1 XZ    0.033936   0.046037  -0.024288  -0.035024   0.016362
   15  C  1 YZ    0.041593   0.053338  -0.024250   0.007532   0.049561
   16  C  2  S   -0.002803   0.036328   0.028707  -0.061974   0.063049
   17  C  2  S    0.048783  -0.275899  -0.242244   0.435532  -0.398067
   18  C  2  S   -0.030897   0.002276   0.142011  -1.492333   0.586985
   19  C  2  X   -0.102491  -0.089648  -0.089819  -0.698956  -0.287096
   20  C  2  Y    0.038263  -0.469548  -0.627227   0.007494   0.167195
   21  C  2  Z    0.113949  -0.243627  -0.088067   0.013833  -0.046623
   22  C  2  X    0.274088   0.045370   0.013473   1.860680   0.020156
   23  C  2  Y   -0.167506   0.352853   1.633494  -0.365660  -0.067145
   24  C  2  Z    0.026405   0.848569   0.050905  -0.286314  -0.346922
   25  C  2 XX   -0.018015  -0.049427  -0.009044  -0.058568  -0.010420
   26  C  2 YY   -0.019613   0.014758   0.035472   0.055392   0.000952
   27  C  2 ZZ    0.037628   0.034668  -0.026428   0.003176   0.009468
   28  C  2 XY   -0.001763   0.045768   0.021844  -0.022142  -0.082782
   29  C  2 XZ   -0.062410  -0.018812   0.029083   0.038879   0.017791
   30  C  2 YZ    0.048201   0.022788  -0.012554   0.005209  -0.046474
   31  F  3  S   -0.006505   0.003129   0.009882   0.011802  -0.023708
   32  F  3  S    0.004665   0.036322   0.069181  -0.056451   0.082082
   33  F  3  S    0.082752  -0.263870  -0.621356   0.049047   0.065734
   34  F  3  X   -0.012686  -0.022491  -0.155467   0.007840   0.060675
   35  F  3  Y    0.051990  -0.195932  -0.225540   0.014882  -0.079701
   36  F  3  Z   -0.094391  -0.152082   0.035076  -0.006228   0.081798
   37  F  3  X   -0.091733   0.073958   0.041135  -0.093028  -0.079273
   38  F  3  Y   -0.015138   0.019927   0.068610   0.021648  -0.065725
   39  F  3  Z   -0.017304  -0.092700   0.045269   0.015096   0.014405
   40  F  3 XX   -0.002203   0.012218   0.007272   0.018498   0.010071
   41  F  3 YY    0.004828  -0.032012  -0.033607  -0.013981  -0.012243
   42  F  3 ZZ   -0.002624   0.019794   0.026335  -0.004517   0.002172
   43  F  3 XY    0.007855  -0.019696  -0.028003   0.016210   0.010589
   44  F  3 XZ   -0.010197  -0.006750   0.000480  -0.001627   0.004548
   45  F  3 YZ   -0.004642  -0.012478  -0.012314  -0.003008   0.005858
   46  H  4  S   -0.439661  -0.150381   0.248640  -0.089613   0.798483
   47  H  4  S    0.081788   0.035481   0.156182  -0.628588  -0.597679
   48  H  4  X   -0.026381  -0.010934  -0.022434  -0.013348   0.032547
   49  H  4  Y    0.005967   0.004667   0.002389  -0.016451  -0.055416
   50  H  4  Z    0.007368   0.010470  -0.002432  -0.000674   0.034636
   51  H  5  S    0.390844   0.453998  -0.058298  -0.265020   0.150282
   52  H  5  S   -0.211388   0.052086   0.177447  -0.167579  -0.134439
   53  H  5  X    0.034535  -0.010284  -0.016961  -0.028782   0.003408
   54  H  5  Y   -0.023410  -0.007156   0.008589  -0.008787   0.018367
   55  H  5  Z   -0.014868   0.007816   0.008271   0.023361  -0.036261
   56  F  6  S   -0.009352   0.016710  -0.010269  -0.015095  -0.019022
   57  F  6  S   -0.022174   0.002328  -0.046978   0.070311   0.061615
   58  F  6  S    0.323105  -0.348247   0.485170  -0.030168   0.089456
   59  F  6  X   -0.045897   0.035039  -0.133019  -0.007048  -0.056839
   60  F  6  Y    0.139639  -0.137993   0.115091  -0.026394  -0.058994
   61  F  6  Z   -0.159716  -0.047154   0.063333  -0.011294  -0.076419
   62  F  6  X    0.063439  -0.128219   0.052504  -0.082779   0.098326
   63  F  6  Y   -0.065814   0.072631  -0.093731  -0.034902  -0.032825
   64  F  6  Z   -0.064369  -0.000311   0.055215   0.017303  -0.008197
   65  F  6 XX   -0.005981   0.004238   0.001984  -0.015328   0.013802
   66  F  6 YY    0.022485  -0.018429   0.016297   0.010321  -0.014089
   67  F  6 ZZ   -0.016504   0.014190  -0.018281   0.005007   0.000288
   68  F  6 XY   -0.018376   0.019971  -0.019112   0.008049  -0.009452
   69  F  6 XZ    0.009970   0.006163  -0.001456   0.003373   0.003920
   70  F  6 YZ   -0.013250   0.001620  -0.005189  -0.001982  -0.006585
   71  H  7  S    0.247820   0.420200  -0.309364   0.232631   0.750008
   72  H  7  S   -0.112394  -0.017318  -0.092579   0.465677  -0.757777
   73  H  7  X   -0.021418  -0.012478  -0.018911  -0.020232  -0.025787
   74  H  7  Y   -0.014500  -0.001827  -0.003116   0.005198  -0.060673
   75  H  7  Z    0.016536   0.000830   0.002580  -0.009647  -0.036413
   76  H  8  S   -0.632922  -0.187762   0.053676   0.326703   0.101485
   77  H  8  S    0.065132   0.247756  -0.151277   0.148216  -0.175273
   78  H  8  X    0.000659   0.035363  -0.008808  -0.028343  -0.003120
   79  H  8  Y    0.011164   0.030180  -0.013110   0.007739   0.016004
   80  H  8  Z   -0.000938  -0.016288   0.000620   0.030901   0.031949

                     31         32         33         34         35
                    0.5406     0.5474     0.5607     0.5789     0.7674
                     A          A          A          A          A   
    1  C  1  S   -0.026162  -0.021264  -0.006292  -0.071513   0.024205
    2  C  1  S    0.242841   0.147583  -0.027620   0.536757  -1.253073
    3  C  1  S   -0.603726  -0.054319  -0.118398  -0.119148   2.435411
    4  C  1  X   -0.045733  -0.016391  -0.205443  -0.270518  -0.100611
    5  C  1  Y   -0.111891   0.102123  -0.252234  -0.324567   0.149304
    6  C  1  Z   -0.384671   0.777178  -0.303204   0.195387   0.043445
    7  C  1  X   -0.222826   0.037429   0.611108   1.189893  -0.409146
    8  C  1  Y    0.038491  -0.256979   0.512029   0.449624  -0.438524
    9  C  1  Z    0.760935  -1.260855   2.136417  -0.508470  -0.085874
   10  C  1 XX   -0.011346   0.035790  -0.011488   0.040152  -0.059758
   11  C  1 YY    0.006593   0.052679   0.041797   0.018253   0.055549
   12  C  1 ZZ    0.004753  -0.088469  -0.030308  -0.058406   0.004209
   13  C  1 XY   -0.011271   0.013585   0.001556  -0.024119  -0.022372
   14  C  1 XZ   -0.039377   0.008958  -0.021969  -0.015797   0.018333
   15  C  1 YZ   -0.027167   0.076131   0.027344  -0.029464  -0.012729
   16  C  2  S    0.004886  -0.036063  -0.012640   0.074745   0.017660
   17  C  2  S   -0.075979   0.292900   0.001833  -0.577658  -1.242922
   18  C  2  S    0.415892  -0.530643  -0.064154   0.171604   2.711727
   19  C  2  X   -0.065734   0.041688   0.216141  -0.299728   0.106145
   20  C  2  Y    0.204726   0.011036  -0.208309   0.271054   0.214341
   21  C  2  Z   -0.823134  -0.278868   0.238522   0.213921  -0.025953
   22  C  2  X   -0.070005   0.174721  -0.725213   1.211507   0.355185
   23  C  2  Y   -0.312513  -0.132362   0.470543  -0.282983  -0.443189
   24  C  2  Z    1.579512   0.276450  -2.040714  -0.602246   0.089682
   25  C  2 XX    0.036303   0.020016  -0.002826  -0.040823  -0.062779
   26  C  2 YY    0.029960   0.041133   0.041439  -0.015997   0.064729
   27  C  2 ZZ   -0.066262  -0.061149  -0.038614   0.056821  -0.001950
   28  C  2 XY   -0.016460  -0.008316  -0.003913  -0.026536   0.012213
   29  C  2 XZ    0.043461  -0.013403  -0.003958   0.019751   0.014118
   30  C  2 YZ   -0.067353  -0.038972  -0.027159  -0.028597   0.019200
   31  F  3  S    0.004735   0.002360   0.015790  -0.004886   0.040935
   32  F  3  S   -0.011352  -0.026866  -0.078835   0.025830  -0.175117
   33  F  3  S   -0.050379   0.080129   0.021404  -0.026727  -0.196333
   34  F  3  X    0.010466   0.015029   0.169825   0.001976   0.036968
   35  F  3  Y   -0.008712   0.028475  -0.092685  -0.040133  -0.051510
   36  F  3  Z   -0.017136   0.109419   0.151862   0.007995  -0.041730
   37  F  3  X    0.009108  -0.049396   0.039504  -0.052591   0.005682
   38  F  3  Y    0.058844  -0.015307  -0.003875   0.028478   0.300507
   39  F  3  Z   -0.116174  -0.035445   0.133344   0.040621   0.066081
   40  F  3 XX   -0.001589  -0.001783   0.008599   0.011230   0.019769
   41  F  3 YY   -0.010032   0.001722  -0.014288  -0.010947  -0.027431
   42  F  3 ZZ    0.011622   0.000061   0.005689  -0.000282   0.007661
   43  F  3 XY   -0.000733   0.001348  -0.002661   0.004091  -0.012497
   44  F  3 XZ    0.002561   0.008764  -0.006559  -0.001046  -0.005991
   45  F  3 YZ    0.019692   0.017414   0.005125  -0.003678  -0.009767
   46  H  4  S    0.303396   0.017756   0.217071   0.520449  -0.393495
   47  H  4  S   -1.323864  -0.371274   1.042736  -0.936901  -0.839227
   48  H  4  X    0.036609   0.003219  -0.035557   0.028201  -0.012031
   49  H  4  Y   -0.053864  -0.020404  -0.011909  -0.028642  -0.042585
   50  H  4  Z    0.036605  -0.025898  -0.044826   0.051967   0.012663
   51  H  5  S   -0.319383  -0.597448  -0.517782   0.418901  -0.322617
   52  H  5  S    1.555833   0.734060  -0.736956  -1.169794  -0.514368
   53  H  5  X   -0.001208  -0.014898   0.022363  -0.008929  -0.010804
   54  H  5  Y    0.030127   0.021871   0.020675   0.004985  -0.032711
   55  H  5  Z    0.070108   0.053124  -0.004039  -0.075034  -0.017613
   56  F  6  S   -0.004024   0.004061   0.013762   0.004681   0.037805
   57  F  6  S    0.001140  -0.024379  -0.072128  -0.026084  -0.168925
   58  F  6  S    0.080808   0.023649   0.027354   0.019862  -0.138758
   59  F  6  X    0.012090  -0.022227  -0.158743  -0.011205  -0.036805
   60  F  6  Y    0.030701   0.007580  -0.103346   0.025241  -0.029356
   61  F  6  Z   -0.077828  -0.051366  -0.159326   0.006858   0.035503
   62  F  6  X    0.046785   0.022223  -0.019901  -0.047750  -0.015257
   63  F  6  Y   -0.047953   0.020334  -0.008280  -0.037925   0.245278
   64  F  6  Z   -0.039623   0.104856  -0.114119   0.032430  -0.053295
   65  F  6 XX   -0.001130  -0.002615   0.009715  -0.009022   0.015444
   66  F  6 YY    0.007905  -0.003852  -0.015402   0.008950  -0.022097
   67  F  6 ZZ   -0.006776   0.006467   0.005687   0.000072   0.006653
   68  F  6 XY   -0.002589  -0.000151   0.002673  -0.000604   0.016478
   69  F  6 XZ    0.005305   0.007795  -0.003239   0.001334  -0.006546
   70  F  6 YZ    0.000317  -0.020365  -0.008812  -0.001584   0.008000
   71  H  7  S   -0.229494   0.208055   0.201936  -0.506942  -0.348687
   72  H  7  S    0.595632  -1.116524   1.087234   0.965494  -0.847706
   73  H  7  X    0.019205  -0.019835   0.040781   0.026794   0.016993
   74  H  7  Y    0.025564  -0.054106  -0.006741   0.028659  -0.039139
   75  H  7  Z    0.040627  -0.005963   0.046168   0.053245  -0.016963
   76  H  8  S   -0.141130  -0.655767  -0.456422  -0.424196  -0.286441
   77  H  8  S   -0.540878   1.598594  -0.864877   1.109577  -0.508572
   78  H  8  X    0.011203   0.005257  -0.029417  -0.008310   0.015614
   79  H  8  Y   -0.007814   0.037482   0.015846  -0.004844  -0.028696
   80  H  8  Z    0.014111  -0.087094   0.012072  -0.073056   0.018086

                     36         37         38         39         40
                    0.9300     0.9707     0.9943     1.0248     1.1252
                     A          A          A          A          A   
    1  C  1  S   -0.001243  -0.013170  -0.011518   0.026204   0.023919
    2  C  1  S   -0.072162  -0.639198  -0.566766   0.065608   1.216944
    3  C  1  S   -0.094612   2.917302   2.473522  -1.889568  -4.839529
    4  C  1  X   -0.048568  -0.051843   0.007069   0.046310  -0.154514
    5  C  1  Y    0.050523   0.053412   0.036418  -0.281928   0.139371
    6  C  1  Z   -0.051182  -0.076065   0.016169   0.045945  -0.017711
    7  C  1  X    0.206664   0.936667   0.652425  -0.493663  -1.695321
    8  C  1  Y    0.191273   0.105442  -0.232943   0.081976   0.143939
    9  C  1  Z    0.407715   0.082437  -0.285854   0.288742   0.415647
   10  C  1 XX   -0.018026   0.056417  -0.060612   0.020582  -0.068544
   11  C  1 YY   -0.053231   0.015448   0.074379  -0.122611   0.072089
   12  C  1 ZZ    0.071256  -0.071865  -0.013767   0.102029  -0.003545
   13  C  1 XY   -0.166402  -0.028473   0.003989   0.091078  -0.010118
   14  C  1 XZ    0.005477   0.138484  -0.171911   0.023662  -0.026240
   15  C  1 YZ    0.106971  -0.076454   0.027202   0.062130   0.010352
   16  C  2  S   -0.001694   0.017621   0.017324  -0.005199  -0.032375
   17  C  2  S   -0.141211   0.347577   0.253898  -0.738780  -1.179654
   18  C  2  S    0.417331  -2.795273  -2.350608   2.036185   4.875718
   19  C  2  X    0.051430  -0.054175  -0.009421  -0.034571  -0.117729
   20  C  2  Y    0.089914  -0.209038  -0.210608  -0.183426  -0.082122
   21  C  2  Z    0.077420  -0.082376  -0.024059  -0.017115  -0.010225
   22  C  2  X   -0.391843   0.853719   0.559303  -0.672995  -1.661041
   23  C  2  Y    0.175917   0.016649   0.304861  -0.128092  -0.366578
   24  C  2  Z   -0.406779  -0.043100  -0.394010  -0.017928   0.442429
   25  C  2 XX   -0.052753  -0.041738   0.080402   0.034126   0.072638
   26  C  2 YY    0.004466  -0.076749  -0.141769  -0.070988  -0.075419
   27  C  2 ZZ    0.048286   0.118487   0.061367   0.036862   0.002781
   28  C  2 XY    0.156306  -0.043302  -0.030165  -0.060757   0.009295
   29  C  2 XZ    0.036867  -0.122245   0.170524  -0.018004   0.022012
   30  C  2 YZ   -0.080739  -0.126365   0.001475  -0.030580   0.017658
   31  F  3  S    0.014237  -0.056167  -0.040954  -0.015191   0.006215
   32  F  3  S   -0.030439   0.268086   0.182421   0.079149  -0.019264
   33  F  3  S   -0.121293   0.146856   0.119812  -0.120538  -0.244412
   34  F  3  X   -0.511533   0.123165  -0.016076   0.041635  -0.081879
   35  F  3  Y    0.007712   0.304317   0.466000   0.348071   0.312754
   36  F  3  Z    0.212465   0.412171  -0.318722   0.087332   0.133133
   37  F  3  X    0.686526  -0.276514  -0.107395  -0.034245   0.190804
   38  F  3  Y    0.091594  -0.683637  -0.834771  -0.520266  -0.317255
   39  F  3  Z   -0.165448  -0.545143   0.361606  -0.117749  -0.201500
   40  F  3 XX   -0.024073   0.012279   0.012681   0.014616  -0.008273
   41  F  3 YY    0.006791  -0.020099  -0.008306  -0.045228  -0.037147
   42  F  3 ZZ    0.017281   0.007820  -0.004375   0.030612   0.045420
   43  F  3 XY    0.003128   0.002297  -0.019688  -0.023493  -0.043293
   44  F  3 XZ   -0.000162  -0.011546  -0.003899  -0.000414   0.008977
   45  F  3 YZ    0.010348   0.010342  -0.012320  -0.015043  -0.035883
   46  H  4  S    0.087072   0.203420   0.255447  -0.250830  -0.502330
   47  H  4  S    0.221146   0.037228   0.271645  -0.029911  -0.221689
   48  H  4  X   -0.048404  -0.066527   0.062390   0.010412   0.024447
   49  H  4  Y    0.009043  -0.009328   0.110675   0.005262   0.012561
   50  H  4  Z    0.053232   0.030568   0.031157   0.005273   0.025980
   51  H  5  S   -0.094744   0.235322   0.132393  -0.263992  -0.447259
   52  H  5  S   -0.289627   0.180981   0.042274  -0.187703  -0.112229
   53  H  5  X   -0.049228   0.060833  -0.098215   0.012783  -0.006048
   54  H  5  Y    0.086281   0.097890   0.024174   0.019138  -0.024028
   55  H  5  Z   -0.030997   0.010402  -0.014546  -0.009527  -0.012553
   56  F  6  S    0.005245   0.041775   0.018666  -0.060522  -0.001589
   57  F  6  S    0.002738  -0.213161  -0.081638   0.338970  -0.027671
   58  F  6  S   -0.068993  -0.099784  -0.096931  -0.051378   0.257619
   59  F  6  X    0.477542   0.177189  -0.010452  -0.144254  -0.012392
   60  F  6  Y    0.104053  -0.062164  -0.158464   0.591786  -0.437355
   61  F  6  Z   -0.256084   0.327820  -0.360816  -0.032520   0.135084
   62  F  6  X   -0.610662  -0.341997  -0.087472   0.309256   0.125710
[...]
   27  C  2 ZZ    0.000416  -0.008450  -0.019319  -0.032812  -0.054165
   28  C  2 XY    0.001328  -0.012746  -0.003158  -0.000587   0.017631
   29  C  2 XZ    0.001311  -0.004787   0.015614  -0.013380  -0.030253
   30  C  2 YZ    0.003976  -0.004776   0.012405   0.012587   0.016843
   31  F  3  S   -0.000751   0.002479  -0.059769  -0.016172  -0.000423
   32  F  3  S    0.002524  -0.008724   0.109066   0.016294   0.026109
   33  F  3  S    0.003489   0.000034   0.542672   0.223203  -0.150169
   34  F  3  X    0.047972   0.032116  -0.013637  -0.132843  -0.118333
   35  F  3  Y    0.047170   0.012956  -0.240820  -0.032964  -0.070468
   36  F  3  Z   -0.017310   0.051994  -0.060817  -0.001197   0.022213
   37  F  3  X    0.044959   0.034512  -0.033367  -0.213879  -0.152541
   38  F  3  Y    0.067395  -0.008458  -0.273190  -0.065014   0.052194
   39  F  3  Z   -0.009860   0.095644  -0.071758   0.017545   0.070837
   40  F  3 XX   -0.001289   0.002612   0.005157   0.001108   0.011863
   41  F  3 YY    0.003064  -0.001297  -0.005351   0.001666  -0.014497
   42  F  3 ZZ   -0.001775  -0.001315   0.000194  -0.002774   0.002633
   43  F  3 XY    0.000531   0.001420  -0.002159  -0.010268  -0.009808
   44  F  3 XZ   -0.000913   0.003680  -0.000465  -0.005389  -0.004855
   45  F  3 YZ    0.000892   0.005521  -0.003382   0.004722  -0.004627
   46  H  4  S   -0.061025   0.029916   0.091035  -0.075533  -0.221620
   47  H  4  S   -1.090757   1.334399  -0.084716  -0.583982   0.060875
   48  H  4  X   -0.010838   0.011140  -0.004503   0.015270   0.011297
   49  H  4  Y    0.007618  -0.012260  -0.016546   0.002558  -0.005085
   50  H  4  Z   -0.007249   0.001131  -0.011132  -0.020110  -0.020642
   51  H  5  S   -0.055577  -0.050917  -0.074218  -0.098019  -0.249747
   52  H  5  S   -0.819485  -1.446536   0.270062  -0.540098  -0.126905
   53  H  5  X   -0.005858  -0.002852  -0.012324   0.014347   0.024448
   54  H  5  Y   -0.002508   0.003128  -0.019492  -0.007521  -0.014741
   55  H  5  Z    0.009902   0.014627  -0.000840   0.012957  -0.000629
   56  F  6  S    0.000834   0.002699   0.060056   0.016190  -0.000403
   57  F  6  S   -0.002679  -0.009152  -0.109582  -0.016302   0.025965
   58  F  6  S   -0.004164  -0.001796  -0.545565  -0.223515  -0.149625
   59  F  6  X    0.051197  -0.033285  -0.032364  -0.135300   0.123234
   60  F  6  Y   -0.042650   0.012372   0.240661   0.022615  -0.060429
   61  F  6  Z   -0.018296  -0.052216  -0.056035  -0.000353  -0.024841
   62  F  6  X    0.049710  -0.034219  -0.054700  -0.218741   0.147780
   63  F  6  Y   -0.063230  -0.008223   0.272100   0.047992   0.065017
   64  F  6  Z   -0.011282  -0.096390  -0.066306   0.018931  -0.070208
   65  F  6 XX    0.001197   0.002764  -0.004805   0.000267   0.010412
   66  F  6 YY   -0.002995  -0.001268   0.005102  -0.003206  -0.013143
   67  F  6 ZZ    0.001798  -0.001497  -0.000297   0.002940   0.002731
   68  F  6 XY    0.000885  -0.001158  -0.003061  -0.010200   0.012087
   69  F  6 XZ    0.000870   0.004074   0.000653   0.004811  -0.004878
   70  F  6 YZ    0.000843  -0.005243  -0.003193   0.005016   0.003837
   71  H  7  S    0.061045   0.029514  -0.090985   0.075660  -0.218654
   72  H  7  S    1.091435   1.332540   0.078915   0.582430   0.060390
   73  H  7  X   -0.010245  -0.010160  -0.005785   0.015401  -0.010989
   74  H  7  Y   -0.008280  -0.012987   0.016444  -0.000961  -0.006408
   75  H  7  Z   -0.007413  -0.001426  -0.010791  -0.020152   0.020621
   76  H  8  S    0.055366  -0.050643   0.073706   0.098330  -0.254390
   77  H  8  S    0.817880  -1.448136  -0.263822   0.540162  -0.124181
   78  H  8  X   -0.006015   0.002518  -0.013822   0.013713  -0.023024
   79  H  8  Y    0.001871   0.003723   0.018556   0.008327  -0.016389
   80  H  8  Z    0.009935  -0.014568  -0.000372   0.013106   0.000226

                     26         27
                    0.3779     0.3918
                     A          A   
    1  C  1  S   -0.021508   0.032719
    2  C  1  S    0.123247  -0.276117
    3  C  1  S    0.031277   0.029498
    4  C  1  X   -0.148921   0.083502
    5  C  1  Y    0.210901  -0.506082
    6  C  1  Z   -0.051047   0.283345
    7  C  1  X    0.200879   0.002680
    8  C  1  Y    0.122666   0.665868
    9  C  1  Z    0.510715  -0.667992
   10  C  1 XX    0.037261  -0.024941
   11  C  1 YY    0.011780   0.024259
   12  C  1 ZZ   -0.049042   0.000683
   13  C  1 XY    0.022018  -0.053595
   14  C  1 XZ    0.060914   0.018224
   15  C  1 YZ    0.057068   0.012707
   16  C  2  S    0.021397   0.032854
   17  C  2  S   -0.122539  -0.277830
   18  C  2  S   -0.036358   0.033959
   19  C  2  X   -0.129235  -0.044751
   20  C  2  Y   -0.217787  -0.508888
   21  C  2  Z   -0.055148  -0.294068
   22  C  2  X    0.202059  -0.055205
   23  C  2  Y   -0.119190   0.659438
   24  C  2  Z    0.507941   0.683135
   25  C  2 XX   -0.040410  -0.031747
   26  C  2 YY   -0.010924   0.031340
   27  C  2 ZZ    0.051334   0.000407
   28  C  2 XY    0.020471   0.048309
   29  C  2 XZ   -0.064523   0.019982
   30  C  2 YZ    0.050594  -0.010552
   31  F  3  S   -0.010292   0.008871
   32  F  3  S    0.035551   0.032311
   33  F  3  S    0.004081  -0.362503
   34  F  3  X   -0.016481  -0.041994
   35  F  3  Y   -0.067239  -0.224411
   36  F  3  Z   -0.161582  -0.061396
   37  F  3  X   -0.041648   0.103684
   38  F  3  Y   -0.029335   0.036339
   39  F  3  Z   -0.080405  -0.057811
   40  F  3 XX    0.004258   0.012019
   41  F  3 YY   -0.012312  -0.034375
   42  F  3 ZZ    0.008054   0.022356
   43  F  3 XY   -0.004049  -0.026926
   44  F  3 XZ   -0.012282  -0.000193
   45  F  3 YZ   -0.008738  -0.008944
   46  H  4  S   -0.448817   0.124906
   47  H  4  S    0.073999   0.005388
   48  H  4  X   -0.026995  -0.000039
   49  H  4  Y    0.003736   0.000750
   50  H  4  Z    0.010895   0.002752
   51  H  5  S    0.591247   0.112855
   52  H  5  S   -0.169331   0.201813
   53  H  5  X    0.023018  -0.030198
   54  H  5  Y   -0.025066   0.007573
   55  H  5  Z   -0.008222   0.017079
   56  F  6  S    0.010262   0.008772
   57  F  6  S   -0.035865   0.032018
   58  F  6  S   -0.001629  -0.358660
   59  F  6  X   -0.023044   0.058268
   60  F  6  Y    0.070055  -0.220783
   61  F  6  Z   -0.160525   0.057003
   62  F  6  X   -0.044867  -0.105571
   63  F  6  Y    0.026911   0.026310
   64  F  6  Z   -0.079628   0.058510
   65  F  6 XX   -0.003699   0.008195
   66  F  6 YY    0.012122  -0.030704
   67  F  6 ZZ   -0.008423   0.022509
   68  F  6 XY   -0.005936   0.030588
   69  F  6 XZ    0.012846  -0.000223
   70  F  6 YZ   -0.007365   0.007601
   71  H  7  S    0.451311   0.124891
   72  H  7  S   -0.074180   0.004157
   73  H  7  X   -0.026483  -0.000204
   74  H  7  Y   -0.006012   0.000728
   75  H  7  Z    0.010613  -0.002696
   76  H  8  S   -0.589886   0.111194
   77  H  8  S    0.169321   0.201509
   78  H  8  X    0.021129   0.029550
   79  H  8  Y    0.027061   0.010278
   80  H  8  Z   -0.007569  -0.016991

     ---------------------------------------------------------------------
     PROPERTIES FOR THE PBE      DFT FUNCTIONAL (RHF  TYPE) DENSITY MATRIX
     ---------------------------------------------------------------------

          -----------------
          ENERGY COMPONENTS
          -----------------

         WAVEFUNCTION NORMALIZATION =       1.0000000000

                ONE ELECTRON ENERGY =    -638.0258654920
                TWO ELECTRON ENERGY =     231.9989295996
           NUCLEAR REPULSION ENERGY =     128.0964888444
                                      ------------------
                       TOTAL ENERGY =    -277.9304470480

 ELECTRON-ELECTRON POTENTIAL ENERGY =     231.9989295996
  NUCLEUS-ELECTRON POTENTIAL ENERGY =    -915.0950949906
   NUCLEUS-NUCLEUS POTENTIAL ENERGY =     128.0964888444
                                      ------------------
             TOTAL POTENTIAL ENERGY =    -554.9996765466
               TOTAL KINETIC ENERGY =     277.0692294986
                 VIRIAL RATIO (V/T) =       2.0031083118

          ---------------------------------------
          MULLIKEN AND LOWDIN POPULATION ANALYSES
          ---------------------------------------

     ATOMIC MULLIKEN POPULATION IN EACH MOLECULAR ORBITAL

                      1          2          3          4          5

                  2.000000   2.000000   2.000000   2.000000   2.000000

    1             0.001274  -0.000098   1.574150   0.425676   0.120497
    2            -0.000081   0.001256   0.425352   1.574474   0.115599
    3             0.006443   1.992401  -0.000117  -0.000409   0.851182
    4             0.000000   0.000002   0.000170   0.000165   0.002594
    5            -0.000002  -0.000019   0.000170   0.000196   0.003726
    6             1.992382   0.006461  -0.000423  -0.000106   0.899789
    7             0.000000   0.000002   0.000338  -0.000003   0.002722
    8            -0.000017  -0.000004   0.000359   0.000007   0.003890

                      6          7          8          9         10

                  2.000000   2.000000   2.000000   2.000000   2.000000

    1             0.082108   0.707092   0.465934   0.344678   0.519143
    2             0.086609   0.707280   0.466549   0.347183   0.511817
    3             0.935446   0.147454   0.287788   0.516127   0.245760
    4             0.002278   0.073631   0.121218   0.113824   0.078696
    5             0.002587   0.071538   0.124534   0.015787   0.163381
    6             0.886422   0.147669   0.288809   0.537656   0.231660
    7             0.002146   0.073633   0.121020   0.100273   0.094247
    8             0.002405   0.071703   0.124148   0.024471   0.155295

                     11         12         13         14         15

                  2.000000   2.000000   2.000000   2.000000   2.000000

    1             0.458270   0.281142   0.309500   0.052224   0.089905
    2             0.458861   0.283610   0.311784   0.052690   0.088648
    3             0.502726   0.553234   0.466910   0.921542   0.765509
    4             0.022295   0.142371   0.057412   0.002173   0.087641
    5             0.014671   0.026391   0.165703   0.023143   0.055351
    6             0.507379   0.545287   0.467548   0.922356   0.767545
    7             0.021205   0.141233   0.056995   0.002222   0.088871
    8             0.014593   0.026733   0.164149   0.023650   0.056530

                     16         17

                  2.000000   2.000000

    1             0.245263   0.200483
    2             0.245216   0.200891
    3             0.578060   0.546170
    4             0.176084   0.024475
    5             0.002742   0.231541
    6             0.573962   0.541137
    7             0.175982   0.024298
    8             0.002692   0.231005

               ----- POPULATIONS IN EACH AO -----
                             MULLIKEN      LOWDIN
              1  C  1  S      1.99337     1.97155
              2  C  1  S      0.75846     0.38490
              3  C  1  S      0.36915     0.28123
              4  C  1  X      0.71681     0.65703
              5  C  1  Y      0.58066     0.52992
              6  C  1  Z      0.76624     0.68780
              7  C  1  X      0.20609     0.30364
              8  C  1  Y      0.13002     0.24389
              9  C  1  Z      0.29208     0.39135
             10  C  1 XX      0.01156     0.16090
             11  C  1 YY      0.01760     0.16426
             12  C  1 ZZ      0.01560     0.15685
             13  C  1 XY      0.00633     0.03055
             14  C  1 XZ      0.01326     0.01205
             15  C  1 YZ      0.00000     0.03005
             16  C  2  S      1.99337     1.97156
             17  C  2  S      0.75857     0.38503
             18  C  2  S      0.36964     0.28133
             19  C  2  X      0.72944     0.66735
             20  C  2  Y      0.56941     0.52073
             21  C  2  Z      0.76449     0.68638
             22  C  2  X      0.21586     0.31259
             23  C  2  Y      0.12165     0.23636
             24  C  2  Z      0.29108     0.38994
             25  C  2 XX      0.01177     0.15966
             26  C  2 YY      0.01746     0.16505
             27  C  2 ZZ      0.01558     0.15731
             28  C  2 XY      0.00610     0.03121
             29  C  2 XZ      0.01331     0.01193
             30  C  2 YZ      0.00000     0.02942
             31  F  3  S      1.99544     1.97165
             32  F  3  S      0.95023     0.75219
             33  F  3  S      0.99712     0.52471
             34  F  3  X      1.19494     1.16305
             35  F  3  Y      0.98550     0.93649
             36  F  3  Z      1.23152     1.20250
             37  F  3  X      0.68419     0.70785
             38  F  3  Y      0.56176     0.60693
             39  F  3  Z      0.70481     0.73033
             40  F  3 XX      0.00145     0.18974
             41  F  3 YY      0.00333     0.19673
             42  F  3 ZZ      0.00317     0.18853
             43  F  3 XY      0.00035     0.00451
             44  F  3 XZ      0.00242     0.00052
             45  F  3 YZ      0.00000     0.00378
             46  H  4  S      0.77176     0.64922
             47  H  4  S      0.11650     0.21657
             48  H  4  X      0.00505     0.01161
             49  H  4  Y      0.00598     0.01332
             50  H  4  Z      0.00574     0.01228
             51  H  5  S      0.77311     0.65757
             52  H  5  S      0.11173     0.21648
             53  H  5  X      0.00317     0.00866
             54  H  5  Y      0.00240     0.00630
             55  H  5  Z      0.01102     0.02294
             56  F  6  S      1.99544     1.97165
             57  F  6  S      0.95026     0.75211
             58  F  6  S      0.99688     0.52447
             59  F  6  X      1.17914     1.14616
             60  F  6  Y      0.99998     0.95172
             61  F  6  Z      1.23308     1.20411
             62  F  6  X      0.67491     0.70001
             63  F  6  Y      0.56945     0.61376
             64  F  6  Z      0.70565     0.73094
             65  F  6 XX      0.00145     0.19022
             66  F  6 YY      0.00311     0.19599
             67  F  6 ZZ      0.00345     0.18842
             68  F  6 XY      0.00047     0.00470
             69  F  6 XZ      0.00226     0.00071
             70  F  6 YZ      0.00000     0.00356
             71  H  7  S      0.77176     0.64939
             72  H  7  S      0.11665     0.21664
             73  H  7  X      0.00453     0.01066
             74  H  7  Y      0.00636     0.01403
             75  H  7  Z      0.00588     0.01255
             76  H  8  S      0.77315     0.65750
             77  H  8  S      0.11186     0.21652
             78  H  8  X      0.00303     0.00840
             79  H  8  Y      0.00260     0.00670
             80  H  8  Z      0.01096     0.02279

          ----- MULLIKEN ATOMIC OVERLAP POPULATIONS -----
          (OFF-DIAGONAL ELEMENTS NEED TO BE MULTIPLIED BY 2)

             1           2           3           4           5

    1    4.6283320
    2    0.3557458   4.6296901
    3   -0.0446702   0.2561058   9.1598671
    4   -0.0387244   0.3737252  -0.0277899   0.6381130
    5   -0.0394175   0.3855894  -0.0327096  -0.0408709   0.6271195
    6    0.2566283  -0.0447233   0.0010565   0.0031922   0.0011676
    7    0.3738243  -0.0388026   0.0031963   0.0083289  -0.0109409
    8    0.3855233  -0.0395929   0.0011704  -0.0109465   0.0115038

             6           7           8

    6    9.1587690
    7   -0.0278527   0.6383432
    8   -0.0327040  -0.0409121   0.6275659

          TOTAL MULLIKEN AND LOWDIN ATOMIC POPULATIONS
       ATOM         MULL.POP.    CHARGE          LOW.POP.     CHARGE
    1 C             5.877242    0.122758         6.005960   -0.005960
    2 C             5.877737    0.122263         6.005856   -0.005856
    3 F             9.316226   -0.316226         9.179499   -0.179499
    4 H             0.905028    0.094972         0.903008    0.096992
    5 H             0.901441    0.098559         0.911955    0.088045
    6 F             9.315534   -0.315534         9.178532   -0.178532
    7 H             0.905184    0.094816         0.903272    0.096728
    8 H             0.901608    0.098392         0.911918    0.088082

          MULLIKEN SPHERICAL HARMONIC POPULATIONS
       ATOM           S       P       D      F      G      H      I    TOTAL
    1 C             3.12    2.69    0.06   0.00   0.00   0.00   0.00    5.88
    2 C             3.12    2.69    0.06   0.00   0.00   0.00   0.00    5.88
    3 F             3.94    5.36    0.01   0.00   0.00   0.00   0.00    9.32
    4 H             0.89    0.02    0.00   0.00   0.00   0.00   0.00    0.91
    5 H             0.88    0.02    0.00   0.00   0.00   0.00   0.00    0.90
    6 F             3.94    5.36    0.01   0.00   0.00   0.00   0.00    9.32
    7 H             0.89    0.02    0.00   0.00   0.00   0.00   0.00    0.91
    8 H             0.89    0.02    0.00   0.00   0.00   0.00   0.00    0.90

          -------------------------------
          BOND ORDER AND VALENCE ANALYSIS     BOND ORDER THRESHOLD=0.050
          -------------------------------

                   BOND                       BOND                       BOND
  ATOM PAIR DIST  ORDER      ATOM PAIR DIST  ORDER      ATOM PAIR DIST  ORDER
    1   2  1.532  1.020        1   6  1.392  0.941        1   7  1.108  0.940
    1   8  1.108  0.945        2   3  1.393  0.940        2   4  1.108  0.940
    2   5  1.108  0.945

                       TOTAL       BONDED        FREE
      ATOM            VALENCE     VALENCE     VALENCE
    1 C                 3.851       3.851      -0.000
    2 C                 3.851       3.851      -0.000
    3 F                 0.992       0.992      -0.000
    4 H                 0.948       0.948       0.000
    5 H                 0.951       0.951      -0.000
    6 F                 0.993       0.993      -0.000
    7 H                 0.948       0.948       0.000
    8 H                 0.951       0.951       0.000

          ---------------------
          ELECTROSTATIC MOMENTS
          ---------------------

 POINT   1           X           Y           Z (BOHR)    CHARGE
                -0.000000   -0.000000    0.000000       -0.00 (A.U.)
         DX          DY          DZ         /D/  (DEBYE)
     0.115916   -3.054610   -0.030770    3.056963
 ...... END OF PROPERTY EVALUATION ......
 STEP CPU TIME =     0.03 TOTAL CPU TIME =         96.0 (      1.6 MIN)
 TOTAL WALL CLOCK TIME=         96.5 SECONDS, CPU UTILIZATION IS    99.51%
  $VIB   
          IVIB=   0 IATOM=   0 ICOORD=   0 E=     -277.9304470480
 -4.691812318E-05 6.864418160E-05 6.457207906E-05 3.733624682E-05-6.310057517E-05
 -5.523492053E-05-3.225229255E-07 2.516262885E-05 1.329944455E-05-1.632538313E-05
  5.341266304E-06 1.050232344E-05-2.166483959E-06 2.589589169E-06 4.715981546E-06
 -8.936157317E-06-2.090031385E-06-1.861192612E-05 2.050367478E-05-1.192000141E-05
 -1.820920314E-05 1.682874891E-05-2.462705796E-05-1.033778799E-06
  1.159157030E-01-3.054609946E+00-3.076991197E-02
 ......END OF GEOMETRY SEARCH......
 STEP CPU TIME =     0.00 TOTAL CPU TIME =         96.0 (      1.6 MIN)
 TOTAL WALL CLOCK TIME=         96.5 SECONDS, CPU UTILIZATION IS    99.50%
                991181  WORDS OF DYNAMIC MEMORY USED
 EXECUTION OF GAMESS TERMINATED NORMALLY Sun Oct  6 23:25:23 2019
 DDI: 263640 bytes (0.3 MB / 0 MWords) used by master data server.

 ----------------------------------------
 CPU timing information for all processes
 ========================================
 0: 94.288 + 1.768 = 96.56
 ----------------------------------------
 ddikick.x: exited gracefully.
----- accounting info -----
Files used on the master node d12chas543.crc.nd.edu were:
-rw-r--r-- 1 wschnei1 campus 378327 Oct  6 23:25 /scratch365/wschnei1/30-PC1.F07
Sun Oct  6 23:25:27 EDT 2019
0.430u 0.319s 1:40.21 0.7%	0+0k 0+32io 0pf+0w
