----- GAMESS execution script 'rungms' -----
This job is running on host d12chas543.crc.nd.edu
under operating system Linux at Sun Oct 6 23:25:27 EDT 2019
SGE has assigned the following compute nodes to this run:
Available scratch disk space (Kbyte units) at beginning of the job is
Filesystem      1K-blocks     Used  Available Use% Mounted on
/dev/sda2      1949705068 64101828 1885603240   4% /
GAMESS temporary binary files will be written to /tmp/474112.1.debug
GAMESS supplementary output files will be written to /afs/crc.nd.edu/user/w/wschnei1/scr
Copying input file 40-PC1.inp to your run's scratch directory...
reading your own /afs/crc.nd.edu/user/w/wschnei1/.gmsrc

 Distributed Data Interface kickoff program.
 Initiating 1 compute processes on 1 nodes to run the following command:
 /afs/crc.nd.edu/x86_64_linux/g/gamess/nov-2017/gamess/gamess.00.x 40-PC1 

          ******************************************************
          *         GAMESS VERSION = 11 NOV 2017 (R3)         *
          *             FROM IOWA STATE UNIVERSITY             *
          * M.W.SCHMIDT, K.K.BALDRIDGE, J.A.BOATZ, S.T.ELBERT, *
          *   M.S.GORDON, J.H.JENSEN, S.KOSEKI, N.MATSUNAGA,   *
          *          K.A.NGUYEN, S.J.SU, T.L.WINDUS,           *
          *       TOGETHER WITH M.DUPUIS, J.A.MONTGOMERY       *
          *         J.COMPUT.CHEM.  14, 1347-1363(1993)        *
          **************** 64 BIT INTEL VERSION ****************

  SINCE 1993, STUDENTS AND POSTDOCS WORKING AT IOWA STATE UNIVERSITY
  AND ALSO IN THEIR VARIOUS JOBS AFTER LEAVING ISU HAVE MADE IMPORTANT
  CONTRIBUTIONS TO THE CODE:
     IVANA ADAMOVIC, CHRISTINE AIKENS, YURI ALEXEEV, POOJA ARORA,
     ANDREY ASADCHEV, ROB BELL, PRADIPTA BANDYOPADHYAY, JONATHAN BENTZ,
     BRETT BODE, KURT BRORSEN, CALEB CARLIN, GALINA CHABAN, WEI CHEN,
     CHEOL HO CHOI, PAUL DAY, ALBERT DEFUSCO, NUWAN DESILVA, TIM DUDLEY,
     DMITRI FEDOROV, ALEX FINDLATER, GRAHAM FLETCHER, MARK FREITAG,
     KURT GLAESEMANN, ANASTASIA GUININA,
     DAN KEMP, GRANT MERRILL, NORIYUKI MINEZAWA, JONATHAN MULLIN,
     TAKESHI NAGATA, SEAN NEDD, HEATHER NETZLOFF, BOSILJKA NJEGIC, RYAN OLSON,
     MIKE PAK, BUU PHAM,
     SPENCER PRUITT, LUKE ROSKOP, JIM SHOEMAKER, LYUDMILA SLIPCHENKO,
     TONY SMITH, SAROM SOK LEANG, JIE SONG, TETSUYA TAKETSUGU, SIMON WEBB,
     PENG XU, SOOHAENG YOO, FEDERICO ZAHARIEV

  ADDITIONAL CODE HAS BEEN PROVIDED BY COLLABORATORS IN OTHER GROUPS:
     IOWA STATE UNIVERSITY:
          JOE IVANIC, AARON WEST, LAIMUTIS BYTAUTAS, KLAUS RUEDENBERG
     UNIVERSITY OF TOKYO: KIMIHIKO HIRAO, TAKAHITO NAKAJIMA,
          TAKAO TSUNEDA, MUNEAKI KAMIYA, SUSUMU YANAGISAWA,
          KIYOSHI YAGI, MAHITO CHIBA, SEIKEN TOKURA, NAOAKI KAWAKAMI
     UNIVERSITY OF AARHUS: FRANK JENSEN
     UNIVERSITY OF IOWA: VISVALDAS KAIRYS, HUI LI
     NATIONAL INST. OF STANDARDS AND TECHNOLOGY: WALT STEVENS, DAVID GARMER
     UNIVERSITY OF PISA: BENEDETTA MENNUCCI, JACOPO TOMASI
     UNIVERSITY OF MEMPHIS: HENRY KURTZ, PRAKASHAN KORAMBATH
     UNIVERSITY OF ALBERTA: TOBY ZENG, MARIUSZ KLOBUKOWSKI
     UNIVERSITY OF NEW ENGLAND: MARK SPACKMAN
     MIE UNIVERSITY: HIROAKI UMEDA
     NAT. INST. OF ADVANCED INDUSTRIAL SCIENCE AND TECHNOLOGY: KAZUO KITAURA
     MICHIGAN STATE UNIVERSITY:
          KAROL KOWALSKI, MARTA WLOCH, JEFFREY GOUR, JESSE LUTZ,
          WEI LI, PIOTR PIECUCH
     UNIVERSITY OF SILESIA: MONIKA MUSIAL, STANISLAW KUCHARSKI
     FACULTES UNIVERSITAIRES NOTRE-DAME DE LA PAIX:
          OLIVIER QUINET, BENOIT CHAMPAGNE
     UNIVERSITY OF CALIFORNIA - SANTA BARBARA: BERNARD KIRTMAN
     INSTITUTE FOR MOLECULAR SCIENCE:
          KAZUYA ISHIMURA, MICHIO KATOUDA, AND SHIGERU NAGASE
     UNIVERSITY OF NOTRE DAME: ANNA POMOGAEVA, DAN CHIPMAN
     KYUSHU UNIVERSITY:
          HARUYUKI NAKANO,
          FENG LONG GU, JACEK KORCHOWIEC, MARCIN MAKOWSKI, AND YURIKO AOKI,
          HIROTOSHI MORI AND EISAKU MIYOSHI
     PENNSYLVANIA STATE UNIVERSITY:
          TZVETELIN IORDANOV, CHET SWALINA, JONATHAN SKONE,
          SHARON HAMMES-SCHIFFER
     WASEDA UNIVERSITY:
          MASATO KOBAYASHI, TOMOKO AKAMA, TSUGUKI TOUMA,
          TAKESHI YOSHIKAWA, YASUHIRO IKABATA, JUNJI SEINO,
          YUYA NAKAJIMA, HIROMI NAKAI
     NANJING UNIVERSITY: SHUHUA LI
     UNIVERSITY OF NEBRASKA:
          PEIFENG SU, DEJUN SI, NANDUN THELLAMUREGE, YALI WANG, HUI LI
     UNIVERSITY OF ZURICH: ROBERTO PEVERATI, KIM BALDRIDGE
     N. COPERNICUS UNIVERSITY AND JACKSON STATE UNIVERSITY:
          MARIA BARYSZ
     UNIVERSITY OF COPENHAGEN: Jimmy Kromann, CASPER STEINMANN
     TOKYO INSTITUTE OF TECHNOLOGY: HIROYA NAKATA
     NAGOYA UNIVERSITY: YOSHIO NISHIMOTO, STEPHAN IRLE
     MOSCOW STATE UNIVERSITY: VLADIMIR MIRONOV

 EXECUTION OF GAMESS BEGUN Sun Oct  6 23:25:27 2019

            ECHO OF THE FIRST FEW INPUT CARDS -
 INPUT CARD> $CONTRL SCFTYP=RHF DFTTYP=PBE RUNTYP=OPTIMIZE COORD=ZMT NZVAR=18 ISPHER=1 $END 
 INPUT CARD> $BASIS GBASIS=PCseg-1 $END                                                     
 INPUT CARD> $STATPT IFREEZ(1)=12 $END                                                      
 INPUT CARD> $DATA                                                                          
 INPUT CARD>FCH2CH2F eclipsed TS                                                            
 INPUT CARD>C1                                                                              
 INPUT CARD>C                                                                               
 INPUT CARD>C   1   r1                                                                      
 INPUT CARD>F   2   r2   1   A1                                                             
 INPUT CARD>H   2   r3   1   A2   3   D1                                                    
 INPUT CARD>H   2   r4   1   A3   3   D2                                                    
 INPUT CARD>F   1   r5   2   A4   3   D3                                                    
 INPUT CARD>H   1   r6   2   A5   6   D4                                                    
 INPUT CARD>H   1   r7   2   A6   6   D5                                                    
 INPUT CARD>                                                                                
 INPUT CARD>r1=1.5                                                                          
 INPUT CARD>r2=1.4                                                                          
 INPUT CARD>r3=1.1                                                                          
 INPUT CARD>r4=1.1                                                                          
 INPUT CARD>r5=1.5                                                                          
 INPUT CARD>r6=1.1                                                                          
 INPUT CARD>r7=1.1                                                                          
 INPUT CARD>A1=109.54214                                                                    
 INPUT CARD>A2=109.54214                                                                    
 INPUT CARD>A3=109.54214                                                                    
 INPUT CARD>A4=109.54214                                                                    
 INPUT CARD>A5=109.54214                                                                    
 INPUT CARD>A6=109.54214                                                                    
 INPUT CARD>D1=120.                                                                         
 INPUT CARD>D2=-120.                                                                        
 INPUT CARD>D3=40                                                                           
 INPUT CARD>D4=120.                                                                         
 INPUT CARD>D5=-120.                                                                        
 INPUT CARD> $END                                                                           
 INPUT CARD>                                                                                
    1000000 WORDS OF MEMORY AVAILABLE

     BASIS OPTIONS
     -------------
     GBASIS=PCSEG-1      IGAUSS=       0      POLAR=NONE    
     NDFUNC=       0     NFFUNC=       0     DIFFSP=       F
     NPFUNC=       0      DIFFS=       F     BASNAM=        


     RUN TITLE
     ---------
 FCH2CH2F eclipsed TS                                                            

 THE POINT GROUP OF THE MOLECULE IS C1      
 THE ORDER OF THE PRINCIPAL AXIS IS     0

 YOUR FULLY SUBSTITUTED Z-MATRIX IS
 C   
 C      1   1.5000000
 F      2   1.4000000  1  109.5421
 H      2   1.1000000  1  109.5421  3  120.0000  0
 H      2   1.1000000  1  109.5421  3 -120.0000  0
 F      1   1.5000000  2  109.5421  3   40.0000  0
 H      1   1.1000000  2  109.5421  6  120.0000  0
 H      1   1.1000000  2  109.5421  6 -120.0000  0

 THE MOMENTS OF INERTIA ARE (AMU-ANGSTROM**2)
 IXX=    35.761   IYY=    87.929   IZZ=   113.609

 ATOM      ATOMIC                      COORDINATES (BOHR)
           CHARGE         X                   Y                   Z
 C           6.0     1.2662359676       -1.4130665328       -0.3921692420
 C           6.0    -1.4481420606       -1.2615426146        0.4103811406
 F           9.0    -2.4174975879        1.1249730595       -0.1930911818
 H           1.0    -2.5478010926       -2.7233166288       -0.5770167317
 H           1.0    -1.5843577191       -1.5633815858        2.4625327781
 F           9.0     2.5616869380        1.0431844415        0.1766300449
 H           1.0     2.2123417931       -2.9482969427        0.6417259022
 H           1.0     1.3676439400       -1.7905933105       -2.4337808036

          INTERNUCLEAR DISTANCES (ANGS.)
          ------------------------------

                1 C          2 C          3 F          4 H          5 H     

   1 C       0.0000000    1.5000000 *  2.3695781 *  2.1363170 *  2.1363170 *
   2 C       1.5000000 *  0.0000000    1.4000000 *  1.1000000 *  1.1000000 *
   3 F       2.3695781 *  1.4000000 *  0.0000000    2.0476979 *  2.0476979 *
   4 H       2.1363170 *  1.1000000 *  2.0476979 *  0.0000000    1.7955050 *
   5 H       2.1363170 *  1.1000000 *  2.0476979 *  1.7955050 *  0.0000000  
   6 F       1.5000000 *  2.4505612 *  2.6424794 *  3.3826549    2.8599680 *
   7 H       1.1000000 *  2.1363170 *  3.2929906    2.6029341 *  2.3456497 *
   8 H       1.1000000 *  2.1363170 *  2.7925578 *  2.3456497 *  3.0278848  

                6 F          7 H          8 H     

   1 C       1.5000000 *  1.1000000 *  1.1000000 *
   2 C       2.4505612 *  2.1363170 *  2.1363170 *
   3 F       2.6424794 *  3.2929906    2.7925578 *
   4 H       3.3826549    2.6029341 *  2.3456497 *
   5 H       2.8599680 *  2.3456497 *  3.0278848  
   6 F       0.0000000    2.1345124 *  2.1345124 *
   7 H       2.1345124 *  0.0000000    1.7955050 *
   8 H       2.1345124 *  1.7955050 *  0.0000000  

  * ... LESS THAN  3.000


     ATOMIC BASIS SET
     ----------------
 THE CONTRACTED PRIMITIVE FUNCTIONS HAVE BEEN UNNORMALIZED
 THE CONTRACTED BASIS FUNCTIONS ARE NOW NORMALIZED TO UNITY

  SHELL TYPE  PRIMITIVE        EXPONENT          CONTRACTION COEFFICIENT(S)

 C         

      1   S       1          1243.2000000    0.005630097702
      1   S       2           187.1450000    0.041950603854
      1   S       3            42.5126000    0.184664360492
      1   S       4            11.7393000    0.466557421368
      1   S       5             3.5054800    0.448234778316

      2   S       6             5.3908900   -0.148114817444
      2   S       7             0.4933410    1.051981714281

      3   S       8             0.1497410    1.000000000000

      4   P       9             9.1805600    0.063992052045
      4   P      10             1.9365800    0.333521296407
      4   P      11             0.5262960    0.741161730513

      5   P      12             0.1363190    1.000000000000

      6   D      13             0.8000000    1.000000000000

 C         

      7   S      14          1243.2000000    0.005630097702
      7   S      15           187.1450000    0.041950603854
      7   S      16            42.5126000    0.184664360492
      7   S      17            11.7393000    0.466557421368
      7   S      18             3.5054800    0.448234778316

      8   S      19             5.3908900   -0.148114817444
      8   S      20             0.4933410    1.051981714281

      9   S      21             0.1497410    1.000000000000

     10   P      22             9.1805600    0.063992052045
     10   P      23             1.9365800    0.333521296407
     10   P      24             0.5262960    0.741161730513

     11   P      25             0.1363190    1.000000000000

     12   D      26             0.8000000    1.000000000000

 F         

     13   S      27          2931.5500000    0.005390132259
     13   S      28           441.1250000    0.040296704072
     13   S      29           100.2320000    0.180202178717
     13   S      30            27.8655000    0.465064284210
     13   S      31             8.4447000    0.452433138251

     14   S      32            13.6123000   -0.151660908297
     14   S      33             1.2612200    1.053515343452

     15   S      34             0.3708000    1.000000000000

     16   P      35            21.9305000    0.070356827475
     16   P      36             4.7855200    0.356742371235
     16   P      37             1.2837800    0.719732016372

     17   P      38             0.3115580    1.000000000000

     18   D      39             1.1000000    1.000000000000

 H         

     19   S      40            12.2518000    0.037217389296
     19   S      41             1.8687100    0.253808206955
     19   S      42             0.4182080    0.797386763917

     20   S      43             0.1061000    1.000000000000

     21   P      44             1.0000000    1.000000000000

 H         

     22   S      45            12.2518000    0.037217389296
     22   S      46             1.8687100    0.253808206955
     22   S      47             0.4182080    0.797386763917

     23   S      48             0.1061000    1.000000000000

     24   P      49             1.0000000    1.000000000000

 F         

     25   S      50          2931.5500000    0.005390132259
     25   S      51           441.1250000    0.040296704072
     25   S      52           100.2320000    0.180202178717
     25   S      53            27.8655000    0.465064284210
     25   S      54             8.4447000    0.452433138251

     26   S      55            13.6123000   -0.151660908297
     26   S      56             1.2612200    1.053515343452

     27   S      57             0.3708000    1.000000000000

     28   P      58            21.9305000    0.070356827475
     28   P      59             4.7855200    0.356742371235
     28   P      60             1.2837800    0.719732016372

     29   P      61             0.3115580    1.000000000000

     30   D      62             1.1000000    1.000000000000

 H         

     31   S      63            12.2518000    0.037217389296
     31   S      64             1.8687100    0.253808206955
     31   S      65             0.4182080    0.797386763917

     32   S      66             0.1061000    1.000000000000

     33   P      67             1.0000000    1.000000000000

 H         

     34   S      68            12.2518000    0.037217389296
     34   S      69             1.8687100    0.253808206955
     34   S      70             0.4182080    0.797386763917

     35   S      71             0.1061000    1.000000000000

     36   P      72             1.0000000    1.000000000000

 TOTAL NUMBER OF BASIS SET SHELLS             =   36
 NUMBER OF CARTESIAN GAUSSIAN BASIS FUNCTIONS =   80
 NOTE: THIS RUN WILL RESTRICT THE MO VARIATION SPACE TO SPHERICAL HARMONICS.
 THE NUMBER OF ORBITALS KEPT IN THE VARIATIONAL SPACE WILL BE PRINTED LATER.
 NUMBER OF ELECTRONS                          =   34
 CHARGE OF MOLECULE                           =    0
 SPIN MULTIPLICITY                            =    1
 NUMBER OF OCCUPIED ORBITALS (ALPHA)          =   17
 NUMBER OF OCCUPIED ORBITALS (BETA )          =   17
 TOTAL NUMBER OF ATOMS                        =    8
 THE NUCLEAR REPULSION ENERGY IS      126.3512245905

     LEBEDEV GRID-BASED DFT OPTIONS
     ------------------------------
     DFTTYP=PBE     
     NRAD  =      96     NLEB  =     302
     NRAD0 =      24     NLEB0 =     110
     SWOFF =    5.00E-03 (PURE SCF -> DFT)
     SWITCH=    3.00E-04 (COARSE -> TIGHT GRID)
     THRESH=    0.00E+00 GTHRE=    1.00E+00

 GRIMME'S EMPIRICAL DISPERSION CORRECTION= F

     $CONTRL OPTIONS
     ---------------
 SCFTYP=RHF          RUNTYP=OPTIMIZE     EXETYP=RUN     
 MPLEVL=       0     CITYP =NONE         CCTYP =NONE         VBTYP =NONE    
 DFTTYP=PBE          TDDFT =NONE    
 MULT  =       1     ICHARG=       0     NZVAR =      18     COORD =ZMT     
 PP    =NONE         RELWFN=NONE         LOCAL =NONE         NUMGRD=       F
 ISPHER=       1     NOSYM =       0     MAXIT =      30     UNITS =ANGS    
 PLTORB=       F     MOLPLT=       F     AIMPAC=       F     FRIEND=        
 NPRINT=       7     IREST =       0     GEOM  =INPUT   
 NORMF =       0     NORMP =       0     ITOL  =      20     ICUT  =       9
 INTTYP=BEST         GRDTYP=BEST         QMTTOL= 1.0E-06

     $SYSTEM OPTIONS
     ---------------
  REPLICATED MEMORY=     1000000 WORDS (ON EVERY NODE).
 DISTRIBUTED MEMDDI=           0 MILLION WORDS IN AGGREGATE,
 MEMDDI DISTRIBUTED OVER   1 PROCESSORS IS           0 WORDS/PROCESSOR.
 TOTAL MEMORY REQUESTED ON EACH PROCESSOR=     1000000 WORDS.
 TIMLIM=      525600.00 MINUTES, OR     365.0 DAYS.
 PARALL= F  BALTYP=  DLB     KDIAG=    0  COREFL= F
 MXSEQ2=     300 MXSEQ3=     150  mem10=         0

          ----------------
          PROPERTIES INPUT
          ----------------

     MOMENTS            FIELD           POTENTIAL          DENSITY
 IEMOM =       1   IEFLD =       0   IEPOT =       0   IEDEN =       0
 WHERE =COMASS     WHERE =NUCLEI     WHERE =NUCLEI     WHERE =NUCLEI  
 OUTPUT=BOTH       OUTPUT=BOTH       OUTPUT=BOTH       OUTPUT=BOTH    
 IEMINT=       0   IEFINT=       0                     IEDINT=       0
                                                       MORB  =       0
          EXTRAPOLATION IN EFFECT
          DIIS IN EFFECT
 ORBITAL PRINTING OPTION: NPREO=     1    80     2     1

     -------------------------------
     INTEGRAL TRANSFORMATION OPTIONS
     -------------------------------
     NWORD  =            0
     CUTOFF = 1.0E-09     MPTRAN =       0
     DIRTRF =       F     AOINTS =DUP     

          ----------------------
          INTEGRAL INPUT OPTIONS
          ----------------------
 NOPK  =       1 NORDER=       0 SCHWRZ=       T

   --- ENCODED Z MATRIX ---
 COORD  TYPE   I   J   K   L   M   N
    1      1    2   1
    2      1    3   2
    3      2    3   2   1
    4      1    4   2
    5      2    4   2   1
    6      3    4   2   1   3
    7      1    5   2
    8      2    5   2   1
    9      3    5   2   1   3
   10      1    6   1
   11      2    6   1   2
   12      3    6   1   2   3
   13      1    7   1
   14      2    7   1   2
   15      3    7   1   2   6
   16      1    8   1
   17      2    8   1   2
   18      3    8   1   2   6

 THE DETERMINANT OF THE G MATRIX IS 10**(   -12)


                     --------------------
                     INTERNAL COORDINATES
                     --------------------

                 - - ATOMS - -         COORDINATE      COORDINATE
 NO.   TYPE    I  J  K  L  M  N        (BOHR,RAD)       (ANG,DEG)
 ----------------------------------------------------------------
   1 STRETCH   2  1                     2.8345890       1.5000000
   2 STRETCH   3  2                     2.6456164       1.4000000
   3 BEND      3  2  1                  1.9118710     109.5421400
   4 STRETCH   4  2                     2.0786986       1.1000000
   5 BEND      4  2  1                  1.9118710     109.5421400
   6 TORSION   4  2  1  3               2.0943951     120.0000000
   7 STRETCH   5  2                     2.0786986       1.1000000
   8 BEND      5  2  1                  1.9118710     109.5421400
   9 TORSION   5  2  1  3              -2.0943951    -120.0000000
  10 STRETCH   6  1                     2.8345890       1.5000000
  11 BEND      6  1  2                  1.9118710     109.5421400
  12 TORSION   6  1  2  3               0.6981317      40.0000000
  13 STRETCH   7  1                     2.0786986       1.1000000
  14 BEND      7  1  2                  1.9118710     109.5421400
  15 TORSION   7  1  2  6               2.0943951     120.0000000
  16 STRETCH   8  1                     2.0786986       1.1000000
  17 BEND      8  1  2                  1.9118710     109.5421400
  18 TORSION   8  1  2  6              -2.0943951    -120.0000000

     ------------------------------------------
     THE POINT GROUP IS C1 , NAXIS= 0, ORDER= 1
     ------------------------------------------

 -- VARIATIONAL SPACE WILL BE RESTRICTED TO PURE SPHERICAL HARMONICS ONLY --
 AFTER EXCLUDING CONTAMINANT COMBINATIONS FROM THE CARTESIAN GAUSSIAN BASIS
 SET, THE NUMBER OF SPHERICAL HARMONICS KEPT IN THE VARIATION SPACE IS   76

     DIMENSIONS OF THE SYMMETRY SUBSPACES ARE
 A   =   76

 ..... DONE SETTING UP THE RUN .....
 STEP CPU TIME =     0.01 TOTAL CPU TIME =          0.0 (      0.0 MIN)
 TOTAL WALL CLOCK TIME=          0.0 SECONDS, CPU UTILIZATION IS    33.33%


          -----------------------------
          STATIONARY POINT LOCATION RUN
          -----------------------------

 OBTAINING INITIAL HESSIAN, HESS=GUESS   
 DIAGONAL GUESS HESSIAN IN INTERNAL COORDS IS
     1  0.3892     2  0.3267     3  0.2379     4  0.3397     5  0.2253
     6  0.2500     7  0.3397     8  0.2253     9  0.2500    10  0.2690
    11  0.2315    12  0.2500    13  0.3397    14  0.2253    15  0.2500
    16  0.3397    17  0.2253    18  0.2500

          PARAMETERS CONTROLLING GEOMETRY SEARCH ARE
          METHOD =QA                  UPHESS =BFGS    
          NNEG   =         0          NFRZ   =         1
          NSTEP  =        50          IFOLOW =         1
          HESS   =GUESS               RESTAR =         F
          IHREP  =         0          HSSEND =         F
          NPRT   =         0          NPUN   =         0
          OPTTOL = 1.000E-04          RMIN   = 1.500E-03
          RMAX   = 1.000E-01          RLIM   = 7.000E-02
          DXMAX  = 3.000E-01          PURIFY =         F
          MOVIE  =         F          TRUPD  =         T
          TRMAX  = 5.000E-01          TRMIN  = 5.000E-02
          ITBMAT =         5          STPT   =         F
          STSTEP = 1.000E-02          PROJCT=          T
          FROZEN COORD(S)=  12

 BEGINNING GEOMETRY SEARCH POINT NSERCH=   0 ...

 COORDINATES OF ALL ATOMS ARE (ANGS)
   ATOM   CHARGE       X              Y              Z
 ------------------------------------------------------------
 C           6.0   0.6700632662  -0.7477626608  -0.2075270407
 C           6.0  -0.7663238321  -0.6675796506   0.2171643631
 F           9.0  -1.2792847236   0.5953101491  -0.1021794604
 H           1.0  -1.3482383738  -1.4411172024  -0.3053441269
 H           1.0  -0.8384060596  -0.8273059671   1.3031163217
 F           9.0   1.3555864473   0.5520294732   0.0934686013
 H           1.0   1.1707209445  -1.5601716661   0.3395867477
 H           1.0   0.7237260581  -0.9475412425  -1.2879014309


                     --------------------
                     INTERNAL COORDINATES
                     --------------------

                 - - ATOMS - -         COORDINATE      COORDINATE
 NO.   TYPE    I  J  K  L  M  N        (BOHR,RAD)       (ANG,DEG)
 ----------------------------------------------------------------
   1 STRETCH   2  1                     2.8345890       1.5000000
   2 STRETCH   3  2                     2.6456164       1.4000000
   3 BEND      3  2  1                  1.9118710     109.5421400
   4 STRETCH   4  2                     2.0786986       1.1000000
   5 BEND      4  2  1                  1.9118710     109.5421400
   6 TORSION   4  2  1  3               2.0943951     120.0000000
   7 STRETCH   5  2                     2.0786986       1.1000000
   8 BEND      5  2  1                  1.9118710     109.5421400
   9 TORSION   5  2  1  3              -2.0943951    -120.0000000
  10 STRETCH   6  1                     2.8345890       1.5000000
  11 BEND      6  1  2                  1.9118710     109.5421400
  12 TORSION   6  1  2  3               0.6981317      40.0000000
  13 STRETCH   7  1                     2.0786986       1.1000000
  14 BEND      7  1  2                  1.9118710     109.5421400
  15 TORSION   7  1  2  6               2.0943951     120.0000000
  16 STRETCH   8  1                     2.0786986       1.1000000
  17 BEND      8  1  2                  1.9118710     109.5421400
  18 TORSION   8  1  2  6              -2.0943951    -120.0000000

 THE CURRENT FULLY SUBSTITUTED Z-MATRIX IS
 C   
 C      1   1.5000000
 F      2   1.4000000  1   109.5421400
 H      2   1.1000000  1   109.5421400  3   120.0000000  0
 H      2   1.1000000  1   109.5421400  3  -120.0000000  0
 F      1   1.5000000  2   109.5421400  3    40.0000000  0
 H      1   1.1000000  2   109.5421400  6   120.0000000  0
 H      1   1.1000000  2   109.5421400  6  -120.0000000  0

          ********************
          1 ELECTRON INTEGRALS
          ********************
 ...... END OF ONE-ELECTRON INTEGRALS ......
 STEP CPU TIME =     0.01 TOTAL CPU TIME =          0.0 (      0.0 MIN)
 TOTAL WALL CLOCK TIME=          0.0 SECONDS, CPU UTILIZATION IS    50.00%

          -------------
          GUESS OPTIONS
          -------------
          GUESS =HUCKEL            NORB  =       0          NORDER=       0
          MIX   =       F          PRTMO =       F          PUNMO =       F
          TOLZ  = 1.0E-08          TOLE  = 1.0E-05
          SYMDEN=       F          PURIFY=       F

 INITIAL GUESS ORBITALS GENERATED BY HUCKEL   ROUTINE.
 HUCKEL GUESS REQUIRES     54920 WORDS.

 STATISTICS FOR GENERATION OF SYMMETRY ORBITAL -Q- MATRIX
 NUMBER OF CARTESIAN ATOMIC ORBITALS=         80
 NUMBER OF SPHERICAL CONTAMINANTS DROPPED=     4
 NUMBER OF LINEARLY DEPENDENT MOS DROPPED=     0
 TOTAL NUMBER OF MOS IN VARIATION SPACE=      76

 SYMMETRIES FOR INITIAL GUESS ORBITALS FOLLOW.   BOTH SET(S).
    17 ORBITALS ARE OCCUPIED (    4 CORE ORBITALS).
     5=A        6=A        7=A        8=A        9=A       10=A       11=A   
    12=A       13=A       14=A       15=A       16=A       17=A       18=A   
    19=A       20=A       21=A       22=A       23=A       24=A       25=A   
    26=A       27=A   
 ...... END OF INITIAL ORBITAL SELECTION ......
 STEP CPU TIME =     0.01 TOTAL CPU TIME =          0.0 (      0.0 MIN)
 TOTAL WALL CLOCK TIME=          0.0 SECONDS, CPU UTILIZATION IS    60.00%

                    ----------------------
                    AO INTEGRAL TECHNOLOGY
                    ----------------------
     S,P,L SHELL ROTATED AXIS INTEGRALS, REPROGRAMMED BY
        KAZUYA ISHIMURA (IMS) AND JOSE SIERRA (SYNSTAR).
     S,P,D,L SHELL ROTATED AXIS INTEGRALS PROGRAMMED BY
        KAZUYA ISHIMURA (INSTITUTE FOR MOLECULAR SCIENCE).
     S,P,D,F,G SHELL TO TOTAL QUARTET ANGULAR MOMENTUM SUM 5,
        ERIC PROGRAM BY GRAHAM FLETCHER (ELORET AND NASA ADVANCED
        SUPERCOMPUTING DIVISION, AMES RESEARCH CENTER).
     S,P,D,F,G,L SHELL GENERAL RYS QUADRATURE PROGRAMMED BY
        MICHEL DUPUIS (PACIFIC NORTHWEST NATIONAL LABORATORY).

          --------------------
          2 ELECTRON INTEGRALS
          --------------------

 THE -PK- OPTION IS OFF, THE INTEGRALS ARE NOT IN SUPERMATRIX FORM.
 STORING   15000 INTEGRALS/RECORD ON DISK, USING 12 BYTES/INTEGRAL.
 TWO ELECTRON INTEGRAL EVALUATION REQUIRES   91062 WORDS OF MEMORY.
 SCHWARZ INEQUALITY OVERHEAD:      3237 INTEGRALS, T=        0.00
 II,JST,KST,LST =  1  1  1  1 NREC =         1 INTLOC =    1
 II,JST,KST,LST =  2  1  1  1 NREC =         1 INTLOC =    2
 II,JST,KST,LST =  3  1  1  1 NREC =         1 INTLOC =    7
 II,JST,KST,LST =  4  1  1  1 NREC =         1 INTLOC =   22
 II,JST,KST,LST =  5  1  1  1 NREC =         1 INTLOC =   67
 II,JST,KST,LST =  6  1  1  1 NREC =         1 INTLOC =  214
 II,JST,KST,LST =  7  1  1  1 NREC =         1 INTLOC = 1189
 II,JST,KST,LST =  8  1  1  1 NREC =         1 INTLOC = 3205
 II,JST,KST,LST =  9  1  1  1 NREC =         1 INTLOC = 5669
 II,JST,KST,LST = 10  1  1  1 NREC =         1 INTLOC = 8593
 II,JST,KST,LST = 11  1  1  1 NREC =         2 INTLOC = 5506
 II,JST,KST,LST = 12  1  1  1 NREC =         3 INTLOC = 8183
 II,JST,KST,LST = 13  1  1  1 NREC =         7 INTLOC = 6087
 II,JST,KST,LST = 14  1  1  1 NREC =         8 INTLOC = 4142
 II,JST,KST,LST = 15  1  1  1 NREC =         9 INTLOC = 4915
 II,JST,KST,LST = 16  1  1  1 NREC =        10 INTLOC = 7766
 II,JST,KST,LST = 17  1  1  1 NREC =        14 INTLOC = 9692
 II,JST,KST,LST = 18  1  1  1 NREC =        20 INTLOC =  691
 II,JST,KST,LST = 19  1  1  1 NREC =        34 INTLOC =11778
 II,JST,KST,LST = 20  1  1  1 NREC =        37 INTLOC =14928
 II,JST,KST,LST = 21  1  1  1 NREC =        41 INTLOC = 6426
 II,JST,KST,LST = 22  1  1  1 NREC =        52 INTLOC =13963
 II,JST,KST,LST = 23  1  1  1 NREC =        57 INTLOC = 4666
 II,JST,KST,LST = 24  1  1  1 NREC =        61 INTLOC =14545
 II,JST,KST,LST = 25  1  1  1 NREC =        77 INTLOC = 6702
 II,JST,KST,LST = 26  1  1  1 NREC =        80 INTLOC =10655
 II,JST,KST,LST = 27  1  1  1 NREC =        85 INTLOC = 9301
 II,JST,KST,LST = 28  1  1  1 NREC =        91 INTLOC =13388
 II,JST,KST,LST = 29  1  1  1 NREC =       108 INTLOC =11342
 II,JST,KST,LST = 30  1  1  1 NREC =       132 INTLOC = 8489
 II,JST,KST,LST = 31  1  1  1 NREC =       183 INTLOC = 8932
 II,JST,KST,LST = 32  1  1  1 NREC =       194 INTLOC = 7794
 II,JST,KST,LST = 33  1  1  1 NREC =       206 INTLOC = 6466
 II,JST,KST,LST = 34  1  1  1 NREC =       238 INTLOC = 9309
 II,JST,KST,LST = 35  1  1  1 NREC =       252 INTLOC = 3671
 II,JST,KST,LST = 36  1  1  1 NREC =       266 INTLOC =12297
 SCHWARZ INEQUALITY TEST SKIPPED       16311 INTEGRAL BLOCKS.
 TOTAL NUMBER OF NONZERO TWO-ELECTRON INTEGRALS =             4636199
        310 INTEGRAL RECORDS WERE STORED ON DISK FILE  8.
  ...... END OF TWO-ELECTRON INTEGRALS .....
 STEP CPU TIME =     0.49 TOTAL CPU TIME =          0.5 (      0.0 MIN)
 TOTAL WALL CLOCK TIME=          0.5 SECONDS, CPU UTILIZATION IS    98.11%

          --------------------------
               R-PBE SCF CALCULATION
          --------------------------

     NUCLEAR ENERGY =       126.3512245905
     MAXIT =   30     NPUNCH=    2
     EXTRAP=T  DAMP=F  SHIFT=F  RSTRCT=F  DIIS=T  DEM=F  SOSCF=F
         DENSITY MATRIX CONVERGENCE THRESHOLD=  1.00E-05
     COARSE -> FINE DFT GRID SWITCH THRESHOLD=  3.00E-04 (SWITCH IN $DFT)
                   HF -> DFT SWITCH THRESHOLD=  5.00E-03 (SWOFF IN $DFT)
     MEMORY REQUIRED FOR RHF ITERS=    365468 WORDS.

 DFT CODE IS SWITCHING FROM THE FINE GRID NRAD= 96,  NLEB=  302
                      TO THE COARSE GRID NRAD0= 24, NLEB0=  110

     EXCHANGE FUNCTIONAL   =PBE       
     CORRELATION FUNCTIONAL=PBE       
     DFT THRESHOLD         =.172E-07
     GRID CHANGE THRESHOLD =.300E-03
 FOR AN EULER-MACLAURIN QUADRATURE USING  96 RADIAL POINTS:
 SMALLEST GAUSSIAN PRIMITIVE EXPONENT=        0.1061000000 OF TYPE -S-
 ON ATOM NUMBER   4 HAS RADIAL NORMALIZATION=  1.000000
  LARGEST GAUSSIAN PRIMITIVE EXPONENT=     2931.5500000000 OF TYPE -S-
 ON ATOM NUMBER   3 HAS RADIAL NORMALIZATION=  1.000000
 DFT IS SWITCHED OFF, PERFORMING PURE SCF UNTIL SWOFF THRESHOLD IS REACHED.

 ITER EX DEM     TOTAL ENERGY        E CHANGE  DENSITY CHANGE    DIIS ERROR
   1  0  0     -276.1223736907  -276.1223736907   0.191475969   0.767774903
          * * *   INITIATING DIIS PROCEDURE   * * *
   2  1  0     -276.7706378383    -0.6482641475   0.090694180   0.078471518
   3  2  0     -276.8126839617    -0.0420461234   0.048870775   0.042687506
   4  3  0     -276.8284536259    -0.0157696642   0.008934098   0.010458786
   5  4  0     -276.8291878321    -0.0007342061   0.002231973   0.001720745
 CONVERGED TO SWOFF, SO DFT CALCULATION IS NOW SWITCHED ON.
          * * *   INITIATING DIIS PROCEDURE   * * *
   6  5  0     -277.8965304481    -1.0673426161   0.095662066   0.084978399
   7  6  0     -277.9109718260    -0.0144413778   0.085798087   0.040852161
   8  7  0     -277.9087203931     0.0022514329   0.053073258   0.045418916
   9  8  0     -277.9255386906    -0.0168182975   0.007067904   0.005273417
  10  9  0     -277.9258054649    -0.0002667743   0.001984525   0.001211074
  11 10  0     -277.9258185769    -0.0000131120   0.000637043   0.000492389
  12 11  0     -277.9258207293    -0.0000021524   0.000089765   0.000083975
 DFT CODE IS SWITCHING BACK TO THE FINE GRID
          * * *   INITIATING DIIS PROCEDURE   * * *
  13 12  0     -277.9261051466    -0.0002844174   0.004546977   0.003048621
  14 13  0     -277.9261450719    -0.0000399252   0.005491941   0.001681085
  15 14  0     -277.9261404073     0.0000046645   0.002936406   0.002079688
  16 15  0     -277.9261728390    -0.0000324317   0.000291738   0.000140625
  17 16  0     -277.9261729584    -0.0000001194   0.000137187   0.000103553
  18 17  0     -277.9261730220    -0.0000000636   0.000023947   0.000015872
  19 18  0     -277.9261730236    -0.0000000016   0.000006930   0.000004315
  20 19  0     -277.9261730237    -0.0000000002   0.000000679   0.000000346

          -----------------
          DENSITY CONVERGED
          -----------------
     TIME TO FORM FOCK OPERATORS=       9.8 SECONDS (       0.5 SEC/ITER)
     TIME TO SOLVE SCF EQUATIONS=       0.1 SECONDS (       0.0 SEC/ITER)

 FINAL R-PBE ENERGY IS     -277.9261730237 AFTER  20 ITERATIONS
 DFT EXCHANGE + CORRELATION ENERGY =       -32.8950521338
 TOTAL ELECTRON NUMBER             =        33.9999281301

          ------------
          EIGENVECTORS
          ------------

                      1          2          3          4          5
                  -24.2342   -24.2239    -9.9748    -9.9738    -1.0961
                     A          A          A          A          A   
    1  C  1  S    0.000040  -0.000177   0.991923  -0.053371  -0.018658
    2  C  1  S    0.000020  -0.000924   0.036653  -0.003042   0.033257
    3  C  1  S   -0.003201   0.008077  -0.021833   0.007199   0.025777
    4  C  1  X    0.000377   0.000586   0.000484   0.000915  -0.011427
    5  C  1  Y   -0.000110   0.000771   0.000074  -0.000165   0.017182
    6  C  1  Z   -0.000055   0.000143  -0.000033  -0.000290   0.005541
    7  C  1  X    0.000967   0.000397   0.002757  -0.002890  -0.008870
    8  C  1  Y   -0.000869   0.003979   0.000751   0.000320   0.004177
    9  C  1  Z   -0.000555   0.001048  -0.000312   0.000876   0.003143
   10  C  1 XX   -0.000079  -0.000134  -0.000347  -0.000844   0.002811
   11  C  1 YY    0.000053   0.000421   0.000076   0.000472   0.000320
   12  C  1 ZZ    0.000026  -0.000286   0.000271   0.000372  -0.003131
   13  C  1 XY    0.000137   0.000456  -0.000126   0.000108   0.000152
   14  C  1 XZ   -0.000025   0.000118   0.000190   0.000433  -0.000940
   15  C  1 YZ   -0.000023   0.000212  -0.000120  -0.000046   0.001107
   16  C  2  S   -0.000129   0.000037   0.053558   0.991869  -0.065530
   17  C  2  S   -0.000553   0.000060   0.000895   0.037067   0.123866
   18  C  2  S    0.009208  -0.002942   0.005170  -0.021785   0.016112
   19  C  2  X   -0.000609  -0.000317  -0.000987  -0.000537  -0.030122
   20  C  2  Y    0.001009  -0.000074  -0.000018   0.000580   0.091202
   21  C  2  Z   -0.000203   0.000047   0.000286  -0.000143  -0.025358
   22  C  2  X    0.000065  -0.000913   0.002682  -0.002921  -0.006886
   23  C  2  Y    0.003991  -0.000809   0.000130   0.001202   0.007046
   24  C  2  Z   -0.001172   0.000411  -0.000910   0.000353  -0.001890
   25  C  2 XX   -0.000133  -0.000076  -0.000880  -0.000301  -0.004878
   26  C  2 YY    0.000255   0.000042   0.000498   0.000217   0.014638
   27  C  2 ZZ   -0.000122   0.000034   0.000383   0.000084  -0.009760
   28  C  2 XY   -0.000185  -0.000139   0.000044  -0.000014  -0.011756
   29  C  2 XZ    0.000077  -0.000040   0.000462   0.000188   0.002188
   30  C  2 YZ   -0.000127  -0.000002   0.000012  -0.000000  -0.007998
   31  F  3  S    0.993084   0.000197   0.000008   0.000063  -0.233595
   32  F  3  S    0.034017  -0.000013  -0.000132   0.000420   0.475311
   33  F  3  S   -0.016858   0.000306  -0.000085  -0.000618   0.487305
   34  F  3  X    0.000423   0.000020  -0.000089  -0.000141   0.036646
   35  F  3  Y   -0.001114  -0.000009   0.000045   0.000260  -0.090140
   36  F  3  Z    0.000278  -0.000073  -0.000004  -0.000057   0.021207
   37  F  3  X   -0.001446  -0.000207   0.000272  -0.000472   0.016720
   38  F  3  Y    0.003435  -0.000089   0.000194   0.001823  -0.041903
   39  F  3  Z   -0.000900   0.000265  -0.000108  -0.000523   0.009451
   40  F  3 XX    0.000164  -0.000092   0.000179   0.000356  -0.003524
   41  F  3 YY   -0.000339   0.000035  -0.000137  -0.000910   0.008892
   42  F  3 ZZ    0.000175   0.000057  -0.000042   0.000555  -0.005368
   43  F  3 XY    0.000282   0.000030   0.000004   0.000710  -0.007327
   44  F  3 XZ   -0.000093   0.000037  -0.000077  -0.000158   0.001594
   45  F  3 YZ    0.000158  -0.000001   0.000040   0.000462  -0.004241
   46  H  4  S   -0.000881   0.000154  -0.000330  -0.001261   0.022533
   47  H  4  S    0.000004   0.000583   0.000577   0.003330   0.000676
   48  H  4  X    0.000030   0.000130   0.000104  -0.000585   0.002308
   49  H  4  Y   -0.000387   0.000087  -0.000101  -0.000984   0.004453
   50  H  4  Z    0.000105  -0.000007  -0.000082  -0.000640   0.002083
   51  H  5  S   -0.000963   0.000146  -0.000388  -0.001159   0.022457
   52  H  5  S   -0.000359  -0.000460   0.000664   0.003422   0.001910
   53  H  5  X    0.000043  -0.000113   0.000140   0.000036   0.000023
   54  H  5  Y   -0.000390   0.000018  -0.000027  -0.000226   0.001701
   55  H  5  Z    0.000165   0.000035   0.000053   0.001238  -0.005162
   56  F  6  S   -0.000198   0.993091   0.000046   0.000003  -0.039839
   57  F  6  S   -0.000031   0.033673   0.000345  -0.000154   0.080155
   58  F  6  S    0.000298  -0.015863   0.000118  -0.000034   0.082733
   59  F  6  X   -0.000019  -0.000502   0.000071   0.000087  -0.009895
   60  F  6  Y    0.000003  -0.001005   0.000048   0.000020  -0.013023
   61  F  6  Z    0.000063  -0.000230   0.000003  -0.000003  -0.002764
   62  F  6  X    0.000158   0.001672   0.000346  -0.000277  -0.005736
   63  F  6  Y   -0.000154   0.003092   0.001257   0.000029  -0.005793
   64  F  6  Z   -0.000218   0.000745   0.000347   0.000048  -0.001498
   65  F  6 XX   -0.000095   0.000101   0.000226   0.000128   0.000362
   66  F  6 YY    0.000047  -0.000282  -0.000760  -0.000042   0.001038
   67  F  6 ZZ    0.000048   0.000180   0.000534  -0.000086  -0.001401
   68  F  6 XY   -0.000011  -0.000330  -0.000791   0.000047   0.001671
   69  F  6 XZ    0.000032  -0.000094  -0.000173  -0.000048   0.000373
   70  F  6 YZ   -0.000002  -0.000128  -0.000374   0.000009   0.000676
   71  H  7  S    0.000170  -0.000698  -0.001277  -0.000165   0.004247
   72  H  7  S    0.000636   0.000114   0.003412   0.000268   0.000471
   73  H  7  X   -0.000114  -0.000116   0.000469  -0.000173  -0.000301
   74  H  7  Y    0.000094  -0.000339  -0.001039   0.000027   0.000871
   75  H  7  Z    0.000017  -0.000140   0.000688   0.000014  -0.000557
   76  H  8  S    0.000139  -0.000781  -0.001177  -0.000246   0.005273
   77  H  8  S   -0.000559  -0.000232   0.003558   0.000261   0.001201
   78  H  8  X    0.000122  -0.000092  -0.000081  -0.000130  -0.000055
   79  H  8  Y   -0.000005  -0.000389  -0.000264   0.000013   0.000441
   80  H  8  Z   -0.000031  -0.000076  -0.001253   0.000078   0.001388

                      6          7          8          9         10
                   -1.0557    -0.7158    -0.5775    -0.4683    -0.4637
                     A          A          A          A          A   
    1  C  1  S   -0.051168  -0.153557   0.128323  -0.000825  -0.008147
    2  C  1  S    0.098830   0.314194  -0.278503  -0.001731   0.032443
    3  C  1  S    0.016009   0.176468  -0.149026   0.010801  -0.006543
    4  C  1  X    0.035985  -0.103886  -0.108118   0.081068  -0.030351
    5  C  1  Y    0.068183  -0.040315   0.044569  -0.074219   0.221129
    6  C  1  Z    0.017115   0.021254   0.055610   0.264772   0.080224
    7  C  1  X    0.011156  -0.030069  -0.032327   0.019661  -0.015342
    8  C  1  Y    0.008633  -0.024346   0.033728  -0.026674   0.064860
    9  C  1  Z    0.001750   0.006480   0.027152   0.111694   0.024088
   10  C  1 XX   -0.002859   0.008309   0.007634  -0.003797  -0.002449
   11  C  1 YY    0.010007  -0.005375  -0.005336   0.001925   0.006899
   12  C  1 ZZ   -0.007148  -0.002934  -0.002298   0.001872  -0.004450
   13  C  1 XY    0.010945   0.000033  -0.000548   0.000711  -0.004698
   14  C  1 XZ    0.002243  -0.004934  -0.005226  -0.005301  -0.003171
   15  C  1 YZ    0.005162  -0.000194   0.000414  -0.001467   0.006941
   16  C  2  S    0.003566  -0.148887  -0.128432  -0.000814   0.002540
   17  C  2  S   -0.009102   0.304783   0.280619  -0.004433   0.010718
   18  C  2  S    0.015854   0.165465   0.137298   0.016050  -0.042368
   19  C  2  X    0.022269   0.103789  -0.127142   0.072353   0.120519
   20  C  2  Y   -0.014576  -0.052803  -0.018478  -0.070038   0.303524
   21  C  2  Z    0.002479  -0.021743   0.056160   0.311430   0.063594
   22  C  2  X    0.010667   0.029052  -0.038331   0.012081   0.051245
   23  C  2  Y   -0.000035  -0.029904  -0.033544  -0.005182   0.080031
   24  C  2  Z   -0.001657  -0.005952   0.028741   0.124984   0.040826
   25  C  2 XX    0.003936   0.008325  -0.007556   0.004707  -0.002813
   26  C  2 YY   -0.004118  -0.005642   0.006100  -0.006336   0.010778
   27  C  2 ZZ    0.000182  -0.002682   0.001456   0.001629  -0.007965
   28  C  2 XY    0.003464  -0.000977  -0.000838   0.000125   0.000791
   29  C  2 XZ   -0.001554  -0.005179   0.005701   0.002873  -0.002557
   30  C  2 YZ    0.001454   0.000845  -0.000374   0.006480  -0.008861
   31  F  3  S    0.046139   0.057560   0.051596  -0.026075   0.032729
   32  F  3  S   -0.094962  -0.124950  -0.113788   0.053354  -0.067986
   33  F  3  S   -0.098569  -0.144684  -0.137537   0.087489  -0.103009
   34  F  3  X   -0.002495   0.045435   0.032510  -0.091233   0.255636
   35  F  3  Y    0.016017  -0.074380  -0.184898   0.231267  -0.184823
   36  F  3  Z   -0.003846   0.012006   0.066425   0.133378   0.132148
   37  F  3  X   -0.000016   0.021764   0.022438  -0.056472   0.157228
   38  F  3  Y    0.008404  -0.044182  -0.110187   0.137718  -0.112708
   39  F  3  Z   -0.001553   0.009131   0.039797   0.079126   0.078070
   40  F  3 XX    0.001455  -0.000865  -0.004965   0.001332   0.003320
   41  F  3 YY   -0.001929   0.003478   0.008071  -0.008540  -0.000424
   42  F  3 ZZ    0.000474  -0.002613  -0.003106   0.007208  -0.002896
   43  F  3 XY    0.001047  -0.004089  -0.002565   0.004946  -0.011260
   44  F  3 XZ   -0.000200   0.000632   0.001604   0.002985   0.003955
   45  F  3 YZ    0.000720  -0.001320  -0.004676  -0.006505  -0.005832
   46  H  4  S   -0.003265   0.114833   0.163986  -0.095825  -0.220316
   47  H  4  S    0.000905  -0.007245   0.012298  -0.009312  -0.049735
   48  H  4  X   -0.000286   0.007859   0.005135  -0.003266  -0.007005
   49  H  4  Y   -0.000701   0.007209   0.008928  -0.006400  -0.004345
   50  H  4  Z   -0.000226   0.005402   0.007826   0.003822  -0.005512
   51  H  5  S   -0.002351   0.108226   0.166222   0.213366   0.004061
   52  H  5  S    0.000102  -0.001690   0.006864   0.028672  -0.012808
   53  H  5  X    0.000062   0.002245  -0.001443   0.004248   0.003128
   54  H  5  Y   -0.000253   0.000472   0.001157   0.000599   0.006928
   55  H  5  Z    0.000347  -0.011118  -0.013112  -0.009192   0.000627
   56  F  6  S   -0.239225   0.051060  -0.042038   0.005063   0.032216
   57  F  6  S    0.487032  -0.110939   0.093781  -0.010012  -0.067780
   58  F  6  S    0.509190  -0.127275   0.109795  -0.019629  -0.103385
   59  F  6  X   -0.035866  -0.042025   0.042992   0.007102  -0.191229
   60  F  6  Y   -0.069962  -0.059519   0.135049  -0.064265  -0.172829
   61  F  6  Z   -0.014864  -0.009366   0.044217   0.111131  -0.019679
   62  F  6  X   -0.018223  -0.020837   0.029593   0.004207  -0.120042
   63  F  6  Y   -0.036845  -0.037240   0.083438  -0.036545  -0.106990
   64  F  6  Z   -0.007402  -0.007466   0.027442   0.064657  -0.011319
   65  F  6 XX   -0.002303  -0.000433   0.003202  -0.001395   0.003085
   66  F  6 YY    0.007554   0.002768  -0.006078   0.004144   0.001552
   67  F  6 ZZ   -0.005251  -0.002335   0.002876  -0.002749  -0.004637
   68  F  6 XY    0.008364   0.003928  -0.003692   0.000196   0.008197
   69  F  6 XZ    0.001690   0.000624  -0.001627  -0.003403   0.000924
   70  F  6 YZ    0.003485   0.001134  -0.003211  -0.005243   0.000672
   71  H  7  S    0.019262   0.118711  -0.164687   0.159343  -0.083983
   72  H  7  S    0.000759  -0.007642  -0.014257   0.027063  -0.024915
   73  H  7  X   -0.001398  -0.007235   0.004521  -0.005377   0.003293
   74  H  7  Y    0.003906   0.008177  -0.009002   0.006756   0.000424
   75  H  7  Z   -0.001739  -0.005954   0.008068   0.000694   0.004642
   76  H  8  S    0.018959   0.113152  -0.168017  -0.166888  -0.073011
   77  H  8  S    0.001713  -0.001966  -0.006840  -0.017002  -0.019291
   78  H  8  X    0.000253  -0.002184  -0.001374   0.004483   0.000461
   79  H  8  Y    0.001655   0.001140  -0.001250  -0.003826   0.004475
   80  H  8  Z    0.004063   0.011664  -0.013164  -0.006769  -0.003506

                     11         12         13         14         15
                   -0.4321    -0.4065    -0.3914    -0.3186    -0.3020
                     A          A          A          A          A   
    1  C  1  S   -0.008126  -0.011068   0.003704   0.025529   0.009183
    2  C  1  S    0.019988   0.016368  -0.004112  -0.056455  -0.019416
    3  C  1  S    0.018954   0.035942  -0.019406  -0.135584  -0.056193
    4  C  1  X    0.322170  -0.034516   0.025847   0.100730   0.006976
    5  C  1  Y   -0.040351  -0.289661  -0.026011  -0.004992   0.026437
    6  C  1  Z   -0.049860   0.012889   0.307142   0.017530  -0.077416
    7  C  1  X    0.122532   0.012935   0.008084   0.105328   0.046204
    8  C  1  Y   -0.037094  -0.082790  -0.015117   0.043466  -0.022611
    9  C  1  Z   -0.016792   0.010438   0.142331  -0.032758  -0.031454
   10  C  1 XX   -0.005156   0.001651   0.006552   0.009424   0.006233
   11  C  1 YY    0.004062  -0.010765   0.003847  -0.004327  -0.006937
   12  C  1 ZZ    0.001094   0.009114  -0.010399  -0.005097   0.000703
   13  C  1 XY    0.005347  -0.019765   0.000256   0.005953   0.007345
   14  C  1 XZ    0.006509  -0.000453   0.010742  -0.002562   0.010391
   15  C  1 YZ   -0.000644  -0.007140   0.000826  -0.009167   0.012361
   16  C  2  S    0.011559   0.014192   0.004393  -0.018922  -0.003816
   17  C  2  S   -0.021413  -0.028473  -0.005714   0.038394   0.005246
   18  C  2  S   -0.041165  -0.043019  -0.021110   0.119968   0.042742
   19  C  2  X   -0.307885   0.066751   0.001162  -0.002452  -0.060218
   20  C  2  Y    0.092490   0.188657  -0.012496  -0.023163  -0.065114
   21  C  2  Z    0.066893  -0.007897  -0.228398   0.065035  -0.142688
   22  C  2  X   -0.115394   0.052640   0.002675   0.056665   0.026760
   23  C  2  Y    0.004141   0.047700  -0.017474  -0.064530  -0.001303
   24  C  2  Z    0.032112   0.002319  -0.105841  -0.001556  -0.055169
   25  C  2 XX   -0.003391  -0.004854   0.006867  -0.014644  -0.006669
   26  C  2 YY    0.007674   0.012401   0.001612   0.006091   0.014101
   27  C  2 ZZ   -0.004284  -0.007547  -0.008479   0.008553  -0.007432
   28  C  2 XY   -0.014770  -0.017108  -0.001924   0.011297   0.011275
   29  C  2 XZ    0.007042  -0.001438   0.014042   0.002546  -0.006623
   30  C  2 YZ   -0.001076  -0.004844  -0.008368  -0.010340   0.017291
   31  F  3  S    0.020400   0.012722   0.002360  -0.003428  -0.001315
   32  F  3  S   -0.041197  -0.023094  -0.003745   0.004748   0.005466
   33  F  3  S   -0.061554  -0.039729  -0.005326   0.028175  -0.006634
   34  F  3  X   -0.125622   0.178954   0.004374   0.402044   0.236775
   35  F  3  Y   -0.312635  -0.186576  -0.159932   0.112070   0.209313
   36  F  3  Z    0.152672   0.109437  -0.268992  -0.246532   0.363831
   37  F  3  X   -0.076182   0.108853  -0.000302   0.267548   0.157576
   38  F  3  Y   -0.194513  -0.113416  -0.102794   0.069371   0.142951
   39  F  3  Z    0.092748   0.070377  -0.173331  -0.166735   0.256561
   40  F  3 XX   -0.009896  -0.000350  -0.001105   0.004563   0.002730
   41  F  3 YY    0.011140   0.001798   0.007127  -0.003668  -0.005435
   42  F  3 ZZ   -0.001244  -0.001448  -0.006022  -0.000895   0.002705
   43  F  3 XY    0.004052  -0.006709  -0.001465  -0.009261  -0.003457
   44  F  3 XZ    0.000570   0.002535  -0.003343   0.000001   0.004031
   45  F  3 YZ   -0.007379  -0.003757   0.009884   0.005376  -0.005420
   46  H  4  S    0.035067  -0.159863   0.087238   0.016956   0.186726
   47  H  4  S    0.003807  -0.043451   0.022537  -0.012449   0.100141
   48  H  4  X   -0.004804  -0.002516   0.001749  -0.000028   0.004624
   49  H  4  Y    0.004585  -0.001911   0.004528  -0.000191   0.001241
   50  H  4  Z    0.002883  -0.004706  -0.002664   0.002649   0.000404
   51  H  5  S    0.040449  -0.052632  -0.187545   0.108224  -0.137674
   52  H  5  S    0.009054  -0.014709  -0.052423   0.038332  -0.042568
   53  H  5  X   -0.005704   0.001597   0.000892   0.000476  -0.004293
   54  H  5  Y    0.002506   0.004055  -0.002521  -0.000935  -0.000576
   55  H  5  Z   -0.002279   0.002669   0.005892  -0.002975   0.002433
   56  F  6  S    0.014297  -0.029583   0.004545   0.003381   0.000913
   57  F  6  S   -0.030529   0.060038  -0.008211  -0.005492  -0.005902
   58  F  6  S   -0.041033   0.091176  -0.015756  -0.023096   0.014154
   59  F  6  X    0.093871   0.238176  -0.015044   0.358710   0.143482
   60  F  6  Y   -0.223574   0.350261  -0.153797  -0.153121  -0.209754
   61  F  6  Z   -0.067659   0.144232   0.225105  -0.259483   0.336185
   62  F  6  X    0.054754   0.150250  -0.007390   0.234502   0.088960
   63  F  6  Y   -0.143109   0.223308  -0.099155  -0.095903  -0.142591
   64  F  6  Z   -0.040962   0.092284   0.142757  -0.173353   0.235486
   65  F  6 XX   -0.008190   0.001408  -0.001255  -0.005848  -0.002197
   66  F  6 YY    0.009594  -0.005660   0.006364   0.004888   0.005186
   67  F  6 ZZ   -0.001405   0.004253  -0.005108   0.000960  -0.002988
   68  F  6 XY   -0.001382  -0.009513   0.002075  -0.007495  -0.001677
   69  F  6 XZ    0.000160  -0.003277  -0.003849   0.001182  -0.003724
   70  F  6 YZ    0.003760  -0.005502  -0.008260   0.005455  -0.005019
   71  H  7  S    0.130742   0.186240   0.150307   0.023480  -0.090683
   72  H  7  S    0.024028   0.053575   0.041464   0.033411  -0.052505
   73  H  7  X    0.002888  -0.005776  -0.002888   0.001290   0.003803
   74  H  7  Y    0.006042   0.000193   0.006697   0.000779   0.000253
   75  H  7  Z   -0.005611  -0.005472   0.002740   0.000461  -0.000173
   76  H  8  S    0.068710   0.043947  -0.250436  -0.060009   0.063551
   77  H  8  S    0.017526   0.013770  -0.064283  -0.018504   0.006602
   78  H  8  X    0.006589  -0.000771   0.000609   0.002769  -0.002625
   79  H  8  Y    0.000039  -0.007218  -0.003127   0.000438  -0.000468
   80  H  8  Z    0.003971   0.002372  -0.007668  -0.001438   0.001071

                     16         17         18         19         20
                   -0.2916    -0.2854    -0.0127     0.0161     0.0468
                     A          A          A          A          A   
    1  C  1  S   -0.013659   0.013023  -0.066853  -0.078843   0.006644
    2  C  1  S    0.039773  -0.038428   0.187127   0.138686  -0.001353
    3  C  1  S    0.029791  -0.053378   0.330290   1.132643  -0.216466
    4  C  1  X   -0.187558   0.164196   0.185511   0.132790   0.097107
    5  C  1  Y    0.097365  -0.015583   0.368524  -0.117193  -0.043515
    6  C  1  Z   -0.086554  -0.181055   0.104140  -0.054318   0.266605
    7  C  1  X   -0.031533   0.051152   0.312685   0.292997   0.241291
    8  C  1  Y    0.028842   0.005207   0.478961  -0.227176  -0.246132
    9  C  1  Z    0.020799  -0.042557   0.202297  -0.133889   0.602914
   10  C  1 XX    0.011120  -0.015421   0.009049   0.008120  -0.009646
   11  C  1 YY   -0.019807  -0.000213  -0.023348  -0.001538  -0.008432
   12  C  1 ZZ    0.008687   0.015634   0.014299  -0.006582   0.018078
   13  C  1 XY    0.006804  -0.007537  -0.038459   0.004985   0.005617
   14  C  1 XZ   -0.004115   0.003175   0.000418  -0.006841  -0.020929
   15  C  1 YZ    0.009350   0.012034  -0.009392   0.000997   0.012274
   16  C  2  S   -0.015174   0.012361  -0.025408  -0.071464  -0.000272
   17  C  2  S    0.042944  -0.037479   0.083736   0.118681  -0.015941
   18  C  2  S    0.053540  -0.058088   0.103345   1.121283   0.166921
   19  C  2  X    0.194086  -0.162668  -0.081547  -0.125891   0.111492
   20  C  2  Y    0.069650   0.007503   0.211092  -0.140850   0.008300
   21  C  2  Z    0.069664   0.181286  -0.059408   0.060908   0.275580
   22  C  2  X    0.056459  -0.054784  -0.196194  -0.280251   0.309375
   23  C  2  Y    0.021893   0.020916   0.316319  -0.258145   0.172398
   24  C  2  Z   -0.029603   0.051433  -0.140804   0.139529   0.621375
   25  C  2 XX    0.007798  -0.013833   0.017427   0.006793   0.007657
   26  C  2 YY   -0.016757  -0.002413  -0.022792   0.001373   0.012969
   27  C  2 ZZ    0.008959   0.016246   0.005364  -0.008167  -0.020626
   28  C  2 XY   -0.008167   0.009173   0.037419  -0.006157   0.000355
   29  C  2 XZ   -0.006222   0.001848   0.005843  -0.005469   0.021484
   30  C  2 YZ   -0.005900  -0.011869   0.006993  -0.002152   0.007776
   31  F  3  S   -0.000364   0.002762   0.043402  -0.006299  -0.012625
   32  F  3  S    0.005163  -0.006847  -0.085860   0.017791   0.029459
   33  F  3  S   -0.017556  -0.011998  -0.316635   0.019792   0.073546
   34  F  3  X   -0.279342   0.174746  -0.096984   0.036186   0.014814
   35  F  3  Y   -0.093074  -0.003246   0.191334   0.041597  -0.071906
   36  F  3  Z   -0.128875  -0.325016  -0.029769  -0.039696  -0.029342
   37  F  3  X   -0.206711   0.128079  -0.090272   0.052337   0.002259
   38  F  3  Y   -0.066403  -0.002350   0.183236   0.062003  -0.073021
   39  F  3  Z   -0.083885  -0.226698  -0.032630  -0.043574  -0.058822
   40  F  3 XX   -0.003520   0.001166   0.001030  -0.001180   0.001289
   41  F  3 YY    0.002776  -0.000074   0.000572   0.003288  -0.002632
   42  F  3 ZZ    0.000744  -0.001092  -0.001603  -0.002109   0.001342
   43  F  3 XY    0.001861  -0.001787  -0.000238   0.000935   0.001430
   44  F  3 XZ   -0.001991  -0.001039   0.000383  -0.000542   0.004648
   45  F  3 YZ    0.000920   0.004442  -0.000152  -0.002352  -0.003039
   46  H  4  S   -0.195236  -0.023793   0.119620  -0.042595   0.086088
   47  H  4  S   -0.116528   0.002664   0.166913  -0.861263   0.981716
   48  H  4  X   -0.000392  -0.004872  -0.014508   0.003744  -0.005130
   49  H  4  Y   -0.002765  -0.000626   0.006999   0.008716  -0.012313
   50  H  4  Z   -0.002548   0.004609  -0.004167   0.012565  -0.004161
   51  H  5  S    0.089002   0.207853  -0.025101  -0.046526  -0.093777
   52  H  5  S    0.064030   0.123462   0.042444  -0.657645  -1.163375
   53  H  5  X    0.004980  -0.002840  -0.001041  -0.005585   0.007353
   54  H  5  Y    0.002613  -0.000750   0.010454  -0.000692   0.002958
   55  H  5  Z   -0.000747  -0.004042   0.002114  -0.012407  -0.014953
   56  F  6  S    0.000190   0.002303   0.062663  -0.001038   0.004109
   57  F  6  S    0.003820  -0.006029  -0.121424   0.006778  -0.012343
   58  F  6  S   -0.018381  -0.008413  -0.443639  -0.014481  -0.008231
   59  F  6  X    0.376386  -0.203301   0.173919  -0.018293   0.004813
   60  F  6  Y   -0.191655   0.031363   0.313776   0.066818   0.036792
   61  F  6  Z    0.211888   0.383718   0.057903   0.044230  -0.028338
   62  F  6  X    0.269632  -0.145720   0.165731  -0.031688  -0.006377
   63  F  6  Y   -0.131533   0.022067   0.300780   0.082928   0.032948
   64  F  6  Z    0.142815   0.265167   0.056127   0.045139  -0.054225
   65  F  6 XX   -0.005040   0.002043  -0.000051  -0.001393  -0.001054
   66  F  6 YY    0.004843  -0.000894   0.001774   0.003574   0.001864
   67  F  6 ZZ    0.000197  -0.001149  -0.001723  -0.002182  -0.000810
   68  F  6 XY   -0.002878   0.001904   0.001979   0.000179   0.001495
   69  F  6 XZ   -0.002883  -0.001879   0.000547   0.000049  -0.004176
   70  F  6 YZ   -0.001888  -0.004983   0.000578   0.002428  -0.002309
   71  H  7  S   -0.216641  -0.023402   0.057885  -0.055842  -0.104527
   72  H  7  S   -0.126775  -0.000268  -0.001098  -0.864865  -0.988741
   73  H  7  X    0.000815   0.004980   0.016004  -0.002148  -0.006038
   74  H  7  Y   -0.002260  -0.001162   0.012410   0.010248   0.011600
   75  H  7  Z    0.002896  -0.004589   0.007270  -0.011819  -0.005128
   76  H  8  S    0.100480   0.206865  -0.016710  -0.046758   0.099932
   77  H  8  S    0.063826   0.122814   0.032986  -0.683194   1.166414
   78  H  8  X   -0.005480   0.002592   0.005981   0.006817   0.006280
   79  H  8  Y    0.002997  -0.001170   0.016591   0.001014  -0.006735
   80  H  8  Z    0.000783   0.003761  -0.003319   0.012689  -0.014495

                     21         22         23         24         25
                    0.0651     0.0946     0.1022     0.1740     0.3437
                     A          A          A          A          A   
    1  C  1  S    0.089506   0.030532   0.002128   0.074635  -0.005020
    2  C  1  S   -0.155466  -0.108661  -0.004449  -0.088010  -0.026187
    3  C  1  S   -1.394415   0.233214  -0.153750  -1.875154  -0.562855
    4  C  1  X   -0.046365  -0.146543   0.103796   0.316933   0.434163
    5  C  1  Y    0.112290  -0.321836  -0.062588  -0.124192   0.200799
    6  C  1  Z    0.022355   0.050809   0.262918  -0.170461  -0.115514
    7  C  1  X   -0.029416  -0.265670   0.330514   1.919712  -0.811475
    8  C  1  Y    0.347585  -0.718038  -0.084262  -0.656884  -0.163711
    9  C  1  Z    0.072812   0.282478   0.958835  -0.650707   0.433639
   10  C  1 XX    0.003712  -0.002734   0.000689   0.040164  -0.048909
   11  C  1 YY   -0.003626   0.017658  -0.013999  -0.011729   0.008835
   12  C  1 ZZ   -0.000085  -0.014923   0.013310  -0.028435   0.040074
   13  C  1 XY   -0.005859  -0.006336   0.012673  -0.005040  -0.011184
   14  C  1 XZ   -0.000726   0.016356   0.003180  -0.019653   0.037734
   15  C  1 YZ   -0.004354   0.012395  -0.000865   0.015972  -0.014691
   16  C  2  S   -0.098972  -0.051155   0.018391  -0.077871  -0.003492
   17  C  2  S    0.181652   0.155777  -0.058335   0.100495  -0.062945
   18  C  2  S    1.486756   0.026453  -0.097278   1.918235  -0.408339
   19  C  2  X   -0.075597  -0.170834  -0.046287   0.342828  -0.421413
   20  C  2  Y   -0.068242   0.362200  -0.186687   0.097660   0.179768
   21  C  2  Z    0.007040  -0.072488  -0.263074  -0.167589   0.121523
   22  C  2  X   -0.135194  -0.486581  -0.151294   1.946482   0.926489
   23  C  2  Y   -0.255164   0.902964  -0.383642   0.512721   0.020943
   24  C  2  Z    0.016786  -0.215773  -0.991467  -0.681032  -0.543801
   25  C  2 XX   -0.000517   0.009732  -0.004843  -0.039166  -0.045882
   26  C  2 YY   -0.001967  -0.033065  -0.001340   0.010197  -0.000863
   27  C  2 ZZ    0.002484   0.023334   0.006183   0.028969   0.046745
   28  C  2 XY    0.001319   0.004245  -0.013239   0.002793   0.019442
   29  C  2 XZ    0.001011  -0.011682   0.009959   0.021211   0.035623
   30  C  2 YZ   -0.001912   0.020102  -0.005427   0.014997   0.017302
   31  F  3  S    0.010737   0.069090  -0.011518   0.011806   0.001563
   32  F  3  S   -0.019817  -0.124825   0.027086  -0.004271  -0.020154
   33  F  3  S   -0.087662  -0.614453   0.070549  -0.199286   0.090935
   34  F  3  X   -0.057068  -0.042034   0.039615  -0.124693  -0.105648
   35  F  3  Y    0.091710   0.270268  -0.048364   0.023976   0.065175
   36  F  3  Z    0.004745  -0.085531   0.072816   0.004985   0.031401
   37  F  3  X   -0.055907  -0.063054   0.044262  -0.210121  -0.148116
   38  F  3  Y    0.115093   0.306255  -0.023829   0.057555  -0.032193
   39  F  3  Z   -0.006367  -0.089874   0.113019   0.028602   0.083312
   40  F  3 XX   -0.001778  -0.004501  -0.002426  -0.000970  -0.011003
   41  F  3 YY    0.003309   0.004223   0.001176  -0.000299   0.012463
   42  F  3 ZZ   -0.001532   0.000278   0.001250   0.001269  -0.001460
   43  F  3 XY   -0.000676  -0.002432   0.002036  -0.008973  -0.007997
   44  F  3 XZ   -0.000978   0.001251  -0.003459   0.007046   0.005855
   45  F  3 YZ   -0.001721  -0.002478   0.005900   0.005644  -0.004171
   46  H  4  S   -0.056878  -0.055891  -0.009940   0.103470   0.209280
   47  H  4  S   -1.121323   0.007452  -1.313669   0.588464  -0.063425
   48  H  4  X    0.008925  -0.008194   0.011053   0.013031   0.009373
   49  H  4  Y    0.011143   0.017588   0.010383  -0.004668   0.003715
   50  H  4  Z    0.005028  -0.013670   0.000786  -0.020682  -0.023134
   51  H  5  S   -0.052661   0.067493   0.044102   0.101702   0.279994
   52  H  5  S   -0.844433   0.115798   1.488389   0.527320   0.123369
   53  H  5  X    0.003092  -0.012029   0.002325   0.015777   0.020006
   54  H  5  Y    0.000074   0.022670  -0.005926   0.008092   0.013102
   55  H  5  Z   -0.010376   0.003710   0.015566   0.011388   0.000107
   56  F  6  S    0.000928  -0.039873   0.009770  -0.006114  -0.004037
   57  F  6  S   -0.001078   0.073603  -0.013261  -0.002918  -0.018539
   58  F  6  S   -0.015691   0.331665  -0.107692   0.123425   0.198139
   59  F  6  X   -0.043344  -0.036774  -0.020809  -0.113147   0.124306
   60  F  6  Y   -0.040350  -0.182819   0.039237  -0.001669   0.055630
   61  F  6  Z    0.013878  -0.077209  -0.035518   0.004742  -0.035113
   62  F  6  X   -0.040078  -0.054823  -0.015475  -0.179281   0.098638
   63  F  6  Y   -0.050065  -0.179228   0.068246  -0.018400  -0.081848
   64  F  6  Z    0.005106  -0.087193  -0.063241   0.027879  -0.079515
   65  F  6 XX    0.001373   0.003583  -0.003714  -0.000797  -0.004762
   66  F  6 YY   -0.002758  -0.003519   0.002338   0.001800   0.010198
   67  F  6 ZZ    0.001385  -0.000064   0.001377  -0.001003  -0.005436
   68  F  6 XY   -0.001519  -0.003655  -0.000521  -0.008383   0.014335
   69  F  6 XZ    0.000754  -0.002306  -0.003093  -0.005387   0.005103
   70  F  6 YZ   -0.001420  -0.003681  -0.003451   0.005152   0.002970
   71  H  7  S    0.077467   0.097999  -0.047886  -0.100007   0.196052
   72  H  7  S    1.072408  -0.564388  -1.241336  -0.538619  -0.124136
   73  H  7  X    0.010788  -0.004295  -0.006904   0.015685  -0.005032
   74  H  7  Y   -0.009525  -0.006633   0.016969   0.003471   0.001532
   75  H  7  Z    0.006215  -0.011507   0.003366  -0.020025   0.019074
   76  H  8  S    0.051966  -0.043523   0.069353  -0.099141   0.216897
   77  H  8  S    0.871202   0.366537   1.388747  -0.565688   0.067925
   78  H  8  X    0.003712  -0.013098   0.002326   0.014881  -0.021775
   79  H  8  Y    0.002196  -0.015006   0.000223  -0.007352   0.012313
   80  H  8  Z   -0.011093  -0.000961  -0.015445   0.011975   0.001120

                     26         27         28         29         30
                    0.3749     0.3865     0.4125     0.4773     0.5005
                     A          A          A          A          A   
    1  C  1  S    0.037040  -0.002925  -0.016189  -0.070692   0.044411
    2  C  1  S   -0.297613   0.071397   0.140575   0.480695  -0.279515
    3  C  1  S   -0.033607  -0.042217  -0.110060  -1.518449   0.292230
    4  C  1  X   -0.209294  -0.042918   0.051308  -0.660245  -0.330479
    5  C  1  Y   -0.553517   0.116526   0.381366   0.014390   0.243128
    6  C  1  Z   -0.244215   0.181710   0.048989   0.065919   0.029442
    7  C  1  X    0.288958   0.129507   0.020282   1.733938   0.192011
    8  C  1  Y    0.839218  -0.412463  -1.447245  -0.441846  -0.223570
    9  C  1  Z    0.882913  -0.165512   0.149564  -0.406949  -0.687846
   10  C  1 XX   -0.043213  -0.021366  -0.016667  -0.047393  -0.038133
   11  C  1 YY   -0.008287  -0.022843  -0.018756   0.055660   0.042222
   12  C  1 ZZ    0.051501   0.044209   0.035423  -0.008267  -0.004089
   13  C  1 XY    0.036470  -0.008418   0.013663   0.014830  -0.085610
   14  C  1 XZ   -0.006872  -0.040913  -0.032313   0.041092   0.012910
   15  C  1 YZ    0.015679   0.054249   0.036297   0.010117  -0.045119
   16  C  2  S    0.007326  -0.040430   0.024330   0.061625   0.059750
   17  C  2  S   -0.088909   0.297126  -0.210190  -0.419084  -0.384622
   18  C  2  S    0.036482  -0.011924   0.200063   1.435775   0.534194
   19  C  2  X   -0.055822  -0.182780   0.052441  -0.700024   0.235547
   20  C  2  Y   -0.069074   0.531754  -0.544384  -0.013832   0.130439
   21  C  2  Z    0.208568  -0.242164   0.121341   0.066620  -0.021255
   22  C  2  X    0.190714   0.261021   0.075170   1.786158   0.153598
   23  C  2  Y    0.118558  -0.458239   1.598379   0.310941   0.027806
   24  C  2  Z   -0.330589   0.868778  -0.027815  -0.434746   0.647831
   25  C  2 XX    0.011336   0.054513   0.011019   0.054522  -0.010021
   26  C  2 YY    0.024606  -0.010302   0.035562  -0.057374   0.018966
   27  C  2 ZZ   -0.035942  -0.044211  -0.046581   0.002852  -0.008945
   28  C  2 XY   -0.006391   0.047289  -0.014569  -0.020435   0.088216
   29  C  2 XZ    0.045016   0.018159   0.037387  -0.044843   0.013151
   30  C  2 YZ    0.034565   0.029245   0.019691   0.009629   0.041860
   31  F  3  S    0.007732  -0.001950   0.009340  -0.013678  -0.021807
   32  F  3  S   -0.004879  -0.048225   0.067133   0.059578   0.069069
   33  F  3  S   -0.112196   0.324069  -0.586425  -0.020641   0.085842
   34  F  3  X   -0.015439  -0.060903   0.156652   0.008305  -0.095448
   35  F  3  Y   -0.077006   0.202120  -0.202017  -0.008245  -0.101303
   36  F  3  Z   -0.038969  -0.182429  -0.071076  -0.003342  -0.086700
   37  F  3  X   -0.093321   0.031092  -0.058833  -0.085787   0.069494
   38  F  3  Y    0.024367  -0.028457   0.058904  -0.030770  -0.076078
   39  F  3  Z    0.023402  -0.084556  -0.061796   0.027593  -0.036389
   40  F  3 XX    0.005395  -0.012205   0.002859  -0.019261   0.012047
   41  F  3 YY   -0.009922   0.032530  -0.025300   0.015257  -0.014716
   42  F  3 ZZ    0.004527  -0.020325   0.022440   0.004003   0.002669
   43  F  3 XY    0.011099  -0.023300   0.028151   0.014108  -0.009329
   44  F  3 XZ    0.007988   0.010719   0.001894   0.002113   0.003881
   45  F  3 YZ   -0.002283  -0.019356   0.011714  -0.005509  -0.003525
   46  H  4  S    0.334075   0.210115   0.328440   0.069136   0.821774
   47  H  4  S   -0.078809  -0.048698   0.159111   0.618554  -0.445294
   48  H  4  X   -0.026699  -0.018322   0.018019  -0.013347  -0.027676
   49  H  4  Y   -0.005964  -0.004665   0.001778   0.016592  -0.057256
   50  H  4  Z    0.006264   0.011770   0.003666  -0.000339  -0.019858
   51  H  5  S   -0.244844  -0.525726  -0.191471   0.273390   0.048692
   52  H  5  S    0.217324  -0.011393   0.217225   0.140887  -0.212351
   53  H  5  X    0.035155  -0.004435   0.016259  -0.028254  -0.004442
   54  H  5  Y    0.019881   0.014780   0.013952   0.008379   0.022812
   55  H  5  Z   -0.022483   0.003251  -0.012788   0.023833   0.033986
   56  F  6  S    0.013921  -0.012406  -0.009940   0.017022  -0.017102
   57  F  6  S    0.028573   0.012220  -0.046520  -0.072920   0.048612
   58  F  6  S   -0.454788   0.179282   0.465427  -0.000270   0.106939
   59  F  6  X   -0.075184   0.005765   0.127079  -0.009508   0.091622
   60  F  6  Y   -0.179587   0.071960   0.112004   0.020906  -0.082970
   61  F  6  Z   -0.145187  -0.078254  -0.098796  -0.007197   0.082199
   62  F  6  X    0.089609  -0.091750  -0.075205  -0.073637  -0.092239
   63  F  6  Y    0.094525  -0.043475  -0.078695   0.045196  -0.041403
   64  F  6  Z   -0.052659  -0.002101  -0.066571   0.027616   0.029435
   65  F  6 XX    0.006397  -0.002601   0.004465   0.015381   0.015844
   66  F  6 YY   -0.026267   0.008125   0.012545  -0.011306  -0.017151
   67  F  6 ZZ    0.019869  -0.005524  -0.017010  -0.004075   0.001307
   68  F  6 XY   -0.026915   0.011715   0.018849   0.006423   0.008426
   69  F  6 XZ   -0.009003  -0.008780  -0.003685  -0.004006   0.003221
   70  F  6 YZ   -0.016803  -0.003161   0.004165  -0.003376   0.005015
   71  H  7  S   -0.068569  -0.395733  -0.405400  -0.213138   0.775559
   72  H  7  S    0.084897   0.045300  -0.085545  -0.459366  -0.620478
   73  H  7  X   -0.015570  -0.022178   0.015242  -0.020262   0.021687
   74  H  7  Y    0.010979   0.007425  -0.000985  -0.004489  -0.062842
   75  H  7  Z    0.016137   0.008016  -0.001552  -0.007645   0.022286
   76  H  8  S    0.539475   0.354394   0.189257  -0.324761   0.007970
   77  H  8  S    0.019566  -0.248425  -0.218940  -0.120231  -0.241077
   78  H  8  X   -0.011252   0.032209   0.009469  -0.027524   0.005172
   79  H  8  Y   -0.002906  -0.030295  -0.020215  -0.008077   0.019872
   80  H  8  Z    0.004205  -0.023138  -0.006039   0.030929  -0.030108

                     31         32         33         34         35
                    0.5438     0.5475     0.5506     0.5801     0.7742
                     A          A          A          A          A   
    1  C  1  S    0.022909   0.020541  -0.023105   0.071476   0.023513
    2  C  1  S   -0.248153  -0.115255   0.148911  -0.539291  -1.259324
    3  C  1  S    0.486733   0.468465  -0.088673   0.135873   2.456782
    4  C  1  X    0.054888  -0.285954   0.034433  -0.236628   0.101323
    5  C  1  Y   -0.035424   0.393519   0.086685   0.302099   0.151846
    6  C  1  Z   -0.113273  -0.535046  -0.688366   0.261485  -0.037708
    7  C  1  X   -0.464756   0.616224  -0.156337   1.102819   0.396604
    8  C  1  Y    0.194735  -0.718145  -0.230298  -0.356703  -0.443078
    9  C  1  Z   -0.193819   2.190572   0.763870  -0.689260  -0.030383
   10  C  1 XX    0.002100   0.018567   0.032982  -0.039390  -0.056957
   11  C  1 YY    0.002989  -0.023707   0.070953  -0.012173   0.052207
   12  C  1 ZZ   -0.005089   0.005140  -0.103935   0.051563   0.004749
   13  C  1 XY   -0.002184  -0.020654  -0.017555  -0.027528   0.028592
   14  C  1 XZ    0.020975   0.033740  -0.010790   0.018067   0.022430
   15  C  1 YZ   -0.021875  -0.014120  -0.060247  -0.036731   0.010685
   16  C  2  S   -0.009667   0.007994  -0.043193  -0.074365   0.016957
   17  C  2  S    0.064211   0.046280   0.334947   0.575598  -1.251785
   18  C  2  S   -0.394590  -0.145319  -0.623703  -0.184441   2.748121
   19  C  2  X   -0.227221   0.179442  -0.104684  -0.262589  -0.111288
   20  C  2  Y   -0.367098   0.120516  -0.053725  -0.252845   0.214290
   21  C  2  Z   -0.829212  -0.121591   0.182803   0.272815   0.014842
   22  C  2  X    0.420356  -0.746143   0.046294   1.116894  -0.333889
   23  C  2  Y    0.700464  -0.313120   0.032620   0.203500  -0.445439
   24  C  2  Z    2.120599  -0.866057   0.291647  -0.750935   0.025690
   25  C  2 XX   -0.037072  -0.010251   0.018324   0.039087  -0.061106
   26  C  2 YY   -0.025165  -0.045232   0.053420   0.009592   0.061617
   27  C  2 ZZ    0.062237   0.055482  -0.071744  -0.048680  -0.000510
   28  C  2 XY   -0.028111   0.001029   0.008833  -0.030215  -0.020228
   29  C  2 XZ   -0.023520  -0.008462  -0.026031  -0.022790   0.019294
   30  C  2 YZ   -0.050581  -0.031261   0.023381  -0.035188  -0.019712
   31  F  3  S    0.003927  -0.018653   0.005674   0.004407   0.040768
   32  F  3  S   -0.024868   0.081714  -0.046218  -0.024995  -0.173435
   33  F  3  S    0.033746   0.016207   0.097225   0.034912  -0.199755
   34  F  3  X   -0.053645   0.159793  -0.060575  -0.001803  -0.019351
   35  F  3  Y   -0.033035   0.098468   0.001323   0.045076  -0.047758
   36  F  3  Z   -0.045389   0.064330  -0.129247   0.012320   0.031328
   37  F  3  X   -0.035914   0.069484   0.043522  -0.045821  -0.033759
   38  F  3  Y   -0.062884  -0.028033  -0.024733  -0.028510   0.294903
   39  F  3  Z   -0.154882   0.057932  -0.005371   0.050021  -0.080852
   40  F  3 XX    0.003399  -0.006905  -0.000242  -0.010661   0.017597
   41  F  3 YY    0.006996   0.017238  -0.001788   0.010204  -0.025434
   42  F  3 ZZ   -0.010395  -0.010332   0.002030   0.000457   0.007837
   43  F  3 XY    0.002791  -0.004956  -0.001227   0.002767   0.013677
   44  F  3 XZ   -0.007748   0.006341   0.006893   0.001259  -0.008549
   45  F  3 YZ    0.017228   0.005735  -0.016468  -0.004365   0.011211
   46  H  4  S   -0.243740  -0.208506  -0.004449  -0.530810  -0.394320
   47  H  4  S    1.699395  -0.374855   0.030142   0.888768  -0.824615
   48  H  4  X    0.050731  -0.020627   0.013319   0.030319   0.016748
   49  H  4  Y    0.058019   0.019080  -0.011474   0.032977  -0.044660
   50  H  4  Z    0.041567  -0.021672   0.041950   0.044587  -0.011788
   51  H  5  S    0.144059   0.456071  -0.709605  -0.401286  -0.336388
   52  H  5  S   -1.735107  -0.002339   0.475493   1.186466  -0.549227
   53  H  5  X   -0.003100   0.023673   0.005045  -0.015943   0.012114
   54  H  5  Y   -0.017671  -0.020504   0.016132  -0.012030  -0.027797
   55  H  5  Z    0.070244   0.021386  -0.053219  -0.073792   0.019279
   56  F  6  S    0.010910  -0.011844   0.007292  -0.004036   0.037429
   57  F  6  S   -0.035304   0.067675  -0.043413   0.024486  -0.166532
   58  F  6  S   -0.068625  -0.054401   0.040641  -0.028193  -0.139992
   59  F  6  X    0.078175  -0.133667   0.069848  -0.013247   0.022127
   60  F  6  Y   -0.075566   0.084395  -0.024492  -0.030497  -0.023525
   61  F  6  Z   -0.031251  -0.126930   0.066749   0.013958  -0.022696
   62  F  6  X    0.069645  -0.022996  -0.022561  -0.040665   0.036678
   63  F  6  Y    0.040191   0.045834   0.022284   0.037948   0.237101
   64  F  6  Z    0.018269  -0.129241  -0.074106   0.042970   0.061639
   65  F  6 XX    0.005565  -0.006703   0.000376   0.008361   0.013464
   66  F  6 YY   -0.012748   0.006746  -0.009910  -0.008682  -0.020403
   67  F  6 ZZ    0.007183  -0.000043   0.009534   0.000321   0.006939
   68  F  6 XY   -0.004943   0.002833  -0.000019  -0.001365  -0.016695
   69  F  6 XZ   -0.007489   0.003002   0.006802  -0.001592  -0.008789
   70  F  6 YZ   -0.001955  -0.001144   0.019475  -0.001812  -0.008504
   71  H  7  S    0.210335   0.081044   0.208606   0.521023  -0.347815
   72  H  7  S    0.033681  -1.491705  -0.824329  -0.900788  -0.836362
   73  H  7  X   -0.002175   0.053031   0.006987   0.028248  -0.021755
   74  H  7  Y   -0.014794  -0.033673  -0.051339  -0.032714  -0.041141
   75  H  7  Z    0.014444   0.059528  -0.011047   0.046202   0.016885
   76  H  8  S    0.064073   0.345413  -0.731091   0.408008  -0.299101
   77  H  8  S   -0.033747   1.186519   1.371774  -1.146658  -0.540921
   78  H  8  X    0.023085  -0.016165   0.010055  -0.014183  -0.015796
   79  H  8  Y    0.007396  -0.000593   0.028914   0.011889  -0.023823
   80  H  8  Z   -0.004999   0.027838   0.086183  -0.072982  -0.019166

                     36         37         38         39         40
                    0.9544     0.9707     1.0069     1.0278     1.1118
                     A          A          A          A          A   
    1  C  1  S    0.000935  -0.017985  -0.007543   0.025316   0.022814
    2  C  1  S    0.179546  -0.754921  -0.371780   0.046950   1.165869
    3  C  1  S   -1.004759   3.493936   1.555399  -1.784620  -4.688105
    4  C  1  X    0.038751   0.071248  -0.012439  -0.045357   0.156086
    5  C  1  Y    0.038432   0.080637   0.012422  -0.264307   0.119611
    6  C  1  Z    0.034271   0.082080  -0.019669  -0.054562   0.028419
    7  C  1  X    0.026206  -1.169342  -0.360632   0.426548   1.650717
    8  C  1  Y    0.195537   0.123413  -0.252730   0.111859   0.200989
    9  C  1  Z   -0.306984   0.064795   0.258688  -0.319781  -0.562853
   10  C  1 XX   -0.028556   0.050387  -0.098570   0.028845  -0.058412
   11  C  1 YY   -0.035603   0.015844   0.072600  -0.117852   0.067616
   12  C  1 ZZ    0.064159  -0.066232   0.025969   0.089008  -0.009203
   13  C  1 XY    0.157502   0.079478   0.002611  -0.074219   0.013932
   14  C  1 XZ   -0.012448   0.092790  -0.197393   0.036723  -0.005397
   15  C  1 YZ   -0.139719   0.038307  -0.029976  -0.088903   0.003357
   16  C  2  S   -0.007639   0.020673   0.012084  -0.004856  -0.031226
   17  C  2  S   -0.144377   0.458383   0.119062  -0.724709  -1.116055
   18  C  2  S    1.012281  -3.377475  -1.462461   1.904105   4.716850
   19  C  2  X   -0.075196   0.051075   0.007482   0.041545   0.123186
   20  C  2  Y    0.143105  -0.199667  -0.147064  -0.192578  -0.056083
   21  C  2  Z   -0.100566   0.072951   0.022076   0.028223   0.015061
   22  C  2  X    0.617184  -0.936651  -0.256491   0.663539   1.603110
   23  C  2  Y    0.179060   0.113707   0.305349  -0.110909  -0.416398
   24  C  2  Z    0.205447   0.277124   0.353442  -0.039321  -0.605431
   25  C  2 XX   -0.040942  -0.050531   0.114360   0.022431   0.058582
   26  C  2 YY    0.042015  -0.071847  -0.125915  -0.071122  -0.065810
   27  C  2 ZZ   -0.001073   0.122378   0.011555   0.048691   0.007228
   28  C  2 XY   -0.170141   0.013848   0.022565   0.045568  -0.007634
   29  C  2 XZ    0.053864  -0.067827   0.195899  -0.026838   0.000756
   30  C  2 YZ    0.067758   0.151421   0.004330   0.059638  -0.004690
   31  F  3  S    0.032773  -0.056698  -0.025719  -0.017834   0.004217
   32  F  3  S   -0.129788   0.270037   0.109523   0.093039  -0.004124
   33  F  3  S   -0.123372   0.171391   0.076270  -0.116946  -0.236190
   34  F  3  X    0.484667  -0.039991   0.105269  -0.042410   0.125154
   35  F  3  Y   -0.140367   0.312725   0.436812   0.351077   0.293166
   36  F  3  Z   -0.206403  -0.402356   0.329875  -0.183840  -0.201591
   37  F  3  X   -0.714746   0.187688  -0.032749   0.045262  -0.248717
   38  F  3  Y    0.344532  -0.702736  -0.710421  -0.537300  -0.286015
   39  F  3  Z    0.151449   0.536255  -0.385746   0.248687   0.298208
   40  F  3 XX   -0.023757   0.009611   0.007144   0.010775  -0.007851
   41  F  3 YY    0.010965  -0.017680  -0.001313  -0.041540  -0.027331
   42  F  3 ZZ    0.012793   0.008069  -0.005831   0.030765   0.035183
   43  F  3 XY   -0.005634  -0.003444   0.023906   0.029025   0.039069
   44  F  3 XZ    0.006141  -0.013616  -0.002072  -0.002271   0.009147
   45  F  3 YZ   -0.010565  -0.009681   0.012006   0.019119   0.038031
   46  H  4  S    0.035999   0.302240   0.191924  -0.245088  -0.493603
   47  H  4  S    0.191185   0.143831   0.226038  -0.010697  -0.246639
   48  H  4  X    0.041806   0.060793  -0.076098  -0.000946  -0.017419
   49  H  4  Y   -0.003887   0.010621   0.109863   0.005558   0.002627
   50  H  4  Z   -0.048452  -0.050315  -0.039388  -0.016613  -0.029610
   51  H  5  S   -0.119092   0.269370   0.058631  -0.249722  -0.404007
   52  H  5  S   -0.236417   0.124094   0.006573  -0.170617  -0.063897
   53  H  5  X    0.050117  -0.028399   0.115402  -0.011990  -0.005379
   54  H  5  Y    0.071554   0.115077   0.013829   0.039912  -0.022572
   55  H  5  Z    0.021862  -0.009829   0.011350   0.009909   0.012240
   56  F  6  S   -0.000558   0.051198   0.006737  -0.055755   0.001980
   57  F  6  S    0.017996  -0.255765  -0.019303   0.311139  -0.050117
   58  F  6  S    0.000578  -0.126691  -0.071397  -0.045092   0.251199
   59  F  6  X   -0.382503  -0.291731   0.088893   0.110555   0.060915
   60  F  6  Y    0.055183  -0.101468  -0.180105   0.576087  -0.435817
   61  F  6  Z    0.362964  -0.142623   0.409437   0.084374  -0.203597
   62  F  6  X    0.481497   0.525751  -0.042514  -0.264850  -0.184835
[...]
   27  C  2 ZZ   -0.001676  -0.009857   0.021896   0.028442  -0.046023
   28  C  2 XY    0.001984   0.013783  -0.001623   0.001432  -0.018361
   29  C  2 XZ    0.000469  -0.006933  -0.016289   0.019344  -0.037760
   30  C  2 YZ    0.005855   0.002127   0.017592   0.015335  -0.020157
   31  F  3  S    0.000036   0.000359   0.059318   0.011419  -0.001530
   32  F  3  S    0.000719  -0.005189  -0.106002  -0.004529   0.026471
   33  F  3  S   -0.007312   0.021103  -0.544446  -0.192087  -0.126982
   34  F  3  X    0.045260  -0.037067  -0.034113  -0.127437   0.116641
   35  F  3  Y   -0.050528   0.004102   0.231145   0.019181  -0.062468
   36  F  3  Z   -0.023123  -0.057441  -0.078097   0.004537  -0.032638
   37  F  3  X    0.039687  -0.040070  -0.060398  -0.213864   0.146578
   38  F  3  Y   -0.069662  -0.023566   0.262852   0.047318   0.042444
   39  F  3  Z   -0.017278  -0.095118  -0.092588   0.029145  -0.090011
   40  F  3 XX    0.001516   0.003313  -0.004913  -0.000590   0.010109
   41  F  3 YY   -0.003124  -0.001897   0.004106  -0.000866  -0.011886
   42  F  3 ZZ    0.001608  -0.001416   0.000807   0.001457   0.001778
   43  F  3 XY    0.000660  -0.001486  -0.002820  -0.009191   0.009012
   44  F  3 XZ    0.001698   0.003615   0.001262   0.006631  -0.006283
   45  F  3 YZ    0.000998  -0.005329  -0.003551   0.005938   0.004861
   46  H  4  S    0.071659   0.031383  -0.094110   0.087206  -0.217296
   47  H  4  S    1.225501   1.258253   0.153374   0.560186   0.078566
   48  H  4  X   -0.011462  -0.009514  -0.004251   0.014661  -0.008449
   49  H  4  Y   -0.009862  -0.013237   0.014177  -0.004514  -0.003110
   50  H  4  Z   -0.007244   0.001400  -0.013005  -0.020253   0.022171
   51  H  5  S    0.050153  -0.055176   0.089424   0.096701  -0.258801
   52  H  5  S    0.661490  -1.428332  -0.315575   0.514608  -0.148124
   53  H  5  X   -0.003724   0.000585  -0.012979   0.015118  -0.024975
   54  H  5  Y    0.004070   0.001759   0.018730   0.007948  -0.014855
   55  H  5  Z    0.008535  -0.015459  -0.001623   0.011119   0.004450
   56  F  6  S   -0.000092   0.000610  -0.059533  -0.011463  -0.001584
   57  F  6  S   -0.000612  -0.005675   0.106384   0.004573   0.026439
   58  F  6  S    0.007775   0.019021   0.546651   0.192722  -0.125652
   59  F  6  X    0.048499   0.037633  -0.050304  -0.128669  -0.120478
   60  F  6  Y    0.046330   0.003997  -0.230561  -0.010179  -0.053191
   61  F  6  Z   -0.024488   0.057891  -0.071818   0.005013   0.034413
   62  F  6  X    0.044283   0.038868  -0.078832  -0.216948  -0.143361
   63  F  6  Y    0.065983  -0.022760  -0.261110  -0.031634   0.054639
   64  F  6  Z   -0.019151   0.096364  -0.085461   0.030272   0.088607
   65  F  6 XX   -0.001417   0.003455   0.004534  -0.000527   0.008945
   66  F  6 YY    0.003066  -0.001806  -0.003877   0.002270  -0.010891
   67  F  6 ZZ   -0.001649  -0.001649  -0.000657  -0.001743   0.001947
   68  F  6 XY    0.000974   0.001185  -0.003546  -0.009248  -0.010826
   69  F  6 XZ   -0.001657   0.003958  -0.001401  -0.005959  -0.006312
   70  F  6 YZ    0.000966   0.005092  -0.003332   0.006291  -0.004007
   71  H  7  S   -0.071637   0.031018   0.094030  -0.087675  -0.217262
   72  H  7  S   -1.224968   1.258874  -0.147367  -0.557998   0.079020
   73  H  7  X   -0.010754   0.008565  -0.005241   0.014908   0.008173
   74  H  7  Y    0.010432  -0.013846  -0.014271   0.002899  -0.004311
   75  H  7  Z   -0.007530  -0.000951  -0.012635  -0.020350  -0.022092
   76  H  8  S   -0.050051  -0.054703  -0.089130  -0.096780  -0.259636
   77  H  8  S   -0.661384  -1.429266   0.308766  -0.515946  -0.147814
   78  H  8  X   -0.003992  -0.000384  -0.014273   0.014536   0.023818
   79  H  8  Y   -0.003577   0.002323  -0.017872  -0.008690  -0.016655
   80  H  8  Z    0.008641   0.015401  -0.001041   0.011366  -0.003976

                     26         27
                    0.3887     0.3915
                     A          A   
    1  C  1  S   -0.028297   0.032328
    2  C  1  S    0.171318  -0.274716
    3  C  1  S    0.023865   0.065038
    4  C  1  X    0.193769  -0.137520
    5  C  1  Y    0.317378  -0.478082
    6  C  1  Z    0.045527  -0.326006
    7  C  1  X   -0.270390   0.125807
    8  C  1  Y   -0.060500   0.623763
    9  C  1  Z   -0.445794   0.768623
   10  C  1 XX    0.043901  -0.019549
   11  C  1 YY    0.013172   0.025433
   12  C  1 ZZ   -0.057073  -0.005883
   13  C  1 XY   -0.028134   0.050193
   14  C  1 XZ    0.042608   0.019152
   15  C  1 YZ   -0.049856  -0.011358
   16  C  2  S    0.028521   0.032145
   17  C  2  S   -0.173711  -0.274109
   18  C  2  S   -0.023528   0.068277
   19  C  2  X    0.171354   0.101989
   20  C  2  Y   -0.332741  -0.476507
   21  C  2  Z    0.057497   0.338959
   22  C  2  X   -0.265232  -0.078124
   23  C  2  Y    0.072533   0.616363
   24  C  2  Z   -0.454234  -0.781656
   25  C  2 XX   -0.047525  -0.024786
   26  C  2 YY   -0.011807   0.031741
   27  C  2 ZZ    0.059333  -0.006955
   28  C  2 XY   -0.027033  -0.045266
   29  C  2 XZ   -0.044947   0.021601
   30  C  2 YZ   -0.044310   0.009393
   31  F  3  S   -0.009971   0.009317
   32  F  3  S    0.049455   0.032579
   33  F  3  S   -0.084761  -0.378784
   34  F  3  X    0.045964   0.057663
   35  F  3  Y   -0.098764  -0.216917
   36  F  3  Z    0.167935   0.073491
   37  F  3  X    0.044123  -0.085608
   38  F  3  Y   -0.021323   0.046993
   39  F  3  Z    0.065026   0.059592
   40  F  3 XX    0.004906   0.011712
   41  F  3 YY   -0.016273  -0.032077
   42  F  3 ZZ    0.011367   0.020365
   43  F  3 XY    0.009394   0.029172
   44  F  3 XZ   -0.013510  -0.001352
   45  F  3 YZ    0.014234   0.011969
   46  H  4  S   -0.377874   0.116915
   47  H  4  S    0.073144   0.002558
   48  H  4  X    0.029628  -0.003006
   49  H  4  Y    0.004408  -0.000650
   50  H  4  Z   -0.012238  -0.000824
   51  H  5  S    0.580289   0.097818
   52  H  5  S   -0.164665   0.197625
   53  H  5  X   -0.019221   0.030353
   54  H  5  Y   -0.026509   0.005911
   55  H  5  Z    0.013622  -0.021058
   56  F  6  S    0.010085   0.009146
   57  F  6  S   -0.049304   0.032899
   58  F  6  S    0.081551  -0.377083
   59  F  6  X    0.052412  -0.072696
   60  F  6  Y    0.098133  -0.214745
   61  F  6  Z    0.165008  -0.069683
   62  F  6  X    0.046733   0.087698
   63  F  6  Y    0.020372   0.038556
   64  F  6  Z    0.063918  -0.061537
   65  F  6 XX   -0.003606   0.008049
   66  F  6 YY    0.015407  -0.028978
   67  F  6 ZZ   -0.011801   0.020929
   68  F  6 XY    0.011140  -0.032490
   69  F  6 XZ    0.014173  -0.001438
   70  F  6 YZ    0.012349  -0.010390
   71  H  7  S    0.379324   0.112106
   72  H  7  S   -0.073077   0.002193
   73  H  7  X    0.029216   0.002760
   74  H  7  Y   -0.006824  -0.000836
   75  H  7  Z   -0.012038   0.000938
   76  H  8  S   -0.579626   0.103177
   77  H  8  S    0.166342   0.196027
   78  H  8  X   -0.017580  -0.029683
   79  H  8  Y    0.028287   0.008294
   80  H  8  Z    0.013028   0.020782

     ---------------------------------------------------------------------
     PROPERTIES FOR THE PBE      DFT FUNCTIONAL (RHF  TYPE) DENSITY MATRIX
     ---------------------------------------------------------------------

          -----------------
          ENERGY COMPONENTS
          -----------------

         WAVEFUNCTION NORMALIZATION =       1.0000000000

                ONE ELECTRON ENERGY =    -637.8116632575
                TWO ELECTRON ENERGY =     231.8839973716
           NUCLEAR REPULSION ENERGY =     127.9944469231
                                      ------------------
                       TOTAL ENERGY =    -277.9332189628

 ELECTRON-ELECTRON POTENTIAL ENERGY =     231.8839973716
  NUCLEUS-ELECTRON POTENTIAL ENERGY =    -914.8831087522
   NUCLEUS-NUCLEUS POTENTIAL ENERGY =     127.9944469231
                                      ------------------
             TOTAL POTENTIAL ENERGY =    -555.0046644575
               TOTAL KINETIC ENERGY =     277.0714454946
                 VIRIAL RATIO (V/T) =       2.0031102933

          ---------------------------------------
          MULLIKEN AND LOWDIN POPULATION ANALYSES
          ---------------------------------------

     ATOMIC MULLIKEN POPULATION IN EACH MOLECULAR ORBITAL

                      1          2          3          4          5

                  2.000000   2.000000   2.000000   2.000000   2.000000

    1             0.001255  -0.000083   1.430204   0.569613   0.120080
    2            -0.000079   0.001249   0.569227   1.430591   0.115871
    3             0.000728   1.998121  -0.000154  -0.000366   0.853953
    4             0.000001   0.000002   0.000203   0.000125   0.002601
    5            -0.000003  -0.000019   0.000218   0.000158   0.004062
    6             1.998116   0.000732  -0.000382  -0.000141   0.896529
    7             0.000001   0.000002   0.000325   0.000004   0.002705
    8            -0.000019  -0.000004   0.000359   0.000017   0.004199

                      6          7          8          9         10

                  2.000000   2.000000   2.000000   2.000000   2.000000

    1             0.082267   0.709495   0.467106   0.353208   0.508259
    2             0.086181   0.709648   0.467497   0.355157   0.502211
    3             0.932944   0.147455   0.284549   0.502412   0.267262
    4             0.002121   0.073040   0.120797   0.125411   0.064192
    5             0.002302   0.069722   0.127198   0.010389   0.166803
    6             0.890022   0.147730   0.285265   0.521602   0.254029
    7             0.002010   0.073108   0.120569   0.116873   0.074230
    8             0.002152   0.069803   0.127018   0.014947   0.163013

                     11         12         13         14         15

                  2.000000   2.000000   2.000000   2.000000   2.000000

    1             0.460775   0.286428   0.311953   0.051241   0.093177
    2             0.461319   0.288448   0.314011   0.051604   0.091738
    3             0.500520   0.538489   0.466964   0.922631   0.758782
    4             0.024154   0.163003   0.042888   0.002512   0.091107
    5             0.012870   0.014424   0.178017   0.022917   0.054132
    6             0.504269   0.532573   0.466838   0.923260   0.763205
    7             0.023366   0.161865   0.042773   0.002559   0.092341
    8             0.012726   0.014769   0.176557   0.023277   0.055518

                     16         17

                  2.000000   2.000000

    1             0.195249   0.235833
    2             0.195505   0.236342
    3             0.570749   0.573025
    4             0.191235   0.002449
    5             0.045392   0.191380
    6             0.566057   0.567834
    7             0.190776   0.002463
    8             0.045037   0.190674

               ----- POPULATIONS IN EACH AO -----
                             MULLIKEN      LOWDIN
              1  C  1  S      1.99337     1.97156
              2  C  1  S      0.75864     0.38480
              3  C  1  S      0.36717     0.28026
              4  C  1  X      0.71425     0.65437
              5  C  1  Y      0.59052     0.53773
              6  C  1  Z      0.76094     0.68342
              7  C  1  X      0.19833     0.29910
              8  C  1  Y      0.13834     0.25394
              9  C  1  Z      0.28981     0.38530
             10  C  1 XX      0.01290     0.16100
             11  C  1 YY      0.01716     0.16461
             12  C  1 ZZ      0.01608     0.15903
             13  C  1 XY      0.00663     0.03186
             14  C  1 XZ      0.01193     0.01245
             15  C  1 YZ      0.00000     0.02588
             16  C  2  S      1.99337     1.97157
             17  C  2  S      0.75871     0.38491
             18  C  2  S      0.36758     0.28034
             19  C  2  X      0.72635     0.66427
             20  C  2  Y      0.58097     0.52992
             21  C  2  Z      0.75807     0.68107
             22  C  2  X      0.20747     0.30773
             23  C  2  Y      0.13138     0.24766
             24  C  2  Z      0.28802     0.38304
             25  C  2 XX      0.01321     0.15985
             26  C  2 YY      0.01689     0.16519
             27  C  2 ZZ      0.01613     0.15961
             28  C  2 XY      0.00630     0.03271
             29  C  2 XZ      0.01207     0.01191
             30  C  2 YZ      0.00000     0.02551
             31  F  3  S      1.99544     1.97165
             32  F  3  S      0.95006     0.75221
             33  F  3  S      0.99741     0.52455
             34  F  3  X      1.18842     1.15611
             35  F  3  Y      0.99919     0.95103
             36  F  3  Z      1.22440     1.19478
             37  F  3  X      0.68100     0.70524
             38  F  3  Y      0.57042     0.61440
             39  F  3  Z      0.70107     0.72778
             40  F  3 XX      0.00146     0.18999
             41  F  3 YY      0.00310     0.19613
             42  F  3 ZZ      0.00321     0.18878
             43  F  3 XY      0.00049     0.00445
             44  F  3 XZ      0.00239     0.00072
             45  F  3 YZ      0.00000     0.00364
             46  H  4  S      0.77133     0.64810
             47  H  4  S      0.11772     0.21696
             48  H  4  X      0.00517     0.01174
             49  H  4  Y      0.00672     0.01472
             50  H  4  Z      0.00489     0.01080
             51  H  5  S      0.77197     0.65630
             52  H  5  S      0.11137     0.21686
             53  H  5  X      0.00297     0.00837
             54  H  5  Y      0.00226     0.00592
             55  H  5  Z      0.01139     0.02381
             56  F  6  S      1.99544     1.97165
             57  F  6  S      0.95008     0.75215
             58  F  6  S      0.99723     0.52437
             59  F  6  X      1.17353     1.14015
             60  F  6  Y      1.01150     0.96406
             61  F  6  Z      1.22718     1.19769
             62  F  6  X      0.67220     0.69770
             63  F  6  Y      0.57702     0.62036
             64  F  6  Z      0.70269     0.72902
             65  F  6 XX      0.00146     0.19043
             66  F  6 YY      0.00293     0.19555
             67  F  6 ZZ      0.00347     0.18863
             68  F  6 XY      0.00059     0.00462
             69  F  6 XZ      0.00222     0.00089
             70  F  6 YZ      0.00000     0.00342
             71  H  7  S      0.77136     0.64827
             72  H  7  S      0.11783     0.21700
             73  H  7  X      0.00465     0.01078
             74  H  7  Y      0.00707     0.01536
             75  H  7  Z      0.00507     0.01114
             76  H  8  S      0.77200     0.65622
             77  H  8  S      0.11142     0.21688
             78  H  8  X      0.00287     0.00819
             79  H  8  Y      0.00240     0.00622
             80  H  8  Z      0.01135     0.02368

          ----- MULLIKEN ATOMIC OVERLAP POPULATIONS -----
          (OFF-DIAGONAL ELEMENTS NEED TO BE MULTIPLIED BY 2)

             1           2           3           4           5

    1    4.6215973
    2    0.3675625   4.6226475
    3   -0.0440147   0.2540351   9.1628022
    4   -0.0370282   0.3691484  -0.0277909   0.6392623
    5   -0.0380507   0.3824323  -0.0328440  -0.0395314   0.6246038
    6    0.2543616  -0.0440519   0.0012185   0.0035110   0.0011496
    7    0.3692173  -0.0370873   0.0035120   0.0083053  -0.0100568
    8    0.3824148  -0.0381671   0.0011467  -0.0100351   0.0122585

             6           7           8

    6    9.1620036
    7   -0.0278239   0.6394855
    8   -0.0328286  -0.0395822   0.6248359

          TOTAL MULLIKEN AND LOWDIN ATOMIC POPULATIONS
       ATOM         MULL.POP.    CHARGE          LOW.POP.     CHARGE
    1 C             5.876060    0.123940         6.005312   -0.005312
    2 C             5.876520    0.123480         6.005284   -0.005284
    3 F             9.318065   -0.318065         9.181439   -0.181439
    4 H             0.905841    0.094159         0.902306    0.097694
    5 H             0.899961    0.100039         0.911255    0.088745
    6 F             9.317540   -0.317540         9.180679   -0.180679
    7 H             0.905970    0.094030         0.902543    0.097457
    8 H             0.900043    0.099957         0.911182    0.088818

          MULLIKEN SPHERICAL HARMONIC POPULATIONS
       ATOM           S       P       D      F      G      H      I    TOTAL
    1 C             3.12    2.69    0.06   0.00   0.00   0.00   0.00    5.88
    2 C             3.12    2.69    0.06   0.00   0.00   0.00   0.00    5.88
    3 F             3.94    5.36    0.01   0.00   0.00   0.00   0.00    9.32
    4 H             0.89    0.02    0.00   0.00   0.00   0.00   0.00    0.91
    5 H             0.88    0.02    0.00   0.00   0.00   0.00   0.00    0.90
    6 F             3.94    5.36    0.01   0.00   0.00   0.00   0.00    9.32
    7 H             0.89    0.02    0.00   0.00   0.00   0.00   0.00    0.91
    8 H             0.88    0.02    0.00   0.00   0.00   0.00   0.00    0.90

          -------------------------------
          BOND ORDER AND VALENCE ANALYSIS     BOND ORDER THRESHOLD=0.050
          -------------------------------

                   BOND                       BOND                       BOND
  ATOM PAIR DIST  ORDER      ATOM PAIR DIST  ORDER      ATOM PAIR DIST  ORDER
    1   2  1.521  1.034        1   6  1.393  0.936        1   7  1.108  0.937
    1   8  1.108  0.941        2   3  1.394  0.936        2   4  1.108  0.937
    2   5  1.108  0.941

                       TOTAL       BONDED        FREE
      ATOM            VALENCE     VALENCE     VALENCE
    1 C                 3.858       3.858      -0.000
    2 C                 3.858       3.858      -0.000
    3 F                 0.989       0.989      -0.000
    4 H                 0.950       0.950       0.000
    5 H                 0.954       0.954       0.000
    6 F                 0.990       0.990      -0.000
    7 H                 0.950       0.950       0.000
    8 H                 0.954       0.954       0.000

          ---------------------
          ELECTROSTATIC MOMENTS
          ---------------------

 POINT   1           X           Y           Z (BOHR)    CHARGE
                 0.000000    0.000000   -0.000000       -0.00 (A.U.)
         DX          DY          DZ         /D/  (DEBYE)
    -0.103365   -3.006088    0.040607    3.008138
 ...... END OF PROPERTY EVALUATION ......
 STEP CPU TIME =     0.02 TOTAL CPU TIME =         92.1 (      1.5 MIN)
 TOTAL WALL CLOCK TIME=         92.6 SECONDS, CPU UTILIZATION IS    99.51%
  $VIB   
          IVIB=   0 IATOM=   0 ICOORD=   0 E=     -277.9332189628
  3.312763843E-05 4.677386755E-05-3.046768994E-05-3.179371313E-06-4.866088250E-05
  2.121403691E-05-7.177695290E-06 2.137151142E-05-1.376142429E-06 1.551262177E-05
  1.715960612E-06-5.797847155E-06-3.813394529E-06 8.767490512E-06-4.851431893E-06
  5.882329441E-06 1.072523123E-05 1.291124106E-05-2.041325052E-05-1.811293005E-05
  7.879825846E-06-1.993887799E-05-2.258024878E-05 4.880075961E-07
 -1.033650192E-01-3.006087709E+00 4.060746683E-02
 ......END OF GEOMETRY SEARCH......
 STEP CPU TIME =     0.00 TOTAL CPU TIME =         92.1 (      1.5 MIN)
 TOTAL WALL CLOCK TIME=         92.6 SECONDS, CPU UTILIZATION IS    99.50%
                991181  WORDS OF DYNAMIC MEMORY USED
 EXECUTION OF GAMESS TERMINATED NORMALLY Sun Oct  6 23:27:00 2019
 DDI: 263640 bytes (0.3 MB / 0 MWords) used by master data server.

 ----------------------------------------
 CPU timing information for all processes
 ========================================
 0: 90.334 + 1.816 = 92.151
 ----------------------------------------
 ddikick.x: exited gracefully.
----- accounting info -----
Files used on the master node d12chas543.crc.nd.edu were:
-rw-r--r-- 1 wschnei1 campus 378327 Oct  6 23:27 /scratch365/wschnei1/40-PC1.F07
Sun Oct  6 23:27:03 EDT 2019
0.396u 0.334s 1:36.25 0.7%	0+0k 0+32io 0pf+0w
