----- GAMESS execution script 'rungms' -----
This job is running on host d12chas543.crc.nd.edu
under operating system Linux at Sun Oct 6 23:27:03 EDT 2019
SGE has assigned the following compute nodes to this run:
Available scratch disk space (Kbyte units) at beginning of the job is
Filesystem      1K-blocks     Used  Available Use% Mounted on
/dev/sda2      1949705068 64161036 1885544032   4% /
GAMESS temporary binary files will be written to /tmp/474112.1.debug
GAMESS supplementary output files will be written to /afs/crc.nd.edu/user/w/wschnei1/scr
Copying input file 50-PC1.inp to your run's scratch directory...
reading your own /afs/crc.nd.edu/user/w/wschnei1/.gmsrc

 Distributed Data Interface kickoff program.
 Initiating 1 compute processes on 1 nodes to run the following command:
 /afs/crc.nd.edu/x86_64_linux/g/gamess/nov-2017/gamess/gamess.00.x 50-PC1 

          ******************************************************
          *         GAMESS VERSION = 11 NOV 2017 (R3)         *
          *             FROM IOWA STATE UNIVERSITY             *
          * M.W.SCHMIDT, K.K.BALDRIDGE, J.A.BOATZ, S.T.ELBERT, *
          *   M.S.GORDON, J.H.JENSEN, S.KOSEKI, N.MATSUNAGA,   *
          *          K.A.NGUYEN, S.J.SU, T.L.WINDUS,           *
          *       TOGETHER WITH M.DUPUIS, J.A.MONTGOMERY       *
          *         J.COMPUT.CHEM.  14, 1347-1363(1993)        *
          **************** 64 BIT INTEL VERSION ****************

  SINCE 1993, STUDENTS AND POSTDOCS WORKING AT IOWA STATE UNIVERSITY
  AND ALSO IN THEIR VARIOUS JOBS AFTER LEAVING ISU HAVE MADE IMPORTANT
  CONTRIBUTIONS TO THE CODE:
     IVANA ADAMOVIC, CHRISTINE AIKENS, YURI ALEXEEV, POOJA ARORA,
     ANDREY ASADCHEV, ROB BELL, PRADIPTA BANDYOPADHYAY, JONATHAN BENTZ,
     BRETT BODE, KURT BRORSEN, CALEB CARLIN, GALINA CHABAN, WEI CHEN,
     CHEOL HO CHOI, PAUL DAY, ALBERT DEFUSCO, NUWAN DESILVA, TIM DUDLEY,
     DMITRI FEDOROV, ALEX FINDLATER, GRAHAM FLETCHER, MARK FREITAG,
     KURT GLAESEMANN, ANASTASIA GUININA,
     DAN KEMP, GRANT MERRILL, NORIYUKI MINEZAWA, JONATHAN MULLIN,
     TAKESHI NAGATA, SEAN NEDD, HEATHER NETZLOFF, BOSILJKA NJEGIC, RYAN OLSON,
     MIKE PAK, BUU PHAM,
     SPENCER PRUITT, LUKE ROSKOP, JIM SHOEMAKER, LYUDMILA SLIPCHENKO,
     TONY SMITH, SAROM SOK LEANG, JIE SONG, TETSUYA TAKETSUGU, SIMON WEBB,
     PENG XU, SOOHAENG YOO, FEDERICO ZAHARIEV

  ADDITIONAL CODE HAS BEEN PROVIDED BY COLLABORATORS IN OTHER GROUPS:
     IOWA STATE UNIVERSITY:
          JOE IVANIC, AARON WEST, LAIMUTIS BYTAUTAS, KLAUS RUEDENBERG
     UNIVERSITY OF TOKYO: KIMIHIKO HIRAO, TAKAHITO NAKAJIMA,
          TAKAO TSUNEDA, MUNEAKI KAMIYA, SUSUMU YANAGISAWA,
          KIYOSHI YAGI, MAHITO CHIBA, SEIKEN TOKURA, NAOAKI KAWAKAMI
     UNIVERSITY OF AARHUS: FRANK JENSEN
     UNIVERSITY OF IOWA: VISVALDAS KAIRYS, HUI LI
     NATIONAL INST. OF STANDARDS AND TECHNOLOGY: WALT STEVENS, DAVID GARMER
     UNIVERSITY OF PISA: BENEDETTA MENNUCCI, JACOPO TOMASI
     UNIVERSITY OF MEMPHIS: HENRY KURTZ, PRAKASHAN KORAMBATH
     UNIVERSITY OF ALBERTA: TOBY ZENG, MARIUSZ KLOBUKOWSKI
     UNIVERSITY OF NEW ENGLAND: MARK SPACKMAN
     MIE UNIVERSITY: HIROAKI UMEDA
     NAT. INST. OF ADVANCED INDUSTRIAL SCIENCE AND TECHNOLOGY: KAZUO KITAURA
     MICHIGAN STATE UNIVERSITY:
          KAROL KOWALSKI, MARTA WLOCH, JEFFREY GOUR, JESSE LUTZ,
          WEI LI, PIOTR PIECUCH
     UNIVERSITY OF SILESIA: MONIKA MUSIAL, STANISLAW KUCHARSKI
     FACULTES UNIVERSITAIRES NOTRE-DAME DE LA PAIX:
          OLIVIER QUINET, BENOIT CHAMPAGNE
     UNIVERSITY OF CALIFORNIA - SANTA BARBARA: BERNARD KIRTMAN
     INSTITUTE FOR MOLECULAR SCIENCE:
          KAZUYA ISHIMURA, MICHIO KATOUDA, AND SHIGERU NAGASE
     UNIVERSITY OF NOTRE DAME: ANNA POMOGAEVA, DAN CHIPMAN
     KYUSHU UNIVERSITY:
          HARUYUKI NAKANO,
          FENG LONG GU, JACEK KORCHOWIEC, MARCIN MAKOWSKI, AND YURIKO AOKI,
          HIROTOSHI MORI AND EISAKU MIYOSHI
     PENNSYLVANIA STATE UNIVERSITY:
          TZVETELIN IORDANOV, CHET SWALINA, JONATHAN SKONE,
          SHARON HAMMES-SCHIFFER
     WASEDA UNIVERSITY:
          MASATO KOBAYASHI, TOMOKO AKAMA, TSUGUKI TOUMA,
          TAKESHI YOSHIKAWA, YASUHIRO IKABATA, JUNJI SEINO,
          YUYA NAKAJIMA, HIROMI NAKAI
     NANJING UNIVERSITY: SHUHUA LI
     UNIVERSITY OF NEBRASKA:
          PEIFENG SU, DEJUN SI, NANDUN THELLAMUREGE, YALI WANG, HUI LI
     UNIVERSITY OF ZURICH: ROBERTO PEVERATI, KIM BALDRIDGE
     N. COPERNICUS UNIVERSITY AND JACKSON STATE UNIVERSITY:
          MARIA BARYSZ
     UNIVERSITY OF COPENHAGEN: Jimmy Kromann, CASPER STEINMANN
     TOKYO INSTITUTE OF TECHNOLOGY: HIROYA NAKATA
     NAGOYA UNIVERSITY: YOSHIO NISHIMOTO, STEPHAN IRLE
     MOSCOW STATE UNIVERSITY: VLADIMIR MIRONOV

 EXECUTION OF GAMESS BEGUN Sun Oct  6 23:27:04 2019

            ECHO OF THE FIRST FEW INPUT CARDS -
 INPUT CARD> $CONTRL SCFTYP=RHF DFTTYP=PBE RUNTYP=OPTIMIZE COORD=ZMT NZVAR=18 ISPHER=1 $END 
 INPUT CARD> $BASIS GBASIS=PCseg-1 $END                                                     
 INPUT CARD> $STATPT IFREEZ(1)=12 $END                                                      
 INPUT CARD> $DATA                                                                          
 INPUT CARD>FCH2CH2F eclipsed TS                                                            
 INPUT CARD>C1                                                                              
 INPUT CARD>C                                                                               
 INPUT CARD>C   1   r1                                                                      
 INPUT CARD>F   2   r2   1   A1                                                             
 INPUT CARD>H   2   r3   1   A2   3   D1                                                    
 INPUT CARD>H   2   r4   1   A3   3   D2                                                    
 INPUT CARD>F   1   r5   2   A4   3   D3                                                    
 INPUT CARD>H   1   r6   2   A5   6   D4                                                    
 INPUT CARD>H   1   r7   2   A6   6   D5                                                    
 INPUT CARD>                                                                                
 INPUT CARD>r1=1.5                                                                          
 INPUT CARD>r2=1.4                                                                          
 INPUT CARD>r3=1.1                                                                          
 INPUT CARD>r4=1.1                                                                          
 INPUT CARD>r5=1.5                                                                          
 INPUT CARD>r6=1.1                                                                          
 INPUT CARD>r7=1.1                                                                          
 INPUT CARD>A1=109.54214                                                                    
 INPUT CARD>A2=109.54214                                                                    
 INPUT CARD>A3=109.54214                                                                    
 INPUT CARD>A4=109.54214                                                                    
 INPUT CARD>A5=109.54214                                                                    
 INPUT CARD>A6=109.54214                                                                    
 INPUT CARD>D1=120.                                                                         
 INPUT CARD>D2=-120.                                                                        
 INPUT CARD>D3=50                                                                           
 INPUT CARD>D4=120.                                                                         
 INPUT CARD>D5=-120.                                                                        
 INPUT CARD> $END                                                                           
 INPUT CARD>                                                                                
    1000000 WORDS OF MEMORY AVAILABLE

     BASIS OPTIONS
     -------------
     GBASIS=PCSEG-1      IGAUSS=       0      POLAR=NONE    
     NDFUNC=       0     NFFUNC=       0     DIFFSP=       F
     NPFUNC=       0      DIFFS=       F     BASNAM=        


     RUN TITLE
     ---------
 FCH2CH2F eclipsed TS                                                            

 THE POINT GROUP OF THE MOLECULE IS C1      
 THE ORDER OF THE PRINCIPAL AXIS IS     0

 YOUR FULLY SUBSTITUTED Z-MATRIX IS
 C   
 C      1   1.5000000
 F      2   1.4000000  1  109.5421
 H      2   1.1000000  1  109.5421  3  120.0000  0
 H      2   1.1000000  1  109.5421  3 -120.0000  0
 F      1   1.5000000  2  109.5421  3   50.0000  0
 H      1   1.1000000  2  109.5421  6  120.0000  0
 H      1   1.1000000  2  109.5421  6 -120.0000  0

 THE MOMENTS OF INERTIA ARE (AMU-ANGSTROM**2)
 IXX=    34.680   IYY=    92.156   IZZ=   115.093

 ATOM      ATOMIC                      COORDINATES (BOHR)
           CHARGE         X                   Y                   Z
 C           6.0     1.2428188162       -1.3618374153       -0.4790769996
 C           6.0    -1.4126026969       -1.2182441444        0.5022548787
 F           9.0    -2.5015045217        1.0807778971       -0.2244338538
 H           1.0    -2.5285132245       -2.7883292455       -0.2791312505
 H           1.0    -1.3952515180       -1.3488631959        2.5767729946
 F           9.0     2.6355527092        1.0107422225        0.2036036430
 H           1.0     2.2088985042       -2.9969892604        0.3658823446
 H           1.0     1.2095260081       -1.5722476131       -2.5468310834

          INTERNUCLEAR DISTANCES (ANGS.)
          ------------------------------

                1 C          2 C          3 F          4 H          5 H     

   1 C       0.0000000    1.5000000 *  2.3695781 *  2.1363170 *  2.1363170 *
   2 C       1.5000000 *  0.0000000    1.4000000 *  1.1000000 *  1.1000000 *
   3 F       2.3695781 *  1.4000000 *  0.0000000    2.0476979 *  2.0476979 *
   4 H       2.1363170 *  1.1000000 *  2.0476979 *  0.0000000    1.7955050 *
   5 H       2.1363170 *  1.1000000 *  2.0476979 *  1.7955050 *  0.0000000  
   6 F       1.5000000 *  2.4505612 *  2.7280859 *  3.4021428    2.7723562 *
   7 H       1.1000000 *  2.1363170 *  3.3116754    2.5324685 *  2.4014536 *
   8 H       1.1000000 *  2.1363170 *  2.7088408 *  2.4014536 *  3.0438543  

                6 F          7 H          8 H     

   1 C       1.5000000 *  1.1000000 *  1.1000000 *
   2 C       2.4505612 *  2.1363170 *  2.1363170 *
   3 F       2.7280859 *  3.3116754    2.7088408 *
   4 H       3.4021428    2.5324685 *  2.4014536 *
   5 H       2.7723562 *  2.4014536 *  3.0438543  
   6 F       0.0000000    2.1345124 *  2.1345124 *
   7 H       2.1345124 *  0.0000000    1.7955050 *
   8 H       2.1345124 *  1.7955050 *  0.0000000  

  * ... LESS THAN  3.000


     ATOMIC BASIS SET
     ----------------
 THE CONTRACTED PRIMITIVE FUNCTIONS HAVE BEEN UNNORMALIZED
 THE CONTRACTED BASIS FUNCTIONS ARE NOW NORMALIZED TO UNITY

  SHELL TYPE  PRIMITIVE        EXPONENT          CONTRACTION COEFFICIENT(S)

 C         

      1   S       1          1243.2000000    0.005630097702
      1   S       2           187.1450000    0.041950603854
      1   S       3            42.5126000    0.184664360492
      1   S       4            11.7393000    0.466557421368
      1   S       5             3.5054800    0.448234778316

      2   S       6             5.3908900   -0.148114817444
      2   S       7             0.4933410    1.051981714281

      3   S       8             0.1497410    1.000000000000

      4   P       9             9.1805600    0.063992052045
      4   P      10             1.9365800    0.333521296407
      4   P      11             0.5262960    0.741161730513

      5   P      12             0.1363190    1.000000000000

      6   D      13             0.8000000    1.000000000000

 C         

      7   S      14          1243.2000000    0.005630097702
      7   S      15           187.1450000    0.041950603854
      7   S      16            42.5126000    0.184664360492
      7   S      17            11.7393000    0.466557421368
      7   S      18             3.5054800    0.448234778316

      8   S      19             5.3908900   -0.148114817444
      8   S      20             0.4933410    1.051981714281

      9   S      21             0.1497410    1.000000000000

     10   P      22             9.1805600    0.063992052045
     10   P      23             1.9365800    0.333521296407
     10   P      24             0.5262960    0.741161730513

     11   P      25             0.1363190    1.000000000000

     12   D      26             0.8000000    1.000000000000

 F         

     13   S      27          2931.5500000    0.005390132259
     13   S      28           441.1250000    0.040296704072
     13   S      29           100.2320000    0.180202178717
     13   S      30            27.8655000    0.465064284210
     13   S      31             8.4447000    0.452433138251

     14   S      32            13.6123000   -0.151660908297
     14   S      33             1.2612200    1.053515343452

     15   S      34             0.3708000    1.000000000000

     16   P      35            21.9305000    0.070356827475
     16   P      36             4.7855200    0.356742371235
     16   P      37             1.2837800    0.719732016372

     17   P      38             0.3115580    1.000000000000

     18   D      39             1.1000000    1.000000000000

 H         

     19   S      40            12.2518000    0.037217389296
     19   S      41             1.8687100    0.253808206955
     19   S      42             0.4182080    0.797386763917

     20   S      43             0.1061000    1.000000000000

     21   P      44             1.0000000    1.000000000000

 H         

     22   S      45            12.2518000    0.037217389296
     22   S      46             1.8687100    0.253808206955
     22   S      47             0.4182080    0.797386763917

     23   S      48             0.1061000    1.000000000000

     24   P      49             1.0000000    1.000000000000

 F         

     25   S      50          2931.5500000    0.005390132259
     25   S      51           441.1250000    0.040296704072
     25   S      52           100.2320000    0.180202178717
     25   S      53            27.8655000    0.465064284210
     25   S      54             8.4447000    0.452433138251

     26   S      55            13.6123000   -0.151660908297
     26   S      56             1.2612200    1.053515343452

     27   S      57             0.3708000    1.000000000000

     28   P      58            21.9305000    0.070356827475
     28   P      59             4.7855200    0.356742371235
     28   P      60             1.2837800    0.719732016372

     29   P      61             0.3115580    1.000000000000

     30   D      62             1.1000000    1.000000000000

 H         

     31   S      63            12.2518000    0.037217389296
     31   S      64             1.8687100    0.253808206955
     31   S      65             0.4182080    0.797386763917

     32   S      66             0.1061000    1.000000000000

     33   P      67             1.0000000    1.000000000000

 H         

     34   S      68            12.2518000    0.037217389296
     34   S      69             1.8687100    0.253808206955
     34   S      70             0.4182080    0.797386763917

     35   S      71             0.1061000    1.000000000000

     36   P      72             1.0000000    1.000000000000

 TOTAL NUMBER OF BASIS SET SHELLS             =   36
 NUMBER OF CARTESIAN GAUSSIAN BASIS FUNCTIONS =   80
 NOTE: THIS RUN WILL RESTRICT THE MO VARIATION SPACE TO SPHERICAL HARMONICS.
 THE NUMBER OF ORBITALS KEPT IN THE VARIATIONAL SPACE WILL BE PRINTED LATER.
 NUMBER OF ELECTRONS                          =   34
 CHARGE OF MOLECULE                           =    0
 SPIN MULTIPLICITY                            =    1
 NUMBER OF OCCUPIED ORBITALS (ALPHA)          =   17
 NUMBER OF OCCUPIED ORBITALS (BETA )          =   17
 TOTAL NUMBER OF ATOMS                        =    8
 THE NUCLEAR REPULSION ENERGY IS      125.9255810768

     LEBEDEV GRID-BASED DFT OPTIONS
     ------------------------------
     DFTTYP=PBE     
     NRAD  =      96     NLEB  =     302
     NRAD0 =      24     NLEB0 =     110
     SWOFF =    5.00E-03 (PURE SCF -> DFT)
     SWITCH=    3.00E-04 (COARSE -> TIGHT GRID)
     THRESH=    0.00E+00 GTHRE=    1.00E+00

 GRIMME'S EMPIRICAL DISPERSION CORRECTION= F

     $CONTRL OPTIONS
     ---------------
 SCFTYP=RHF          RUNTYP=OPTIMIZE     EXETYP=RUN     
 MPLEVL=       0     CITYP =NONE         CCTYP =NONE         VBTYP =NONE    
 DFTTYP=PBE          TDDFT =NONE    
 MULT  =       1     ICHARG=       0     NZVAR =      18     COORD =ZMT     
 PP    =NONE         RELWFN=NONE         LOCAL =NONE         NUMGRD=       F
 ISPHER=       1     NOSYM =       0     MAXIT =      30     UNITS =ANGS    
 PLTORB=       F     MOLPLT=       F     AIMPAC=       F     FRIEND=        
 NPRINT=       7     IREST =       0     GEOM  =INPUT   
 NORMF =       0     NORMP =       0     ITOL  =      20     ICUT  =       9
 INTTYP=BEST         GRDTYP=BEST         QMTTOL= 1.0E-06

     $SYSTEM OPTIONS
     ---------------
  REPLICATED MEMORY=     1000000 WORDS (ON EVERY NODE).
 DISTRIBUTED MEMDDI=           0 MILLION WORDS IN AGGREGATE,
 MEMDDI DISTRIBUTED OVER   1 PROCESSORS IS           0 WORDS/PROCESSOR.
 TOTAL MEMORY REQUESTED ON EACH PROCESSOR=     1000000 WORDS.
 TIMLIM=      525600.00 MINUTES, OR     365.0 DAYS.
 PARALL= F  BALTYP=  DLB     KDIAG=    0  COREFL= F
 MXSEQ2=     300 MXSEQ3=     150  mem10=         0

          ----------------
          PROPERTIES INPUT
          ----------------

     MOMENTS            FIELD           POTENTIAL          DENSITY
 IEMOM =       1   IEFLD =       0   IEPOT =       0   IEDEN =       0
 WHERE =COMASS     WHERE =NUCLEI     WHERE =NUCLEI     WHERE =NUCLEI  
 OUTPUT=BOTH       OUTPUT=BOTH       OUTPUT=BOTH       OUTPUT=BOTH    
 IEMINT=       0   IEFINT=       0                     IEDINT=       0
                                                       MORB  =       0
          EXTRAPOLATION IN EFFECT
          DIIS IN EFFECT
 ORBITAL PRINTING OPTION: NPREO=     1    80     2     1

     -------------------------------
     INTEGRAL TRANSFORMATION OPTIONS
     -------------------------------
     NWORD  =            0
     CUTOFF = 1.0E-09     MPTRAN =       0
     DIRTRF =       F     AOINTS =DUP     

          ----------------------
          INTEGRAL INPUT OPTIONS
          ----------------------
 NOPK  =       1 NORDER=       0 SCHWRZ=       T

   --- ENCODED Z MATRIX ---
 COORD  TYPE   I   J   K   L   M   N
    1      1    2   1
    2      1    3   2
    3      2    3   2   1
    4      1    4   2
    5      2    4   2   1
    6      3    4   2   1   3
    7      1    5   2
    8      2    5   2   1
    9      3    5   2   1   3
   10      1    6   1
   11      2    6   1   2
   12      3    6   1   2   3
   13      1    7   1
   14      2    7   1   2
   15      3    7   1   2   6
   16      1    8   1
   17      2    8   1   2
   18      3    8   1   2   6

 THE DETERMINANT OF THE G MATRIX IS 10**(   -12)


                     --------------------
                     INTERNAL COORDINATES
                     --------------------

                 - - ATOMS - -         COORDINATE      COORDINATE
 NO.   TYPE    I  J  K  L  M  N        (BOHR,RAD)       (ANG,DEG)
 ----------------------------------------------------------------
   1 STRETCH   2  1                     2.8345890       1.5000000
   2 STRETCH   3  2                     2.6456164       1.4000000
   3 BEND      3  2  1                  1.9118710     109.5421400
   4 STRETCH   4  2                     2.0786986       1.1000000
   5 BEND      4  2  1                  1.9118710     109.5421400
   6 TORSION   4  2  1  3               2.0943951     120.0000000
   7 STRETCH   5  2                     2.0786986       1.1000000
   8 BEND      5  2  1                  1.9118710     109.5421400
   9 TORSION   5  2  1  3              -2.0943951    -120.0000000
  10 STRETCH   6  1                     2.8345890       1.5000000
  11 BEND      6  1  2                  1.9118710     109.5421400
  12 TORSION   6  1  2  3               0.8726646      50.0000000
  13 STRETCH   7  1                     2.0786986       1.1000000
  14 BEND      7  1  2                  1.9118710     109.5421400
  15 TORSION   7  1  2  6               2.0943951     120.0000000
  16 STRETCH   8  1                     2.0786986       1.1000000
  17 BEND      8  1  2                  1.9118710     109.5421400
  18 TORSION   8  1  2  6              -2.0943951    -120.0000000

     ------------------------------------------
     THE POINT GROUP IS C1 , NAXIS= 0, ORDER= 1
     ------------------------------------------

 -- VARIATIONAL SPACE WILL BE RESTRICTED TO PURE SPHERICAL HARMONICS ONLY --
 AFTER EXCLUDING CONTAMINANT COMBINATIONS FROM THE CARTESIAN GAUSSIAN BASIS
 SET, THE NUMBER OF SPHERICAL HARMONICS KEPT IN THE VARIATION SPACE IS   76

     DIMENSIONS OF THE SYMMETRY SUBSPACES ARE
 A   =   76

 ..... DONE SETTING UP THE RUN .....
 STEP CPU TIME =     0.02 TOTAL CPU TIME =          0.0 (      0.0 MIN)
 TOTAL WALL CLOCK TIME=          0.0 SECONDS, CPU UTILIZATION IS    66.67%


          -----------------------------
          STATIONARY POINT LOCATION RUN
          -----------------------------

 OBTAINING INITIAL HESSIAN, HESS=GUESS   
 DIAGONAL GUESS HESSIAN IN INTERNAL COORDS IS
     1  0.3892     2  0.3267     3  0.2379     4  0.3397     5  0.2253
     6  0.2500     7  0.3397     8  0.2253     9  0.2500    10  0.2690
    11  0.2315    12  0.2500    13  0.3397    14  0.2253    15  0.2500
    16  0.3397    17  0.2253    18  0.2500

          PARAMETERS CONTROLLING GEOMETRY SEARCH ARE
          METHOD =QA                  UPHESS =BFGS    
          NNEG   =         0          NFRZ   =         1
          NSTEP  =        50          IFOLOW =         1
          HESS   =GUESS               RESTAR =         F
          IHREP  =         0          HSSEND =         F
          NPRT   =         0          NPUN   =         0
          OPTTOL = 1.000E-04          RMIN   = 1.500E-03
          RMAX   = 1.000E-01          RLIM   = 7.000E-02
          DXMAX  = 3.000E-01          PURIFY =         F
          MOVIE  =         F          TRUPD  =         T
          TRMAX  = 5.000E-01          TRMIN  = 5.000E-02
          ITBMAT =         5          STPT   =         F
          STSTEP = 1.000E-02          PROJCT=          T
          FROZEN COORD(S)=  12

 BEGINNING GEOMETRY SEARCH POINT NSERCH=   0 ...

 COORDINATES OF ALL ATOMS ARE (ANGS)
   ATOM   CHARGE       X              Y              Z
 ------------------------------------------------------------
 C           6.0   0.6576714424  -0.7206533774  -0.2535166488
 C           6.0  -0.7475172094  -0.6446670852   0.2657818551
 F           9.0  -1.3237392817   0.5719230746  -0.1187652894
 H           1.0  -1.3380316728  -1.4755204001  -0.1477099073
 H           1.0  -0.7383353603  -0.7137877156   1.3635696452
 F           9.0   1.3946745329   0.5348617890   0.1077424157
 H           1.0   1.1688988343  -1.5859385328   0.1936166127
 H           1.0   0.6400536459  -0.8319976670  -1.3477250670


                     --------------------
                     INTERNAL COORDINATES
                     --------------------

                 - - ATOMS - -         COORDINATE      COORDINATE
 NO.   TYPE    I  J  K  L  M  N        (BOHR,RAD)       (ANG,DEG)
 ----------------------------------------------------------------
   1 STRETCH   2  1                     2.8345890       1.5000000
   2 STRETCH   3  2                     2.6456164       1.4000000
   3 BEND      3  2  1                  1.9118710     109.5421400
   4 STRETCH   4  2                     2.0786986       1.1000000
   5 BEND      4  2  1                  1.9118710     109.5421400
   6 TORSION   4  2  1  3               2.0943951     120.0000000
   7 STRETCH   5  2                     2.0786986       1.1000000
   8 BEND      5  2  1                  1.9118710     109.5421400
   9 TORSION   5  2  1  3              -2.0943951    -120.0000000
  10 STRETCH   6  1                     2.8345890       1.5000000
  11 BEND      6  1  2                  1.9118710     109.5421400
  12 TORSION   6  1  2  3               0.8726646      50.0000000
  13 STRETCH   7  1                     2.0786986       1.1000000
  14 BEND      7  1  2                  1.9118710     109.5421400
  15 TORSION   7  1  2  6               2.0943951     120.0000000
  16 STRETCH   8  1                     2.0786986       1.1000000
  17 BEND      8  1  2                  1.9118710     109.5421400
  18 TORSION   8  1  2  6              -2.0943951    -120.0000000

 THE CURRENT FULLY SUBSTITUTED Z-MATRIX IS
 C   
 C      1   1.5000000
 F      2   1.4000000  1   109.5421400
 H      2   1.1000000  1   109.5421400  3   120.0000000  0
 H      2   1.1000000  1   109.5421400  3  -120.0000000  0
 F      1   1.5000000  2   109.5421400  3    50.0000000  0
 H      1   1.1000000  2   109.5421400  6   120.0000000  0
 H      1   1.1000000  2   109.5421400  6  -120.0000000  0

          ********************
          1 ELECTRON INTEGRALS
          ********************
 ...... END OF ONE-ELECTRON INTEGRALS ......
 STEP CPU TIME =     0.00 TOTAL CPU TIME =          0.0 (      0.0 MIN)
 TOTAL WALL CLOCK TIME=          0.0 SECONDS, CPU UTILIZATION IS    50.00%

          -------------
          GUESS OPTIONS
          -------------
          GUESS =HUCKEL            NORB  =       0          NORDER=       0
          MIX   =       F          PRTMO =       F          PUNMO =       F
          TOLZ  = 1.0E-08          TOLE  = 1.0E-05
          SYMDEN=       F          PURIFY=       F

 INITIAL GUESS ORBITALS GENERATED BY HUCKEL   ROUTINE.
 HUCKEL GUESS REQUIRES     54920 WORDS.

 STATISTICS FOR GENERATION OF SYMMETRY ORBITAL -Q- MATRIX
 NUMBER OF CARTESIAN ATOMIC ORBITALS=         80
 NUMBER OF SPHERICAL CONTAMINANTS DROPPED=     4
 NUMBER OF LINEARLY DEPENDENT MOS DROPPED=     0
 TOTAL NUMBER OF MOS IN VARIATION SPACE=      76

 SYMMETRIES FOR INITIAL GUESS ORBITALS FOLLOW.   BOTH SET(S).
    17 ORBITALS ARE OCCUPIED (    4 CORE ORBITALS).
     5=A        6=A        7=A        8=A        9=A       10=A       11=A   
    12=A       13=A       14=A       15=A       16=A       17=A       18=A   
    19=A       20=A       21=A       22=A       23=A       24=A       25=A   
    26=A       27=A   
 ...... END OF INITIAL ORBITAL SELECTION ......
 STEP CPU TIME =     0.02 TOTAL CPU TIME =          0.0 (      0.0 MIN)
 TOTAL WALL CLOCK TIME=          0.0 SECONDS, CPU UTILIZATION IS    80.00%

                    ----------------------
                    AO INTEGRAL TECHNOLOGY
                    ----------------------
     S,P,L SHELL ROTATED AXIS INTEGRALS, REPROGRAMMED BY
        KAZUYA ISHIMURA (IMS) AND JOSE SIERRA (SYNSTAR).
     S,P,D,L SHELL ROTATED AXIS INTEGRALS PROGRAMMED BY
        KAZUYA ISHIMURA (INSTITUTE FOR MOLECULAR SCIENCE).
     S,P,D,F,G SHELL TO TOTAL QUARTET ANGULAR MOMENTUM SUM 5,
        ERIC PROGRAM BY GRAHAM FLETCHER (ELORET AND NASA ADVANCED
        SUPERCOMPUTING DIVISION, AMES RESEARCH CENTER).
     S,P,D,F,G,L SHELL GENERAL RYS QUADRATURE PROGRAMMED BY
        MICHEL DUPUIS (PACIFIC NORTHWEST NATIONAL LABORATORY).

          --------------------
          2 ELECTRON INTEGRALS
          --------------------

 THE -PK- OPTION IS OFF, THE INTEGRALS ARE NOT IN SUPERMATRIX FORM.
 STORING   15000 INTEGRALS/RECORD ON DISK, USING 12 BYTES/INTEGRAL.
 TWO ELECTRON INTEGRAL EVALUATION REQUIRES   91062 WORDS OF MEMORY.
 SCHWARZ INEQUALITY OVERHEAD:      3237 INTEGRALS, T=        0.01
 II,JST,KST,LST =  1  1  1  1 NREC =         1 INTLOC =    1
 II,JST,KST,LST =  2  1  1  1 NREC =         1 INTLOC =    2
 II,JST,KST,LST =  3  1  1  1 NREC =         1 INTLOC =    7
 II,JST,KST,LST =  4  1  1  1 NREC =         1 INTLOC =   22
 II,JST,KST,LST =  5  1  1  1 NREC =         1 INTLOC =   67
 II,JST,KST,LST =  6  1  1  1 NREC =         1 INTLOC =  214
 II,JST,KST,LST =  7  1  1  1 NREC =         1 INTLOC = 1189
 II,JST,KST,LST =  8  1  1  1 NREC =         1 INTLOC = 3207
 II,JST,KST,LST =  9  1  1  1 NREC =         1 INTLOC = 5672
 II,JST,KST,LST = 10  1  1  1 NREC =         1 INTLOC = 8596
 II,JST,KST,LST = 11  1  1  1 NREC =         2 INTLOC = 5513
 II,JST,KST,LST = 12  1  1  1 NREC =         3 INTLOC = 8193
 II,JST,KST,LST = 13  1  1  1 NREC =         7 INTLOC = 6098
 II,JST,KST,LST = 14  1  1  1 NREC =         8 INTLOC = 4234
 II,JST,KST,LST = 15  1  1  1 NREC =         9 INTLOC = 5008
 II,JST,KST,LST = 16  1  1  1 NREC =        10 INTLOC = 7866
 II,JST,KST,LST = 17  1  1  1 NREC =        14 INTLOC = 9835
 II,JST,KST,LST = 18  1  1  1 NREC =        20 INTLOC =  855
 II,JST,KST,LST = 19  1  1  1 NREC =        34 INTLOC =12140
 II,JST,KST,LST = 20  1  1  1 NREC =        38 INTLOC =  279
 II,JST,KST,LST = 21  1  1  1 NREC =        41 INTLOC = 6787
 II,JST,KST,LST = 22  1  1  1 NREC =        52 INTLOC =13511
 II,JST,KST,LST = 23  1  1  1 NREC =        57 INTLOC = 4206
 II,JST,KST,LST = 24  1  1  1 NREC =        61 INTLOC =14070
 II,JST,KST,LST = 25  1  1  1 NREC =        77 INTLOC = 5740
 II,JST,KST,LST = 26  1  1  1 NREC =        80 INTLOC = 9773
 II,JST,KST,LST = 27  1  1  1 NREC =        85 INTLOC = 6816
 II,JST,KST,LST = 28  1  1  1 NREC =        91 INTLOC =10709
 II,JST,KST,LST = 29  1  1  1 NREC =       108 INTLOC = 2801
 II,JST,KST,LST = 30  1  1  1 NREC =       131 INTLOC =13744
 II,JST,KST,LST = 31  1  1  1 NREC =       182 INTLOC =  577
 II,JST,KST,LST = 32  1  1  1 NREC =       192 INTLOC =13370
 II,JST,KST,LST = 33  1  1  1 NREC =       204 INTLOC =11163
 II,JST,KST,LST = 34  1  1  1 NREC =       236 INTLOC = 9162
 II,JST,KST,LST = 35  1  1  1 NREC =       250 INTLOC = 3016
 II,JST,KST,LST = 36  1  1  1 NREC =       264 INTLOC =10759
 SCHWARZ INEQUALITY TEST SKIPPED       16536 INTEGRAL BLOCKS.
 TOTAL NUMBER OF NONZERO TWO-ELECTRON INTEGRALS =             4605600
        308 INTEGRAL RECORDS WERE STORED ON DISK FILE  8.
  ...... END OF TWO-ELECTRON INTEGRALS .....
 STEP CPU TIME =     0.48 TOTAL CPU TIME =          0.5 (      0.0 MIN)
 TOTAL WALL CLOCK TIME=          0.5 SECONDS, CPU UTILIZATION IS    96.30%

          --------------------------
               R-PBE SCF CALCULATION
          --------------------------

     NUCLEAR ENERGY =       125.9255810768
     MAXIT =   30     NPUNCH=    2
     EXTRAP=T  DAMP=F  SHIFT=F  RSTRCT=F  DIIS=T  DEM=F  SOSCF=F
         DENSITY MATRIX CONVERGENCE THRESHOLD=  1.00E-05
     COARSE -> FINE DFT GRID SWITCH THRESHOLD=  3.00E-04 (SWITCH IN $DFT)
                   HF -> DFT SWITCH THRESHOLD=  5.00E-03 (SWOFF IN $DFT)
     MEMORY REQUIRED FOR RHF ITERS=    365468 WORDS.

 DFT CODE IS SWITCHING FROM THE FINE GRID NRAD= 96,  NLEB=  302
                      TO THE COARSE GRID NRAD0= 24, NLEB0=  110

     EXCHANGE FUNCTIONAL   =PBE       
     CORRELATION FUNCTIONAL=PBE       
     DFT THRESHOLD         =.172E-07
     GRID CHANGE THRESHOLD =.300E-03
 FOR AN EULER-MACLAURIN QUADRATURE USING  96 RADIAL POINTS:
 SMALLEST GAUSSIAN PRIMITIVE EXPONENT=        0.1061000000 OF TYPE -S-
 ON ATOM NUMBER   4 HAS RADIAL NORMALIZATION=  1.000000
  LARGEST GAUSSIAN PRIMITIVE EXPONENT=     2931.5500000000 OF TYPE -S-
 ON ATOM NUMBER   3 HAS RADIAL NORMALIZATION=  1.000000
 DFT IS SWITCHED OFF, PERFORMING PURE SCF UNTIL SWOFF THRESHOLD IS REACHED.

 ITER EX DEM     TOTAL ENERGY        E CHANGE  DENSITY CHANGE    DIIS ERROR
   1  0  0     -276.1259985902  -276.1259985902   0.190746632   0.777431870
          * * *   INITIATING DIIS PROCEDURE   * * *
   2  1  0     -276.7733275776    -0.6473289874   0.089903430   0.078195125
   3  2  0     -276.8155520190    -0.0422244414   0.048855304   0.041867651
   4  3  0     -276.8314919387    -0.0159399197   0.008882787   0.009320871
   5  4  0     -276.8322290039    -0.0007370652   0.002212092   0.001745769
 CONVERGED TO SWOFF, SO DFT CALCULATION IS NOW SWITCHED ON.
          * * *   INITIATING DIIS PROCEDURE   * * *
   6  5  0     -277.8991942114    -1.0669652075   0.088969669   0.081315553
   7  6  0     -277.9139099072    -0.0147156957   0.082103889   0.042461202
   8  7  0     -277.9116177743     0.0022921328   0.051470024   0.041483044
   9  8  0     -277.9282455302    -0.0166277559   0.007042875   0.005516307
  10  9  0     -277.9285146798    -0.0002691496   0.001881510   0.001199636
  11 10  0     -277.9285270382    -0.0000123583   0.000624821   0.000464302
  12 11  0     -277.9285291314    -0.0000020932   0.000093343   0.000088796
 DFT CODE IS SWITCHING BACK TO THE FINE GRID
          * * *   INITIATING DIIS PROCEDURE   * * *
  13 12  0     -277.9290605181    -0.0005313867   0.004017219   0.003269431
  14 13  0     -277.9291028683    -0.0000423502   0.005249205   0.001701400
  15 14  0     -277.9290959524     0.0000069160   0.002869709   0.002161120
  16 15  0     -277.9291286073    -0.0000326549   0.000269493   0.000126868
  17 16  0     -277.9291287051    -0.0000000978   0.000131017   0.000101962
  18 17  0     -277.9291287633    -0.0000000582   0.000021649   0.000014841
  19 18  0     -277.9291287647    -0.0000000014   0.000006834   0.000005140
  20 19  0     -277.9291287649    -0.0000000002   0.000000574   0.000000322

          -----------------
          DENSITY CONVERGED
          -----------------
     TIME TO FORM FOCK OPERATORS=       9.6 SECONDS (       0.5 SEC/ITER)
     TIME TO SOLVE SCF EQUATIONS=       0.1 SECONDS (       0.0 SEC/ITER)

 FINAL R-PBE ENERGY IS     -277.9291287649 AFTER  20 ITERATIONS
 DFT EXCHANGE + CORRELATION ENERGY =       -32.8938908187
 TOTAL ELECTRON NUMBER             =        34.0000887623

          ------------
          EIGENVECTORS
          ------------

                      1          2          3          4          5
                  -24.2347   -24.2240    -9.9752    -9.9743    -1.0966
                     A          A          A          A          A   
    1  C  1  S    0.000034  -0.000175   0.991497  -0.060791  -0.017817
    2  C  1  S   -0.000008  -0.000907   0.036634  -0.003300   0.031652
    3  C  1  S   -0.002964   0.007830  -0.021839   0.007328   0.025452
    4  C  1  X    0.000395   0.000627   0.000497   0.000889  -0.011555
    5  C  1  Y   -0.000097   0.000740   0.000066  -0.000158   0.015396
    6  C  1  Z   -0.000080   0.000169  -0.000061  -0.000357   0.006333
    7  C  1  X    0.000806   0.000662   0.002785  -0.002878  -0.009199
    8  C  1  Y   -0.000606   0.003828   0.000703   0.000345   0.004240
    9  C  1  Z   -0.000437   0.001271  -0.000370   0.001182   0.004427
   10  C  1 XX   -0.000097  -0.000104  -0.000339  -0.000783   0.002903
   11  C  1 YY    0.000046   0.000369   0.000105   0.000470  -0.000087
   12  C  1 ZZ    0.000051  -0.000265   0.000234   0.000313  -0.002817
   13  C  1 XY    0.000139   0.000486  -0.000138   0.000098   0.000089
   14  C  1 XZ   -0.000016   0.000149   0.000220   0.000516  -0.001176
   15  C  1 YZ   -0.000032   0.000243  -0.000134  -0.000052   0.001191
   16  C  2  S   -0.000127   0.000032   0.060978   0.991442  -0.065589
   17  C  2  S   -0.000535   0.000042   0.001190   0.037062   0.124066
   18  C  2  S    0.008965  -0.002717   0.004958  -0.021876   0.015283
   19  C  2  X   -0.000667  -0.000334  -0.000969  -0.000568  -0.035259
   20  C  2  Y    0.000968  -0.000053  -0.000014   0.000554   0.088014
   21  C  2  Z   -0.000241   0.000065   0.000354  -0.000155  -0.030471
   22  C  2  X   -0.000252  -0.000716   0.002621  -0.003007  -0.007875
   23  C  2  Y    0.003834  -0.000583   0.000161   0.001126   0.006609
   24  C  2  Z   -0.001449   0.000275  -0.001214   0.000438  -0.002120
   25  C  2 XX   -0.000117  -0.000098  -0.000820  -0.000273  -0.003947
   26  C  2 YY    0.000228   0.000038   0.000498   0.000214   0.012775
   27  C  2 ZZ   -0.000110   0.000060   0.000322   0.000058  -0.008828
   28  C  2 XY   -0.000212  -0.000141   0.000045  -0.000016  -0.012877
   29  C  2 XZ    0.000097  -0.000034   0.000552   0.000214   0.003137
   30  C  2 YZ   -0.000145   0.000002   0.000012  -0.000006  -0.009265
   31  F  3  S    0.993084  -0.000593   0.000009   0.000063  -0.234443
   32  F  3  S    0.034024   0.000067  -0.000112   0.000422   0.477005
   33  F  3  S   -0.016854   0.000069  -0.000129  -0.000621   0.489189
   34  F  3  X    0.000487   0.000059  -0.000091  -0.000156   0.041138
   35  F  3  Y   -0.001069  -0.000009   0.000042   0.000249  -0.087046
   36  F  3  Z    0.000335  -0.000077  -0.000011  -0.000070   0.025843
   37  F  3  X   -0.001646  -0.000323   0.000242  -0.000557   0.018892
   38  F  3  Y    0.003296  -0.000046   0.000207   0.001764  -0.040503
   39  F  3  Z   -0.001067   0.000283  -0.000111  -0.000626   0.011581
   40  F  3 XX    0.000130  -0.000104   0.000169   0.000293  -0.002894
   41  F  3 YY   -0.000297   0.000039  -0.000134  -0.000799   0.007819
   42  F  3 ZZ    0.000167   0.000065  -0.000035   0.000506  -0.004924
   43  F  3 XY    0.000304   0.000034   0.000017   0.000772  -0.007891
   44  F  3 XZ   -0.000119   0.000037  -0.000095  -0.000218   0.002217
   45  F  3 YZ    0.000183  -0.000000   0.000046   0.000537  -0.004983
   46  H  4  S   -0.000858   0.000155  -0.000333  -0.001262   0.022604
   47  H  4  S   -0.000031   0.000674   0.000614   0.003292   0.000469
   48  H  4  X    0.000053   0.000131   0.000097  -0.000593   0.002311
   49  H  4  Y   -0.000372   0.000083  -0.000114  -0.001053   0.004684
   50  H  4  Z    0.000132  -0.000005  -0.000083  -0.000512   0.001544
   51  H  5  S   -0.000959   0.000124  -0.000376  -0.001142   0.022616
   52  H  5  S   -0.000368  -0.000372   0.000800   0.003419   0.001982
   53  H  5  X    0.000065  -0.000147   0.000149   0.000129  -0.000385
   54  H  5  Y   -0.000373   0.000003  -0.000021  -0.000118   0.001269
   55  H  5  Z    0.000193   0.000056   0.000051   0.001246  -0.005289
   56  F  6  S    0.000592   0.993091   0.000046   0.000003  -0.035497
   57  F  6  S    0.000099   0.033680   0.000346  -0.000138   0.071497
   58  F  6  S    0.000053  -0.015862   0.000110  -0.000079   0.073288
   59  F  6  X   -0.000060  -0.000549   0.000077   0.000084  -0.009179
   60  F  6  Y   -0.000001  -0.000967   0.000044   0.000017  -0.011299
   61  F  6  Z    0.000065  -0.000277   0.000005   0.000001  -0.002968
   62  F  6  X    0.000278   0.001819   0.000385  -0.000261  -0.005189
   63  F  6  Y   -0.000106   0.002971   0.001225   0.000026  -0.005021
   64  F  6  Z   -0.000231   0.000884   0.000413   0.000033  -0.001688
   65  F  6 XX   -0.000106   0.000070   0.000173   0.000122   0.000359
   66  F  6 YY    0.000052  -0.000245  -0.000671  -0.000038   0.000818
   67  F  6 ZZ    0.000055   0.000175   0.000498  -0.000083  -0.001177
   68  F  6 XY   -0.000013  -0.000340  -0.000825   0.000053   0.001542
   69  F  6 XZ    0.000033  -0.000117  -0.000226  -0.000055   0.000423
   70  F  6 YZ   -0.000001  -0.000148  -0.000434   0.000017   0.000728
   71  H  7  S    0.000166  -0.000671  -0.001280  -0.000148   0.003972
   72  H  7  S    0.000725   0.000087   0.003384   0.000260   0.000592
   73  H  7  X   -0.000117  -0.000136   0.000478  -0.000175  -0.000280
   74  H  7  Y    0.000085  -0.000319  -0.001105   0.000036   0.000840
   75  H  7  Z    0.000014  -0.000157   0.000571   0.000022  -0.000458
   76  H  8  S    0.000113  -0.000781  -0.001162  -0.000218   0.005453
   77  H  8  S   -0.000486  -0.000253   0.003572   0.000336   0.001961
   78  H  8  X    0.000153  -0.000104  -0.000165  -0.000127  -0.000088
   79  H  8  Y   -0.000026  -0.000381  -0.000158   0.000010   0.000371
   80  H  8  Z   -0.000054  -0.000102  -0.001262   0.000099   0.001453

                      6          7          8          9         10
                   -1.0563    -0.7156    -0.5786    -0.4681    -0.4640
                     A          A          A          A          A   
    1  C  1  S   -0.051500  -0.153488   0.128289  -0.000350  -0.008459
    2  C  1  S    0.099487   0.314154  -0.278175  -0.004795   0.031901
    3  C  1  S    0.015782   0.176990  -0.150454   0.013107  -0.002400
    4  C  1  X    0.038577  -0.102892  -0.102226   0.097451  -0.010074
    5  C  1  Y    0.066076  -0.039417   0.042589  -0.110606   0.209030
    6  C  1  Z    0.020571   0.025677   0.068552   0.238843   0.119914
    7  C  1  X    0.012001  -0.029654  -0.027880   0.024041  -0.011177
    8  C  1  Y    0.008054  -0.024631   0.030548  -0.039140   0.060825
    9  C  1  Z    0.001827   0.006259   0.031161   0.104636   0.039136
   10  C  1 XX   -0.002091   0.007569   0.006747  -0.004060  -0.003385
   11  C  1 YY    0.008752  -0.005281  -0.005162   0.001672   0.006048
   12  C  1 ZZ   -0.006662  -0.002288  -0.001585   0.002388  -0.002663
   13  C  1 XY    0.011412  -0.000073  -0.000424   0.001667  -0.003687
   14  C  1 XZ    0.002897  -0.005901  -0.006155  -0.004209  -0.003635
   15  C  1 YZ    0.005970  -0.000229   0.000488  -0.001687   0.008205
   16  C  2  S    0.002145  -0.148935  -0.128301  -0.000929   0.002089
   17  C  2  S   -0.006424   0.304972   0.280088  -0.006936   0.009661
   18  C  2  S    0.016487   0.166041   0.138856   0.022487  -0.035822
   19  C  2  X    0.022352   0.103105  -0.121594   0.073836   0.136840
   20  C  2  Y   -0.012212  -0.051292  -0.017571  -0.118808   0.290600
   21  C  2  Z    0.002317  -0.026121   0.069509   0.290213   0.106262
   22  C  2  X    0.011171   0.028863  -0.033184   0.007892   0.054704
   23  C  2  Y    0.000664  -0.029810  -0.030671  -0.015576   0.083078
   24  C  2  Z   -0.003013  -0.005537   0.033806   0.112982   0.060829
   25  C  2 XX    0.003592   0.007536  -0.006513   0.005691  -0.001888
   26  C  2 YY   -0.003514  -0.005535   0.005856  -0.007438   0.007606
   27  C  2 ZZ   -0.000078  -0.002001   0.000656   0.001747  -0.005718
   28  C  2 XY    0.003391  -0.000732  -0.000874   0.001450  -0.000101
   29  C  2 XZ   -0.001923  -0.006185   0.006697   0.002317  -0.002259
   30  C  2 YZ    0.001476   0.000979  -0.000417   0.009900  -0.008202
   31  F  3  S    0.041580   0.057904   0.050925  -0.034267   0.025055
   32  F  3  S   -0.085441  -0.125956  -0.111965   0.070341  -0.052436
   33  F  3  S   -0.089384  -0.145132  -0.136531   0.113703  -0.077328
   34  F  3  X   -0.003107   0.049267   0.041164  -0.151335   0.239580
   35  F  3  Y    0.013763  -0.072471  -0.176275   0.280564  -0.097354
   36  F  3  Z   -0.004229   0.014558   0.080151   0.082610   0.155464
   37  F  3  X   -0.000636   0.024941   0.026615  -0.093260   0.147910
   38  F  3  Y    0.007216  -0.042980  -0.105123   0.167733  -0.059996
   39  F  3  Z   -0.001641   0.010849   0.048019   0.049521   0.092061
   40  F  3 XX    0.001128  -0.000461  -0.004678   0.000572   0.004783
   41  F  3 YY   -0.001504   0.003027   0.007182  -0.008666  -0.004168
   42  F  3 ZZ    0.000376  -0.002566  -0.002504   0.008095  -0.000615
   43  F  3 XY    0.001028  -0.004331  -0.003153   0.007695  -0.009467
   44  F  3 XZ   -0.000276   0.000837   0.002232   0.002026   0.005246
   45  F  3 YZ    0.000733  -0.001528  -0.005481  -0.003651  -0.006221
   46  H  4  S   -0.002725   0.115205   0.163324  -0.040473  -0.238039
   47  H  4  S    0.001224  -0.007437   0.013161   0.001969  -0.051019
   48  H  4  X   -0.000242   0.007974   0.005322  -0.000657  -0.007561
   49  H  4  Y   -0.000645   0.007889   0.009651  -0.004958  -0.006468
   50  H  4  Z   -0.000093   0.004226   0.006678   0.005369  -0.003422
   51  H  5  S   -0.001415   0.107635   0.167642   0.203122   0.058499
   52  H  5  S    0.001018  -0.002396   0.007605   0.028523  -0.005890
   53  H  5  X    0.000180   0.001358  -0.002371   0.002790   0.003876
   54  H  5  Y   -0.000151  -0.000392  -0.000037  -0.001711   0.006882
   55  H  5  Z    0.000157  -0.011201  -0.013149  -0.009059  -0.002561
   56  F  6  S   -0.239881   0.051390  -0.041406   0.002941   0.033117
   57  F  6  S    0.488227  -0.111910   0.092014  -0.005300  -0.069706
   58  F  6  S    0.510703  -0.127595   0.108986  -0.013443  -0.106872
   59  F  6  X   -0.038918  -0.044605   0.047076   0.025192  -0.197286
   60  F  6  Y   -0.067715  -0.057901   0.128900  -0.062594  -0.175264
   61  F  6  Z   -0.018111  -0.011245   0.053013   0.103725  -0.013895
   62  F  6  X   -0.019986  -0.023285   0.031115   0.016257  -0.124355
   63  F  6  Y   -0.035607  -0.036123   0.079764  -0.035490  -0.107793
   64  F  6  Z   -0.009072  -0.008819   0.032936   0.060376  -0.007989
   65  F  6 XX   -0.001670  -0.000084   0.002964  -0.002111   0.003368
   66  F  6 YY    0.006624   0.002382  -0.005449   0.004737   0.001566
   67  F  6 ZZ   -0.004954  -0.002297   0.002485  -0.002626  -0.004934
   68  F  6 XY    0.008670   0.004054  -0.003981  -0.000194   0.008173
   69  F  6 XZ    0.002247   0.000800  -0.002109  -0.003597   0.000832
   70  F  6 YZ    0.004092   0.001300  -0.003766  -0.004422   0.000369
   71  H  7  S    0.019346   0.118901  -0.163931   0.162100  -0.071927
   72  H  7  S    0.000479  -0.007889  -0.015003   0.029521  -0.022110
   73  H  7  X   -0.001417  -0.007354   0.004738  -0.005136   0.003258
   74  H  7  Y    0.004081   0.008816  -0.009667   0.006752   0.000586
   75  H  7  Z   -0.001334  -0.004817   0.007020   0.001065   0.004653
   76  H  8  S    0.019031   0.112483  -0.169566  -0.157748  -0.086034
   77  H  8  S    0.001532  -0.002731  -0.007958  -0.012842  -0.020764
   78  H  8  X    0.000569  -0.001352  -0.002160   0.004040   0.000528
   79  H  8  Y    0.001303   0.000233  -0.000117  -0.003783   0.004489
   80  H  8  Z    0.004164   0.011773  -0.013238  -0.006948  -0.003762

                     11         12         13         14         15
                   -0.4319    -0.4063    -0.3925    -0.3213    -0.3008
                     A          A          A          A          A   
    1  C  1  S   -0.008163  -0.010807   0.004278   0.026528   0.007180
    2  C  1  S    0.020313   0.016016  -0.004371  -0.058994  -0.015590
    3  C  1  S    0.020117   0.033946  -0.023139  -0.134604  -0.037828
    4  C  1  X    0.320839  -0.031166   0.035138   0.100737  -0.007177
    5  C  1  Y   -0.040825  -0.291469  -0.031523  -0.003475   0.030009
    6  C  1  Z   -0.062498   0.017638   0.307921   0.007479  -0.062648
    7  C  1  X    0.121753   0.016027   0.011308   0.099873   0.026007
    8  C  1  Y   -0.039124  -0.085874  -0.020084   0.044282  -0.026032
    9  C  1  Z   -0.024306   0.012409   0.141920  -0.037484  -0.036981
   10  C  1 XX   -0.004162   0.001032   0.007622   0.010359   0.006367
   11  C  1 YY    0.004404  -0.008603   0.004203  -0.004576  -0.005981
   12  C  1 ZZ   -0.000242   0.007571  -0.011825  -0.005784  -0.000385
   13  C  1 XY    0.005149  -0.020581   0.000789   0.005761   0.007591
   14  C  1 XZ    0.007391  -0.001034   0.009240  -0.001962   0.010383
   15  C  1 YZ   -0.000469  -0.007502   0.002302  -0.008256   0.009883
   16  C  2  S    0.011811   0.013755   0.005396  -0.019790  -0.001729
   17  C  2  S   -0.021935  -0.027638  -0.006952   0.040758   0.001410
   18  C  2  S   -0.040367  -0.041162  -0.025791   0.119319   0.026476
   19  C  2  X   -0.303934   0.065577  -0.001291  -0.003019  -0.073470
   20  C  2  Y    0.089060   0.190703  -0.013693  -0.025727  -0.084397
   21  C  2  Z    0.084088  -0.006776  -0.229601   0.057173  -0.156196
   22  C  2  X   -0.112951   0.054650   0.003051   0.051657   0.013928
   23  C  2  Y    0.003258   0.051134  -0.020783  -0.065370  -0.001467
   24  C  2  Z    0.042806   0.002437  -0.104447  -0.005092  -0.058302
   25  C  2 XX   -0.001548  -0.004688   0.008046  -0.015613  -0.005919
   26  C  2 YY    0.006890   0.010923   0.001585   0.006958   0.017301
   27  C  2 ZZ   -0.005341  -0.006235  -0.009631   0.008655  -0.011381
   28  C  2 XY   -0.014686  -0.018181  -0.002745   0.010812   0.010479
   29  C  2 XZ    0.008057  -0.001173   0.012657   0.002653  -0.008232
   30  C  2 YZ   -0.000964  -0.004866  -0.008826  -0.009217   0.015766
   31  F  3  S    0.020217   0.011890   0.003087  -0.002831  -0.000712
   32  F  3  S   -0.041160  -0.021244  -0.004998   0.003155   0.004077
   33  F  3  S   -0.059868  -0.037080  -0.007102   0.026664  -0.009107
   34  F  3  X   -0.102840   0.193159   0.016043   0.399763   0.220456
   35  F  3  Y   -0.299250  -0.153588  -0.191209   0.126718   0.246432
   36  F  3  Z    0.189243   0.131063  -0.241655  -0.243492   0.384968
   37  F  3  X   -0.061350   0.116942   0.006751   0.267578   0.148009
   38  F  3  Y   -0.186363  -0.093340  -0.122593   0.080472   0.169591
   39  F  3  Z    0.115144   0.084326  -0.155612  -0.163172   0.269955
   40  F  3 XX   -0.009772   0.000583  -0.001166   0.005721   0.003115
   41  F  3 YY    0.009942   0.000043   0.008123  -0.004231  -0.006152
   42  F  3 ZZ   -0.000170  -0.000626  -0.006957  -0.001490   0.003037
   43  F  3 XY    0.002862  -0.006712  -0.002268  -0.008508  -0.002105
   44  F  3 XZ    0.001315   0.003374  -0.003602   0.000382   0.004341
   45  F  3 YZ   -0.008725  -0.004087   0.008127   0.005541  -0.005136
   46  H  4  S    0.033353  -0.169792   0.070270   0.033385   0.202886
   47  H  4  S    0.003476  -0.045696   0.016128  -0.007404   0.107827
   48  H  4  X   -0.004784  -0.002905   0.001378   0.000779   0.004718
   49  H  4  Y    0.004598  -0.002907   0.003865   0.000102   0.001769
   50  H  4  Z    0.002873  -0.003925  -0.003756   0.002735  -0.000436
   51  H  5  S    0.041612  -0.035926  -0.192607   0.097434  -0.167931
   52  H  5  S    0.007398  -0.007998  -0.052896   0.031319  -0.054428
   53  H  5  X   -0.005963   0.001435   0.001815  -0.000422  -0.003900
   54  H  5  Y    0.002154   0.004441  -0.001388  -0.001355  -0.000456
   55  H  5  Z   -0.002152   0.001600   0.006188  -0.002748   0.003378
   56  F  6  S    0.015487  -0.028423   0.005968   0.002858  -0.000168
   57  F  6  S   -0.033428   0.057567  -0.011064  -0.004126  -0.003895
   58  F  6  S   -0.043612   0.087429  -0.019957  -0.021536   0.021056
   59  F  6  X    0.074854   0.253553  -0.028132   0.355660   0.094430
   60  F  6  Y   -0.227486   0.313441  -0.186410  -0.167552  -0.211043
   61  F  6  Z   -0.087581   0.171182   0.205479  -0.254967   0.291634
   62  F  6  X    0.041824   0.159696  -0.015588   0.233550   0.056306
   63  F  6  Y   -0.145255   0.200434  -0.120058  -0.106849  -0.144471
   64  F  6  Z   -0.053157   0.109543   0.130249  -0.168843   0.203856
   65  F  6 XX   -0.007979   0.000361  -0.001333  -0.006759  -0.001725
   66  F  6 YY    0.009164  -0.003675   0.007353   0.005348   0.004915
   67  F  6 ZZ   -0.001185   0.003314  -0.006020   0.001410  -0.003190
   68  F  6 XY   -0.000469  -0.009523   0.002923  -0.006769  -0.000365
   69  F  6 XZ    0.000572  -0.004245  -0.004003   0.000906  -0.003227
   70  F  6 YZ    0.004634  -0.006133  -0.006906   0.005581  -0.003993
   71  H  7  S    0.134139   0.200824   0.135022   0.014386  -0.083223
   72  H  7  S    0.024174   0.057297   0.034891   0.030875  -0.045256
   73  H  7  X    0.002684  -0.006263  -0.002370   0.001872   0.002907
   74  H  7  Y    0.006697   0.001506   0.006288   0.000831   0.000090
   75  H  7  Z   -0.005102  -0.004678   0.004074   0.000543  -0.000041
   76  H  8  S    0.060006   0.023367  -0.256870  -0.056717   0.048950
   77  H  8  S    0.013352   0.006670  -0.064116  -0.015101  -0.010131
   78  H  8  X    0.006982  -0.000753  -0.000362   0.002065  -0.002126
   79  H  8  Y   -0.000480  -0.007535  -0.001850   0.000730  -0.000530
   80  H  8  Z    0.003256   0.001099  -0.008193  -0.001560   0.000999

                     16         17         18         19         20
                   -0.2935    -0.2862    -0.0061     0.0176     0.0508
                     A          A          A          A          A   
    1  C  1  S   -0.007585   0.017836  -0.073241  -0.074267   0.017290
    2  C  1  S    0.022126  -0.051600   0.200723   0.125861  -0.016879
    3  C  1  S    0.006914  -0.067063   0.405207   1.105684  -0.427339
    4  C  1  X   -0.113718   0.214678   0.212029   0.119552   0.114192
    5  C  1  Y    0.096440  -0.045112   0.363811  -0.139667  -0.022279
    6  C  1  Z   -0.139534  -0.149624   0.117831  -0.068044   0.257638
    7  C  1  X   -0.002397   0.057053   0.358997   0.262390   0.272801
    8  C  1  Y    0.023498  -0.004260   0.475665  -0.255408  -0.207826
    9  C  1  Z    0.008506  -0.051373   0.205220  -0.158464   0.579453
   10  C  1 XX    0.005147  -0.017813   0.008993   0.006517  -0.011942
   11  C  1 YY   -0.021153   0.006296  -0.019820  -0.001614  -0.011133
   12  C  1 ZZ    0.016007   0.011517   0.010827  -0.004903   0.023074
   13  C  1 XY    0.003195  -0.009020  -0.039427   0.007627   0.006282
   14  C  1 XZ    0.000415   0.006773  -0.002512  -0.007408  -0.019629
   15  C  1 YZ    0.011572   0.007753  -0.010535   0.001414   0.007116
   16  C  2  S   -0.009726   0.017350  -0.026612  -0.069805  -0.007089
   17  C  2  S    0.026566  -0.051191   0.084008   0.113011  -0.010403
   18  C  2  S    0.028660  -0.075942   0.152944   1.115518   0.342246
   19  C  2  X    0.111017  -0.216253  -0.088124  -0.116967   0.134140
   20  C  2  Y    0.069673  -0.017325   0.187661  -0.155474  -0.027571
   21  C  2  Z    0.102569   0.149440  -0.056044   0.074122   0.271178
   22  C  2  X    0.023808  -0.064795  -0.218213  -0.253972   0.363307
   23  C  2  Y    0.027504   0.014088   0.275537  -0.283144   0.107332
   24  C  2  Z   -0.023449   0.060205  -0.113651   0.163734   0.604503
   25  C  2 XX    0.001744  -0.015765   0.018782   0.004972   0.008679
   26  C  2 YY   -0.016935   0.003933  -0.016871   0.001101   0.016425
   27  C  2 ZZ    0.015190   0.011832  -0.001911  -0.006072  -0.025104
   28  C  2 XY   -0.002355   0.011539   0.038432  -0.008883  -0.002234
   29  C  2 XZ   -0.003641   0.005824   0.004295  -0.006036   0.019962
   30  C  2 YZ   -0.005795  -0.007986   0.005458  -0.002646   0.001601
   31  F  3  S    0.001313   0.002279   0.040236  -0.009430  -0.019072
   32  F  3  S    0.000843  -0.007019  -0.080789   0.024566   0.041630
   33  F  3  S   -0.024178  -0.004328  -0.291762   0.040754   0.127287
   34  F  3  X   -0.192475   0.260502  -0.097619   0.040773   0.022988
   35  F  3  Y   -0.088486   0.029394   0.170590   0.031338  -0.093423
   36  F  3  Z   -0.183844  -0.261824  -0.039920  -0.043196  -0.002825
   37  F  3  X   -0.141965   0.190541  -0.085557   0.054477   0.008642
   38  F  3  Y   -0.063322   0.019892   0.165433   0.050707  -0.095776
   39  F  3  Z   -0.123330  -0.185301  -0.045747  -0.047823  -0.034878
   40  F  3 XX   -0.002852   0.002332   0.001701  -0.001672   0.001373
   41  F  3 YY    0.002415  -0.000749   0.000553   0.003258  -0.002901
   42  F  3 ZZ    0.000436  -0.001583  -0.002254  -0.001586   0.001528
   43  F  3 XY    0.000852  -0.002307   0.000042   0.000380   0.002133
   44  F  3 XZ   -0.002206  -0.000326   0.000389  -0.000553   0.003862
   45  F  3 YZ    0.001706   0.003792  -0.000563  -0.002718  -0.002483
   46  H  4  S   -0.162877   0.063223   0.129432  -0.048356   0.073886
   47  H  4  S   -0.096690   0.053689   0.171585  -0.916840   0.799023
   48  H  4  X   -0.002025  -0.003993  -0.015427   0.005484  -0.002330
   49  H  4  Y   -0.002503   0.000944   0.005840   0.010161  -0.011557
   50  H  4  Z    0.000100   0.005470  -0.002471   0.011373  -0.000616
   51  H  5  S    0.144972   0.149369  -0.051696  -0.041834  -0.105793
   52  H  5  S    0.103586   0.089913  -0.053349  -0.620068  -1.271510
   53  H  5  X    0.003113  -0.004529  -0.000394  -0.005988   0.008083
   54  H  5  Y    0.001735  -0.001899   0.009679  -0.002390  -0.001258
   55  H  5  Z   -0.002402  -0.002876  -0.000177  -0.011241  -0.016861
   56  F  6  S    0.001383   0.001842   0.064308  -0.005189   0.006542
   57  F  6  S   -0.000058  -0.006441  -0.125046   0.015655  -0.016369
   58  F  6  S   -0.019563  -0.000382  -0.457518   0.012263  -0.030203
   59  F  6  X    0.298747  -0.307427   0.187144  -0.027256   0.004027
   60  F  6  Y   -0.216314   0.080785   0.311456   0.048892   0.045418
   61  F  6  Z    0.346879   0.310808   0.080335   0.046711  -0.010270
   62  F  6  X    0.211834  -0.220656   0.175496  -0.038238  -0.007427
   63  F  6  Y   -0.148437   0.055268   0.301933   0.064206   0.041448
   64  F  6  Z    0.237165   0.216668   0.079211   0.048380  -0.039997
   65  F  6 XX   -0.004445   0.003514   0.000282  -0.001670  -0.001256
   66  F  6 YY    0.005176  -0.001896   0.001911   0.003315   0.001953
   67  F  6 ZZ   -0.000731  -0.001618  -0.002193  -0.001646  -0.000697
   68  F  6 XY   -0.001744   0.002564   0.002238   0.000535   0.001972
   69  F  6 XZ   -0.004073  -0.001055   0.000834   0.000068  -0.003509
   70  F  6 YZ   -0.003597  -0.004308   0.001103   0.002694  -0.002042
   71  H  7  S   -0.210138   0.062866   0.054864  -0.058534  -0.099956
   72  H  7  S   -0.121596   0.049051  -0.023837  -0.901647  -0.816215
   73  H  7  X    0.003198   0.004211   0.017221  -0.003737  -0.004950
   74  H  7  Y   -0.002476   0.000250   0.012074   0.011210   0.010228
   75  H  7  Z    0.000182  -0.005621   0.006805  -0.010827  -0.001774
   76  H  8  S    0.177299   0.150277  -0.029031  -0.040511   0.116246
   77  H  8  S    0.107357   0.090351  -0.029404  -0.641367   1.297942
   78  H  8  X   -0.004293   0.004249   0.006865   0.006985   0.007177
   79  H  8  Y    0.001900  -0.002363   0.017141  -0.001006  -0.003745
   80  H  8  Z    0.002760   0.002709  -0.001383   0.011625  -0.016970

                     21         22         23         24         25
                    0.0647     0.0860     0.0946     0.1695     0.3445
                     A          A          A          A          A   
    1  C  1  S    0.086026   0.031154   0.005945   0.074340  -0.005221
    2  C  1  S   -0.151599  -0.098476  -0.015164  -0.082717  -0.028970
    3  C  1  S   -1.315723   0.136113  -0.156422  -1.919400  -0.565224
    4  C  1  X   -0.061563  -0.127506   0.098666   0.304776   0.426970
    5  C  1  Y    0.127572  -0.292091  -0.097971  -0.100348   0.202244
    6  C  1  Z   -0.003800   0.045036   0.254249  -0.191803  -0.135410
    7  C  1  X   -0.079410  -0.183637   0.341664   1.884367  -0.767730
    8  C  1  Y    0.409536  -0.721739  -0.177032  -0.615948  -0.174671
    9  C  1  Z    0.013936   0.224401   0.933497  -0.789272   0.522912
   10  C  1 XX    0.004562   0.001326   0.001304   0.037170  -0.044885
   11  C  1 YY   -0.001627   0.015896  -0.013844  -0.013514   0.012088
   12  C  1 ZZ   -0.002935  -0.017222   0.012540  -0.023656   0.032797
   13  C  1 XY   -0.007325  -0.007594   0.011343  -0.002768  -0.012302
   14  C  1 XZ    0.001357   0.014551   0.006463  -0.024548   0.043554
   15  C  1 YZ   -0.006141   0.016062  -0.002751   0.018187  -0.016706
   16  C  2  S   -0.096616  -0.057199   0.014927  -0.077460  -0.001754
   17  C  2  S    0.181808   0.162905  -0.043413   0.095459  -0.076088
   18  C  2  S    1.410677   0.159703  -0.140988   1.954992  -0.404648
   19  C  2  X   -0.095085  -0.158620  -0.077561   0.324927  -0.414704
   20  C  2  Y   -0.073484   0.373016  -0.159587   0.078280   0.162988
   21  C  2  Z   -0.020116  -0.037172  -0.257679  -0.193171   0.150133
   22  C  2  X   -0.199993  -0.403896  -0.270780   1.903422   0.869117
   23  C  2  Y   -0.299733   0.947537  -0.332757   0.472712   0.023134
   24  C  2  Z   -0.034853  -0.097889  -0.964054  -0.830958  -0.656957
   25  C  2 XX   -0.000805   0.007422  -0.001809  -0.036125  -0.041819
   26  C  2 YY   -0.003734  -0.028400  -0.007063   0.012522   0.003685
   27  C  2 ZZ    0.004539   0.020978   0.008871   0.023603   0.038135
   28  C  2 XY    0.001702   0.009886  -0.012682   0.004980   0.020701
   29  C  2 XZ   -0.001564  -0.011791   0.010532   0.025974   0.041998
   30  C  2 YZ   -0.002806   0.025282  -0.001083   0.016672   0.020077
   31  F  3  S    0.012967   0.069884  -0.001604   0.008552   0.002290
   32  F  3  S   -0.026039  -0.124987   0.008356   0.003729  -0.020214
   33  F  3  S   -0.096005  -0.623204  -0.014864  -0.176747   0.073860
   34  F  3  X   -0.062419  -0.069946   0.040033  -0.119185  -0.103212
   35  F  3  Y    0.098439   0.262077  -0.007795   0.016176   0.058602
   36  F  3  Z    0.005434  -0.109707   0.069913   0.012130   0.040424
   37  F  3  X   -0.058344  -0.097346   0.043836  -0.209032  -0.139501
   38  F  3  Y    0.121631   0.293578   0.024694   0.043942  -0.025498
   39  F  3  Z   -0.003120  -0.124560   0.102656   0.040801   0.098026
   40  F  3 XX   -0.001955  -0.003691  -0.003513  -0.000150  -0.009482
   41  F  3 YY    0.003317   0.002876   0.002311   0.000509   0.010450
   42  F  3 ZZ   -0.001362   0.000815   0.001203  -0.000358  -0.000967
   43  F  3 XY   -0.001141  -0.002841   0.001711  -0.008017  -0.007395
   44  F  3 XZ   -0.001637   0.002609  -0.003492   0.007722   0.007016
   45  F  3 YZ   -0.001841  -0.003181   0.005371   0.006485  -0.004023
   46  H  4  S   -0.067081  -0.044321  -0.018860   0.107099   0.205005
   47  H  4  S   -1.260608   0.259411  -1.228742   0.566804  -0.073566
   48  H  4  X    0.009302  -0.011074   0.008097   0.012218   0.007521
   49  H  4  Y    0.013343   0.013560   0.012970  -0.006124   0.001978
   50  H  4  Z    0.004645  -0.014824  -0.002578  -0.020788  -0.024268
   51  H  5  S   -0.046348   0.063981   0.051881   0.098602   0.287865
   52  H  5  S   -0.650079  -0.182897   1.481848   0.491659   0.148114
   53  H  5  X    0.000937  -0.012052   0.003210   0.016513   0.019808
   54  H  5  Y   -0.001097   0.022798  -0.002289   0.008715   0.013158
   55  H  5  Z   -0.008423  -0.000410   0.016590   0.009044  -0.002982
   56  F  6  S    0.000609  -0.036897   0.008840  -0.003255  -0.002560
   57  F  6  S    0.000896   0.064616  -0.011866  -0.010792  -0.022778
   58  F  6  S   -0.020326   0.319760  -0.098548   0.107702   0.187399
   59  F  6  X   -0.042202  -0.041760  -0.022557  -0.105440   0.125964
   60  F  6  Y   -0.041686  -0.159530   0.032192   0.005454   0.055987
   61  F  6  Z    0.019180  -0.079662  -0.045794   0.011882  -0.043258
   62  F  6  X   -0.036982  -0.068261  -0.018002  -0.177327   0.090352
   63  F  6  Y   -0.051064  -0.158681   0.064642  -0.007964  -0.070976
   64  F  6  Z    0.014095  -0.089936  -0.067776   0.038806  -0.093579
   65  F  6 XX    0.001634   0.003512  -0.003834  -0.001176  -0.003199
   66  F  6 YY   -0.002725  -0.002302   0.002291   0.001111   0.008780
   67  F  6 ZZ    0.001091  -0.001210   0.001543   0.000066  -0.005581
   68  F  6 XY   -0.001838  -0.003372  -0.000698  -0.007482   0.013960
   69  F  6 XZ    0.001392  -0.002731  -0.003201  -0.005892   0.006159
   70  F  6 YZ   -0.001447  -0.003172  -0.003658   0.005996   0.003140
   71  H  7  S    0.093723   0.099342  -0.039652  -0.104292   0.187625
   72  H  7  S    1.240091  -0.540813  -1.172310  -0.523467  -0.129625
   73  H  7  X    0.011987  -0.003044  -0.005019   0.014884  -0.002986
   74  H  7  Y   -0.011836  -0.005115   0.016288   0.004796  -0.000071
   75  H  7  Z    0.006120  -0.012529   0.004543  -0.020348   0.019721
   76  H  8  S    0.040004  -0.062349   0.067265  -0.097007   0.221263
   77  H  8  S    0.660294   0.370499   1.386125  -0.520313   0.092997
   78  H  8  X    0.001699  -0.013107  -0.000905   0.015819  -0.022127
   79  H  8  Y    0.004177  -0.013885   0.000188  -0.008176   0.012647
   80  H  8  Z   -0.008863  -0.001377  -0.015960   0.009709   0.004182

                     26         27         28         29         30
                    0.3761     0.3906     0.4168     0.4745     0.4910
                     A          A          A          A          A   
    1  C  1  S    0.040638   0.005625  -0.011095  -0.070613  -0.040496
    2  C  1  S   -0.326923   0.005045   0.113966   0.470486   0.256971
    3  C  1  S    0.000431  -0.044614  -0.180458  -1.479802  -0.210456
    4  C  1  X   -0.245772  -0.053024  -0.013101  -0.659229   0.266438
    5  C  1  Y   -0.586697  -0.047931   0.296956   0.012322  -0.181218
    6  C  1  Z   -0.295056   0.164206   0.107184   0.112423  -0.102020
    7  C  1  X    0.371275   0.105665   0.183580   1.680049   0.004399
    8  C  1  Y    0.958230  -0.007957  -1.407700  -0.372769   0.098611
    9  C  1  Z    0.925732  -0.189762   0.123912  -0.521195   0.950398
   10  C  1 XX   -0.036089  -0.022798  -0.035992  -0.042356   0.038994
   11  C  1 YY   -0.003079  -0.024116  -0.030221   0.053959  -0.058250
   12  C  1 ZZ    0.039168   0.046913   0.066213  -0.011604   0.019255
   13  C  1 XY    0.030890  -0.004896   0.019513   0.016913   0.084321
   14  C  1 XZ    0.008914  -0.021992  -0.034184   0.045420  -0.007695
   15  C  1 YZ    0.001275   0.038719   0.046380   0.012569   0.034726
   16  C  2  S    0.006468  -0.046429   0.014262   0.061284  -0.055173
   17  C  2  S   -0.086873   0.340591  -0.141308  -0.406406   0.358457
   18  C  2  S    0.029657  -0.062872   0.263734   1.394600  -0.466349
   19  C  2  X   -0.013272  -0.246494  -0.007957  -0.692966  -0.161115
   20  C  2  Y   -0.028209   0.635152  -0.380361  -0.018478  -0.075064
   21  C  2  Z    0.235603  -0.273185   0.141135   0.126917   0.078116
   22  C  2  X    0.081712   0.372345   0.218769   1.702366  -0.380923
   23  C  2  Y   -0.003955  -0.747694   1.467821   0.252984  -0.164466
   24  C  2  Z   -0.483149   0.836254   0.020235  -0.591002  -0.873175
   25  C  2 XX    0.008439   0.047653   0.035989   0.050241   0.010151
   26  C  2 YY    0.026205  -0.012405   0.036587  -0.058890  -0.035031
   27  C  2 ZZ   -0.034644  -0.035248  -0.072576   0.008649   0.024880
   28  C  2 XY   -0.004437   0.048813  -0.002253  -0.018702  -0.088175
   29  C  2 XZ    0.031729   0.000244   0.038143  -0.048965  -0.006063
   30  C  2 YZ    0.024101   0.022820   0.025685   0.014074  -0.031914
   31  F  3  S    0.008202  -0.002748   0.008962  -0.015135   0.019516
   32  F  3  S   -0.011272  -0.065906   0.055960   0.062191  -0.054817
   33  F  3  S   -0.097260   0.447688  -0.500484   0.001144  -0.107471
   34  F  3  X   -0.022578  -0.114304   0.139636   0.010632   0.127444
   35  F  3  Y   -0.069925   0.231592  -0.155883  -0.001378   0.124631
   36  F  3  Z   -0.009823  -0.174806  -0.123323   0.001398   0.080242
   37  F  3  X   -0.074438   0.023894  -0.080719  -0.078323  -0.050251
   38  F  3  Y    0.030622  -0.040422   0.044367  -0.035680   0.089089
   39  F  3  Z    0.040927  -0.057860  -0.073895   0.041618   0.051367
   40  F  3 XX    0.006974  -0.010584  -0.002541  -0.019915  -0.013300
   41  F  3 YY   -0.010145   0.032810  -0.014383   0.015776   0.015818
   42  F  3 ZZ    0.003172  -0.022226   0.016923   0.004138  -0.002518
   43  F  3 XY    0.011134  -0.031678   0.024126   0.011809   0.007037
   44  F  3 XZ    0.006503   0.013094   0.005144   0.002830  -0.002636
   45  F  3 YZ   -0.001385  -0.025619   0.006550  -0.007910   0.000871
   46  H  4  S    0.261261   0.130037   0.408388   0.047611  -0.820649
   47  H  4  S   -0.083147  -0.069388   0.157584   0.598506   0.275050
   48  H  4  X   -0.027428  -0.022557   0.010005  -0.014408   0.020065
   49  H  4  Y   -0.007151  -0.004705   0.000234   0.016561   0.053780
   50  H  4  Z    0.007721   0.010930   0.006076  -0.000627   0.005598
   51  H  5  S   -0.174632  -0.466184  -0.364550   0.282568   0.044486
   52  H  5  S    0.201747  -0.036118   0.268312   0.130487   0.274307
   53  H  5  X    0.033174  -0.006080   0.014816  -0.027291   0.005488
   54  H  5  Y    0.016076   0.014746   0.021259   0.007594  -0.025897
   55  H  5  Z   -0.026556   0.002862  -0.019692   0.023613  -0.031370
   56  F  6  S    0.015552  -0.009147  -0.009897   0.018689   0.014811
   57  F  6  S    0.033984   0.026307  -0.040473  -0.075260  -0.033572
   58  F  6  S   -0.521137   0.039423   0.420052  -0.026429  -0.128925
   59  F  6  X   -0.098952  -0.027306   0.110398  -0.011843  -0.125179
   60  F  6  Y   -0.191739   0.028595   0.103195   0.016615   0.108017
   61  F  6  Z   -0.133683  -0.064697  -0.140367  -0.001326  -0.076747
   62  F  6  X    0.097519  -0.055719  -0.099671  -0.064902   0.079917
   63  F  6  Y    0.106730  -0.024125  -0.060266   0.052715   0.054218
   64  F  6  Z   -0.037783   0.013725  -0.067953   0.038505  -0.046237
   65  F  6 XX    0.004877  -0.003598   0.006603   0.015165  -0.017581
   66  F  6 YY   -0.024964   0.003294   0.008422  -0.011612   0.019112
   67  F  6 ZZ    0.020086   0.000304  -0.015025  -0.003552  -0.001531
   68  F  6 XY   -0.031980   0.005305   0.017108   0.004719  -0.006821
   69  F  6 XZ   -0.009453  -0.008725  -0.007430  -0.004605  -0.001968
   70  F  6 YZ   -0.019363  -0.005869   0.000955  -0.004692  -0.002699
   71  H  7  S    0.037088  -0.268288  -0.501023  -0.202035  -0.772907
   72  H  7  S    0.068460   0.050011  -0.078002  -0.443853   0.465764
   73  H  7  X   -0.012633  -0.026412   0.007917  -0.021171  -0.014823
   74  H  7  Y    0.008303   0.009412   0.002867  -0.003318   0.059502
   75  H  7  Z    0.014845   0.012336   0.001430  -0.006313  -0.008029
   76  H  8  S    0.462123   0.343272   0.364352  -0.325439   0.077147
   77  H  8  S    0.066944  -0.192335  -0.309200  -0.099840   0.303858
   78  H  8  X   -0.015498   0.026886   0.011066  -0.026425  -0.006537
   79  H  8  Y    0.000479  -0.024148  -0.029135  -0.008258  -0.022149
   80  H  8  Z    0.007945  -0.026275  -0.016084   0.030917   0.028315

                     31         32         33         34         35
                    0.5370     0.5482     0.5527     0.5814     0.7802
                     A          A          A          A          A   
    1  C  1  S   -0.012008  -0.040180  -0.011501   0.070985   0.022982
    2  C  1  S    0.017111   0.333783   0.068601  -0.539339  -1.264270
    3  C  1  S   -0.169363  -0.686574   0.096467   0.151861   2.471763
    4  C  1  X    0.314493   0.165796  -0.090398  -0.194503   0.104539
    5  C  1  Y   -0.382622  -0.205583   0.255247   0.270391   0.148207
    6  C  1  Z    0.205508   0.154339  -0.782840   0.327825  -0.029063
    7  C  1  X   -0.851135  -0.158074   0.059382   0.998232   0.363629
    8  C  1  Y    0.725711   0.322100  -0.560337  -0.235992  -0.433336
    9  C  1  Z   -1.365984  -0.831259   1.236552  -0.858297  -0.157598
   10  C  1 XX   -0.003374  -0.000035   0.032162  -0.039404  -0.054418
   11  C  1 YY    0.018129   0.029589   0.069318  -0.005308   0.050218
   12  C  1 ZZ   -0.014755  -0.029554  -0.101480   0.044712   0.004200
   13  C  1 XY    0.029816   0.011976  -0.026650  -0.030420   0.032932
   14  C  1 XZ   -0.014738  -0.037538  -0.013366   0.018764   0.025872
   15  C  1 YZ   -0.000346   0.016798  -0.045533  -0.041249   0.008676
   16  C  2  S   -0.026809  -0.010450  -0.043923  -0.073351   0.016393
   17  C  2  S    0.119538   0.034195   0.372050   0.569161  -1.259461
   18  C  2  S   -0.321948   0.151569  -0.712519  -0.193516   2.777447
   19  C  2  X   -0.349976   0.091747  -0.105229  -0.216974  -0.119821
   20  C  2  Y   -0.393640   0.257048  -0.091945  -0.225226   0.207507
   21  C  2  Z   -0.335201   0.726283   0.024188   0.330996   0.002119
   22  C  2  X    0.906293  -0.005838   0.006274   1.001806  -0.290736
   23  C  2  Y    0.781601  -0.517222   0.148947   0.094899  -0.432988
   24  C  2  Z    1.651527  -1.031539   0.395958  -0.900466   0.149286
   25  C  2 XX   -0.009906   0.036051   0.009581   0.038133  -0.058617
   26  C  2 YY    0.016671   0.068768   0.033907   0.001714   0.058591
   27  C  2 ZZ   -0.006765  -0.104820  -0.043488  -0.039847   0.000026
   28  C  2 XY   -0.036194   0.025606   0.002944  -0.033839  -0.026514
   29  C  2 XZ   -0.009380  -0.003970  -0.034693  -0.023363   0.024350
   30  C  2 YZ   -0.011279   0.044629  -0.007333  -0.039070  -0.019772
   31  F  3  S    0.020163   0.009033   0.000685   0.003936   0.040557
   32  F  3  S   -0.092437  -0.042507  -0.024463  -0.024384  -0.172386
   33  F  3  S    0.015331   0.010368   0.100854   0.043766  -0.199915
   34  F  3  X   -0.150209  -0.074894  -0.021473  -0.005951  -0.011807
   35  F  3  Y   -0.090408  -0.035934   0.018628   0.051769  -0.048788
   36  F  3  Z   -0.058462  -0.025010  -0.107920   0.019587   0.017660
   37  F  3  X   -0.093722   0.007740   0.053430  -0.037491  -0.057314
   38  F  3  Y   -0.022786   0.064300  -0.045956  -0.027047   0.287703
   39  F  3  Z   -0.116090   0.084518  -0.017278   0.059294  -0.090819
   40  F  3 XX    0.004430   0.002780  -0.002832  -0.009801   0.015725
   41  F  3 YY   -0.004580  -0.018484   0.004029   0.009202  -0.023625
   42  F  3 ZZ    0.000151   0.015704  -0.001196   0.000599   0.007900
   43  F  3 XY    0.007779   0.000012  -0.002651   0.001420   0.014855
   44  F  3 XZ   -0.009688   0.005428   0.007284   0.001429  -0.011038
   45  F  3 YZ    0.004927  -0.017793  -0.011779  -0.004685   0.012515
   46  H  4  S   -0.134868   0.272347  -0.131524  -0.537068  -0.393395
   47  H  4  S    1.353018  -1.119174   0.304449   0.815829  -0.796897
   48  H  4  X    0.054116  -0.020389   0.019934   0.030191   0.021234
   49  H  4  Y    0.037391  -0.058641   0.011096   0.036561  -0.046266
   50  H  4  Z    0.043494   0.000177   0.041227   0.036162  -0.010381
   51  H  5  S   -0.330826  -0.557452  -0.551901  -0.377904  -0.349620
   52  H  5  S   -0.890518   1.462386   0.177677   1.217173  -0.593549
   53  H  5  X   -0.015899  -0.017536   0.008280  -0.021928   0.012532
   54  H  5  Y    0.002828   0.020054   0.000705  -0.019323  -0.023636
   55  H  5  Z    0.015550  -0.082331  -0.037161  -0.071655   0.020393
   56  F  6  S    0.018696   0.000699   0.004700  -0.003386   0.037038
   57  F  6  S   -0.085929  -0.024482  -0.028006   0.023250  -0.164767
   58  F  6  S    0.002845   0.092483   0.028460  -0.038092  -0.138458
   59  F  6  X    0.149990   0.034122   0.048854  -0.016599   0.017334
   60  F  6  Y   -0.110294   0.000060  -0.016819  -0.036940  -0.023845
   61  F  6  Z    0.050718   0.107337   0.011666   0.022249  -0.006738
   62  F  6  X    0.078848  -0.041835  -0.027670  -0.031577   0.052763
   63  F  6  Y   -0.013949  -0.056458   0.046886   0.036894   0.229606
   64  F  6  Z    0.081914   0.037158  -0.098973   0.052686   0.065773
   65  F  6 XX    0.006179  -0.001929   0.000920   0.007395   0.012002
   66  F  6 YY   -0.010339   0.003649  -0.012121  -0.008128  -0.019226
   67  F  6 ZZ    0.004160  -0.001719   0.011202   0.000733   0.007223
   68  F  6 XY   -0.006967   0.002490   0.000469  -0.002172  -0.016940
   69  F  6 XZ   -0.006795   0.006166   0.006419  -0.001687  -0.010844
   70  F  6 YZ   -0.000333   0.008308   0.015336  -0.001990  -0.008939
   71  H  7  S   -0.046632  -0.186894   0.240656   0.527676  -0.345646
   72  H  7  S    1.088821   0.676138  -1.216923  -0.815591  -0.810661
   73  H  7  X   -0.044806  -0.030387   0.019245   0.027875  -0.026092
   74  H  7  Y    0.027404   0.024472  -0.061364  -0.035594  -0.042836
   75  H  7  Z   -0.036946  -0.047392   0.001651   0.038685   0.016155
   76  H  8  S   -0.289278  -0.489614  -0.563333   0.392978  -0.311060
   77  H  8  S   -0.648252  -0.215280   1.581487  -1.196893  -0.584605
   78  H  8  X    0.024477  -0.005636   0.016160  -0.019478  -0.015039
   79  H  8  Y    0.004286  -0.001238   0.018012   0.018935  -0.020014
   80  H  8  Z   -0.009998   0.017723   0.087918  -0.072493  -0.019824

                     36         37         38         39         40
                    0.9635     0.9774     1.0175     1.0310     1.1019
                     A          A          A          A          A   
    1  C  1  S   -0.014768   0.014826   0.001670   0.024046   0.022644
    2  C  1  S   -0.742705   0.369283   0.187069   0.040958   1.130659
    3  C  1  S    3.491061  -1.861959  -0.578662  -1.671775  -4.614007
    4  C  1  X    0.029789  -0.080001   0.002248  -0.053211   0.161050
    5  C  1  Y    0.029499  -0.102700   0.025091  -0.240379   0.094495
    6  C  1  Z    0.032392  -0.076680   0.019942  -0.065361   0.036376
    7  C  1  X   -0.935238   0.816642   0.060107   0.366986   1.573515
    8  C  1  Y   -0.053819  -0.189822   0.196080   0.125389   0.296715
    9  C  1  Z    0.315453  -0.119689  -0.139848  -0.246346  -0.721718
   10  C  1 XX    0.059081  -0.017410   0.124246   0.050530  -0.027761
   11  C  1 YY    0.020471  -0.004943  -0.066282  -0.115779   0.050904
   12  C  1 ZZ   -0.079552   0.022353  -0.057964   0.065249  -0.023143
   13  C  1 XY   -0.044896  -0.177010  -0.011803  -0.059145   0.014603
   14  C  1 XZ    0.059112  -0.042989   0.188115   0.059337   0.038867
   15  C  1 YZ    0.126994   0.082828   0.029422  -0.117316   0.015107
   16  C  2  S    0.021978  -0.009439  -0.006853  -0.004766  -0.030742
   17  C  2  S    0.441120  -0.355643   0.091939  -0.660863  -1.066754
   18  C  2  S   -3.310356   1.996789   0.514440   1.702152   4.630675
   19  C  2  X    0.102552   0.017488  -0.032531   0.046739   0.129184
   20  C  2  Y   -0.241019   0.018298   0.127155  -0.180876  -0.028539
   21  C  2  Z    0.127473   0.018172  -0.032801   0.038874   0.014140
   22  C  2  X   -1.138288   0.346952  -0.058264   0.573840   1.523999
   23  C  2  Y   -0.013617  -0.192211  -0.222264  -0.125721  -0.494375
   24  C  2  Z    0.275536  -0.211602  -0.188389  -0.173736  -0.745826
   25  C  2 XX   -0.012628   0.066448  -0.141942  -0.003918   0.022850
   26  C  2 YY   -0.077073  -0.007332   0.125355  -0.050930  -0.042803
   27  C  2 ZZ    0.089700  -0.059116   0.016587   0.054849   0.019952
   28  C  2 XY    0.136899   0.113640  -0.027933   0.026530  -0.006085
   29  C  2 XZ   -0.069756   0.003014  -0.186901  -0.051166  -0.043449
   30  C  2 YZ    0.060213  -0.162978  -0.039211   0.085591   0.007182
   31  F  3  S   -0.066008   0.012554   0.022132  -0.017193   0.003060
   32  F  3  S    0.297116  -0.066390  -0.097915   0.089574   0.008606
   33  F  3  S    0.213809  -0.077724  -0.026407  -0.108048  -0.236821
   34  F  3  X   -0.358075  -0.240592  -0.184631  -0.098285   0.130777
   35  F  3  Y    0.343508  -0.018678  -0.495779   0.265506   0.233990
   36  F  3  Z   -0.099271   0.471615  -0.204035  -0.308898  -0.288579
   37  F  3  X    0.647947   0.279329   0.147696   0.127091  -0.263465
   38  F  3  Y   -0.771283   0.115992   0.743241  -0.423325  -0.200057
   39  F  3  Z    0.230968  -0.557607   0.225208   0.418226   0.415336
   40  F  3 XX    0.022667   0.007330  -0.002398   0.005260  -0.007672
   41  F  3 YY   -0.020132   0.002559   0.000632  -0.034127  -0.020595
   42  F  3 ZZ   -0.002534  -0.009889   0.001766   0.028867   0.028268
   43  F  3 XY    0.002064   0.010258  -0.031239   0.031135   0.032247
   44  F  3 XZ   -0.017892   0.002269   0.001173  -0.004162   0.007675
   45  F  3 YZ    0.002127   0.015161  -0.013556   0.020860   0.037653
   46  H  4  S    0.225366  -0.258181  -0.092882  -0.244835  -0.497992
   47  H  4  S    0.015760  -0.195195  -0.137271  -0.029071  -0.285639
   48  H  4  X    0.004363  -0.072003   0.078948   0.014770  -0.000554
   49  H  4  Y    0.020199   0.001567  -0.102309  -0.005367  -0.019727
   50  H  4  Z   -0.002965   0.076815   0.058630  -0.025015  -0.024522
   51  H  5  S    0.272621  -0.175234   0.013453  -0.210310  -0.368963
   52  H  5  S    0.176133  -0.021749  -0.005293  -0.109250  -0.038711
   53  H  5  X   -0.042928  -0.007294  -0.114623  -0.024391  -0.030849
   54  H  5  Y    0.027474  -0.127393  -0.022553   0.056160  -0.019587
   55  H  5  Z   -0.021507   0.004655  -0.006614   0.005452   0.011879
   56  F  6  S    0.037272  -0.041977   0.001446  -0.051403   0.004548
   57  F  6  S   -0.188900   0.209586  -0.019013   0.284893  -0.068588
   58  F  6  S   -0.119656   0.064940   0.042040  -0.038417   0.251378
   59  F  6  X    0.016655   0.432973  -0.181965   0.082338   0.067381
   60  F  6  Y   -0.081917   0.122432   0.202274   0.564177  -0.383763
   61  F  6  Z   -0.341069  -0.234466  -0.391023   0.146161  -0.306818
   62  F  6  X    0.101765  -0.676840   0.192983  -0.235845  -0.191618
[...]
   27  C  2 ZZ   -0.006041   0.010444   0.022364   0.023033   0.036805
   28  C  2 XY    0.002760  -0.012554   0.000605   0.003596   0.019615
   29  C  2 XZ    0.003870   0.008743  -0.015364   0.024726   0.043531
   30  C  2 YZ    0.006950   0.001040   0.022194   0.017060   0.022380
   31  F  3  S   -0.002204   0.004285   0.058319   0.007303   0.002744
   32  F  3  S    0.007305  -0.003623  -0.101963   0.005619  -0.027820
   33  F  3  S   -0.000885  -0.060780  -0.540254  -0.164115   0.105605
   34  F  3  X    0.044787   0.035693  -0.055391  -0.120247  -0.115613
   35  F  3  Y   -0.060237   0.013955   0.217663   0.008956   0.055889
   36  F  3  Z   -0.025307   0.059607  -0.091593   0.012515   0.042656
   37  F  3  X    0.034878   0.038481  -0.089565  -0.212334  -0.137996
   38  F  3  Y   -0.078926   0.047381   0.246922   0.031926  -0.032510
   39  F  3  Z   -0.025559   0.090155  -0.110108   0.042588   0.104839
   40  F  3 XX    0.001932  -0.003883  -0.004515   0.000026  -0.008177
   41  F  3 YY   -0.003418   0.002536   0.002862   0.000070   0.009521
   42  F  3 ZZ    0.001486   0.001347   0.001653  -0.000096  -0.001344
   43  F  3 XY    0.001213   0.001309  -0.003200  -0.008090  -0.008224
   44  F  3 XZ    0.002682  -0.003590   0.002198   0.007405   0.007481
   45  F  3 YZ    0.000932   0.005025  -0.003439   0.006800  -0.004591
   46  H  4  S    0.087450  -0.030547  -0.089822   0.097252   0.213940
   47  H  4  S    1.409099  -1.172238   0.218882   0.540149  -0.090177
   48  H  4  X   -0.012303   0.007018  -0.004650   0.013614   0.006074
   49  H  4  Y   -0.012635   0.014036   0.011623  -0.006015   0.001276
   50  H  4  Z   -0.006710  -0.003660  -0.014026  -0.020296  -0.023006
   51  H  5  S    0.031800   0.056421   0.093979   0.092797   0.264956
   52  H  5  S    0.361181   1.412942  -0.400040   0.483675   0.166200
   53  H  5  X   -0.000996   0.001257  -0.013252   0.016045   0.024817
   54  H  5  Y    0.004878  -0.000029   0.017807   0.008499   0.014605
   55  H  5  Z    0.005019   0.016019  -0.002924   0.009038  -0.007759
   56  F  6  S    0.002250   0.003794  -0.058475  -0.007388   0.002830
   57  F  6  S   -0.007403  -0.002720   0.102212  -0.005541  -0.027699
   58  F  6  S    0.000558  -0.056504   0.542022   0.165371   0.103184
   59  F  6  X    0.048578  -0.035459  -0.068587  -0.120694   0.118358
   60  F  6  Y    0.056457   0.012310  -0.217082  -0.001247   0.046906
   61  F  6  Z   -0.027251  -0.061051  -0.083767   0.012544  -0.044064
   62  F  6  X    0.039924  -0.036472  -0.104513  -0.214062   0.136151
   63  F  6  Y    0.075697   0.044685  -0.245227  -0.017651  -0.044181
   64  F  6  Z   -0.028131  -0.092829  -0.101226   0.043194  -0.103035
   65  F  6 XX   -0.001775  -0.003976   0.004174  -0.000896  -0.007296
   66  F  6 YY    0.003321   0.002356  -0.002698   0.001226   0.008819
   67  F  6 ZZ   -0.001546   0.001620  -0.001476  -0.000329  -0.001523
   68  F  6 XY    0.001491  -0.001016  -0.003769  -0.008272   0.009599
   69  F  6 XZ   -0.002673  -0.003892  -0.002250  -0.006700   0.007448
   70  F  6 YZ    0.000909  -0.004852  -0.003209   0.007214   0.003717
   71  H  7  S   -0.087261  -0.029844   0.089736  -0.098133   0.215398
   72  H  7  S   -1.406536  -1.176634  -0.208325  -0.537794  -0.091180
   73  H  7  X   -0.011460  -0.006172  -0.005323   0.013920  -0.005894
   74  H  7  Y    0.013114   0.014488  -0.011933   0.004396   0.002474
   75  H  7  Z   -0.007179   0.002992  -0.013667  -0.020474   0.022926
   76  H  8  S   -0.031899   0.055400  -0.094039  -0.092826   0.264259
   77  H  8  S   -0.362572   1.415186   0.387237  -0.485510   0.167286
   78  H  8  X   -0.001289  -0.001379  -0.014328   0.015517  -0.023861
   79  H  8  Y   -0.004618  -0.000695  -0.017091  -0.009194   0.016446
   80  H  8  Z    0.005202  -0.016013  -0.002167   0.009383   0.007212

                     26         27
                    0.3918     0.3957
                     A          A   
    1  C  1  S   -0.031673  -0.035561
    2  C  1  S    0.271796   0.229233
    3  C  1  S   -0.096484  -0.022244
    4  C  1  X    0.184352   0.230028
    5  C  1  Y    0.447041   0.451974
    6  C  1  Z    0.348331   0.070267
    7  C  1  X   -0.238855  -0.308922
    8  C  1  Y   -0.587331  -0.427847
    9  C  1  Z   -0.810933  -0.389520
   10  C  1 XX    0.014155   0.040202
   11  C  1 YY   -0.026102   0.009938
   12  C  1 ZZ    0.011947  -0.050140
   13  C  1 XY   -0.046283  -0.032086
   14  C  1 XZ   -0.019568   0.017594
   15  C  1 YZ    0.009664  -0.037142
   16  C  2  S   -0.032200   0.034946
   17  C  2  S    0.275242  -0.224656
   18  C  2  S   -0.097326   0.021629
   19  C  2  X   -0.159256   0.198707
   20  C  2  Y    0.452203  -0.455638
   21  C  2  Z   -0.365175   0.080970
   22  C  2  X    0.206104  -0.279898
   23  C  2  Y   -0.580044   0.422968
   24  C  2  Z    0.837387  -0.392315
   25  C  2 XX    0.019574  -0.043241
   26  C  2 YY   -0.031127  -0.009270
   27  C  2 ZZ    0.011553   0.052511
   28  C  2 XY    0.042727  -0.029827
   29  C  2 XZ   -0.021256  -0.019042
   30  C  2 YZ   -0.006336  -0.033529
   31  F  3  S   -0.009443  -0.007956
   32  F  3  S   -0.033764   0.065948
   33  F  3  S    0.395126  -0.220383
   34  F  3  X   -0.073798   0.091736
   35  F  3  Y    0.210939  -0.133578
   36  F  3  Z   -0.084552   0.153869
   37  F  3  X    0.069189   0.030228
   38  F  3  Y   -0.054452  -0.008986
   39  F  3  Z   -0.055907   0.038074
   40  F  3 XX   -0.010803   0.003269
   41  F  3 YY    0.029116  -0.017948
   42  F  3 ZZ   -0.018312   0.014679
   43  F  3 XY   -0.031870   0.017004
   44  F  3 XZ    0.003443  -0.014502
   45  F  3 YZ   -0.014856   0.019625
   46  H  4  S   -0.108905  -0.253896
   47  H  4  S   -0.007549   0.088865
   48  H  4  X    0.003748   0.032535
   49  H  4  Y    0.001514   0.005778
   50  H  4  Z   -0.001322  -0.013541
   51  H  5  S   -0.093009   0.508075
   52  H  5  S   -0.183338  -0.124378
   53  H  5  X   -0.029099  -0.014131
   54  H  5  Y   -0.003601  -0.023485
   55  H  5  Z    0.023560   0.016150
   56  F  6  S   -0.009529   0.007853
   57  F  6  S   -0.032886  -0.066564
   58  F  6  S    0.391715   0.226230
   59  F  6  X    0.085424   0.100961
   60  F  6  Y    0.206936   0.136427
   61  F  6  Z    0.075209   0.150908
   62  F  6  X   -0.072620   0.029810
   63  F  6  Y   -0.047986   0.008073
   64  F  6  Z    0.056942   0.038594
   65  F  6 XX   -0.007223  -0.001511
   66  F  6 YY    0.026128   0.017563
   67  F  6 ZZ   -0.018906  -0.016052
   68  F  6 XY    0.034362   0.019456
   69  F  6 XZ    0.002935   0.015113
   70  F  6 YZ    0.012580   0.017662
   71  H  7  S   -0.112470   0.250817
   72  H  7  S   -0.005346  -0.088586
   73  H  7  X   -0.004164   0.032024
   74  H  7  Y    0.001980  -0.008209
   75  H  7  Z    0.001513  -0.013279
   76  H  8  S   -0.084546  -0.509988
   77  H  8  S   -0.186222   0.121591
   78  H  8  X    0.029006  -0.012140
   79  H  8  Y   -0.006599   0.024767
   80  H  8  Z   -0.023667   0.014960

     ---------------------------------------------------------------------
     PROPERTIES FOR THE PBE      DFT FUNCTIONAL (RHF  TYPE) DENSITY MATRIX
     ---------------------------------------------------------------------

          -----------------
          ENERGY COMPONENTS
          -----------------

         WAVEFUNCTION NORMALIZATION =       1.0000000000

                ONE ELECTRON ENERGY =    -637.3227445994
                TWO ELECTRON ENERGY =     231.6330864842
           NUCLEAR REPULSION ENERGY =     127.7540509577
                                      ------------------
                       TOTAL ENERGY =    -277.9356071575

 ELECTRON-ELECTRON POTENTIAL ENERGY =     231.6330864842
  NUCLEUS-ELECTRON POTENTIAL ENERGY =    -914.3960398463
   NUCLEUS-NUCLEUS POTENTIAL ENERGY =     127.7540509577
                                      ------------------
             TOTAL POTENTIAL ENERGY =    -555.0089024043
               TOTAL KINETIC ENERGY =     277.0732952469
                 VIRIAL RATIO (V/T) =       2.0031122159

          ---------------------------------------
          MULLIKEN AND LOWDIN POPULATION ANALYSES
          ---------------------------------------

     ATOMIC MULLIKEN POPULATION IN EACH MOLECULAR ORBITAL

                      1          2          3          4          5

                  2.000000   2.000000   2.000000   2.000000   2.000000

    1             0.001230  -0.000065   1.488099   0.511707   0.119490
    2            -0.000072   0.001236   0.511309   1.488498   0.115747
    3             0.002660   1.996197  -0.000138  -0.000377   0.855901
    4             0.000002  -0.000001   0.000193   0.000131   0.002656
    5            -0.000004  -0.000018   0.000221   0.000164   0.004425
    6             1.996202   0.002654  -0.000393  -0.000124   0.894499
    7             0.000001   0.000001   0.000329  -0.000004   0.002748
    8            -0.000019  -0.000003   0.000380   0.000005   0.004534

                      6          7          8          9         10

                  2.000000   2.000000   2.000000   2.000000   2.000000

    1             0.082406   0.711385   0.468624   0.363401   0.494201
    2             0.085936   0.711568   0.468780   0.365186   0.488562
    3             0.931380   0.147870   0.280374   0.485223   0.295048
    4             0.002033   0.072503   0.120235   0.137007   0.049224
    5             0.001985   0.067901   0.130605   0.006375   0.167812
    6             0.892462   0.148268   0.280832   0.503015   0.282324
    7             0.001939   0.072598   0.120009   0.130981   0.056393
    8             0.001859   0.067907   0.130540   0.008812   0.166436

                     11         12         13         14         15

                  2.000000   2.000000   2.000000   2.000000   2.000000

    1             0.462487   0.292067   0.316084   0.050100   0.098873
    2             0.462877   0.293718   0.318272   0.050419   0.096528
    3             0.499510   0.522893   0.464468   0.924499   0.744646
    4             0.026237   0.180399   0.030946   0.003525   0.094949
    5             0.010477   0.006218   0.188805   0.021492   0.054590
    6             0.502337   0.518874   0.463056   0.924644   0.756455
    7             0.025734   0.179424   0.030890   0.003558   0.097157
    8             0.010342   0.006407   0.187479   0.021763   0.056802

                     16         17

                  2.000000   2.000000

    1             0.152758   0.262190
    2             0.154506   0.262432
    3             0.570873   0.599272
    4             0.159252   0.027279
    5             0.123759   0.113206
    6             0.559356   0.595464
    7             0.157422   0.027465
    8             0.122076   0.112691

               ----- POPULATIONS IN EACH AO -----
                             MULLIKEN      LOWDIN
              1  C  1  S      1.99337     1.97158
              2  C  1  S      0.75888     0.38480
              3  C  1  S      0.36616     0.27957
              4  C  1  X      0.70953     0.64966
              5  C  1  Y      0.60149     0.54657
              6  C  1  Z      0.75614     0.67975
              7  C  1  X      0.19030     0.29431
              8  C  1  Y      0.14783     0.26454
              9  C  1  Z      0.28650     0.37903
             10  C  1 XX      0.01384     0.16099
             11  C  1 YY      0.01662     0.16445
             12  C  1 ZZ      0.01652     0.16080
             13  C  1 XY      0.00726     0.03300
             14  C  1 XZ      0.01060     0.01370
             15  C  1 YZ      0.00000     0.02193
             16  C  2  S      1.99338     1.97158
             17  C  2  S      0.75892     0.38488
             18  C  2  S      0.36647     0.27961
             19  C  2  X      0.72090     0.65896
             20  C  2  Y      0.59401     0.54045
             21  C  2  Z      0.75203     0.67639
             22  C  2  X      0.19874     0.30245
             23  C  2  Y      0.14249     0.25977
             24  C  2  Z      0.28382     0.37584
             25  C  2 XX      0.01418     0.15992
             26  C  2 YY      0.01622     0.16479
             27  C  2 ZZ      0.01661     0.16140
             28  C  2 XY      0.00691     0.03394
             29  C  2 XZ      0.01083     0.01299
             30  C  2 YZ      0.00000     0.02182
             31  F  3  S      1.99544     1.97164
             32  F  3  S      0.94987     0.75222
             33  F  3  S      0.99769     0.52447
             34  F  3  X      1.17905     1.14610
             35  F  3  Y      1.01705     0.97018
             36  F  3  Z      1.21597     1.18563
             37  F  3  X      0.67626     0.70122
             38  F  3  Y      0.58139     0.62392
             39  F  3  Z      0.69701     0.72473
             40  F  3 XX      0.00146     0.19031
             41  F  3 YY      0.00284     0.19541
             42  F  3 ZZ      0.00326     0.18908
             43  F  3 XY      0.00067     0.00437
             44  F  3 XZ      0.00234     0.00098
             45  F  3 YZ      0.00000     0.00347
             46  H  4  S      0.77110     0.64760
             47  H  4  S      0.11868     0.21724
             48  H  4  X      0.00518     0.01164
             49  H  4  Y      0.00740     0.01601
             50  H  4  Z      0.00421     0.00965
             51  H  5  S      0.77050     0.65431
             52  H  5  S      0.11086     0.21708
             53  H  5  X      0.00285     0.00821
             54  H  5  Y      0.00222     0.00576
             55  H  5  Z      0.01158     0.02427
             56  F  6  S      1.99544     1.97164
             57  F  6  S      0.94989     0.75218
             58  F  6  S      0.99755     0.52433
             59  F  6  X      1.16527     1.13129
             60  F  6  Y      1.02674     0.98049
             61  F  6  Z      1.22021     1.19013
             62  F  6  X      0.66810     0.69414
             63  F  6  Y      0.58663     0.62875
             64  F  6  Z      0.69952     0.72671
             65  F  6 XX      0.00146     0.19072
             66  F  6 YY      0.00274     0.19500
             67  F  6 ZZ      0.00348     0.18890
             68  F  6 XY      0.00076     0.00453
             69  F  6 XZ      0.00215     0.00111
             70  F  6 YZ      0.00000     0.00324
             71  H  7  S      0.77114     0.64775
             72  H  7  S      0.11872     0.21724
             73  H  7  X      0.00468     0.01074
             74  H  7  Y      0.00770     0.01655
             75  H  7  Z      0.00440     0.01003
             76  H  8  S      0.77051     0.65422
             77  H  8  S      0.11085     0.21710
             78  H  8  X      0.00277     0.00807
             79  H  8  Y      0.00232     0.00597
             80  H  8  Z      0.01157     0.02421

          ----- MULLIKEN ATOMIC OVERLAP POPULATIONS -----
          (OFF-DIAGONAL ELEMENTS NEED TO BE MULTIPLIED BY 2)

             1           2           3           4           5

    1    4.6159015
    2    0.3782972   4.6167753
    3   -0.0432538   0.2515664   9.1661669
    4   -0.0354312   0.3652375  -0.0280523   0.6394437
    5   -0.0369018   0.3793797  -0.0324640  -0.0379202   0.6205369
    6    0.2517416  -0.0433064   0.0012786   0.0037632   0.0013074
    7    0.3653118  -0.0354508   0.0037566   0.0082013  -0.0087176
    8    0.3793729  -0.0369976   0.0013014  -0.0086728   0.0127923

             6           7           8

    6    9.1656563
    7   -0.0280808   0.6396006
    8   -0.0324351  -0.0379756   0.6206229

          TOTAL MULLIKEN AND LOWDIN ATOMIC POPULATIONS
       ATOM         MULL.POP.    CHARGE          LOW.POP.     CHARGE
    1 C             5.875038    0.124962         6.004686   -0.004686
    2 C             5.875501    0.124499         6.004788   -0.004788
    3 F             9.320300   -0.320300         9.183706   -0.183706
    4 H             0.906569    0.093431         0.902144    0.097856
    5 H             0.898013    0.101987         0.909633    0.090367
    6 F             9.319925   -0.319925         9.183163   -0.183163
    7 H             0.906646    0.093354         0.902314    0.097686
    8 H             0.898008    0.101992         0.909567    0.090433

          MULLIKEN SPHERICAL HARMONIC POPULATIONS
       ATOM           S       P       D      F      G      H      I    TOTAL
    1 C             3.12    2.69    0.06   0.00   0.00   0.00   0.00    5.88
    2 C             3.12    2.69    0.06   0.00   0.00   0.00   0.00    5.88
    3 F             3.94    5.37    0.01   0.00   0.00   0.00   0.00    9.32
    4 H             0.89    0.02    0.00   0.00   0.00   0.00   0.00    0.91
    5 H             0.88    0.02    0.00   0.00   0.00   0.00   0.00    0.90
    6 F             3.94    5.37    0.01   0.00   0.00   0.00   0.00    9.32
    7 H             0.89    0.02    0.00   0.00   0.00   0.00   0.00    0.91
    8 H             0.88    0.02    0.00   0.00   0.00   0.00   0.00    0.90

          -------------------------------
          BOND ORDER AND VALENCE ANALYSIS     BOND ORDER THRESHOLD=0.050
          -------------------------------

                   BOND                       BOND                       BOND
  ATOM PAIR DIST  ORDER      ATOM PAIR DIST  ORDER      ATOM PAIR DIST  ORDER
    1   2  1.513  1.045        1   6  1.395  0.931        1   7  1.109  0.935
    1   8  1.108  0.937        2   3  1.395  0.931        2   4  1.109  0.935
    2   5  1.108  0.937

                       TOTAL       BONDED        FREE
      ATOM            VALENCE     VALENCE     VALENCE
    1 C                 3.862       3.862       0.000
    2 C                 3.862       3.862       0.000
    3 F                 0.987       0.987      -0.000
    4 H                 0.951       0.951       0.000
    5 H                 0.956       0.956      -0.000
    6 F                 0.987       0.987       0.000
    7 H                 0.951       0.951       0.000
    8 H                 0.956       0.956       0.000

          ---------------------
          ELECTROSTATIC MOMENTS
          ---------------------

 POINT   1           X           Y           Z (BOHR)    CHARGE
                 0.000000   -0.000000   -0.000000        0.00 (A.U.)
         DX          DY          DZ         /D/  (DEBYE)
    -0.088918   -2.930836    0.050303    2.932616
 ...... END OF PROPERTY EVALUATION ......
 STEP CPU TIME =     0.02 TOTAL CPU TIME =         92.4 (      1.5 MIN)
 TOTAL WALL CLOCK TIME=         92.8 SECONDS, CPU UTILIZATION IS    99.50%
  $VIB   
          IVIB=   0 IATOM=   0 ICOORD=   0 E=     -277.9356071575
  2.022315284E-05 2.118279513E-05-1.088315122E-05 2.363329093E-05-2.383550544E-05
 -7.612655909E-06-1.187031132E-05 1.012471860E-05 1.068292218E-05 9.540353888E-06
  2.083105116E-08-2.109359596E-06-8.828426575E-06 1.198077512E-05-5.325845124E-06
  3.321126747E-06 1.936552389E-05 1.411908461E-05-1.795781800E-05-1.727620945E-05
 -4.612707325E-07-1.806136851E-05-2.156292891E-05 1.590275789E-06
 -8.891766307E-02-2.930836304E+00 5.030318386E-02
 ......END OF GEOMETRY SEARCH......
 STEP CPU TIME =     0.00 TOTAL CPU TIME =         92.4 (      1.5 MIN)
 TOTAL WALL CLOCK TIME=         92.8 SECONDS, CPU UTILIZATION IS    99.49%
                991181  WORDS OF DYNAMIC MEMORY USED
 EXECUTION OF GAMESS TERMINATED NORMALLY Sun Oct  6 23:28:36 2019
 DDI: 263640 bytes (0.3 MB / 0 MWords) used by master data server.

 ----------------------------------------
 CPU timing information for all processes
 ========================================
 0: 90.713 + 1.675 = 92.388
 ----------------------------------------
 ddikick.x: exited gracefully.
----- accounting info -----
Files used on the master node d12chas543.crc.nd.edu were:
-rw-r--r-- 1 wschnei1 campus 378327 Oct  6 23:28 /scratch365/wschnei1/50-PC1.F07
Sun Oct  6 23:28:39 EDT 2019
0.431u 0.351s 1:36.56 0.8%	0+0k 0+32io 0pf+0w
