----- GAMESS execution script 'rungms' -----
This job is running on host d12chas543.crc.nd.edu
under operating system Linux at Sun Oct 6 23:28:40 EDT 2019
SGE has assigned the following compute nodes to this run:
Available scratch disk space (Kbyte units) at beginning of the job is
Filesystem      1K-blocks     Used  Available Use% Mounted on
/dev/sda2      1949705068 64219100 1885485968   4% /
GAMESS temporary binary files will be written to /tmp/474112.1.debug
GAMESS supplementary output files will be written to /afs/crc.nd.edu/user/w/wschnei1/scr
Copying input file 60-PC1.inp to your run's scratch directory...
reading your own /afs/crc.nd.edu/user/w/wschnei1/.gmsrc

 Distributed Data Interface kickoff program.
 Initiating 1 compute processes on 1 nodes to run the following command:
 /afs/crc.nd.edu/x86_64_linux/g/gamess/nov-2017/gamess/gamess.00.x 60-PC1 

          ******************************************************
          *         GAMESS VERSION = 11 NOV 2017 (R3)         *
          *             FROM IOWA STATE UNIVERSITY             *
          * M.W.SCHMIDT, K.K.BALDRIDGE, J.A.BOATZ, S.T.ELBERT, *
          *   M.S.GORDON, J.H.JENSEN, S.KOSEKI, N.MATSUNAGA,   *
          *          K.A.NGUYEN, S.J.SU, T.L.WINDUS,           *
          *       TOGETHER WITH M.DUPUIS, J.A.MONTGOMERY       *
          *         J.COMPUT.CHEM.  14, 1347-1363(1993)        *
          **************** 64 BIT INTEL VERSION ****************

  SINCE 1993, STUDENTS AND POSTDOCS WORKING AT IOWA STATE UNIVERSITY
  AND ALSO IN THEIR VARIOUS JOBS AFTER LEAVING ISU HAVE MADE IMPORTANT
  CONTRIBUTIONS TO THE CODE:
     IVANA ADAMOVIC, CHRISTINE AIKENS, YURI ALEXEEV, POOJA ARORA,
     ANDREY ASADCHEV, ROB BELL, PRADIPTA BANDYOPADHYAY, JONATHAN BENTZ,
     BRETT BODE, KURT BRORSEN, CALEB CARLIN, GALINA CHABAN, WEI CHEN,
     CHEOL HO CHOI, PAUL DAY, ALBERT DEFUSCO, NUWAN DESILVA, TIM DUDLEY,
     DMITRI FEDOROV, ALEX FINDLATER, GRAHAM FLETCHER, MARK FREITAG,
     KURT GLAESEMANN, ANASTASIA GUININA,
     DAN KEMP, GRANT MERRILL, NORIYUKI MINEZAWA, JONATHAN MULLIN,
     TAKESHI NAGATA, SEAN NEDD, HEATHER NETZLOFF, BOSILJKA NJEGIC, RYAN OLSON,
     MIKE PAK, BUU PHAM,
     SPENCER PRUITT, LUKE ROSKOP, JIM SHOEMAKER, LYUDMILA SLIPCHENKO,
     TONY SMITH, SAROM SOK LEANG, JIE SONG, TETSUYA TAKETSUGU, SIMON WEBB,
     PENG XU, SOOHAENG YOO, FEDERICO ZAHARIEV

  ADDITIONAL CODE HAS BEEN PROVIDED BY COLLABORATORS IN OTHER GROUPS:
     IOWA STATE UNIVERSITY:
          JOE IVANIC, AARON WEST, LAIMUTIS BYTAUTAS, KLAUS RUEDENBERG
     UNIVERSITY OF TOKYO: KIMIHIKO HIRAO, TAKAHITO NAKAJIMA,
          TAKAO TSUNEDA, MUNEAKI KAMIYA, SUSUMU YANAGISAWA,
          KIYOSHI YAGI, MAHITO CHIBA, SEIKEN TOKURA, NAOAKI KAWAKAMI
     UNIVERSITY OF AARHUS: FRANK JENSEN
     UNIVERSITY OF IOWA: VISVALDAS KAIRYS, HUI LI
     NATIONAL INST. OF STANDARDS AND TECHNOLOGY: WALT STEVENS, DAVID GARMER
     UNIVERSITY OF PISA: BENEDETTA MENNUCCI, JACOPO TOMASI
     UNIVERSITY OF MEMPHIS: HENRY KURTZ, PRAKASHAN KORAMBATH
     UNIVERSITY OF ALBERTA: TOBY ZENG, MARIUSZ KLOBUKOWSKI
     UNIVERSITY OF NEW ENGLAND: MARK SPACKMAN
     MIE UNIVERSITY: HIROAKI UMEDA
     NAT. INST. OF ADVANCED INDUSTRIAL SCIENCE AND TECHNOLOGY: KAZUO KITAURA
     MICHIGAN STATE UNIVERSITY:
          KAROL KOWALSKI, MARTA WLOCH, JEFFREY GOUR, JESSE LUTZ,
          WEI LI, PIOTR PIECUCH
     UNIVERSITY OF SILESIA: MONIKA MUSIAL, STANISLAW KUCHARSKI
     FACULTES UNIVERSITAIRES NOTRE-DAME DE LA PAIX:
          OLIVIER QUINET, BENOIT CHAMPAGNE
     UNIVERSITY OF CALIFORNIA - SANTA BARBARA: BERNARD KIRTMAN
     INSTITUTE FOR MOLECULAR SCIENCE:
          KAZUYA ISHIMURA, MICHIO KATOUDA, AND SHIGERU NAGASE
     UNIVERSITY OF NOTRE DAME: ANNA POMOGAEVA, DAN CHIPMAN
     KYUSHU UNIVERSITY:
          HARUYUKI NAKANO,
          FENG LONG GU, JACEK KORCHOWIEC, MARCIN MAKOWSKI, AND YURIKO AOKI,
          HIROTOSHI MORI AND EISAKU MIYOSHI
     PENNSYLVANIA STATE UNIVERSITY:
          TZVETELIN IORDANOV, CHET SWALINA, JONATHAN SKONE,
          SHARON HAMMES-SCHIFFER
     WASEDA UNIVERSITY:
          MASATO KOBAYASHI, TOMOKO AKAMA, TSUGUKI TOUMA,
          TAKESHI YOSHIKAWA, YASUHIRO IKABATA, JUNJI SEINO,
          YUYA NAKAJIMA, HIROMI NAKAI
     NANJING UNIVERSITY: SHUHUA LI
     UNIVERSITY OF NEBRASKA:
          PEIFENG SU, DEJUN SI, NANDUN THELLAMUREGE, YALI WANG, HUI LI
     UNIVERSITY OF ZURICH: ROBERTO PEVERATI, KIM BALDRIDGE
     N. COPERNICUS UNIVERSITY AND JACKSON STATE UNIVERSITY:
          MARIA BARYSZ
     UNIVERSITY OF COPENHAGEN: Jimmy Kromann, CASPER STEINMANN
     TOKYO INSTITUTE OF TECHNOLOGY: HIROYA NAKATA
     NAGOYA UNIVERSITY: YOSHIO NISHIMOTO, STEPHAN IRLE
     MOSCOW STATE UNIVERSITY: VLADIMIR MIRONOV

 EXECUTION OF GAMESS BEGUN Sun Oct  6 23:28:40 2019

            ECHO OF THE FIRST FEW INPUT CARDS -
 INPUT CARD> $CONTRL SCFTYP=RHF DFTTYP=PBE RUNTYP=OPTIMIZE COORD=ZMT NZVAR=18 ISPHER=1 $END 
 INPUT CARD> $BASIS GBASIS=PCseg-1 $END                                                     
 INPUT CARD> $STATPT IFREEZ(1)=12 $END                                                      
 INPUT CARD> $DATA                                                                          
 INPUT CARD>FCH2CH2F eclipsed TS                                                            
 INPUT CARD>C1                                                                              
 INPUT CARD>C                                                                               
 INPUT CARD>C   1   r1                                                                      
 INPUT CARD>F   2   r2   1   A1                                                             
 INPUT CARD>H   2   r3   1   A2   3   D1                                                    
 INPUT CARD>H   2   r4   1   A3   3   D2                                                    
 INPUT CARD>F   1   r5   2   A4   3   D3                                                    
 INPUT CARD>H   1   r6   2   A5   6   D4                                                    
 INPUT CARD>H   1   r7   2   A6   6   D5                                                    
 INPUT CARD>                                                                                
 INPUT CARD>r1=1.5                                                                          
 INPUT CARD>r2=1.4                                                                          
 INPUT CARD>r3=1.1                                                                          
 INPUT CARD>r4=1.1                                                                          
 INPUT CARD>r5=1.5                                                                          
 INPUT CARD>r6=1.1                                                                          
 INPUT CARD>r7=1.1                                                                          
 INPUT CARD>A1=109.54214                                                                    
 INPUT CARD>A2=109.54214                                                                    
 INPUT CARD>A3=109.54214                                                                    
 INPUT CARD>A4=109.54214                                                                    
 INPUT CARD>A5=109.54214                                                                    
 INPUT CARD>A6=109.54214                                                                    
 INPUT CARD>D1=120.                                                                         
 INPUT CARD>D2=-120.                                                                        
 INPUT CARD>D3=60                                                                           
 INPUT CARD>D4=120.                                                                         
 INPUT CARD>D5=-120.                                                                        
 INPUT CARD> $END                                                                           
 INPUT CARD>                                                                                
    1000000 WORDS OF MEMORY AVAILABLE

     BASIS OPTIONS
     -------------
     GBASIS=PCSEG-1      IGAUSS=       0      POLAR=NONE    
     NDFUNC=       0     NFFUNC=       0     DIFFSP=       F
     NPFUNC=       0      DIFFS=       F     BASNAM=        


     RUN TITLE
     ---------
 FCH2CH2F eclipsed TS                                                            

 THE POINT GROUP OF THE MOLECULE IS C1      
 THE ORDER OF THE PRINCIPAL AXIS IS     0

 YOUR FULLY SUBSTITUTED Z-MATRIX IS
 C   
 C      1   1.5000000
 F      2   1.4000000  1  109.5421
 H      2   1.1000000  1  109.5421  3  120.0000  0
 H      2   1.1000000  1  109.5421  3 -120.0000  0
 F      1   1.5000000  2  109.5421  3   60.0000  0
 H      1   1.1000000  2  109.5421  6  120.0000  0
 H      1   1.1000000  2  109.5421  6 -120.0000  0

 THE MOMENTS OF INERTIA ARE (AMU-ANGSTROM**2)
 IXX=    33.342   IYY=    97.054   IZZ=   116.896

 ATOM      ATOMIC                      COORDINATES (BOHR)
           CHARGE         X                   Y                   Z
 C           6.0    -1.2155151258       -1.3016184334        0.5585666376
 C           6.0     1.3734742450       -1.1642046444       -0.5873592687
 F           9.0     2.5957185161        1.0284404761        0.2479325139
 H           1.0     2.4766355627       -2.8303836340       -0.0147594997
 H           1.0     1.2152157883       -1.1196954229       -2.6595467611
 F           9.0    -2.7198260136        0.9704438251       -0.2222512293
 H           1.0    -2.1758499103       -3.0244110281       -0.0977340487
 H           1.0    -1.0572566691       -1.3461276549        2.6307541300

          INTERNUCLEAR DISTANCES (ANGS.)
          ------------------------------

                1 C          2 C          3 F          4 H          5 H     

   1 C       0.0000000    1.5000000 *  2.3695781 *  2.1363170 *  2.1363170 *
   2 C       1.5000000 *  0.0000000    1.4000000 *  1.1000000 *  1.1000000 *
   3 F       2.3695781 *  1.4000000 *  0.0000000    2.0476979 *  2.0476979 *
   4 H       2.1363170 *  1.1000000 *  2.0476979 *  0.0000000    1.7955050 *
   5 H       2.1363170 *  1.1000000 *  2.0476979 *  1.7955050 *  0.0000000  
   6 F       1.5000000 *  2.4505612 *  2.8240148 *  3.4086802    2.6875560 *
   7 H       1.1000000 *  2.1363170 *  3.3179437    2.4645207 *  2.4645207 *
   8 H       1.1000000 *  2.1363170 *  2.6278667 *  2.4645207 *  3.0492131  

                6 F          7 H          8 H     

   1 C       1.5000000 *  1.1000000 *  1.1000000 *
   2 C       2.4505612 *  2.1363170 *  2.1363170 *
   3 F       2.8240148 *  3.3179437    2.6278667 *
   4 H       3.4086802    2.4645207 *  2.4645207 *
   5 H       2.6875560 *  2.4645207 *  3.0492131  
   6 F       0.0000000    2.1345124 *  2.1345124 *
   7 H       2.1345124 *  0.0000000    1.7955050 *
   8 H       2.1345124 *  1.7955050 *  0.0000000  

  * ... LESS THAN  3.000


     ATOMIC BASIS SET
     ----------------
 THE CONTRACTED PRIMITIVE FUNCTIONS HAVE BEEN UNNORMALIZED
 THE CONTRACTED BASIS FUNCTIONS ARE NOW NORMALIZED TO UNITY

  SHELL TYPE  PRIMITIVE        EXPONENT          CONTRACTION COEFFICIENT(S)

 C         

      1   S       1          1243.2000000    0.005630097702
      1   S       2           187.1450000    0.041950603854
      1   S       3            42.5126000    0.184664360492
      1   S       4            11.7393000    0.466557421368
      1   S       5             3.5054800    0.448234778316

      2   S       6             5.3908900   -0.148114817444
      2   S       7             0.4933410    1.051981714281

      3   S       8             0.1497410    1.000000000000

      4   P       9             9.1805600    0.063992052045
      4   P      10             1.9365800    0.333521296407
      4   P      11             0.5262960    0.741161730513

      5   P      12             0.1363190    1.000000000000

      6   D      13             0.8000000    1.000000000000

 C         

      7   S      14          1243.2000000    0.005630097702
      7   S      15           187.1450000    0.041950603854
      7   S      16            42.5126000    0.184664360492
      7   S      17            11.7393000    0.466557421368
      7   S      18             3.5054800    0.448234778316

      8   S      19             5.3908900   -0.148114817444
      8   S      20             0.4933410    1.051981714281

      9   S      21             0.1497410    1.000000000000

     10   P      22             9.1805600    0.063992052045
     10   P      23             1.9365800    0.333521296407
     10   P      24             0.5262960    0.741161730513

     11   P      25             0.1363190    1.000000000000

     12   D      26             0.8000000    1.000000000000

 F         

     13   S      27          2931.5500000    0.005390132259
     13   S      28           441.1250000    0.040296704072
     13   S      29           100.2320000    0.180202178717
     13   S      30            27.8655000    0.465064284210
     13   S      31             8.4447000    0.452433138251

     14   S      32            13.6123000   -0.151660908297
     14   S      33             1.2612200    1.053515343452

     15   S      34             0.3708000    1.000000000000

     16   P      35            21.9305000    0.070356827475
     16   P      36             4.7855200    0.356742371235
     16   P      37             1.2837800    0.719732016372

     17   P      38             0.3115580    1.000000000000

     18   D      39             1.1000000    1.000000000000

 H         

     19   S      40            12.2518000    0.037217389296
     19   S      41             1.8687100    0.253808206955
     19   S      42             0.4182080    0.797386763917

     20   S      43             0.1061000    1.000000000000

     21   P      44             1.0000000    1.000000000000

 H         

     22   S      45            12.2518000    0.037217389296
     22   S      46             1.8687100    0.253808206955
     22   S      47             0.4182080    0.797386763917

     23   S      48             0.1061000    1.000000000000

     24   P      49             1.0000000    1.000000000000

 F         

     25   S      50          2931.5500000    0.005390132259
     25   S      51           441.1250000    0.040296704072
     25   S      52           100.2320000    0.180202178717
     25   S      53            27.8655000    0.465064284210
     25   S      54             8.4447000    0.452433138251

     26   S      55            13.6123000   -0.151660908297
     26   S      56             1.2612200    1.053515343452

     27   S      57             0.3708000    1.000000000000

     28   P      58            21.9305000    0.070356827475
     28   P      59             4.7855200    0.356742371235
     28   P      60             1.2837800    0.719732016372

     29   P      61             0.3115580    1.000000000000

     30   D      62             1.1000000    1.000000000000

 H         

     31   S      63            12.2518000    0.037217389296
     31   S      64             1.8687100    0.253808206955
     31   S      65             0.4182080    0.797386763917

     32   S      66             0.1061000    1.000000000000

     33   P      67             1.0000000    1.000000000000

 H         

     34   S      68            12.2518000    0.037217389296
     34   S      69             1.8687100    0.253808206955
     34   S      70             0.4182080    0.797386763917

     35   S      71             0.1061000    1.000000000000

     36   P      72             1.0000000    1.000000000000

 TOTAL NUMBER OF BASIS SET SHELLS             =   36
 NUMBER OF CARTESIAN GAUSSIAN BASIS FUNCTIONS =   80
 NOTE: THIS RUN WILL RESTRICT THE MO VARIATION SPACE TO SPHERICAL HARMONICS.
 THE NUMBER OF ORBITALS KEPT IN THE VARIATIONAL SPACE WILL BE PRINTED LATER.
 NUMBER OF ELECTRONS                          =   34
 CHARGE OF MOLECULE                           =    0
 SPIN MULTIPLICITY                            =    1
 NUMBER OF OCCUPIED ORBITALS (ALPHA)          =   17
 NUMBER OF OCCUPIED ORBITALS (BETA )          =   17
 TOTAL NUMBER OF ATOMS                        =    8
 THE NUCLEAR REPULSION ENERGY IS      125.4890206920

     LEBEDEV GRID-BASED DFT OPTIONS
     ------------------------------
     DFTTYP=PBE     
     NRAD  =      96     NLEB  =     302
     NRAD0 =      24     NLEB0 =     110
     SWOFF =    5.00E-03 (PURE SCF -> DFT)
     SWITCH=    3.00E-04 (COARSE -> TIGHT GRID)
     THRESH=    0.00E+00 GTHRE=    1.00E+00

 GRIMME'S EMPIRICAL DISPERSION CORRECTION= F

     $CONTRL OPTIONS
     ---------------
 SCFTYP=RHF          RUNTYP=OPTIMIZE     EXETYP=RUN     
 MPLEVL=       0     CITYP =NONE         CCTYP =NONE         VBTYP =NONE    
 DFTTYP=PBE          TDDFT =NONE    
 MULT  =       1     ICHARG=       0     NZVAR =      18     COORD =ZMT     
 PP    =NONE         RELWFN=NONE         LOCAL =NONE         NUMGRD=       F
 ISPHER=       1     NOSYM =       0     MAXIT =      30     UNITS =ANGS    
 PLTORB=       F     MOLPLT=       F     AIMPAC=       F     FRIEND=        
 NPRINT=       7     IREST =       0     GEOM  =INPUT   
 NORMF =       0     NORMP =       0     ITOL  =      20     ICUT  =       9
 INTTYP=BEST         GRDTYP=BEST         QMTTOL= 1.0E-06

     $SYSTEM OPTIONS
     ---------------
  REPLICATED MEMORY=     1000000 WORDS (ON EVERY NODE).
 DISTRIBUTED MEMDDI=           0 MILLION WORDS IN AGGREGATE,
 MEMDDI DISTRIBUTED OVER   1 PROCESSORS IS           0 WORDS/PROCESSOR.
 TOTAL MEMORY REQUESTED ON EACH PROCESSOR=     1000000 WORDS.
 TIMLIM=      525600.00 MINUTES, OR     365.0 DAYS.
 PARALL= F  BALTYP=  DLB     KDIAG=    0  COREFL= F
 MXSEQ2=     300 MXSEQ3=     150  mem10=         0

          ----------------
          PROPERTIES INPUT
          ----------------

     MOMENTS            FIELD           POTENTIAL          DENSITY
 IEMOM =       1   IEFLD =       0   IEPOT =       0   IEDEN =       0
 WHERE =COMASS     WHERE =NUCLEI     WHERE =NUCLEI     WHERE =NUCLEI  
 OUTPUT=BOTH       OUTPUT=BOTH       OUTPUT=BOTH       OUTPUT=BOTH    
 IEMINT=       0   IEFINT=       0                     IEDINT=       0
                                                       MORB  =       0
          EXTRAPOLATION IN EFFECT
          DIIS IN EFFECT
 ORBITAL PRINTING OPTION: NPREO=     1    80     2     1

     -------------------------------
     INTEGRAL TRANSFORMATION OPTIONS
     -------------------------------
     NWORD  =            0
     CUTOFF = 1.0E-09     MPTRAN =       0
     DIRTRF =       F     AOINTS =DUP     

          ----------------------
          INTEGRAL INPUT OPTIONS
          ----------------------
 NOPK  =       1 NORDER=       0 SCHWRZ=       T

   --- ENCODED Z MATRIX ---
 COORD  TYPE   I   J   K   L   M   N
    1      1    2   1
    2      1    3   2
    3      2    3   2   1
    4      1    4   2
    5      2    4   2   1
    6      3    4   2   1   3
    7      1    5   2
    8      2    5   2   1
    9      3    5   2   1   3
   10      1    6   1
   11      2    6   1   2
   12      3    6   1   2   3
   13      1    7   1
   14      2    7   1   2
   15      3    7   1   2   6
   16      1    8   1
   17      2    8   1   2
   18      3    8   1   2   6

 THE DETERMINANT OF THE G MATRIX IS 10**(   -12)


                     --------------------
                     INTERNAL COORDINATES
                     --------------------

                 - - ATOMS - -         COORDINATE      COORDINATE
 NO.   TYPE    I  J  K  L  M  N        (BOHR,RAD)       (ANG,DEG)
 ----------------------------------------------------------------
   1 STRETCH   2  1                     2.8345890       1.5000000
   2 STRETCH   3  2                     2.6456164       1.4000000
   3 BEND      3  2  1                  1.9118710     109.5421400
   4 STRETCH   4  2                     2.0786986       1.1000000
   5 BEND      4  2  1                  1.9118710     109.5421400
   6 TORSION   4  2  1  3               2.0943951     120.0000000
   7 STRETCH   5  2                     2.0786986       1.1000000
   8 BEND      5  2  1                  1.9118710     109.5421400
   9 TORSION   5  2  1  3              -2.0943951    -120.0000000
  10 STRETCH   6  1                     2.8345890       1.5000000
  11 BEND      6  1  2                  1.9118710     109.5421400
  12 TORSION   6  1  2  3               1.0471976      60.0000000
  13 STRETCH   7  1                     2.0786986       1.1000000
  14 BEND      7  1  2                  1.9118710     109.5421400
  15 TORSION   7  1  2  6               2.0943951     120.0000000
  16 STRETCH   8  1                     2.0786986       1.1000000
  17 BEND      8  1  2                  1.9118710     109.5421400
  18 TORSION   8  1  2  6              -2.0943951    -120.0000000

     ------------------------------------------
     THE POINT GROUP IS C1 , NAXIS= 0, ORDER= 1
     ------------------------------------------

 -- VARIATIONAL SPACE WILL BE RESTRICTED TO PURE SPHERICAL HARMONICS ONLY --
 AFTER EXCLUDING CONTAMINANT COMBINATIONS FROM THE CARTESIAN GAUSSIAN BASIS
 SET, THE NUMBER OF SPHERICAL HARMONICS KEPT IN THE VARIATION SPACE IS   76

     DIMENSIONS OF THE SYMMETRY SUBSPACES ARE
 A   =   76

 ..... DONE SETTING UP THE RUN .....
 STEP CPU TIME =     0.02 TOTAL CPU TIME =          0.0 (      0.0 MIN)
 TOTAL WALL CLOCK TIME=          0.0 SECONDS, CPU UTILIZATION IS    66.67%


          -----------------------------
          STATIONARY POINT LOCATION RUN
          -----------------------------

 OBTAINING INITIAL HESSIAN, HESS=GUESS   
 DIAGONAL GUESS HESSIAN IN INTERNAL COORDS IS
     1  0.3892     2  0.3267     3  0.2379     4  0.3397     5  0.2253
     6  0.2500     7  0.3397     8  0.2253     9  0.2500    10  0.2690
    11  0.2315    12  0.2500    13  0.3397    14  0.2253    15  0.2500
    16  0.3397    17  0.2253    18  0.2500

          PARAMETERS CONTROLLING GEOMETRY SEARCH ARE
          METHOD =QA                  UPHESS =BFGS    
          NNEG   =         0          NFRZ   =         1
          NSTEP  =        50          IFOLOW =         1
          HESS   =GUESS               RESTAR =         F
          IHREP  =         0          HSSEND =         F
          NPRT   =         0          NPUN   =         0
          OPTTOL = 1.000E-04          RMIN   = 1.500E-03
          RMAX   = 1.000E-01          RLIM   = 7.000E-02
          DXMAX  = 3.000E-01          PURIFY =         F
          MOVIE  =         F          TRUPD  =         T
          TRMAX  = 5.000E-01          TRMIN  = 5.000E-02
          ITBMAT =         5          STPT   =         F
          STSTEP = 1.000E-02          PROJCT=          T
          FROZEN COORD(S)=  12

 BEGINNING GEOMETRY SEARCH POINT NSERCH=   0 ...

 COORDINATES OF ALL ATOMS ARE (ANGS)
   ATOM   CHARGE       X              Y              Z
 ------------------------------------------------------------
 C           6.0  -0.6432229507  -0.6887868621   0.2955807568
 C           6.0   0.7268113229  -0.6160706113  -0.3108171621
 F           9.0   1.3735951842   0.5442273022   0.1312002457
 H           1.0   1.3105791945  -1.4977746257  -0.0078103914
 H           1.0   0.6430645481  -0.5925173439  -1.4073716393
 F           9.0  -1.4392700483   0.5135367939  -0.1176102941
 H           1.0  -1.1514102703  -1.6004495084  -0.0517186351
 H           1.0  -0.5594761759  -0.7123401296   1.3921352339


                     --------------------
                     INTERNAL COORDINATES
                     --------------------

                 - - ATOMS - -         COORDINATE      COORDINATE
 NO.   TYPE    I  J  K  L  M  N        (BOHR,RAD)       (ANG,DEG)
 ----------------------------------------------------------------
   1 STRETCH   2  1                     2.8345890       1.5000000
   2 STRETCH   3  2                     2.6456164       1.4000000
   3 BEND      3  2  1                  1.9118710     109.5421400
   4 STRETCH   4  2                     2.0786986       1.1000000
   5 BEND      4  2  1                  1.9118710     109.5421400
   6 TORSION   4  2  1  3               2.0943951     120.0000000
   7 STRETCH   5  2                     2.0786986       1.1000000
   8 BEND      5  2  1                  1.9118710     109.5421400
   9 TORSION   5  2  1  3              -2.0943951    -120.0000000
  10 STRETCH   6  1                     2.8345890       1.5000000
  11 BEND      6  1  2                  1.9118710     109.5421400
  12 TORSION   6  1  2  3               1.0471976      60.0000000
  13 STRETCH   7  1                     2.0786986       1.1000000
  14 BEND      7  1  2                  1.9118710     109.5421400
  15 TORSION   7  1  2  6               2.0943951     120.0000000
  16 STRETCH   8  1                     2.0786986       1.1000000
  17 BEND      8  1  2                  1.9118710     109.5421400
  18 TORSION   8  1  2  6              -2.0943951    -120.0000000

 THE CURRENT FULLY SUBSTITUTED Z-MATRIX IS
 C   
 C      1   1.5000000
 F      2   1.4000000  1   109.5421400
 H      2   1.1000000  1   109.5421400  3   120.0000000  0
 H      2   1.1000000  1   109.5421400  3  -120.0000000  0
 F      1   1.5000000  2   109.5421400  3    60.0000000  0
 H      1   1.1000000  2   109.5421400  6   120.0000000  0
 H      1   1.1000000  2   109.5421400  6  -120.0000000  0

          ********************
          1 ELECTRON INTEGRALS
          ********************
 ...... END OF ONE-ELECTRON INTEGRALS ......
 STEP CPU TIME =     0.01 TOTAL CPU TIME =          0.0 (      0.0 MIN)
 TOTAL WALL CLOCK TIME=          0.0 SECONDS, CPU UTILIZATION IS   100.00%

          -------------
          GUESS OPTIONS
          -------------
          GUESS =HUCKEL            NORB  =       0          NORDER=       0
          MIX   =       F          PRTMO =       F          PUNMO =       F
          TOLZ  = 1.0E-08          TOLE  = 1.0E-05
          SYMDEN=       F          PURIFY=       F

 INITIAL GUESS ORBITALS GENERATED BY HUCKEL   ROUTINE.
 HUCKEL GUESS REQUIRES     54920 WORDS.

 STATISTICS FOR GENERATION OF SYMMETRY ORBITAL -Q- MATRIX
 NUMBER OF CARTESIAN ATOMIC ORBITALS=         80
 NUMBER OF SPHERICAL CONTAMINANTS DROPPED=     4
 NUMBER OF LINEARLY DEPENDENT MOS DROPPED=     0
 TOTAL NUMBER OF MOS IN VARIATION SPACE=      76

 SYMMETRIES FOR INITIAL GUESS ORBITALS FOLLOW.   BOTH SET(S).
    17 ORBITALS ARE OCCUPIED (    4 CORE ORBITALS).
     5=A        6=A        7=A        8=A        9=A       10=A       11=A   
    12=A       13=A       14=A       15=A       16=A       17=A       18=A   
    19=A       20=A       21=A       22=A       23=A       24=A       25=A   
    26=A       27=A   
 ...... END OF INITIAL ORBITAL SELECTION ......
 STEP CPU TIME =     0.01 TOTAL CPU TIME =          0.0 (      0.0 MIN)
 TOTAL WALL CLOCK TIME=          0.0 SECONDS, CPU UTILIZATION IS   100.00%

                    ----------------------
                    AO INTEGRAL TECHNOLOGY
                    ----------------------
     S,P,L SHELL ROTATED AXIS INTEGRALS, REPROGRAMMED BY
        KAZUYA ISHIMURA (IMS) AND JOSE SIERRA (SYNSTAR).
     S,P,D,L SHELL ROTATED AXIS INTEGRALS PROGRAMMED BY
        KAZUYA ISHIMURA (INSTITUTE FOR MOLECULAR SCIENCE).
     S,P,D,F,G SHELL TO TOTAL QUARTET ANGULAR MOMENTUM SUM 5,
        ERIC PROGRAM BY GRAHAM FLETCHER (ELORET AND NASA ADVANCED
        SUPERCOMPUTING DIVISION, AMES RESEARCH CENTER).
     S,P,D,F,G,L SHELL GENERAL RYS QUADRATURE PROGRAMMED BY
        MICHEL DUPUIS (PACIFIC NORTHWEST NATIONAL LABORATORY).

          --------------------
          2 ELECTRON INTEGRALS
          --------------------

 THE -PK- OPTION IS OFF, THE INTEGRALS ARE NOT IN SUPERMATRIX FORM.
 STORING   15000 INTEGRALS/RECORD ON DISK, USING 12 BYTES/INTEGRAL.
 TWO ELECTRON INTEGRAL EVALUATION REQUIRES   91062 WORDS OF MEMORY.
 SCHWARZ INEQUALITY OVERHEAD:      3237 INTEGRALS, T=        0.00
 II,JST,KST,LST =  1  1  1  1 NREC =         1 INTLOC =    1
 II,JST,KST,LST =  2  1  1  1 NREC =         1 INTLOC =    2
 II,JST,KST,LST =  3  1  1  1 NREC =         1 INTLOC =    7
 II,JST,KST,LST =  4  1  1  1 NREC =         1 INTLOC =   22
 II,JST,KST,LST =  5  1  1  1 NREC =         1 INTLOC =   67
 II,JST,KST,LST =  6  1  1  1 NREC =         1 INTLOC =  214
 II,JST,KST,LST =  7  1  1  1 NREC =         1 INTLOC = 1189
 II,JST,KST,LST =  8  1  1  1 NREC =         1 INTLOC = 3206
 II,JST,KST,LST =  9  1  1  1 NREC =         1 INTLOC = 5671
 II,JST,KST,LST = 10  1  1  1 NREC =         1 INTLOC = 8595
 II,JST,KST,LST = 11  1  1  1 NREC =         2 INTLOC = 5514
 II,JST,KST,LST = 12  1  1  1 NREC =         3 INTLOC = 8198
 II,JST,KST,LST = 13  1  1  1 NREC =         7 INTLOC = 6106
 II,JST,KST,LST = 14  1  1  1 NREC =         8 INTLOC = 4296
 II,JST,KST,LST = 15  1  1  1 NREC =         9 INTLOC = 5075
 II,JST,KST,LST = 16  1  1  1 NREC =        10 INTLOC = 7933
 II,JST,KST,LST = 17  1  1  1 NREC =        14 INTLOC = 9926
 II,JST,KST,LST = 18  1  1  1 NREC =        20 INTLOC =  959
 II,JST,KST,LST = 19  1  1  1 NREC =        34 INTLOC =12421
 II,JST,KST,LST = 20  1  1  1 NREC =        38 INTLOC =  619
 II,JST,KST,LST = 21  1  1  1 NREC =        41 INTLOC = 7155
 II,JST,KST,LST = 22  1  1  1 NREC =        52 INTLOC =14842
 II,JST,KST,LST = 23  1  1  1 NREC =        57 INTLOC = 5591
 II,JST,KST,LST = 24  1  1  1 NREC =        62 INTLOC =  500
 II,JST,KST,LST = 25  1  1  1 NREC =        77 INTLOC = 7918
 II,JST,KST,LST = 26  1  1  1 NREC =        80 INTLOC =12251
 II,JST,KST,LST = 27  1  1  1 NREC =        85 INTLOC = 7413
 II,JST,KST,LST = 28  1  1  1 NREC =        91 INTLOC =11140
 II,JST,KST,LST = 29  1  1  1 NREC =       107 INTLOC =12395
 II,JST,KST,LST = 30  1  1  1 NREC =       131 INTLOC = 7053
 II,JST,KST,LST = 31  1  1  1 NREC =       180 INTLOC = 8164
 II,JST,KST,LST = 32  1  1  1 NREC =       191 INTLOC = 5307
 II,JST,KST,LST = 33  1  1  1 NREC =       203 INTLOC = 2241
 II,JST,KST,LST = 34  1  1  1 NREC =       234 INTLOC =13130
 II,JST,KST,LST = 35  1  1  1 NREC =       248 INTLOC = 6548
 II,JST,KST,LST = 36  1  1  1 NREC =       262 INTLOC =13231
 SCHWARZ INEQUALITY TEST SKIPPED       16811 INTEGRAL BLOCKS.
 TOTAL NUMBER OF NONZERO TWO-ELECTRON INTEGRALS =             4579560
        306 INTEGRAL RECORDS WERE STORED ON DISK FILE  8.
  ...... END OF TWO-ELECTRON INTEGRALS .....
 STEP CPU TIME =     0.47 TOTAL CPU TIME =          0.5 (      0.0 MIN)
 TOTAL WALL CLOCK TIME=          0.5 SECONDS, CPU UTILIZATION IS    96.23%

          --------------------------
               R-PBE SCF CALCULATION
          --------------------------

     NUCLEAR ENERGY =       125.4890206920
     MAXIT =   30     NPUNCH=    2
     EXTRAP=T  DAMP=F  SHIFT=F  RSTRCT=F  DIIS=T  DEM=F  SOSCF=F
         DENSITY MATRIX CONVERGENCE THRESHOLD=  1.00E-05
     COARSE -> FINE DFT GRID SWITCH THRESHOLD=  3.00E-04 (SWITCH IN $DFT)
                   HF -> DFT SWITCH THRESHOLD=  5.00E-03 (SWOFF IN $DFT)
     MEMORY REQUIRED FOR RHF ITERS=    365468 WORDS.

 DFT CODE IS SWITCHING FROM THE FINE GRID NRAD= 96,  NLEB=  302
                      TO THE COARSE GRID NRAD0= 24, NLEB0=  110

     EXCHANGE FUNCTIONAL   =PBE       
     CORRELATION FUNCTIONAL=PBE       
     DFT THRESHOLD         =.172E-07
     GRID CHANGE THRESHOLD =.300E-03
 FOR AN EULER-MACLAURIN QUADRATURE USING  96 RADIAL POINTS:
 SMALLEST GAUSSIAN PRIMITIVE EXPONENT=        0.1061000000 OF TYPE -S-
 ON ATOM NUMBER   4 HAS RADIAL NORMALIZATION=  1.000000
  LARGEST GAUSSIAN PRIMITIVE EXPONENT=     2931.5500000000 OF TYPE -S-
 ON ATOM NUMBER   3 HAS RADIAL NORMALIZATION=  1.000000
 DFT IS SWITCHED OFF, PERFORMING PURE SCF UNTIL SWOFF THRESHOLD IS REACHED.

 ITER EX DEM     TOTAL ENERGY        E CHANGE  DENSITY CHANGE    DIIS ERROR
   1  0  0     -276.1288264659  -276.1288264659   0.190863157   0.778629250
          * * *   INITIATING DIIS PROCEDURE   * * *
   2  1  0     -276.7751355845    -0.6463091186   0.088675628   0.076297929
   3  2  0     -276.8175117097    -0.0423761251   0.048754918   0.042257091
   4  3  0     -276.8335834990    -0.0160717894   0.008833544   0.008263633
   5  4  0     -276.8343246971    -0.0007411981   0.002197092   0.001665405
 CONVERGED TO SWOFF, SO DFT CALCULATION IS NOW SWITCHED ON.
          * * *   INITIATING DIIS PROCEDURE   * * *
   6  5  0     -277.9017243811    -1.0673996840   0.082728798   0.081751028
   7  6  0     -277.9166177510    -0.0148933699   0.078027270   0.044693695
   8  7  0     -277.9143263222     0.0022914288   0.049674982   0.044520359
   9  8  0     -277.9307747562    -0.0164484340   0.006998018   0.005457266
  10  9  0     -277.9310447406    -0.0002699844   0.001768343   0.001178630
  11 10  0     -277.9310563345    -0.0000115938   0.000610621   0.000480261
  12 11  0     -277.9310583732    -0.0000020387   0.000095018   0.000090744
 DFT CODE IS SWITCHING BACK TO THE FINE GRID
          * * *   INITIATING DIIS PROCEDURE   * * *
  13 12  0     -277.9310693591    -0.0000109859   0.003558908   0.003373291
  14 13  0     -277.9311151975    -0.0000458384   0.004885701   0.001811807
  15 14  0     -277.9311052473     0.0000099502   0.002766555   0.002396470
  16 15  0     -277.9311378713    -0.0000326240   0.000250037   0.000115646
  17 16  0     -277.9311379649    -0.0000000936   0.000123608   0.000097161
  18 17  0     -277.9311380173    -0.0000000524   0.000019770   0.000015416
  19 18  0     -277.9311380188    -0.0000000015   0.000006074   0.000005640
  20 19  0     -277.9311380190    -0.0000000002   0.000000332   0.000000242

          -----------------
          DENSITY CONVERGED
          -----------------
     TIME TO FORM FOCK OPERATORS=       9.8 SECONDS (       0.5 SEC/ITER)
     TIME TO SOLVE SCF EQUATIONS=       0.0 SECONDS (       0.0 SEC/ITER)

 FINAL R-PBE ENERGY IS     -277.9311380190 AFTER  20 ITERATIONS
 DFT EXCHANGE + CORRELATION ENERGY =       -32.8936762462
 TOTAL ELECTRON NUMBER             =        34.0001296760

          ------------
          EIGENVECTORS
          ------------

                      1          2          3          4          5
                  -24.2352   -24.2240    -9.9754    -9.9746    -1.0970
                     A          A          A          A          A   
    1  C  1  S    0.000030  -0.000174   0.991048  -0.067732  -0.017030
    2  C  1  S   -0.000014  -0.000892   0.036617  -0.003549   0.030123
    3  C  1  S   -0.002844   0.007663  -0.021860   0.007471   0.025208
    4  C  1  X   -0.000405  -0.000667  -0.000507  -0.000859   0.011683
    5  C  1  Y   -0.000082   0.000707   0.000060  -0.000150   0.013681
    6  C  1  Z    0.000107  -0.000191   0.000092   0.000420  -0.006918
    7  C  1  X   -0.000745  -0.000934  -0.002813   0.002836   0.009424
    8  C  1  Y   -0.000409   0.003635   0.000664   0.000346   0.004191
    9  C  1  Z    0.000242  -0.001500   0.000428  -0.001490  -0.005836
   10  C  1 XX   -0.000107  -0.000067  -0.000333  -0.000720   0.002975
   11  C  1 YY    0.000033   0.000308   0.000135   0.000469  -0.000464
   12  C  1 ZZ    0.000074  -0.000241   0.000197   0.000251  -0.002511
   13  C  1 XY   -0.000136  -0.000508   0.000148  -0.000089  -0.000033
   14  C  1 XZ   -0.000001   0.000182   0.000243   0.000586  -0.001403
   15  C  1 YZ    0.000045  -0.000261   0.000141   0.000056  -0.001227
   16  C  2  S   -0.000126   0.000029   0.067918   0.990992  -0.065611
   17  C  2  S   -0.000519   0.000045   0.001459   0.037059   0.124173
   18  C  2  S    0.008801  -0.002611   0.004780  -0.021978   0.014383
   19  C  2  X    0.000726   0.000344   0.000948   0.000599   0.040883
   20  C  2  Y    0.000923  -0.000034  -0.000010   0.000526   0.084040
   21  C  2  Z    0.000275  -0.000085  -0.000418   0.000161   0.034949
   22  C  2  X    0.000581   0.000634  -0.002529   0.003085   0.008855
   23  C  2  Y    0.003624  -0.000416   0.000161   0.001057   0.006200
   24  C  2  Z    0.001727  -0.000066   0.001515  -0.000531   0.002214
   25  C  2 XX   -0.000098  -0.000112  -0.000756  -0.000244  -0.002739
   26  C  2 YY    0.000194   0.000029   0.000500   0.000210   0.010589
   27  C  2 ZZ   -0.000096   0.000083   0.000256   0.000035  -0.007849
   28  C  2 XY    0.000232   0.000141  -0.000048   0.000019   0.013921
   29  C  2 XZ    0.000118  -0.000021   0.000628   0.000233   0.004248
   30  C  2 YZ    0.000154  -0.000013  -0.000010   0.000013   0.010141
   31  F  3  S    0.993083  -0.001139   0.000009   0.000063  -0.235159
   32  F  3  S    0.034027   0.000125  -0.000089   0.000426   0.478422
   33  F  3  S   -0.016841  -0.000106  -0.000181  -0.000632   0.490775
   34  F  3  X   -0.000555  -0.000089   0.000091   0.000173  -0.046197
   35  F  3  Y   -0.001016  -0.000006   0.000040   0.000235  -0.083117
   36  F  3  Z   -0.000385   0.000075   0.000018   0.000080  -0.030008
   37  F  3  X    0.001854   0.000396  -0.000205   0.000654  -0.021355
   38  F  3  Y    0.003131  -0.000023   0.000218   0.001692  -0.038692
   39  F  3  Z    0.001209  -0.000286   0.000107   0.000721  -0.013491
   40  F  3 XX    0.000090  -0.000111   0.000156   0.000214  -0.002089
   41  F  3 YY   -0.000249   0.000042  -0.000128  -0.000669   0.006540
   42  F  3 ZZ    0.000158   0.000069  -0.000028   0.000454  -0.004451
   43  F  3 XY   -0.000323  -0.000032  -0.000029  -0.000829   0.008411
   44  F  3 XZ   -0.000147   0.000036  -0.000112  -0.000286   0.002928
   45  F  3 YZ   -0.000199  -0.000001  -0.000051  -0.000590   0.005518
   46  H  4  S   -0.000847   0.000161  -0.000341  -0.001257   0.022654
   47  H  4  S   -0.000093   0.000689   0.000630   0.003271   0.000360
   48  H  4  X   -0.000078  -0.000130  -0.000090   0.000581  -0.002239
   49  H  4  Y   -0.000356   0.000078  -0.000126  -0.001111   0.004875
   50  H  4  Z   -0.000156   0.000001   0.000080   0.000380  -0.001004
   51  H  5  S   -0.000957   0.000118  -0.000362  -0.001129   0.022755
   52  H  5  S   -0.000349  -0.000213   0.000934   0.003419   0.002037
   53  H  5  X   -0.000089   0.000167  -0.000159  -0.000213   0.000775
   54  H  5  Y   -0.000350  -0.000005  -0.000014  -0.000010   0.000811
   55  H  5  Z   -0.000219  -0.000072  -0.000049  -0.001241   0.005346
   56  F  6  S    0.001136   0.993090   0.000046   0.000002  -0.031400
   57  F  6  S    0.000191   0.033683   0.000351  -0.000119   0.063373
   58  F  6  S   -0.000126  -0.015851   0.000089  -0.000131   0.064306
   59  F  6  X    0.000092   0.000600  -0.000082  -0.000079   0.008530
   60  F  6  Y   -0.000000  -0.000921   0.000040   0.000014  -0.009640
   61  F  6  Z   -0.000063   0.000318  -0.000006  -0.000005   0.003011
   62  F  6  X   -0.000356  -0.001974  -0.000436   0.000241   0.004568
   63  F  6  Y   -0.000076   0.002830   0.001185   0.000023  -0.004272
   64  F  6  Z    0.000231  -0.000997  -0.000473  -0.000013   0.001813
   65  F  6 XX   -0.000111   0.000035   0.000106   0.000116   0.000350
   66  F  6 YY    0.000052  -0.000205  -0.000566  -0.000037   0.000611
   67  F  6 ZZ    0.000059   0.000170   0.000460  -0.000079  -0.000961
   68  F  6 XY    0.000010   0.000348   0.000857  -0.000059  -0.001408
   69  F  6 XZ    0.000033  -0.000139  -0.000282  -0.000058   0.000458
   70  F  6 YZ   -0.000000   0.000160   0.000477  -0.000024  -0.000737
   71  H  7  S    0.000169  -0.000658  -0.001277  -0.000139   0.003717
   72  H  7  S    0.000740   0.000034   0.003373   0.000233   0.000627
   73  H  7  X    0.000118   0.000156  -0.000470   0.000174   0.000250
   74  H  7  Y    0.000076  -0.000300  -0.001160   0.000047   0.000807
   75  H  7  Z   -0.000007   0.000170  -0.000452  -0.000031   0.000382
   76  H  8  S    0.000104  -0.000783  -0.001151  -0.000190   0.005717
   77  H  8  S   -0.000341  -0.000246   0.003589   0.000412   0.002804
   78  H  8  X   -0.000170   0.000119   0.000242   0.000123   0.000157
   79  H  8  Y   -0.000037  -0.000366  -0.000055   0.000004   0.000307
   80  H  8  Z    0.000074   0.000126   0.001260  -0.000119  -0.001530

                      6          7          8          9         10
                   -1.0569    -0.7153    -0.5795    -0.4682    -0.4641
                     A          A          A          A          A   
    1  C  1  S   -0.051797  -0.153448   0.128206   0.000398  -0.008762
    2  C  1  S    0.100064   0.314150  -0.277777  -0.008205   0.030796
    3  C  1  S    0.015489   0.177636  -0.151524   0.013335   0.002548
    4  C  1  X   -0.041578   0.102011   0.095417  -0.106424  -0.016440
    5  C  1  Y    0.063453  -0.038096   0.040273  -0.148995   0.189010
    6  C  1  Z   -0.023571  -0.029751  -0.080437  -0.202868  -0.156922
    7  C  1  X   -0.012802   0.029625   0.023519  -0.027453   0.006023
    8  C  1  Y    0.007574  -0.024442   0.027589  -0.052723   0.054268
    9  C  1  Z   -0.001770  -0.005541  -0.034025  -0.094416  -0.054460
   10  C  1 XX   -0.001158   0.006749   0.005792  -0.003882  -0.004386
   11  C  1 YY    0.007304  -0.005161  -0.004978   0.001368   0.005094
   12  C  1 ZZ   -0.006147  -0.001589  -0.000813   0.002513  -0.000708
   13  C  1 XY   -0.011844   0.000172   0.000339  -0.002565   0.002317
   14  C  1 XZ    0.003593  -0.006723  -0.006897  -0.003047  -0.003592
   15  C  1 YZ   -0.006527   0.000252  -0.000567   0.002417  -0.009210
   16  C  2  S    0.000794  -0.148967  -0.128180  -0.000959   0.001664
   17  C  2  S   -0.003869   0.305106   0.279620  -0.009381   0.007605
   18  C  2  S    0.017073   0.166652   0.140131   0.028229  -0.027150
   19  C  2  X   -0.022366  -0.102587   0.115067  -0.066385  -0.156459
   20  C  2  Y   -0.009978  -0.049404  -0.016106  -0.171839   0.265386
   21  C  2  Z   -0.001935   0.030095  -0.081836  -0.258626  -0.149532
   22  C  2  X   -0.011430  -0.029075   0.028005  -0.000803  -0.057444
   23  C  2  Y    0.001111  -0.029283  -0.027749  -0.029681   0.084829
   24  C  2  Z    0.004618   0.004618  -0.037826  -0.095135  -0.079665
   25  C  2 XX    0.003237   0.006657  -0.005384   0.006154  -0.000572
   26  C  2 YY   -0.002951  -0.005388   0.005596  -0.007320   0.004295
   27  C  2 ZZ   -0.000286  -0.001268  -0.000211   0.001166  -0.003723
   28  C  2 XY   -0.003258   0.000515   0.000919  -0.003213   0.000128
   29  C  2 XZ   -0.002269  -0.007039   0.007487   0.001381  -0.001975
   30  C  2 YZ   -0.001386  -0.001082   0.000435  -0.013011   0.005831
   31  F  3  S    0.037250   0.058281   0.050184  -0.040622   0.014553
   32  F  3  S   -0.076360  -0.127006  -0.110035   0.083666  -0.030939
   33  F  3  S   -0.080697  -0.145757  -0.135163   0.133430  -0.042891
   34  F  3  X    0.003588  -0.053629  -0.050856   0.217330  -0.200262
   35  F  3  Y    0.011632  -0.070021  -0.166066   0.299069   0.008703
   36  F  3  Z    0.004406  -0.016824  -0.092325  -0.024457  -0.159569
   37  F  3  X    0.001285  -0.028404  -0.031474   0.133720  -0.124265
   38  F  3  Y    0.006092  -0.041399  -0.099215   0.179447   0.004113
   39  F  3  Z    0.001614  -0.012309  -0.055369  -0.015528  -0.094741
   40  F  3 XX    0.000807   0.000016  -0.004260  -0.001054   0.005973
   41  F  3 YY   -0.001112   0.002495   0.006131  -0.007024  -0.007829
   42  F  3 ZZ    0.000306  -0.002511  -0.001872   0.008077   0.001856
   43  F  3 XY   -0.000985   0.004555   0.003720  -0.010164   0.006383
   44  F  3 XZ   -0.000348   0.001054   0.002970   0.000442   0.006162
   45  F  3 YZ   -0.000696   0.001671   0.006061   0.000883   0.005435
   46  H  4  S   -0.002205   0.115342   0.162514   0.023657  -0.240315
   47  H  4  S    0.001337  -0.007365   0.013685   0.014459  -0.048546
   48  H  4  X    0.000192  -0.007935  -0.005316  -0.002164   0.007146
   49  H  4  Y   -0.000570   0.008474   0.010317  -0.002682  -0.008033
   50  H  4  Z   -0.000027  -0.003015  -0.005506  -0.005998   0.000784
   51  H  5  S   -0.000413   0.107057   0.169261   0.176924   0.112694
   52  H  5  S    0.002072  -0.003460   0.008697   0.027017   0.000705
   53  H  5  X   -0.000312  -0.000544   0.003189  -0.001338  -0.004072
   54  H  5  Y   -0.000067  -0.001263  -0.001250  -0.004016   0.005902
   55  H  5  Z    0.000058   0.011142   0.013055   0.007701   0.005716
   56  F  6  S   -0.240422   0.051755  -0.040707  -0.000349   0.033964
   57  F  6  S    0.489184  -0.112927   0.090144   0.001769  -0.071322
   58  F  6  S    0.511943  -0.128108   0.107833  -0.002924  -0.110615
   59  F  6  X    0.042332   0.047588  -0.051890  -0.048308   0.202609
   60  F  6  Y   -0.064893  -0.055925   0.121768  -0.054363  -0.178991
   61  F  6  Z    0.020980   0.012843  -0.060621  -0.095593   0.007474
   62  F  6  X    0.021957   0.025956  -0.033172  -0.031552   0.127613
   63  F  6  Y   -0.034058  -0.034737   0.075568  -0.030757  -0.109589
   64  F  6  Z    0.010545   0.009934  -0.037724  -0.055613   0.004212
   65  F  6 XX   -0.000905   0.000316   0.002625  -0.002893   0.003530
   66  F  6 YY    0.005542   0.001940  -0.004713   0.005086   0.001698
   67  F  6 ZZ   -0.004637  -0.002256   0.002088  -0.002193  -0.005228
   68  F  6 XY   -0.008943  -0.004168   0.004258   0.000651  -0.008156
   69  F  6 XZ    0.002845   0.000973  -0.002635  -0.003785   0.000609
   70  F  6 YZ   -0.004529  -0.001406   0.004166   0.003542  -0.000128
   71  H  7  S    0.019423   0.118961  -0.163042   0.165518  -0.057598
   72  H  7  S    0.000349  -0.007804  -0.015298   0.031328  -0.018102
   73  H  7  X    0.001380   0.007340  -0.004780   0.005018  -0.003245
   74  H  7  Y    0.004222   0.009363  -0.010270   0.006657   0.000870
   75  H  7  Z    0.000932   0.003666  -0.005978  -0.001220  -0.004654
   76  H  8  S    0.019090   0.111854  -0.171321  -0.144898  -0.100517
   77  H  8  S    0.001355  -0.003875  -0.009568  -0.007278  -0.021550
   78  H  8  X   -0.000880   0.000572   0.002844  -0.003626  -0.000767
   79  H  8  Y    0.000940  -0.000660   0.000997  -0.003830   0.004398
   80  H  8  Z   -0.004212  -0.011752   0.013202   0.006906   0.004152

                     11         12         13         14         15
                   -0.4318    -0.4058    -0.3936    -0.3237    -0.2999
                     A          A          A          A          A   
    1  C  1  S    0.008263   0.010673  -0.004691  -0.027403  -0.005557
    2  C  1  S   -0.020709  -0.015840   0.004364   0.061227   0.012974
    3  C  1  S   -0.021641  -0.033382   0.026118   0.132639   0.017188
    4  C  1  X    0.318865  -0.026320   0.043682   0.099408  -0.010998
    5  C  1  Y    0.040214   0.293030   0.037547   0.001070  -0.015635
    6  C  1  Z   -0.074172   0.020270   0.308884  -0.000568  -0.012397
    7  C  1  X    0.119808   0.018759   0.014079   0.092799   0.001234
    8  C  1  Y    0.040268   0.089130   0.025346  -0.044004   0.025808
    9  C  1  Z   -0.032381   0.013320   0.140832  -0.040524  -0.037256
   10  C  1 XX    0.003100  -0.000168  -0.008498  -0.011284  -0.006240
   11  C  1 YY   -0.004728   0.006265  -0.004108   0.004869   0.000710
   12  C  1 ZZ    0.001627  -0.006097   0.012606   0.006416   0.005530
   13  C  1 XY    0.005147  -0.021188   0.001449   0.005532   0.007851
   14  C  1 XZ   -0.008020   0.001733  -0.007785   0.001684  -0.008359
   15  C  1 YZ   -0.000130  -0.007192   0.003813  -0.007585   0.004986
   16  C  2  S   -0.011962  -0.013364  -0.006374   0.020555  -0.000600
   17  C  2  S    0.022351   0.026680   0.008215  -0.042794   0.003061
   18  C  2  S    0.038930   0.040653   0.029955  -0.117754  -0.011160
   19  C  2  X   -0.298876   0.063570  -0.003067  -0.003946  -0.087438
   20  C  2  Y   -0.084522  -0.194037   0.013829   0.029385   0.115206
   21  C  2  Z    0.099866  -0.004156  -0.231214   0.051900  -0.184073
   22  C  2  X   -0.109539   0.055071   0.004261   0.045866   0.003324
   23  C  2  Y   -0.002786  -0.055064   0.023188   0.064882   0.010986
   24  C  2  Z    0.053483   0.002782  -0.102765  -0.006372  -0.053906
   25  C  2 XX   -0.000458   0.004411  -0.009018   0.016536   0.004763
   26  C  2 YY   -0.006011  -0.009392  -0.001239  -0.007896  -0.022569
   27  C  2 ZZ    0.006469   0.004981   0.010257  -0.008640   0.017805
   28  C  2 XY   -0.014394  -0.019133  -0.003740   0.010148   0.008289
   29  C  2 XZ   -0.008755   0.000760  -0.011327  -0.002854   0.010026
   30  C  2 YZ   -0.000734  -0.004325  -0.009281  -0.008505   0.013595
   31  F  3  S   -0.019842  -0.010945  -0.003770   0.002236   0.000759
   32  F  3  S    0.040697   0.019331   0.006133  -0.001536  -0.003311
   33  F  3  S    0.057686   0.033614   0.008867  -0.024719   0.004363
   34  F  3  X   -0.078662   0.207397   0.034044   0.390944   0.222554
   35  F  3  Y    0.281076   0.113344   0.215654  -0.143166  -0.293720
   36  F  3  Z    0.221954   0.150161  -0.211072  -0.247546   0.426923
   37  F  3  X   -0.045704   0.125577   0.017955   0.263716   0.151665
   38  F  3  Y    0.175105   0.068587   0.137911  -0.093132  -0.203551
   39  F  3  Z    0.135322   0.096788  -0.135757  -0.165083   0.297691
   40  F  3 XX    0.009514  -0.001733   0.001022  -0.006899  -0.003730
   41  F  3 YY   -0.008511   0.001952  -0.008598   0.004730   0.006976
   42  F  3 ZZ   -0.001002  -0.000220   0.007576   0.002169  -0.003245
   43  F  3 XY    0.001689  -0.006390  -0.003270  -0.007423  -0.000784
   44  F  3 XZ   -0.002295  -0.004303   0.003660  -0.000534  -0.004928
   45  F  3 YZ   -0.009660  -0.004084   0.006262   0.005808  -0.004945
   46  H  4  S   -0.032541   0.178180  -0.051825  -0.048219  -0.230831
   47  H  4  S   -0.003736   0.048341  -0.009602   0.002677  -0.122411
   48  H  4  X   -0.004720  -0.003053   0.000906   0.001468   0.005151
   49  H  4  Y   -0.004564   0.003849  -0.003031  -0.000439  -0.002448
   50  H  4  Z    0.002831  -0.002986  -0.004701   0.002696  -0.001831
   51  H  5  S   -0.042575   0.017865   0.195928  -0.087615   0.222188
   52  H  5  S   -0.004886   0.000552   0.053430  -0.024563   0.088772
   53  H  5  X   -0.006224   0.001095   0.002771  -0.001264  -0.003452
   54  H  5  Y   -0.001743  -0.004725   0.000187   0.001845   0.000311
   55  H  5  Z   -0.001994   0.000447   0.006240  -0.002403   0.004713
   56  F  6  S   -0.016880   0.026879  -0.007293  -0.002372   0.001531
   57  F  6  S    0.036701  -0.054393   0.013775   0.002784   0.000833
   58  F  6  S    0.046991  -0.082184   0.023723   0.019781  -0.028128
   59  F  6  X    0.051780   0.269214  -0.044912   0.344648   0.005853
   60  F  6  Y    0.231916  -0.268953   0.212954   0.182787   0.152071
   61  F  6  Z   -0.108287   0.190984   0.184326  -0.258529   0.152859
   62  F  6  X    0.026392   0.169624  -0.026324   0.227824  -0.002933
   63  F  6  Y    0.147631  -0.172618   0.137008   0.118652   0.104384
   64  F  6  Z   -0.065931   0.122333   0.116697  -0.170381   0.107015
   65  F  6 XX    0.007672   0.000935   0.001233   0.007640   0.000452
   66  F  6 YY   -0.008600   0.001457  -0.007932  -0.005724  -0.003188
   67  F  6 ZZ    0.000928  -0.002392   0.006700  -0.001916   0.002735
   68  F  6 XY    0.000616  -0.009261   0.003881  -0.005740   0.000780
   69  F  6 XZ   -0.001172   0.005206   0.004052  -0.000848   0.001533
   70  F  6 YZ    0.005420  -0.006268  -0.005483   0.005825  -0.001984
   71  H  7  S   -0.135274  -0.213314  -0.119725  -0.005441   0.041559
   72  H  7  S   -0.024331  -0.061018  -0.028515  -0.028280   0.016587
   73  H  7  X    0.002644  -0.006449  -0.001738   0.002341   0.000990
   74  H  7  Y   -0.007207  -0.002763  -0.005738  -0.000806  -0.000200
   75  H  7  Z   -0.004466  -0.003755   0.005259   0.000613   0.000693
   76  H  8  S   -0.051144  -0.004034   0.261931   0.053938   0.008484
   77  H  8  S   -0.008303   0.000233   0.064447   0.011830   0.049389
   78  H  8  X    0.007343  -0.000841  -0.001377   0.001360  -0.000890
   79  H  8  Y    0.000914   0.007664   0.000564  -0.001130   0.000550
   80  H  8  Z    0.002504  -0.000161  -0.008480  -0.001598   0.000091

                     16         17         18         19         20
                   -0.2957    -0.2860     0.0001     0.0192     0.0524
                     A          A          A          A          A   
    1  C  1  S    0.002424   0.019772  -0.079881  -0.068889   0.032936
    2  C  1  S   -0.007919  -0.056456   0.214543   0.111569  -0.042355
    3  C  1  S    0.008999  -0.073302   0.479801   1.068478  -0.723867
    4  C  1  X   -0.072535  -0.225377  -0.242485  -0.104006  -0.119696
    5  C  1  Y   -0.102101  -0.061167   0.359685  -0.164743   0.029692
    6  C  1  Z   -0.166788   0.131693  -0.126594   0.079196  -0.236285
    7  C  1  X    0.013720  -0.052014  -0.401859  -0.230677  -0.260840
    8  C  1  Y   -0.011252  -0.008267   0.482116  -0.291040  -0.048351
    9  C  1  Z   -0.009061   0.056518  -0.193706   0.171050  -0.533531
   10  C  1 XX   -0.003626  -0.017769   0.007520   0.005124  -0.014317
   11  C  1 YY    0.022009   0.010278  -0.015958  -0.002448  -0.013806
   12  C  1 ZZ   -0.018383   0.007491   0.008438  -0.002676   0.028123
   13  C  1 XY    0.002254   0.008499   0.039815  -0.010555  -0.006793
   14  C  1 XZ   -0.006900   0.008287  -0.006693  -0.007032  -0.017803
   15  C  1 YZ    0.012088  -0.005689   0.011407  -0.001678   0.001350
   16  C  2  S    0.005642   0.019417  -0.026999  -0.067853  -0.014367
   17  C  2  S   -0.014763  -0.056451   0.081134   0.107190  -0.006291
   18  C  2  S   -0.012034  -0.083198   0.208215   1.101271   0.557221
   19  C  2  X    0.036052   0.228488   0.087558   0.107862  -0.152207
   20  C  2  Y   -0.040229  -0.033608   0.156201  -0.169903  -0.110103
   21  C  2  Z    0.069915  -0.131648   0.040832  -0.083703  -0.256000
   22  C  2  X    0.000501   0.060328   0.218931   0.228726  -0.385705
   23  C  2  Y   -0.024795   0.009815   0.223655  -0.308923  -0.105997
   24  C  2  Z   -0.032126  -0.064443   0.056042  -0.174375  -0.561946
   25  C  2 XX    0.002499  -0.015794   0.019569   0.003193   0.008975
   26  C  2 YY    0.010975   0.008125  -0.010008  -0.000147   0.019271
   27  C  2 ZZ   -0.013473   0.007669  -0.009561  -0.003046  -0.028246
   28  C  2 XY    0.003786  -0.011378  -0.038057   0.011905   0.008085
   29  C  2 XZ    0.003032   0.007496   0.001934  -0.005759   0.018880
   30  C  2 YZ   -0.001067   0.006282  -0.001795   0.002531   0.008180
   31  F  3  S   -0.002215   0.001485   0.034641  -0.012132  -0.030178
   32  F  3  S    0.001691  -0.005578  -0.070922   0.030602   0.060594
   33  F  3  S    0.027756   0.001593  -0.248326   0.058304   0.229736
   34  F  3  X   -0.090632  -0.293177   0.093645  -0.046424  -0.040176
   35  F  3  Y    0.020987   0.052221   0.139921   0.024340  -0.124127
   36  F  3  Z   -0.099528   0.223527   0.048192   0.043535  -0.039943
   37  F  3  X   -0.067790  -0.212901   0.077020  -0.056929  -0.029464
   38  F  3  Y    0.016951   0.035062   0.137356   0.042569  -0.127207
   39  F  3  Z   -0.066390   0.159607   0.057213   0.048660  -0.009754
   40  F  3 XX    0.001526   0.002897   0.002341  -0.002255   0.001125
   41  F  3 YY   -0.000690  -0.001023   0.000477   0.003208  -0.002699
   42  F  3 ZZ   -0.000836  -0.001874  -0.002817  -0.000953   0.001574
   43  F  3 XY    0.000092   0.002319  -0.000424   0.000285  -0.002876
   44  F  3 XZ    0.001259   0.000057   0.000377  -0.000494   0.002108
   45  F  3 YZ    0.000786  -0.003265   0.001160   0.002893   0.001816
   46  H  4  S    0.072254   0.107741   0.137478  -0.056535   0.049654
   47  H  4  S    0.048634   0.079840   0.179593  -0.981359   0.380557
   48  H  4  X   -0.001580   0.003020   0.015482  -0.006955  -0.003421
   49  H  4  Y    0.001254   0.001920   0.004378   0.011921  -0.009129
   50  H  4  Z    0.001490  -0.005275   0.000346  -0.009724  -0.004523
   51  H  5  S   -0.110895   0.103431  -0.080733  -0.033553  -0.123321
   52  H  5  S   -0.099317   0.064780  -0.179122  -0.557869  -1.285346
   53  H  5  X    0.001124   0.004904  -0.000043   0.006087  -0.009356
   54  H  5  Y   -0.000767  -0.002256   0.008093  -0.003991  -0.007912
   55  H  5  Z   -0.001967   0.001594   0.002777   0.009554   0.017464
   56  F  6  S   -0.001537   0.001194   0.065893  -0.009463   0.010296
   57  F  6  S    0.002578  -0.005471  -0.127978   0.024709  -0.020676
   58  F  6  S    0.011278   0.005154  -0.473087   0.040448  -0.073512
   59  F  6  X    0.251281   0.347211  -0.202895   0.038500  -0.001508
   60  F  6  Y    0.285262   0.109922   0.306567   0.032211   0.053550
   61  F  6  Z    0.448522  -0.264803  -0.105866  -0.044272  -0.014109
   62  F  6  X    0.174040   0.248461  -0.189665   0.046596   0.004116
   63  F  6  Y    0.196261   0.074521   0.300117   0.046449   0.049087
   64  F  6  Z    0.308980  -0.185571  -0.105182  -0.046832   0.016583
   65  F  6 XX    0.004227   0.004187   0.000559  -0.002006  -0.001472
   66  F  6 YY   -0.006450  -0.002293   0.001972   0.003060   0.001659
   67  F  6 ZZ    0.002223  -0.001894  -0.002531  -0.001054  -0.000187
   68  F  6 XY   -0.000519  -0.002599  -0.002614  -0.000923  -0.002326
   69  F  6 XZ    0.005260  -0.000563   0.001258   0.000060  -0.002205
   70  F  6 YZ   -0.004687   0.003757  -0.001738  -0.002743   0.001977
   71  H  7  S    0.203780   0.106996   0.047861  -0.062362  -0.090889
   72  H  7  S    0.116212   0.074289  -0.039892  -0.948277  -0.427180
   73  H  7  X    0.004604  -0.003245  -0.018061   0.005127   0.002417
   74  H  7  Y    0.002213   0.001198   0.011636   0.012414   0.006968
   75  H  7  Z   -0.001665   0.005562  -0.006581   0.009639  -0.003364
   76  H  8  S   -0.210853   0.105186  -0.036493  -0.032330   0.144907
   77  H  8  S   -0.114993   0.065217  -0.097009  -0.577614   1.386946
   78  H  8  X   -0.003607  -0.004701  -0.008564  -0.006658  -0.008254
   79  H  8  Y   -0.000746  -0.002700   0.017575  -0.003096   0.000880
   80  H  8  Z    0.003815  -0.001516  -0.000487  -0.010077   0.019166

                     21         22         23         24         25
                    0.0659     0.0791     0.0888     0.1659     0.3456
                     A          A          A          A          A   
    1  C  1  S    0.080716   0.025279   0.010667   0.074231   0.005393
    2  C  1  S   -0.148476  -0.073885  -0.023872  -0.078651   0.031691
    3  C  1  S   -1.143225   0.100943  -0.191505  -1.958082   0.570251
    4  C  1  X    0.099031   0.086371  -0.093859  -0.293587   0.422243
    5  C  1  Y    0.117892  -0.259335  -0.121080  -0.083192  -0.201194
    6  C  1  Z    0.048274  -0.067214  -0.251490   0.206127  -0.149923
    7  C  1  X    0.163749   0.084500  -0.357461  -1.841439  -0.721878
    8  C  1  Y    0.418799  -0.744397  -0.262784  -0.581358   0.185324
    9  C  1  Z    0.086673  -0.213164  -0.904945   0.912201   0.594589
   10  C  1 XX    0.007586   0.001808   0.003396   0.033563   0.040829
   11  C  1 YY    0.003574   0.012590  -0.013116  -0.015309  -0.015834
   12  C  1 ZZ   -0.011159  -0.014398   0.009720  -0.018254  -0.024995
   13  C  1 XY    0.010340   0.007528  -0.008049   0.000499  -0.013198
   14  C  1 XZ    0.005173   0.008953   0.009326  -0.028724  -0.047615
   15  C  1 YZ    0.004497  -0.019410   0.003659  -0.019641  -0.018233
   16  C  2  S   -0.098539  -0.055628   0.007829  -0.077204  -0.000049
   17  C  2  S    0.198217   0.151328  -0.018992   0.091438   0.090329
   18  C  2  S    1.305514   0.230802  -0.151818   1.987032   0.399586
   19  C  2  X    0.142734   0.114625   0.112329  -0.308599  -0.406063
   20  C  2  Y   -0.028672   0.378711  -0.115487   0.063309  -0.143265
   21  C  2  Z    0.064370  -0.034955   0.255610   0.212028   0.176329
   22  C  2  X    0.322488   0.246208   0.386740  -1.851535   0.808129
   23  C  2  Y   -0.238160   1.016473  -0.244834   0.437358  -0.027345
   24  C  2  Z    0.114279  -0.102768   0.924815   0.965774  -0.755377
   25  C  2 XX   -0.001854   0.006832   0.001419  -0.032549   0.037509
   26  C  2 YY   -0.009237  -0.018954  -0.012282   0.014921  -0.008859
   27  C  2 ZZ    0.011090   0.012122   0.010863   0.017629  -0.028650
   28  C  2 XY   -0.005135  -0.014854   0.009154  -0.007078   0.021760
   29  C  2 XZ   -0.006732  -0.010100   0.009901   0.029885  -0.046788
   30  C  2 YZ   -0.000872  -0.027017  -0.004955  -0.017595   0.022054
   31  F  3  S    0.024916   0.064210   0.011902   0.005875  -0.003263
   32  F  3  S   -0.050038  -0.112822  -0.017448   0.010308   0.020768
   33  F  3  S   -0.187864  -0.578861  -0.127902  -0.157601  -0.053724
   34  F  3  X    0.084477   0.087820  -0.026700   0.112635  -0.100263
   35  F  3  Y    0.139845   0.220699   0.042081   0.010734  -0.051622
   36  F  3  Z    0.016869   0.124777  -0.056570  -0.020339   0.049987
   37  F  3  X    0.079149   0.124026  -0.027051   0.207315  -0.131379
   38  F  3  Y    0.165825   0.241161   0.081771   0.032505   0.018039
   39  F  3  Z    0.021530   0.152571  -0.079449  -0.053630   0.109303
   40  F  3 XX   -0.002359  -0.002130  -0.004404   0.000711   0.007974
   41  F  3 YY    0.003666   0.000658   0.003224   0.001313  -0.008513
   42  F  3 ZZ   -0.001307   0.001472   0.001181  -0.002024   0.000540
   43  F  3 XY    0.002374   0.002358  -0.001056   0.007048  -0.006489
   44  F  3 XZ   -0.001773   0.004280  -0.003317   0.008007  -0.007805
   45  F  3 YZ    0.002309   0.003669  -0.004569  -0.007029  -0.003386
   46  H  4  S   -0.079337  -0.014407  -0.026006   0.109905  -0.202111
   47  H  4  S   -1.351833   0.685881  -1.106203   0.558690   0.077770
   48  H  4  X   -0.007627   0.014461  -0.004013  -0.011012   0.006259
   49  H  4  Y    0.016571   0.006568   0.014937  -0.007380  -0.000358
   50  H  4  Z   -0.001843   0.014065   0.006077   0.020849  -0.025111
   51  H  5  S   -0.023871   0.039718   0.057293   0.094899  -0.294895
   52  H  5  S   -0.393381  -0.631488   1.434960   0.449819  -0.171066
   53  H  5  X    0.003058   0.011245  -0.003180  -0.017290   0.019186
   54  H  5  Y    0.001474   0.020939   0.002107   0.009426  -0.012998
   55  H  5  Z    0.005190   0.006836  -0.016753  -0.006524  -0.005655
   56  F  6  S   -0.003923  -0.031989   0.009268  -0.000862   0.000958
   57  F  6  S    0.009837   0.052048  -0.014313  -0.017268   0.027622
   58  F  6  S    0.012683   0.293633  -0.094623   0.093479  -0.176489
   59  F  6  X    0.045442   0.037021   0.020758   0.097296   0.128516
   60  F  6  Y   -0.060649  -0.122036   0.029909   0.010006  -0.055825
   61  F  6  Z   -0.013741   0.070125   0.055006  -0.020079  -0.050372
   62  F  6  X    0.040653   0.073674   0.018537   0.174949   0.081346
   63  F  6  Y   -0.070580  -0.123030   0.064126   0.001003   0.059753
   64  F  6  Z   -0.015687   0.085422   0.071832  -0.050239  -0.104057
   65  F  6 XX    0.002394   0.003225  -0.003726  -0.001617   0.001499
   66  F  6 YY   -0.002963  -0.000788   0.002366   0.000391  -0.007286
   67  F  6 ZZ    0.000570  -0.002437   0.001360   0.001226   0.005786
   68  F  6 XY    0.002793   0.002294   0.000812   0.006618   0.013508
   69  F  6 XZ    0.001776  -0.003214  -0.003440  -0.006084  -0.007008
   70  F  6 YZ    0.001449   0.002329   0.003765  -0.006597   0.003137
   71  H  7  S    0.124550   0.078775  -0.025687  -0.107594  -0.179820
   72  H  7  S    1.396670  -0.674155  -1.083226  -0.523916   0.130691
   73  H  7  X   -0.013132   0.003780   0.002354  -0.013620  -0.001550
   74  H  7  Y   -0.014925  -0.001899   0.015236   0.005994   0.001535
   75  H  7  Z   -0.003621   0.013002  -0.004922   0.020595   0.019921
   76  H  8  S    0.003922  -0.063723   0.055334  -0.094173  -0.223935
   77  H  8  S    0.312024   0.466918   1.406255  -0.465861  -0.115197
   78  H  8  X    0.001801   0.011123   0.003975  -0.016838  -0.021889
   79  H  8  Y    0.004060  -0.012441   0.000416  -0.009074  -0.012749
   80  H  8  Z    0.004121   0.003124   0.016440  -0.007195   0.006892

                     26         27         28         29         30
                    0.3767     0.3921     0.4263     0.4726     0.4804
                     A          A          A          A          A   
    1  C  1  S    0.043248  -0.006366   0.005358   0.071861   0.033330
    2  C  1  S   -0.345598   0.003766  -0.082929  -0.472031  -0.203265
    3  C  1  S    0.035237   0.029402   0.257096   1.459368   0.067341
    4  C  1  X    0.280632  -0.019312  -0.060264  -0.645204   0.223085
    5  C  1  Y   -0.598015   0.090298  -0.191535  -0.008136   0.125222
    6  C  1  Z    0.323655   0.153549   0.161479   0.153072  -0.162104
    7  C  1  X   -0.438121   0.005200   0.327462   1.630928   0.128386
    8  C  1  Y    1.032416  -0.193609   1.308504   0.311366  -0.005312
    9  C  1  Z   -0.929633  -0.264036   0.053780  -0.597112   1.115604
   10  C  1 XX   -0.028867   0.012967   0.050169   0.035730  -0.040671
   11  C  1 YY    0.001158   0.021956   0.041799  -0.049964   0.070413
   12  C  1 ZZ    0.027709  -0.034922  -0.091968   0.014234  -0.029742
   13  C  1 XY   -0.023531  -0.007574   0.023523   0.021560   0.078534
   14  C  1 XZ    0.018108   0.006395   0.024758  -0.048386   0.003488
   15  C  1 YZ    0.005688   0.022846   0.046259   0.015130   0.020353
   16  C  2  S    0.002029   0.049756  -0.004092  -0.059842   0.051663
   17  C  2  S   -0.057018  -0.370643   0.074322   0.391289  -0.330623
   18  C  2  S    0.005949   0.130897  -0.324316  -1.360779   0.433822
   19  C  2  X    0.000917  -0.295687  -0.062580  -0.678395  -0.068803
   20  C  2  Y    0.054019  -0.680076   0.212437   0.022387   0.024197
   21  C  2  Z   -0.210047  -0.332206   0.159478   0.191020   0.104938
   22  C  2  X   -0.013913   0.426895   0.357097   1.593281  -0.633347
   23  C  2  Y   -0.161197   0.950450  -1.298660  -0.184222   0.300626
   24  C  2  Z    0.482389   0.839641  -0.005617  -0.771042  -0.944200
   25  C  2 XX    0.006934  -0.032470  -0.053775  -0.045871  -0.008507
   26  C  2 YY    0.026511   0.016872  -0.038287   0.061166   0.044828
   27  C  2 ZZ   -0.033445   0.015598   0.092061  -0.015295  -0.036321
   28  C  2 XY   -0.001147   0.047040   0.007286  -0.019113  -0.083798
   29  C  2 XZ    0.020373   0.017221  -0.027707   0.051500  -0.003542
   30  C  2 YZ   -0.016177   0.014411   0.024606   0.018027  -0.019660
   31  F  3  S    0.008261   0.004152  -0.008697   0.015695  -0.018518
   32  F  3  S   -0.022400   0.077292  -0.042078  -0.063379   0.046471
   33  F  3  S   -0.048085  -0.540906   0.404758  -0.011135   0.131903
   34  F  3  X    0.039800  -0.155863   0.111990   0.018961   0.145519
   35  F  3  Y   -0.045506  -0.251409   0.112844  -0.009144  -0.141587
   36  F  3  Z    0.002888  -0.155440  -0.161744   0.008983   0.066538
   37  F  3  X    0.051126   0.035656  -0.100629  -0.071611  -0.028343
   38  F  3  Y    0.032476   0.047649  -0.029600   0.033364  -0.103698
   39  F  3  Z   -0.043535  -0.035033  -0.071405   0.057175   0.051790
   40  F  3 XX    0.007644   0.007284   0.006478   0.020679   0.012806
   41  F  3 YY   -0.007781  -0.029654   0.006347  -0.015904  -0.014553
   42  F  3 ZZ    0.000138   0.022370  -0.012826  -0.004775   0.001746
   43  F  3 XY   -0.008514  -0.039426   0.018310   0.009664   0.004445
   44  F  3 XZ    0.006075  -0.014849  -0.008813  -0.003771   0.001631
   45  F  3 YZ    0.002603  -0.029105   0.000585  -0.009816  -0.000618
   46  H  4  S    0.217782  -0.014737  -0.440516  -0.004025   0.802286
   47  H  4  S   -0.089711   0.081592  -0.159719  -0.577511  -0.129782
   48  H  4  X    0.027988  -0.021765   0.002750  -0.015896   0.013298
   49  H  4  Y   -0.008446   0.004100   0.001617  -0.017426  -0.046775
   50  H  4  Z   -0.010761   0.008833   0.007738  -0.001419  -0.005430
   51  H  5  S   -0.156940   0.352684   0.483898  -0.298859  -0.110221
   52  H  5  S    0.175191   0.086579  -0.319787  -0.136298  -0.288437
   53  H  5  X   -0.030076  -0.010189   0.011316  -0.025954   0.006465
   54  H  5  Y    0.013367  -0.011184  -0.026652  -0.005734   0.027837
   55  H  5  Z    0.028120   0.006873  -0.027453   0.022553  -0.028562
   56  F  6  S    0.015784   0.008089   0.009352  -0.020361  -0.012905
   57  F  6  S    0.040124  -0.031908   0.032374   0.077738   0.019793
   58  F  6  S   -0.561342   0.003199  -0.356635   0.051406   0.156484
   59  F  6  X    0.120305  -0.040183   0.086235  -0.017307  -0.146998
   60  F  6  Y   -0.194653  -0.019775  -0.092868  -0.016700  -0.125098
   61  F  6  Z    0.126827  -0.033101  -0.168179   0.004395  -0.062556
   62  F  6  X   -0.102663  -0.029163  -0.114980  -0.055310   0.070491
   63  F  6  Y    0.108296   0.025116   0.040713  -0.059082  -0.067677
   64  F  6  Z    0.021812   0.026075  -0.058714   0.047920  -0.053770
   65  F  6 XX    0.001932   0.005701  -0.007608  -0.014206   0.018913
   66  F  6 YY   -0.021456  -0.003620  -0.005547   0.010851  -0.019483
   67  F  6 ZZ    0.019524  -0.002081   0.013154   0.003355   0.000570
   68  F  6 XY    0.035360   0.004279   0.014154   0.002971  -0.005440
   69  F  6 XZ   -0.011138   0.006749   0.010989   0.005205   0.000497
   70  F  6 YZ    0.021403  -0.005178  -0.002363  -0.005668  -0.000457
   71  H  7  S    0.105400   0.155909   0.546345   0.215120   0.739259
   72  H  7  S    0.061325  -0.040722   0.081212   0.416123  -0.361673
   73  H  7  X    0.012849  -0.025548   0.001599  -0.022799  -0.007373
   74  H  7  Y    0.007017  -0.009176  -0.007071   0.000502  -0.052932
   75  H  7  Z   -0.014448   0.014433   0.004670  -0.005089   0.003548
   76  H  8  S    0.411261  -0.247337  -0.494259   0.325999  -0.149110
   77  H  8  S    0.092168   0.125388   0.382073   0.075194  -0.336769
   78  H  8  X    0.015287   0.023216   0.009638  -0.025289  -0.005748
   79  H  8  Y    0.001273   0.016735   0.035051   0.008881   0.022470
   80  H  8  Z   -0.009213  -0.026378  -0.026561   0.031766   0.025334

                     31         32         33         34         35
                    0.5318     0.5496     0.5549     0.5825     0.7850
                     A          A          A          A          A   
    1  C  1  S   -0.019994  -0.044274   0.006179  -0.069750   0.022672
    2  C  1  S    0.090521   0.359277  -0.067433   0.535275  -1.268756
    3  C  1  S   -0.277075  -0.600014   0.273003  -0.168308   2.481659
    4  C  1  X   -0.350250  -0.122783   0.189726  -0.142753  -0.109654
    5  C  1  Y   -0.438154  -0.092742   0.376573  -0.225331   0.139123
    6  C  1  Z   -0.160989   0.159967   0.719471   0.393990   0.019599
    7  C  1  X    0.864514   0.177229  -0.254792   0.870457  -0.313164
    8  C  1  Y    0.780445   0.150886  -0.839442   0.075371  -0.411076
    9  C  1  Z    1.101319   0.261029  -1.291168  -1.019441   0.280049
   10  C  1 XX    0.001931   0.012046   0.021446   0.040156  -0.052242
   11  C  1 YY    0.005537   0.048585   0.061477  -0.001700   0.048781
   12  C  1 ZZ   -0.007468  -0.060631  -0.082923  -0.038456   0.003461
   13  C  1 XY   -0.044616  -0.004111   0.031045  -0.031937  -0.035809
   14  C  1 XZ   -0.015616  -0.042598  -0.012491  -0.018287   0.029067
   15  C  1 YZ   -0.004769  -0.014841   0.033384  -0.043101  -0.007255
   16  C  2  S   -0.034072  -0.024292  -0.042696   0.071487   0.016058
   17  C  2  S    0.181378   0.166804   0.368410  -0.556905  -1.266643
   18  C  2  S   -0.390830  -0.147097  -0.693993   0.200303   2.798666
   19  C  2  X    0.371199  -0.105569   0.177021  -0.162364   0.130326
   20  C  2  Y   -0.423468   0.282109  -0.223650   0.184292   0.194718
   21  C  2  Z    0.233747  -0.665974   0.188488   0.387507   0.010190
   22  C  2  X   -0.901443   0.135631  -0.206101   0.862261   0.231111
   23  C  2  Y    0.809058  -0.605588   0.508918   0.055452  -0.407264
   24  C  2  Z   -1.266962   0.833452  -0.708383  -1.042990  -0.266271
   25  C  2 XX   -0.003926   0.030934   0.000556  -0.038167  -0.055587
   26  C  2 YY    0.007537   0.079428   0.004150   0.006615   0.055154
   27  C  2 ZZ   -0.003611  -0.110362  -0.004706   0.031552   0.000433
   28  C  2 XY    0.049973  -0.025633   0.010904  -0.036293   0.031070
   29  C  2 XZ   -0.006756  -0.031385  -0.028563   0.021992   0.029443
   30  C  2 YZ    0.010392  -0.016979   0.028003  -0.039671   0.019736
   31  F  3  S    0.021380   0.007287  -0.001130  -0.003482   0.040034
   32  F  3  S   -0.095391  -0.043992  -0.011153   0.024238  -0.170252
   33  F  3  S    0.013689   0.058939   0.075183  -0.054127  -0.197758
   34  F  3  X    0.133587   0.074412  -0.006039  -0.010994   0.011061
   35  F  3  Y   -0.082490  -0.030128   0.023508  -0.060080  -0.053163
   36  F  3  Z    0.037522   0.043627   0.095007   0.028934  -0.003454
   37  F  3  X    0.105253  -0.035505  -0.032477  -0.026907   0.077148
   38  F  3  Y   -0.021491   0.052132  -0.069645   0.023031   0.278010
   39  F  3  Z    0.084950  -0.075964   0.047890   0.068660   0.096220
   40  F  3 XX    0.001383   0.002935  -0.005709   0.008498   0.013956
   41  F  3 YY   -0.000900  -0.018207   0.010514  -0.007819  -0.021699
   42  F  3 ZZ   -0.000483   0.015272  -0.004805  -0.000679   0.007744
   43  F  3 XY   -0.008687   0.001216   0.002702   0.000173  -0.016042
   44  F  3 XZ   -0.009694   0.009021   0.005070  -0.001505  -0.013414
   45  F  3 YZ   -0.003042   0.017460   0.006485  -0.004665  -0.013863
   46  H  4  S   -0.235777   0.188411  -0.247510   0.536132  -0.391494
   47  H  4  S    1.280911  -1.019152   0.842358  -0.707310  -0.763196
   48  H  4  X   -0.055207   0.010745  -0.030811   0.027699  -0.025058
   49  H  4  Y    0.048426  -0.050729   0.039278  -0.038585  -0.047017
   50  H  4  Z   -0.036123  -0.018940  -0.036866   0.027233   0.008495
   51  H  5  S   -0.327012  -0.682644  -0.374347   0.349111  -0.360220
   52  H  5  S   -0.718787   1.441675  -0.318226  -1.264506  -0.640916
   53  H  5  X    0.014379   0.019563  -0.012305  -0.026784  -0.012304
   54  H  5  Y    0.000228   0.007414  -0.009019   0.026663  -0.020155
   55  H  5  Z   -0.008767   0.089881   0.010389  -0.068960  -0.021432
   56  F  6  S    0.018841   0.001829   0.003703   0.002711   0.036394
   57  F  6  S   -0.086447  -0.029225  -0.019315  -0.022386  -0.162022
   58  F  6  S    0.009369   0.091776   0.014166   0.049985  -0.135284
   59  F  6  X   -0.133709  -0.039367  -0.043666  -0.021039  -0.019208
   60  F  6  Y   -0.100282  -0.006168  -0.021802   0.044719  -0.028766
   61  F  6  Z   -0.032897  -0.092881   0.034597   0.032470  -0.009566
   62  F  6  X   -0.086977   0.045300   0.022974  -0.020047  -0.064876
   63  F  6  Y   -0.022609  -0.036336   0.070951  -0.033796   0.222121
   64  F  6  Z   -0.061643   0.003515   0.097878   0.062198  -0.066329
   65  F  6 XX    0.003434  -0.002775   0.004029  -0.006040   0.010826
   66  F  6 YY   -0.005782  -0.000828  -0.015027   0.007221  -0.018229
   67  F  6 ZZ    0.002348   0.003603   0.010999  -0.001181   0.007404
   68  F  6 XY    0.007487  -0.003162   0.000772  -0.002935   0.017302
   69  F  6 XZ   -0.006639   0.008886   0.003598   0.001573  -0.012689
   70  F  6 YZ    0.000545  -0.012642  -0.008726  -0.002006   0.009567
   71  H  7  S   -0.172244  -0.125267   0.296177  -0.525810  -0.343176
   72  H  7  S    1.128337   0.253808  -1.432938   0.695968  -0.777297
   73  H  7  X    0.047780   0.023754  -0.027187   0.025426   0.029596
   74  H  7  Y    0.042814   0.007909  -0.069090   0.036833  -0.043830
   75  H  7  Z    0.034437   0.042616  -0.010510   0.031012  -0.014805
   76  H  8  S   -0.277204  -0.659628  -0.326758  -0.375468  -0.320514
   77  H  8  S   -0.577692   0.391266   1.465929   1.264976  -0.632787
   78  H  8  X   -0.021169  -0.002228  -0.022206  -0.023979   0.013673
   79  H  8  Y    0.000271  -0.002899   0.009703  -0.026068  -0.017156
   80  H  8  Z    0.007532  -0.050264  -0.071702  -0.071849   0.020576

                     36         37         38         39         40
                    0.9618     0.9847     1.0169     1.0316     1.1032
                     A          A          A          A          A   
    1  C  1  S   -0.018523   0.012335  -0.002322  -0.022025   0.023562
    2  C  1  S   -0.836066   0.167843   0.011664   0.000429   1.115819
    3  C  1  S    3.947262  -1.097663   0.217407   1.390028  -4.612705
    4  C  1  X   -0.050262   0.065111   0.022783  -0.079847  -0.163961
    5  C  1  Y    0.050453  -0.105029   0.042155   0.216682   0.076245
    6  C  1  Z   -0.041536   0.060086  -0.017617  -0.084066  -0.036335
    7  C  1  X    1.117351  -0.540317   0.179269   0.296977  -1.479425
    8  C  1  Y   -0.022488  -0.130703   0.083232  -0.056300   0.377406
    9  C  1  Z   -0.429155   0.304718   0.010325  -0.096061   0.838626
   10  C  1 XX    0.070641  -0.007547   0.134146  -0.059229   0.020979
   11  C  1 YY    0.004868  -0.015681  -0.067399   0.101725   0.025693
   12  C  1 ZZ   -0.075510   0.023228  -0.066747  -0.042496  -0.046672
   13  C  1 XY    0.001032   0.180608   0.027620  -0.063701  -0.008260
   14  C  1 XZ    0.061898  -0.021022   0.158729  -0.050655   0.090102
   15  C  1 YZ   -0.104555  -0.114007  -0.014473  -0.139927  -0.011563
   16  C  2  S    0.024376  -0.004860  -0.002121   0.003195  -0.030884
   17  C  2  S    0.522400  -0.341549   0.243051   0.556501  -1.049808
   18  C  2  S   -3.765179   1.457388  -0.223116  -1.311710   4.618498
   19  C  2  X   -0.107834  -0.035662   0.072636   0.049614  -0.130213
   20  C  2  Y   -0.232024  -0.042816   0.098903   0.174590  -0.018224
   21  C  2  Z   -0.122504  -0.040666   0.042829   0.054820  -0.007807
   22  C  2  X    1.186570  -0.228588   0.259561   0.409420  -1.434305
   23  C  2  Y    0.057337  -0.133716  -0.064988   0.106437  -0.557990
   24  C  2  Z   -0.480896  -0.010390  -0.042706  -0.248051   0.844410
   25  C  2 XX   -0.036843   0.064808  -0.148402   0.015065  -0.029047
   26  C  2 YY   -0.057497  -0.045967   0.112828   0.034506  -0.017148
   27  C  2 ZZ    0.094340  -0.018840   0.035574  -0.049571   0.046195
   28  C  2 XY   -0.116991  -0.137632   0.039367   0.021546   0.011121
   29  C  2 XZ   -0.064686  -0.005479  -0.152319   0.055521  -0.093966
   30  C  2 YZ   -0.091555   0.149118   0.076234   0.092475  -0.009483
   31  F  3  S   -0.067165  -0.003000   0.023408   0.017118   0.003735
   32  F  3  S    0.302822   0.011860  -0.114647  -0.085629   0.008961
   33  F  3  S    0.233399  -0.056816   0.016325   0.089778  -0.243435
   34  F  3  X    0.319831   0.219668   0.243565  -0.187757  -0.062553
   35  F  3  Y    0.317303   0.145029  -0.532189  -0.184752   0.136673
   36  F  3  Z    0.184685  -0.473009   0.024556  -0.328154   0.361110
   37  F  3  X   -0.618945  -0.286021  -0.226014   0.264199   0.186028
   38  F  3  Y   -0.741256  -0.166097   0.754144   0.321169  -0.069631
   39  F  3  Z   -0.336985   0.554238   0.014486   0.452575  -0.511308
   40  F  3 XX    0.020299   0.008962   0.003200  -0.000157  -0.007481
   41  F  3 YY   -0.020500  -0.001441  -0.002350   0.024886  -0.017589
   42  F  3 ZZ    0.000201  -0.007521  -0.000849  -0.024729   0.025070
   43  F  3 XY    0.000402  -0.013307   0.033777   0.033149  -0.027737
   44  F  3 XZ   -0.020468  -0.005778   0.001268   0.005785   0.004668
   45  F  3 YZ    0.000081  -0.015405   0.014491   0.021522  -0.039153
   46  H  4  S    0.295071  -0.201274  -0.000364   0.218525  -0.514255
   47  H  4  S    0.095776  -0.124279  -0.010287   0.030317  -0.310970
   48  H  4  X   -0.013084   0.070602  -0.075134   0.015993  -0.021762
   49  H  4  Y    0.021912   0.015126  -0.084053   0.006869  -0.044589
   50  H  4  Z    0.018379  -0.079041  -0.076653  -0.027429   0.009597
   51  H  5  S    0.303590  -0.175321   0.045749   0.165292  -0.351840
   52  H  5  S    0.114341  -0.094498  -0.041861   0.030750  -0.043480
   53  H  5  X    0.036877  -0.003724   0.097957  -0.028433   0.061278
   54  H  5  Y    0.047984  -0.110101  -0.031524  -0.058593  -0.016553
   55  H  5  Z    0.024120  -0.009617  -0.000939   0.000729  -0.013598
   56  F  6  S    0.045283  -0.034682   0.000394   0.051189   0.003794
   57  F  6  S   -0.224270   0.178265  -0.002455  -0.286214  -0.067421
   58  F  6  S   -0.145380   0.026216   0.003056   0.049989   0.255378
   59  F  6  X    0.110232  -0.367762   0.271014   0.094476  -0.004680
   60  F  6  Y   -0.074397   0.162466   0.281902  -0.545607  -0.271729
   61  F  6  Z    0.276952   0.342129   0.296925   0.241360   0.390461
   62  F  6  X   -0.296166   0.566774  -0.323979  -0.261839   0.117085
[...]
   27  C  2 ZZ   -0.012618   0.009711  -0.020282  -0.017189  -0.026961
   28  C  2 XY   -0.002721   0.008637   0.002883   0.005519   0.021315
   29  C  2 XZ    0.007168   0.009634   0.013416  -0.029003  -0.047341
   30  C  2 YZ   -0.005139  -0.004241   0.025360   0.017889   0.023887
   31  F  3  S   -0.006854   0.011386  -0.056488  -0.003963  -0.003924
   32  F  3  S    0.017507  -0.017625   0.096762  -0.013456   0.030123
   33  F  3  S    0.030479  -0.118148   0.526875   0.138300  -0.088966
   34  F  3  X   -0.050353  -0.025258  -0.075552  -0.112644  -0.116701
   35  F  3  Y   -0.076969   0.039115  -0.197699  -0.001748  -0.049671
   36  F  3  Z    0.016540  -0.056520  -0.098766   0.021698   0.050701
   37  F  3  X   -0.037030  -0.026967  -0.118724  -0.210326  -0.128516
   38  F  3  Y   -0.097111   0.077762  -0.222190  -0.017848   0.024591
   39  F  3  Z    0.024165  -0.079339  -0.122037   0.057025   0.114365
   40  F  3 XX    0.002390  -0.004186   0.003921  -0.000782   0.006213
   41  F  3 YY   -0.003762   0.003130  -0.001539  -0.000928  -0.007531
   42  F  3 ZZ    0.001372   0.001056  -0.002382   0.001710   0.001318
   43  F  3 XY   -0.002280  -0.000919  -0.003212  -0.007095  -0.007548
   44  F  3 XZ    0.003179  -0.003640  -0.003129  -0.007702  -0.008372
   45  F  3 YZ   -0.000977  -0.004543  -0.003096   0.007354  -0.004062
   46  H  4  S    0.100773  -0.024210   0.078883  -0.106121  -0.216145
   47  H  4  S    1.531456  -1.081966  -0.299770  -0.525947   0.099802
   48  H  4  X    0.012422  -0.003610  -0.005431   0.012291   0.004275
   49  H  4  Y   -0.014936   0.014622  -0.008846   0.007094   0.000401
   50  H  4  Z    0.004652   0.005401  -0.014282  -0.020155  -0.023225
   51  H  5  S    0.003255   0.051572  -0.088120  -0.086282  -0.263739
   52  H  5  S    0.023452   1.397518   0.526532  -0.453553  -0.185969
   53  H  5  X   -0.001811  -0.002538  -0.012972   0.017138   0.024172
   54  H  5  Y    0.003891   0.002115  -0.016594  -0.009190  -0.014370
   55  H  5  Z   -0.000613  -0.016177  -0.004906   0.006855  -0.010426
   56  F  6  S    0.007065   0.011361   0.056794   0.003990  -0.003876
   57  F  6  S   -0.017906  -0.017555  -0.097337   0.013419   0.029890
   58  F  6  S   -0.032264  -0.118088  -0.529683  -0.138638  -0.088577
   59  F  6  X   -0.054735   0.023294  -0.086945  -0.112678   0.118782
   60  F  6  Y    0.074102   0.037784   0.198111  -0.005176  -0.040597
   61  F  6  Z    0.019812   0.058146  -0.090575   0.021791  -0.053749
   62  F  6  X   -0.042461   0.023003  -0.131471  -0.211182   0.126591
   63  F  6  Y    0.094853   0.075397   0.221441   0.004000   0.036416
   64  F  6  Z    0.028283   0.082716  -0.112916   0.057731  -0.113583
   65  F  6 XX   -0.002182  -0.004251  -0.003580   0.001478   0.005455
   66  F  6 YY    0.003623   0.002865   0.001439  -0.000317  -0.006991
   67  F  6 ZZ   -0.001441   0.001386   0.002141  -0.001161   0.001536
   68  F  6 XY   -0.002516   0.000625  -0.003674  -0.007364   0.008658
   69  F  6 XZ   -0.003240  -0.003829   0.003155   0.006980  -0.008155
   70  F  6 YZ   -0.000890   0.004450  -0.002969   0.007852   0.003116
   71  H  7  S   -0.100594  -0.023821  -0.078471   0.105835  -0.214681
   72  H  7  S   -1.534967  -1.076036   0.299851   0.527835   0.099333
   73  H  7  X    0.011560   0.002779  -0.006040   0.012604  -0.004400
   74  H  7  Y    0.015454   0.014954   0.009179  -0.005572  -0.000859
   75  H  7  Z    0.005260  -0.004819  -0.013879  -0.020465   0.023337
   76  H  8  S   -0.003300   0.051837   0.087753   0.086854  -0.267375
   77  H  8  S   -0.019909   1.400169  -0.526867   0.450619  -0.183534
   78  H  8  X   -0.001603   0.002502  -0.013903   0.016598  -0.023180
   79  H  8  Y   -0.003917   0.001593   0.016117   0.009822  -0.015963
   80  H  8  Z   -0.000735   0.016288  -0.004213   0.007206   0.009639

                     26         27
                    0.3928     0.3974
                     A          A   
    1  C  1  S    0.031947   0.038789
    2  C  1  S   -0.274401  -0.259667
    3  C  1  S    0.118721   0.091010
    4  C  1  X    0.227618   0.243599
    5  C  1  Y   -0.426237  -0.520416
    6  C  1  Z    0.358804   0.106586
    7  C  1  X   -0.335029  -0.292764
    8  C  1  Y    0.560066   0.722227
    9  C  1  Z   -0.820243  -0.350700
   10  C  1 XX   -0.010456  -0.026971
   11  C  1 YY    0.026199  -0.006807
   12  C  1 ZZ   -0.015743   0.033778
   13  C  1 XY   -0.042986  -0.031252
   14  C  1 XZ    0.018982   0.003292
   15  C  1 YZ    0.006857  -0.024212
   16  C  2  S    0.032030  -0.038706
   17  C  2  S   -0.275940   0.258570
   18  C  2  S    0.122033  -0.087209
   19  C  2  X   -0.205383   0.212740
   20  C  2  Y   -0.426408   0.524193
   21  C  2  Z   -0.377926   0.127236
   22  C  2  X    0.304409  -0.247335
   23  C  2  Y    0.553201  -0.718595
   24  C  2  Z    0.845543  -0.379868
   25  C  2 XX   -0.014382   0.029988
   26  C  2 YY    0.030528   0.005783
   27  C  2 ZZ   -0.016146  -0.035771
   28  C  2 XY    0.039620  -0.029016
   29  C  2 XZ    0.021158  -0.003356
   30  C  2 YZ   -0.003588  -0.022222
   31  F  3  S    0.009521   0.005534
   32  F  3  S    0.034192  -0.077258
   33  F  3  S   -0.406769   0.329554
   34  F  3  X   -0.087546   0.130662
   35  F  3  Y   -0.204154   0.155149
   36  F  3  Z   -0.088891   0.131265
   37  F  3  X    0.057725   0.003005
   38  F  3  Y    0.057753   0.001198
   39  F  3  Z   -0.046764   0.015616
   40  F  3 XX    0.008821   0.000469
   41  F  3 YY   -0.024894   0.015844
   42  F  3 ZZ    0.016073  -0.016313
   43  F  3 XY   -0.034499   0.023447
   44  F  3 XZ   -0.005914   0.015166
   45  F  3 YZ   -0.016773   0.022692
   46  H  4  S    0.116672   0.121863
   47  H  4  S    0.013715  -0.102344
   48  H  4  X    0.003508   0.032541
   49  H  4  Y   -0.002149  -0.006539
   50  H  4  Z   -0.003885  -0.014778
   51  H  5  S    0.072907  -0.406793
   52  H  5  S    0.171861   0.059395
   53  H  5  X   -0.027677  -0.009140
   54  H  5  Y    0.002099   0.017565
   55  H  5  Z    0.025372   0.014744
   56  F  6  S    0.009417  -0.005487
   57  F  6  S    0.033809   0.077585
   58  F  6  S   -0.402387  -0.332493
   59  F  6  X    0.097485   0.140688
   60  F  6  Y   -0.201678  -0.154549
   61  F  6  Z    0.080273   0.124878
   62  F  6  X   -0.059940   0.003494
   63  F  6  Y    0.051935  -0.001252
   64  F  6  Z    0.049775   0.015416
   65  F  6 XX    0.005505  -0.002763
   66  F  6 YY   -0.022604  -0.015301
   67  F  6 ZZ    0.017100   0.018064
   68  F  6 XY    0.036521   0.025300
   69  F  6 XZ   -0.005171  -0.015372
   70  F  6 YZ    0.014323   0.020325
   71  H  7  S    0.115851  -0.124781
   72  H  7  S    0.012049   0.103921
   73  H  7  X   -0.003595   0.032144
   74  H  7  Y   -0.002576   0.009019
   75  H  7  Z    0.003829  -0.014251
   76  H  8  S    0.073127   0.404805
   77  H  8  S    0.170850  -0.058659
   78  H  8  X    0.027465  -0.008167
   79  H  8  Y    0.004662  -0.018818
   80  H  8  Z   -0.025277   0.013778

     ---------------------------------------------------------------------
     PROPERTIES FOR THE PBE      DFT FUNCTIONAL (RHF  TYPE) DENSITY MATRIX
     ---------------------------------------------------------------------

          -----------------
          ENERGY COMPONENTS
          -----------------

         WAVEFUNCTION NORMALIZATION =       1.0000000000

                ONE ELECTRON ENERGY =    -636.4587183813
                TWO ELECTRON ENERGY =     231.1956548603
           NUCLEAR REPULSION ENERGY =     127.3258761985
                                      ------------------
                       TOTAL ENERGY =    -277.9371873225

 ELECTRON-ELECTRON POTENTIAL ENERGY =     231.1956548603
  NUCLEUS-ELECTRON POTENTIAL ENERGY =    -913.5336923117
   NUCLEUS-NUCLEUS POTENTIAL ENERGY =     127.3258761985
                                      ------------------
             TOTAL POTENTIAL ENERGY =    -555.0121612530
               TOTAL KINETIC ENERGY =     277.0749739304
                 VIRIAL RATIO (V/T) =       2.0031118415

          ---------------------------------------
          MULLIKEN AND LOWDIN POPULATION ANALYSES
          ---------------------------------------

     ATOMIC MULLIKEN POPULATION IN EACH MOLECULAR ORBITAL

                      1          2          3          4          5

                  2.000000   2.000000   2.000000   2.000000   2.000000

    1             0.001194  -0.000037   1.177842   0.821954   0.118893
    2            -0.000054   0.001209   0.821484   1.178312   0.114917
    3             0.028992   1.969873  -0.000219  -0.000292   0.854868
    4             0.000004  -0.000006   0.000251   0.000076   0.002757
    5            -0.000004  -0.000014   0.000298   0.000092   0.004746
    6             1.969886   0.028978  -0.000312  -0.000202   0.896076
    7            -0.000001  -0.000001   0.000300   0.000026   0.002858
    8            -0.000017  -0.000001   0.000357   0.000035   0.004885

                      6          7          8          9         10

                  2.000000   2.000000   2.000000   2.000000   2.000000

    1             0.082507   0.712777   0.469630   0.374295   0.477328
    2             0.086195   0.713004   0.470021   0.375435   0.472970
    3             0.932803   0.148446   0.276236   0.468369   0.325615
    4             0.002053   0.072546   0.119293   0.146313   0.035787
    5             0.001685   0.066031   0.134429   0.003997   0.166330
    6             0.891252   0.148592   0.277047   0.484031   0.315321
    7             0.001943   0.072421   0.119169   0.142506   0.040976
    8             0.001563   0.066183   0.134174   0.005053   0.165673

                     11         12         13         14         15

                  2.000000   2.000000   2.000000   2.000000   2.000000

    1             0.463538   0.296793   0.321678   0.049577   0.106147
    2             0.463989   0.298030   0.323513   0.049774   0.104003
    3             0.499306   0.509288   0.458725   0.925783   0.730527
    4             0.028838   0.193055   0.021647   0.005287   0.100699
    5             0.007945   0.001918   0.197929   0.019723   0.057195
    6             0.499935   0.506408   0.458522   0.924634   0.739423
    7             0.028330   0.192655   0.021087   0.005371   0.103102
    8             0.008119   0.001852   0.196899   0.019851   0.058906

                     16         17

                  2.000000   2.000000

    1             0.137122   0.263190
    2             0.138919   0.263183
    3             0.580259   0.613913
    4             0.116665   0.062028
    5             0.172189   0.061180
    6             0.569217   0.613286
    7             0.114844   0.061718
    8             0.170784   0.061501

               ----- POPULATIONS IN EACH AO -----
                             MULLIKEN      LOWDIN
              1  C  1  S      1.99338     1.97160
              2  C  1  S      0.75914     0.38490
              3  C  1  S      0.36597     0.27914
              4  C  1  X      0.70211     0.64250
              5  C  1  Y      0.61390     0.55679
              6  C  1  Z      0.75199     0.67681
              7  C  1  X      0.18241     0.28918
              8  C  1  Y      0.15854     0.27556
              9  C  1  Z      0.28219     0.37306
             10  C  1 XX      0.01423     0.16103
             11  C  1 YY      0.01612     0.16388
             12  C  1 ZZ      0.01685     0.16184
             13  C  1 XY      0.00824     0.03376
             14  C  1 XZ      0.00936     0.01582
             15  C  1 YZ      0.00000     0.01849
             16  C  2  S      1.99338     1.97160
             17  C  2  S      0.75918     0.38497
             18  C  2  S      0.36627     0.27919
             19  C  2  X      0.71266     0.65119
             20  C  2  Y      0.60856     0.55244
             21  C  2  Z      0.74651     0.67230
             22  C  2  X      0.19028     0.29674
             23  C  2  Y      0.15499     0.27232
             24  C  2  Z      0.27838     0.36888
             25  C  2 XX      0.01455     0.15995
             26  C  2 YY      0.01560     0.16392
             27  C  2 ZZ      0.01690     0.16247
             28  C  2 XY      0.00795     0.03454
             29  C  2 XZ      0.00971     0.01516
             30  C  2 YZ      0.00000     0.01875
             31  F  3  S      1.99544     1.97164
             32  F  3  S      0.94969     0.75219
             33  F  3  S      0.99784     0.52452
             34  F  3  X      1.16621     1.13230
             35  F  3  Y      1.03898     0.99383
             36  F  3  Z      1.20700     1.17589
             37  F  3  X      0.66945     0.69539
             38  F  3  Y      0.59445     0.63529
             39  F  3  Z      0.69294     0.72140
             40  F  3 XX      0.00145     0.19072
             41  F  3 YY      0.00258     0.19459
             42  F  3 ZZ      0.00330     0.18940
             43  F  3 XY      0.00091     0.00428
             44  F  3 XZ      0.00225     0.00130
             45  F  3 YZ      0.00000     0.00325
             46  H  4  S      0.77122     0.64778
             47  H  4  S      0.11928     0.21722
             48  H  4  X      0.00505     0.01130
             49  H  4  Y      0.00803     0.01720
             50  H  4  Z      0.00371     0.00887
             51  H  5  S      0.76877     0.65188
             52  H  5  S      0.11020     0.21721
             53  H  5  X      0.00280     0.00813
             54  H  5  Y      0.00230     0.00582
             55  H  5  Z      0.01161     0.02438
             56  F  6  S      1.99544     1.97164
             57  F  6  S      0.94970     0.75215
             58  F  6  S      0.99767     0.52439
             59  F  6  X      1.15339     1.11848
             60  F  6  Y      1.04581     1.00114
             61  F  6  Z      1.21320     1.18252
             62  F  6  X      0.66178     0.68874
             63  F  6  Y      0.59814     0.63879
             64  F  6  Z      0.69646     0.72420
             65  F  6 XX      0.00145     0.19110
             66  F  6 YY      0.00254     0.19434
             67  F  6 ZZ      0.00350     0.18917
             68  F  6 XY      0.00097     0.00444
             69  F  6 XZ      0.00205     0.00139
             70  F  6 YZ      0.00000     0.00303
             71  H  7  S      0.77116     0.64785
             72  H  7  S      0.11936     0.21730
             73  H  7  X      0.00461     0.01049
             74  H  7  Y      0.00828     0.01766
             75  H  7  Z      0.00389     0.00922
             76  H  8  S      0.76886     0.65192
             77  H  8  S      0.11025     0.21718
             78  H  8  X      0.00273     0.00800
             79  H  8  Y      0.00234     0.00592
             80  H  8  Z      0.01164     0.02441

          ----- MULLIKEN ATOMIC OVERLAP POPULATIONS -----
          (OFF-DIAGONAL ELEMENTS NEED TO BE MULTIPLIED BY 2)

             1           2           3           4           5

    1    4.6119778
    2    0.3865173   4.6130400
    3   -0.0423995   0.2491812   9.1692257
    4   -0.0341541   0.3621194  -0.0285026   0.6392610
    5   -0.0362620   0.3770861  -0.0317402  -0.0362885   0.6152607
    6    0.2494605  -0.0424419   0.0012032   0.0039217   0.0015850
    7    0.3622712  -0.0342711   0.0039183   0.0079447  -0.0069906
    8    0.3770164  -0.0363276   0.0016069  -0.0070096   0.0130182

             6           7           8

    6    9.1686704
    7   -0.0285464   0.6392710
    8   -0.0317574  -0.0362927   0.6155619

          TOTAL MULLIKEN AND LOWDIN ATOMIC POPULATIONS
       ATOM         MULL.POP.    CHARGE          LOW.POP.     CHARGE
    1 C             5.874428    0.125572         6.004352   -0.004352
    2 C             5.874903    0.125097         6.004404   -0.004404
    3 F             9.322493   -0.322493         9.185995   -0.185995
    4 H             0.907292    0.092708         0.902372    0.097628
    5 H             0.895669    0.104331         0.907421    0.092579
    6 F             9.322095   -0.322095         9.185496   -0.185496
    7 H             0.907304    0.092696         0.902526    0.097474
    8 H             0.895816    0.104184         0.907435    0.092565

          MULLIKEN SPHERICAL HARMONIC POPULATIONS
       ATOM           S       P       D      F      G      H      I    TOTAL
    1 C             3.12    2.69    0.06   0.00   0.00   0.00   0.00    5.87
    2 C             3.12    2.69    0.06   0.00   0.00   0.00   0.00    5.87
    3 F             3.94    5.37    0.01   0.00   0.00   0.00   0.00    9.32
    4 H             0.89    0.02    0.00   0.00   0.00   0.00   0.00    0.91
    5 H             0.88    0.02    0.00   0.00   0.00   0.00   0.00    0.90
    6 F             3.94    5.37    0.01   0.00   0.00   0.00   0.00    9.32
    7 H             0.89    0.02    0.00   0.00   0.00   0.00   0.00    0.91
    8 H             0.88    0.02    0.00   0.00   0.00   0.00   0.00    0.90

          -------------------------------
          BOND ORDER AND VALENCE ANALYSIS     BOND ORDER THRESHOLD=0.050
          -------------------------------

                   BOND                       BOND                       BOND
  ATOM PAIR DIST  ORDER      ATOM PAIR DIST  ORDER      ATOM PAIR DIST  ORDER
    1   2  1.508  1.052        1   6  1.396  0.927        1   7  1.109  0.933
    1   8  1.108  0.934        2   3  1.397  0.926        2   4  1.109  0.933
    2   5  1.108  0.934

                       TOTAL       BONDED        FREE
      ATOM            VALENCE     VALENCE     VALENCE
    1 C                 3.864       3.864       0.000
    2 C                 3.864       3.864       0.000
    3 F                 0.984       0.984       0.000
    4 H                 0.953       0.953       0.000
    5 H                 0.959       0.959       0.000
    6 F                 0.984       0.984      -0.000
    7 H                 0.953       0.953       0.000
    8 H                 0.959       0.959       0.000

          ---------------------
          ELECTROSTATIC MOMENTS
          ---------------------

 POINT   1           X           Y           Z (BOHR)    CHARGE
                -0.000000    0.000000    0.000000        0.00 (A.U.)
         DX          DY          DZ         /D/  (DEBYE)
     0.075614   -2.820586   -0.061226    2.822264
 ...... END OF PROPERTY EVALUATION ......
 STEP CPU TIME =     0.01 TOTAL CPU TIME =         83.5 (      1.4 MIN)
 TOTAL WALL CLOCK TIME=         83.9 SECONDS, CPU UTILIZATION IS    99.52%
  $VIB   
          IVIB=   0 IATOM=   0 ICOORD=   0 E=     -277.9371873225
 -2.044902711E-06 4.061919693E-05 6.344661592E-05 1.612045278E-05-2.091173159E-05
 -4.997499976E-05 1.210381480E-06 7.983233243E-06 1.329496584E-05-5.376686665E-06
  3.170187000E-06 5.253310765E-06-1.254511654E-06-4.680494250E-06 2.473352784E-06
 -7.002240507E-06-1.455688900E-05-1.450829850E-05 2.383352958E-06 1.451798070E-06
 -1.747315335E-05-4.035845681E-06-1.307530040E-05-2.511793706E-06
  7.561400383E-02-2.820586205E+00-6.122570945E-02
 ......END OF GEOMETRY SEARCH......
 STEP CPU TIME =     0.00 TOTAL CPU TIME =         83.5 (      1.4 MIN)
 TOTAL WALL CLOCK TIME=         83.9 SECONDS, CPU UTILIZATION IS    99.52%
                991181  WORDS OF DYNAMIC MEMORY USED
 EXECUTION OF GAMESS TERMINATED NORMALLY Sun Oct  6 23:30:04 2019
 DDI: 263640 bytes (0.3 MB / 0 MWords) used by master data server.

 ----------------------------------------
 CPU timing information for all processes
 ========================================
 0: 82.83 + 1.421 = 83.504
 ----------------------------------------
 ddikick.x: exited gracefully.
----- accounting info -----
Files used on the master node d12chas543.crc.nd.edu were:
-rw-r--r-- 1 wschnei1 campus 354655 Oct  6 23:30 /scratch365/wschnei1/60-PC1.F07
Sun Oct  6 23:30:07 EDT 2019
0.392u 0.302s 1:27.53 0.7%	0+0k 0+32io 0pf+0w
