----- GAMESS execution script 'rungms' -----
This job is running on host d12chas543.crc.nd.edu
under operating system Linux at Sun Oct 6 23:30:07 EDT 2019
SGE has assigned the following compute nodes to this run:
Available scratch disk space (Kbyte units) at beginning of the job is
Filesystem      1K-blocks     Used  Available Use% Mounted on
/dev/sda2      1949705068 64277760 1885427308   4% /
GAMESS temporary binary files will be written to /tmp/474112.1.debug
GAMESS supplementary output files will be written to /afs/crc.nd.edu/user/w/wschnei1/scr
Copying input file 70-PC1.inp to your run's scratch directory...
reading your own /afs/crc.nd.edu/user/w/wschnei1/.gmsrc

 Distributed Data Interface kickoff program.
 Initiating 1 compute processes on 1 nodes to run the following command:
 /afs/crc.nd.edu/x86_64_linux/g/gamess/nov-2017/gamess/gamess.00.x 70-PC1 

          ******************************************************
          *         GAMESS VERSION = 11 NOV 2017 (R3)         *
          *             FROM IOWA STATE UNIVERSITY             *
          * M.W.SCHMIDT, K.K.BALDRIDGE, J.A.BOATZ, S.T.ELBERT, *
          *   M.S.GORDON, J.H.JENSEN, S.KOSEKI, N.MATSUNAGA,   *
          *          K.A.NGUYEN, S.J.SU, T.L.WINDUS,           *
          *       TOGETHER WITH M.DUPUIS, J.A.MONTGOMERY       *
          *         J.COMPUT.CHEM.  14, 1347-1363(1993)        *
          **************** 64 BIT INTEL VERSION ****************

  SINCE 1993, STUDENTS AND POSTDOCS WORKING AT IOWA STATE UNIVERSITY
  AND ALSO IN THEIR VARIOUS JOBS AFTER LEAVING ISU HAVE MADE IMPORTANT
  CONTRIBUTIONS TO THE CODE:
     IVANA ADAMOVIC, CHRISTINE AIKENS, YURI ALEXEEV, POOJA ARORA,
     ANDREY ASADCHEV, ROB BELL, PRADIPTA BANDYOPADHYAY, JONATHAN BENTZ,
     BRETT BODE, KURT BRORSEN, CALEB CARLIN, GALINA CHABAN, WEI CHEN,
     CHEOL HO CHOI, PAUL DAY, ALBERT DEFUSCO, NUWAN DESILVA, TIM DUDLEY,
     DMITRI FEDOROV, ALEX FINDLATER, GRAHAM FLETCHER, MARK FREITAG,
     KURT GLAESEMANN, ANASTASIA GUININA,
     DAN KEMP, GRANT MERRILL, NORIYUKI MINEZAWA, JONATHAN MULLIN,
     TAKESHI NAGATA, SEAN NEDD, HEATHER NETZLOFF, BOSILJKA NJEGIC, RYAN OLSON,
     MIKE PAK, BUU PHAM,
     SPENCER PRUITT, LUKE ROSKOP, JIM SHOEMAKER, LYUDMILA SLIPCHENKO,
     TONY SMITH, SAROM SOK LEANG, JIE SONG, TETSUYA TAKETSUGU, SIMON WEBB,
     PENG XU, SOOHAENG YOO, FEDERICO ZAHARIEV

  ADDITIONAL CODE HAS BEEN PROVIDED BY COLLABORATORS IN OTHER GROUPS:
     IOWA STATE UNIVERSITY:
          JOE IVANIC, AARON WEST, LAIMUTIS BYTAUTAS, KLAUS RUEDENBERG
     UNIVERSITY OF TOKYO: KIMIHIKO HIRAO, TAKAHITO NAKAJIMA,
          TAKAO TSUNEDA, MUNEAKI KAMIYA, SUSUMU YANAGISAWA,
          KIYOSHI YAGI, MAHITO CHIBA, SEIKEN TOKURA, NAOAKI KAWAKAMI
     UNIVERSITY OF AARHUS: FRANK JENSEN
     UNIVERSITY OF IOWA: VISVALDAS KAIRYS, HUI LI
     NATIONAL INST. OF STANDARDS AND TECHNOLOGY: WALT STEVENS, DAVID GARMER
     UNIVERSITY OF PISA: BENEDETTA MENNUCCI, JACOPO TOMASI
     UNIVERSITY OF MEMPHIS: HENRY KURTZ, PRAKASHAN KORAMBATH
     UNIVERSITY OF ALBERTA: TOBY ZENG, MARIUSZ KLOBUKOWSKI
     UNIVERSITY OF NEW ENGLAND: MARK SPACKMAN
     MIE UNIVERSITY: HIROAKI UMEDA
     NAT. INST. OF ADVANCED INDUSTRIAL SCIENCE AND TECHNOLOGY: KAZUO KITAURA
     MICHIGAN STATE UNIVERSITY:
          KAROL KOWALSKI, MARTA WLOCH, JEFFREY GOUR, JESSE LUTZ,
          WEI LI, PIOTR PIECUCH
     UNIVERSITY OF SILESIA: MONIKA MUSIAL, STANISLAW KUCHARSKI
     FACULTES UNIVERSITAIRES NOTRE-DAME DE LA PAIX:
          OLIVIER QUINET, BENOIT CHAMPAGNE
     UNIVERSITY OF CALIFORNIA - SANTA BARBARA: BERNARD KIRTMAN
     INSTITUTE FOR MOLECULAR SCIENCE:
          KAZUYA ISHIMURA, MICHIO KATOUDA, AND SHIGERU NAGASE
     UNIVERSITY OF NOTRE DAME: ANNA POMOGAEVA, DAN CHIPMAN
     KYUSHU UNIVERSITY:
          HARUYUKI NAKANO,
          FENG LONG GU, JACEK KORCHOWIEC, MARCIN MAKOWSKI, AND YURIKO AOKI,
          HIROTOSHI MORI AND EISAKU MIYOSHI
     PENNSYLVANIA STATE UNIVERSITY:
          TZVETELIN IORDANOV, CHET SWALINA, JONATHAN SKONE,
          SHARON HAMMES-SCHIFFER
     WASEDA UNIVERSITY:
          MASATO KOBAYASHI, TOMOKO AKAMA, TSUGUKI TOUMA,
          TAKESHI YOSHIKAWA, YASUHIRO IKABATA, JUNJI SEINO,
          YUYA NAKAJIMA, HIROMI NAKAI
     NANJING UNIVERSITY: SHUHUA LI
     UNIVERSITY OF NEBRASKA:
          PEIFENG SU, DEJUN SI, NANDUN THELLAMUREGE, YALI WANG, HUI LI
     UNIVERSITY OF ZURICH: ROBERTO PEVERATI, KIM BALDRIDGE
     N. COPERNICUS UNIVERSITY AND JACKSON STATE UNIVERSITY:
          MARIA BARYSZ
     UNIVERSITY OF COPENHAGEN: Jimmy Kromann, CASPER STEINMANN
     TOKYO INSTITUTE OF TECHNOLOGY: HIROYA NAKATA
     NAGOYA UNIVERSITY: YOSHIO NISHIMOTO, STEPHAN IRLE
     MOSCOW STATE UNIVERSITY: VLADIMIR MIRONOV

 EXECUTION OF GAMESS BEGUN Sun Oct  6 23:30:08 2019

            ECHO OF THE FIRST FEW INPUT CARDS -
 INPUT CARD> $CONTRL SCFTYP=RHF DFTTYP=PBE RUNTYP=OPTIMIZE COORD=ZMT NZVAR=18 ISPHER=1 $END 
 INPUT CARD> $BASIS GBASIS=PCseg-1 $END                                                     
 INPUT CARD> $STATPT IFREEZ(1)=12 $END                                                      
 INPUT CARD> $DATA                                                                          
 INPUT CARD>FCH2CH2F eclipsed TS                                                            
 INPUT CARD>C1                                                                              
 INPUT CARD>C                                                                               
 INPUT CARD>C   1   r1                                                                      
 INPUT CARD>F   2   r2   1   A1                                                             
 INPUT CARD>H   2   r3   1   A2   3   D1                                                    
 INPUT CARD>H   2   r4   1   A3   3   D2                                                    
 INPUT CARD>F   1   r5   2   A4   3   D3                                                    
 INPUT CARD>H   1   r6   2   A5   6   D4                                                    
 INPUT CARD>H   1   r7   2   A6   6   D5                                                    
 INPUT CARD>                                                                                
 INPUT CARD>r1=1.5                                                                          
 INPUT CARD>r2=1.4                                                                          
 INPUT CARD>r3=1.1                                                                          
 INPUT CARD>r4=1.1                                                                          
 INPUT CARD>r5=1.5                                                                          
 INPUT CARD>r6=1.1                                                                          
 INPUT CARD>r7=1.1                                                                          
 INPUT CARD>A1=109.54214                                                                    
 INPUT CARD>A2=109.54214                                                                    
 INPUT CARD>A3=109.54214                                                                    
 INPUT CARD>A4=109.54214                                                                    
 INPUT CARD>A5=109.54214                                                                    
 INPUT CARD>A6=109.54214                                                                    
 INPUT CARD>D1=120.                                                                         
 INPUT CARD>D2=-120.                                                                        
 INPUT CARD>D3=70                                                                           
 INPUT CARD>D4=120.                                                                         
 INPUT CARD>D5=-120.                                                                        
 INPUT CARD> $END                                                                           
 INPUT CARD>                                                                                
    1000000 WORDS OF MEMORY AVAILABLE

     BASIS OPTIONS
     -------------
     GBASIS=PCSEG-1      IGAUSS=       0      POLAR=NONE    
     NDFUNC=       0     NFFUNC=       0     DIFFSP=       F
     NPFUNC=       0      DIFFS=       F     BASNAM=        


     RUN TITLE
     ---------
 FCH2CH2F eclipsed TS                                                            

 THE POINT GROUP OF THE MOLECULE IS C1      
 THE ORDER OF THE PRINCIPAL AXIS IS     0

 YOUR FULLY SUBSTITUTED Z-MATRIX IS
 C   
 C      1   1.5000000
 F      2   1.4000000  1  109.5421
 H      2   1.1000000  1  109.5421  3  120.0000  0
 H      2   1.1000000  1  109.5421  3 -120.0000  0
 F      1   1.5000000  2  109.5421  3   70.0000  0
 H      1   1.1000000  2  109.5421  6  120.0000  0
 H      1   1.1000000  2  109.5421  6 -120.0000  0

 THE MOMENTS OF INERTIA ARE (AMU-ANGSTROM**2)
 IXX=    31.766   IYY=   102.473   IZZ=   118.987

 ATOM      ATOMIC                      COORDINATES (BOHR)
           CHARGE         X                   Y                   Z
 C           6.0    -1.1855871544       -1.2334892728        0.6293730509
 C           6.0     1.3325899980       -1.0991773063       -0.6650916337
 F           9.0     2.6963909485        0.9684151734        0.2646364717
 H           1.0     2.3958317362       -2.8478258418       -0.3007660664
 H           1.0     1.0509172937       -0.8762255241       -2.7125146002
 F           9.0    -2.8112358001        0.9225084913       -0.2330855373
 H           1.0    -2.1154145562       -3.0315108003        0.1565862034
 H           1.0    -0.9167443361       -1.1153729676        2.6872262747

          INTERNUCLEAR DISTANCES (ANGS.)
          ------------------------------

                1 C          2 C          3 F          4 H          5 H     

   1 C       0.0000000    1.5000000 *  2.3695781 *  2.1363170 *  2.1363170 *
   2 C       1.5000000 *  0.0000000    1.4000000 *  1.1000000 *  1.1000000 *
   3 F       2.3695781 *  1.4000000 *  0.0000000    2.0476979 *  2.0476979 *
   4 H       2.1363170 *  1.1000000 *  2.0476979 *  0.0000000    1.7955050 *
   5 H       2.1363170 *  1.1000000 *  2.0476979 *  1.7955050 *  0.0000000  
   6 F       1.5000000 *  2.4505612 *  2.9264883 *  3.4021428    2.6085400 *
   7 H       1.1000000 *  2.1363170 *  3.3116754    2.4014536 *  2.5324685 *
   8 H       1.1000000 *  2.1363170 *  2.5524705 *  2.5324685 *  3.0438543  

                6 F          7 H          8 H     

   1 C       1.5000000 *  1.1000000 *  1.1000000 *
   2 C       2.4505612 *  2.1363170 *  2.1363170 *
   3 F       2.9264883 *  3.3116754    2.5524705 *
   4 H       3.4021428    2.4014536 *  2.5324685 *
   5 H       2.6085400 *  2.5324685 *  3.0438543  
   6 F       0.0000000    2.1345124 *  2.1345124 *
   7 H       2.1345124 *  0.0000000    1.7955050 *
   8 H       2.1345124 *  1.7955050 *  0.0000000  

  * ... LESS THAN  3.000


     ATOMIC BASIS SET
     ----------------
 THE CONTRACTED PRIMITIVE FUNCTIONS HAVE BEEN UNNORMALIZED
 THE CONTRACTED BASIS FUNCTIONS ARE NOW NORMALIZED TO UNITY

  SHELL TYPE  PRIMITIVE        EXPONENT          CONTRACTION COEFFICIENT(S)

 C         

      1   S       1          1243.2000000    0.005630097702
      1   S       2           187.1450000    0.041950603854
      1   S       3            42.5126000    0.184664360492
      1   S       4            11.7393000    0.466557421368
      1   S       5             3.5054800    0.448234778316

      2   S       6             5.3908900   -0.148114817444
      2   S       7             0.4933410    1.051981714281

      3   S       8             0.1497410    1.000000000000

      4   P       9             9.1805600    0.063992052045
      4   P      10             1.9365800    0.333521296407
      4   P      11             0.5262960    0.741161730513

      5   P      12             0.1363190    1.000000000000

      6   D      13             0.8000000    1.000000000000

 C         

      7   S      14          1243.2000000    0.005630097702
      7   S      15           187.1450000    0.041950603854
      7   S      16            42.5126000    0.184664360492
      7   S      17            11.7393000    0.466557421368
      7   S      18             3.5054800    0.448234778316

      8   S      19             5.3908900   -0.148114817444
      8   S      20             0.4933410    1.051981714281

      9   S      21             0.1497410    1.000000000000

     10   P      22             9.1805600    0.063992052045
     10   P      23             1.9365800    0.333521296407
     10   P      24             0.5262960    0.741161730513

     11   P      25             0.1363190    1.000000000000

     12   D      26             0.8000000    1.000000000000

 F         

     13   S      27          2931.5500000    0.005390132259
     13   S      28           441.1250000    0.040296704072
     13   S      29           100.2320000    0.180202178717
     13   S      30            27.8655000    0.465064284210
     13   S      31             8.4447000    0.452433138251

     14   S      32            13.6123000   -0.151660908297
     14   S      33             1.2612200    1.053515343452

     15   S      34             0.3708000    1.000000000000

     16   P      35            21.9305000    0.070356827475
     16   P      36             4.7855200    0.356742371235
     16   P      37             1.2837800    0.719732016372

     17   P      38             0.3115580    1.000000000000

     18   D      39             1.1000000    1.000000000000

 H         

     19   S      40            12.2518000    0.037217389296
     19   S      41             1.8687100    0.253808206955
     19   S      42             0.4182080    0.797386763917

     20   S      43             0.1061000    1.000000000000

     21   P      44             1.0000000    1.000000000000

 H         

     22   S      45            12.2518000    0.037217389296
     22   S      46             1.8687100    0.253808206955
     22   S      47             0.4182080    0.797386763917

     23   S      48             0.1061000    1.000000000000

     24   P      49             1.0000000    1.000000000000

 F         

     25   S      50          2931.5500000    0.005390132259
     25   S      51           441.1250000    0.040296704072
     25   S      52           100.2320000    0.180202178717
     25   S      53            27.8655000    0.465064284210
     25   S      54             8.4447000    0.452433138251

     26   S      55            13.6123000   -0.151660908297
     26   S      56             1.2612200    1.053515343452

     27   S      57             0.3708000    1.000000000000

     28   P      58            21.9305000    0.070356827475
     28   P      59             4.7855200    0.356742371235
     28   P      60             1.2837800    0.719732016372

     29   P      61             0.3115580    1.000000000000

     30   D      62             1.1000000    1.000000000000

 H         

     31   S      63            12.2518000    0.037217389296
     31   S      64             1.8687100    0.253808206955
     31   S      65             0.4182080    0.797386763917

     32   S      66             0.1061000    1.000000000000

     33   P      67             1.0000000    1.000000000000

 H         

     34   S      68            12.2518000    0.037217389296
     34   S      69             1.8687100    0.253808206955
     34   S      70             0.4182080    0.797386763917

     35   S      71             0.1061000    1.000000000000

     36   P      72             1.0000000    1.000000000000

 TOTAL NUMBER OF BASIS SET SHELLS             =   36
 NUMBER OF CARTESIAN GAUSSIAN BASIS FUNCTIONS =   80
 NOTE: THIS RUN WILL RESTRICT THE MO VARIATION SPACE TO SPHERICAL HARMONICS.
 THE NUMBER OF ORBITALS KEPT IN THE VARIATIONAL SPACE WILL BE PRINTED LATER.
 NUMBER OF ELECTRONS                          =   34
 CHARGE OF MOLECULE                           =    0
 SPIN MULTIPLICITY                            =    1
 NUMBER OF OCCUPIED ORBITALS (ALPHA)          =   17
 NUMBER OF OCCUPIED ORBITALS (BETA )          =   17
 TOTAL NUMBER OF ATOMS                        =    8
 THE NUCLEAR REPULSION ENERGY IS      125.0645810339

     LEBEDEV GRID-BASED DFT OPTIONS
     ------------------------------
     DFTTYP=PBE     
     NRAD  =      96     NLEB  =     302
     NRAD0 =      24     NLEB0 =     110
     SWOFF =    5.00E-03 (PURE SCF -> DFT)
     SWITCH=    3.00E-04 (COARSE -> TIGHT GRID)
     THRESH=    0.00E+00 GTHRE=    1.00E+00

 GRIMME'S EMPIRICAL DISPERSION CORRECTION= F

     $CONTRL OPTIONS
     ---------------
 SCFTYP=RHF          RUNTYP=OPTIMIZE     EXETYP=RUN     
 MPLEVL=       0     CITYP =NONE         CCTYP =NONE         VBTYP =NONE    
 DFTTYP=PBE          TDDFT =NONE    
 MULT  =       1     ICHARG=       0     NZVAR =      18     COORD =ZMT     
 PP    =NONE         RELWFN=NONE         LOCAL =NONE         NUMGRD=       F
 ISPHER=       1     NOSYM =       0     MAXIT =      30     UNITS =ANGS    
 PLTORB=       F     MOLPLT=       F     AIMPAC=       F     FRIEND=        
 NPRINT=       7     IREST =       0     GEOM  =INPUT   
 NORMF =       0     NORMP =       0     ITOL  =      20     ICUT  =       9
 INTTYP=BEST         GRDTYP=BEST         QMTTOL= 1.0E-06

     $SYSTEM OPTIONS
     ---------------
  REPLICATED MEMORY=     1000000 WORDS (ON EVERY NODE).
 DISTRIBUTED MEMDDI=           0 MILLION WORDS IN AGGREGATE,
 MEMDDI DISTRIBUTED OVER   1 PROCESSORS IS           0 WORDS/PROCESSOR.
 TOTAL MEMORY REQUESTED ON EACH PROCESSOR=     1000000 WORDS.
 TIMLIM=      525600.00 MINUTES, OR     365.0 DAYS.
 PARALL= F  BALTYP=  DLB     KDIAG=    0  COREFL= F
 MXSEQ2=     300 MXSEQ3=     150  mem10=         0

          ----------------
          PROPERTIES INPUT
          ----------------

     MOMENTS            FIELD           POTENTIAL          DENSITY
 IEMOM =       1   IEFLD =       0   IEPOT =       0   IEDEN =       0
 WHERE =COMASS     WHERE =NUCLEI     WHERE =NUCLEI     WHERE =NUCLEI  
 OUTPUT=BOTH       OUTPUT=BOTH       OUTPUT=BOTH       OUTPUT=BOTH    
 IEMINT=       0   IEFINT=       0                     IEDINT=       0
                                                       MORB  =       0
          EXTRAPOLATION IN EFFECT
          DIIS IN EFFECT
 ORBITAL PRINTING OPTION: NPREO=     1    80     2     1

     -------------------------------
     INTEGRAL TRANSFORMATION OPTIONS
     -------------------------------
     NWORD  =            0
     CUTOFF = 1.0E-09     MPTRAN =       0
     DIRTRF =       F     AOINTS =DUP     

          ----------------------
          INTEGRAL INPUT OPTIONS
          ----------------------
 NOPK  =       1 NORDER=       0 SCHWRZ=       T

   --- ENCODED Z MATRIX ---
 COORD  TYPE   I   J   K   L   M   N
    1      1    2   1
    2      1    3   2
    3      2    3   2   1
    4      1    4   2
    5      2    4   2   1
    6      3    4   2   1   3
    7      1    5   2
    8      2    5   2   1
    9      3    5   2   1   3
   10      1    6   1
   11      2    6   1   2
   12      3    6   1   2   3
   13      1    7   1
   14      2    7   1   2
   15      3    7   1   2   6
   16      1    8   1
   17      2    8   1   2
   18      3    8   1   2   6

 THE DETERMINANT OF THE G MATRIX IS 10**(   -12)


                     --------------------
                     INTERNAL COORDINATES
                     --------------------

                 - - ATOMS - -         COORDINATE      COORDINATE
 NO.   TYPE    I  J  K  L  M  N        (BOHR,RAD)       (ANG,DEG)
 ----------------------------------------------------------------
   1 STRETCH   2  1                     2.8345890       1.5000000
   2 STRETCH   3  2                     2.6456164       1.4000000
   3 BEND      3  2  1                  1.9118710     109.5421400
   4 STRETCH   4  2                     2.0786986       1.1000000
   5 BEND      4  2  1                  1.9118710     109.5421400
   6 TORSION   4  2  1  3               2.0943951     120.0000000
   7 STRETCH   5  2                     2.0786986       1.1000000
   8 BEND      5  2  1                  1.9118710     109.5421400
   9 TORSION   5  2  1  3              -2.0943951    -120.0000000
  10 STRETCH   6  1                     2.8345890       1.5000000
  11 BEND      6  1  2                  1.9118710     109.5421400
  12 TORSION   6  1  2  3               1.2217305      70.0000000
  13 STRETCH   7  1                     2.0786986       1.1000000
  14 BEND      7  1  2                  1.9118710     109.5421400
  15 TORSION   7  1  2  6               2.0943951     120.0000000
  16 STRETCH   8  1                     2.0786986       1.1000000
  17 BEND      8  1  2                  1.9118710     109.5421400
  18 TORSION   8  1  2  6              -2.0943951    -120.0000000

     ------------------------------------------
     THE POINT GROUP IS C1 , NAXIS= 0, ORDER= 1
     ------------------------------------------

 -- VARIATIONAL SPACE WILL BE RESTRICTED TO PURE SPHERICAL HARMONICS ONLY --
 AFTER EXCLUDING CONTAMINANT COMBINATIONS FROM THE CARTESIAN GAUSSIAN BASIS
 SET, THE NUMBER OF SPHERICAL HARMONICS KEPT IN THE VARIATION SPACE IS   76

     DIMENSIONS OF THE SYMMETRY SUBSPACES ARE
 A   =   76

 ..... DONE SETTING UP THE RUN .....
 STEP CPU TIME =     0.01 TOTAL CPU TIME =          0.0 (      0.0 MIN)
 TOTAL WALL CLOCK TIME=          0.0 SECONDS, CPU UTILIZATION IS    33.33%


          -----------------------------
          STATIONARY POINT LOCATION RUN
          -----------------------------

 OBTAINING INITIAL HESSIAN, HESS=GUESS   
 DIAGONAL GUESS HESSIAN IN INTERNAL COORDS IS
     1  0.3892     2  0.3267     3  0.2379     4  0.3397     5  0.2253
     6  0.2500     7  0.3397     8  0.2253     9  0.2500    10  0.2690
    11  0.2315    12  0.2500    13  0.3397    14  0.2253    15  0.2500
    16  0.3397    17  0.2253    18  0.2500

          PARAMETERS CONTROLLING GEOMETRY SEARCH ARE
          METHOD =QA                  UPHESS =BFGS    
          NNEG   =         0          NFRZ   =         1
          NSTEP  =        50          IFOLOW =         1
          HESS   =GUESS               RESTAR =         F
          IHREP  =         0          HSSEND =         F
          NPRT   =         0          NPUN   =         0
          OPTTOL = 1.000E-04          RMIN   = 1.500E-03
          RMAX   = 1.000E-01          RLIM   = 7.000E-02
          DXMAX  = 3.000E-01          PURIFY =         F
          MOVIE  =         F          TRUPD  =         T
          TRMAX  = 5.000E-01          TRMIN  = 5.000E-02
          ITBMAT =         5          STPT   =         F
          STSTEP = 1.000E-02          PROJCT=          T
          FROZEN COORD(S)=  12

 BEGINNING GEOMETRY SEARCH POINT NSERCH=   0 ...

 COORDINATES OF ALL ATOMS ARE (ANGS)
   ATOM   CHARGE       X              Y              Z
 ------------------------------------------------------------
 C           6.0  -0.6273857491  -0.6527344604   0.3330498998
 C           6.0   0.7051763095  -0.5816596234  -0.3519513612
 F           9.0   1.4268687450   0.5124632776   0.1400396001
 H           1.0   1.2678196478  -1.5070046453  -0.1591585597
 H           1.0   0.5561215227  -0.4636786125  -1.4354010147
 F           9.0  -1.4876420277   0.4881705058  -0.1233435635
 H           1.0  -1.1194292558  -1.6042065463   0.0828618564
 H           1.0  -0.4851202461  -0.5902299989   1.4220190082


                     --------------------
                     INTERNAL COORDINATES
                     --------------------

                 - - ATOMS - -         COORDINATE      COORDINATE
 NO.   TYPE    I  J  K  L  M  N        (BOHR,RAD)       (ANG,DEG)
 ----------------------------------------------------------------
   1 STRETCH   2  1                     2.8345890       1.5000000
   2 STRETCH   3  2                     2.6456164       1.4000000
   3 BEND      3  2  1                  1.9118710     109.5421400
   4 STRETCH   4  2                     2.0786986       1.1000000
   5 BEND      4  2  1                  1.9118710     109.5421400
   6 TORSION   4  2  1  3               2.0943951     120.0000000
   7 STRETCH   5  2                     2.0786986       1.1000000
   8 BEND      5  2  1                  1.9118710     109.5421400
   9 TORSION   5  2  1  3              -2.0943951    -120.0000000
  10 STRETCH   6  1                     2.8345890       1.5000000
  11 BEND      6  1  2                  1.9118710     109.5421400
  12 TORSION   6  1  2  3               1.2217305      70.0000000
  13 STRETCH   7  1                     2.0786986       1.1000000
  14 BEND      7  1  2                  1.9118710     109.5421400
  15 TORSION   7  1  2  6               2.0943951     120.0000000
  16 STRETCH   8  1                     2.0786986       1.1000000
  17 BEND      8  1  2                  1.9118710     109.5421400
  18 TORSION   8  1  2  6              -2.0943951    -120.0000000

 THE CURRENT FULLY SUBSTITUTED Z-MATRIX IS
 C   
 C      1   1.5000000
 F      2   1.4000000  1   109.5421400
 H      2   1.1000000  1   109.5421400  3   120.0000000  0
 H      2   1.1000000  1   109.5421400  3  -120.0000000  0
 F      1   1.5000000  2   109.5421400  3    70.0000000  0
 H      1   1.1000000  2   109.5421400  6   120.0000000  0
 H      1   1.1000000  2   109.5421400  6  -120.0000000  0

          ********************
          1 ELECTRON INTEGRALS
          ********************
 ...... END OF ONE-ELECTRON INTEGRALS ......
 STEP CPU TIME =     0.01 TOTAL CPU TIME =          0.0 (      0.0 MIN)
 TOTAL WALL CLOCK TIME=          0.0 SECONDS, CPU UTILIZATION IS    50.00%

          -------------
          GUESS OPTIONS
          -------------
          GUESS =HUCKEL            NORB  =       0          NORDER=       0
          MIX   =       F          PRTMO =       F          PUNMO =       F
          TOLZ  = 1.0E-08          TOLE  = 1.0E-05
          SYMDEN=       F          PURIFY=       F

 INITIAL GUESS ORBITALS GENERATED BY HUCKEL   ROUTINE.
 HUCKEL GUESS REQUIRES     54920 WORDS.

 STATISTICS FOR GENERATION OF SYMMETRY ORBITAL -Q- MATRIX
 NUMBER OF CARTESIAN ATOMIC ORBITALS=         80
 NUMBER OF SPHERICAL CONTAMINANTS DROPPED=     4
 NUMBER OF LINEARLY DEPENDENT MOS DROPPED=     0
 TOTAL NUMBER OF MOS IN VARIATION SPACE=      76

 SYMMETRIES FOR INITIAL GUESS ORBITALS FOLLOW.   BOTH SET(S).
    17 ORBITALS ARE OCCUPIED (    4 CORE ORBITALS).
     5=A        6=A        7=A        8=A        9=A       10=A       11=A   
    12=A       13=A       14=A       15=A       16=A       17=A       18=A   
    19=A       20=A       21=A       22=A       23=A       24=A       25=A   
    26=A       27=A   
 ...... END OF INITIAL ORBITAL SELECTION ......
 STEP CPU TIME =     0.01 TOTAL CPU TIME =          0.0 (      0.0 MIN)
 TOTAL WALL CLOCK TIME=          0.1 SECONDS, CPU UTILIZATION IS    60.00%

                    ----------------------
                    AO INTEGRAL TECHNOLOGY
                    ----------------------
     S,P,L SHELL ROTATED AXIS INTEGRALS, REPROGRAMMED BY
        KAZUYA ISHIMURA (IMS) AND JOSE SIERRA (SYNSTAR).
     S,P,D,L SHELL ROTATED AXIS INTEGRALS PROGRAMMED BY
        KAZUYA ISHIMURA (INSTITUTE FOR MOLECULAR SCIENCE).
     S,P,D,F,G SHELL TO TOTAL QUARTET ANGULAR MOMENTUM SUM 5,
        ERIC PROGRAM BY GRAHAM FLETCHER (ELORET AND NASA ADVANCED
        SUPERCOMPUTING DIVISION, AMES RESEARCH CENTER).
     S,P,D,F,G,L SHELL GENERAL RYS QUADRATURE PROGRAMMED BY
        MICHEL DUPUIS (PACIFIC NORTHWEST NATIONAL LABORATORY).

          --------------------
          2 ELECTRON INTEGRALS
          --------------------

 THE -PK- OPTION IS OFF, THE INTEGRALS ARE NOT IN SUPERMATRIX FORM.
 STORING   15000 INTEGRALS/RECORD ON DISK, USING 12 BYTES/INTEGRAL.
 TWO ELECTRON INTEGRAL EVALUATION REQUIRES   91062 WORDS OF MEMORY.
 SCHWARZ INEQUALITY OVERHEAD:      3237 INTEGRALS, T=        0.00
 II,JST,KST,LST =  1  1  1  1 NREC =         1 INTLOC =    1
 II,JST,KST,LST =  2  1  1  1 NREC =         1 INTLOC =    2
 II,JST,KST,LST =  3  1  1  1 NREC =         1 INTLOC =    7
 II,JST,KST,LST =  4  1  1  1 NREC =         1 INTLOC =   22
 II,JST,KST,LST =  5  1  1  1 NREC =         1 INTLOC =   67
 II,JST,KST,LST =  6  1  1  1 NREC =         1 INTLOC =  214
 II,JST,KST,LST =  7  1  1  1 NREC =         1 INTLOC = 1189
 II,JST,KST,LST =  8  1  1  1 NREC =         1 INTLOC = 3206
 II,JST,KST,LST =  9  1  1  1 NREC =         1 INTLOC = 5671
 II,JST,KST,LST = 10  1  1  1 NREC =         1 INTLOC = 8596
 II,JST,KST,LST = 11  1  1  1 NREC =         2 INTLOC = 5516
 II,JST,KST,LST = 12  1  1  1 NREC =         3 INTLOC = 8200
 II,JST,KST,LST = 13  1  1  1 NREC =         7 INTLOC = 6111
 II,JST,KST,LST = 14  1  1  1 NREC =         8 INTLOC = 4365
 II,JST,KST,LST = 15  1  1  1 NREC =         9 INTLOC = 5149
 II,JST,KST,LST = 16  1  1  1 NREC =        10 INTLOC = 8009
 II,JST,KST,LST = 17  1  1  1 NREC =        14 INTLOC =10003
 II,JST,KST,LST = 18  1  1  1 NREC =        20 INTLOC = 1045
 II,JST,KST,LST = 19  1  1  1 NREC =        34 INTLOC =12611
 II,JST,KST,LST = 20  1  1  1 NREC =        38 INTLOC =  827
 II,JST,KST,LST = 21  1  1  1 NREC =        41 INTLOC = 7379
 II,JST,KST,LST = 22  1  1  1 NREC =        53 INTLOC =  653
 II,JST,KST,LST = 23  1  1  1 NREC =        57 INTLOC = 6465
 II,JST,KST,LST = 24  1  1  1 NREC =        62 INTLOC = 1397
 II,JST,KST,LST = 25  1  1  1 NREC =        77 INTLOC = 9295
 II,JST,KST,LST = 26  1  1  1 NREC =        80 INTLOC =13695
 II,JST,KST,LST = 27  1  1  1 NREC =        85 INTLOC = 6752
 II,JST,KST,LST = 28  1  1  1 NREC =        91 INTLOC =10344
 II,JST,KST,LST = 29  1  1  1 NREC =       107 INTLOC = 6311
 II,JST,KST,LST = 30  1  1  1 NREC =       130 INTLOC =14382
 II,JST,KST,LST = 31  1  1  1 NREC =       178 INTLOC =12699
 II,JST,KST,LST = 32  1  1  1 NREC =       189 INTLOC = 9005
 II,JST,KST,LST = 33  1  1  1 NREC =       201 INTLOC = 4945
 II,JST,KST,LST = 34  1  1  1 NREC =       233 INTLOC = 1309
 II,JST,KST,LST = 35  1  1  1 NREC =       246 INTLOC = 9450
 II,JST,KST,LST = 36  1  1  1 NREC =       260 INTLOC =14965
 SCHWARZ INEQUALITY TEST SKIPPED       17206 INTEGRAL BLOCKS.
 TOTAL NUMBER OF NONZERO TWO-ELECTRON INTEGRALS =             4551835
        304 INTEGRAL RECORDS WERE STORED ON DISK FILE  8.
  ...... END OF TWO-ELECTRON INTEGRALS .....
 STEP CPU TIME =     0.46 TOTAL CPU TIME =          0.5 (      0.0 MIN)
 TOTAL WALL CLOCK TIME=          0.5 SECONDS, CPU UTILIZATION IS    96.08%

          --------------------------
               R-PBE SCF CALCULATION
          --------------------------

     NUCLEAR ENERGY =       125.0645810339
     MAXIT =   30     NPUNCH=    2
     EXTRAP=T  DAMP=F  SHIFT=F  RSTRCT=F  DIIS=T  DEM=F  SOSCF=F
         DENSITY MATRIX CONVERGENCE THRESHOLD=  1.00E-05
     COARSE -> FINE DFT GRID SWITCH THRESHOLD=  3.00E-04 (SWITCH IN $DFT)
                   HF -> DFT SWITCH THRESHOLD=  5.00E-03 (SWOFF IN $DFT)
     MEMORY REQUIRED FOR RHF ITERS=    365468 WORDS.

 DFT CODE IS SWITCHING FROM THE FINE GRID NRAD= 96,  NLEB=  302
                      TO THE COARSE GRID NRAD0= 24, NLEB0=  110

     EXCHANGE FUNCTIONAL   =PBE       
     CORRELATION FUNCTIONAL=PBE       
     DFT THRESHOLD         =.172E-07
     GRID CHANGE THRESHOLD =.300E-03
 FOR AN EULER-MACLAURIN QUADRATURE USING  96 RADIAL POINTS:
 SMALLEST GAUSSIAN PRIMITIVE EXPONENT=        0.1061000000 OF TYPE -S-
 ON ATOM NUMBER   4 HAS RADIAL NORMALIZATION=  1.000000
  LARGEST GAUSSIAN PRIMITIVE EXPONENT=     2931.5500000000 OF TYPE -S-
 ON ATOM NUMBER   3 HAS RADIAL NORMALIZATION=  1.000000
 DFT IS SWITCHED OFF, PERFORMING PURE SCF UNTIL SWOFF THRESHOLD IS REACHED.

 ITER EX DEM     TOTAL ENERGY        E CHANGE  DENSITY CHANGE    DIIS ERROR
   1  0  0     -276.1304691939  -276.1304691939   0.190811908   0.759732008
          * * *   INITIATING DIIS PROCEDURE   * * *
   2  1  0     -276.7758707076    -0.6454015137   0.087044931   0.074699603
   3  2  0     -276.8183703115    -0.0424996039   0.048588544   0.046648636
   4  3  0     -276.8345300183    -0.0161597068   0.008842358   0.008853243
   5  4  0     -276.8352764827    -0.0007464644   0.002186313   0.001748637
 CONVERGED TO SWOFF, SO DFT CALCULATION IS NOW SWITCHED ON.
          * * *   INITIATING DIIS PROCEDURE   * * *
   6  5  0     -277.9026110262    -1.0673345435   0.079798995   0.080956898
   7  6  0     -277.9176878931    -0.0150768670   0.073445416   0.048080071
   8  7  0     -277.9153620684     0.0023258248   0.047691051   0.048888775
   9  8  0     -277.9316555795    -0.0162935111   0.006971539   0.005232812
  10  9  0     -277.9319254512    -0.0002698717   0.001662105   0.001206227
  11 10  0     -277.9319364223    -0.0000109711   0.000596791   0.000494481
  12 11  0     -277.9319384242    -0.0000020018   0.000095446   0.000092470
 DFT CODE IS SWITCHING BACK TO THE FINE GRID
          * * *   INITIATING DIIS PROCEDURE   * * *
  13 12  0     -277.9319437664    -0.0000053422   0.003266475   0.003463950
  14 13  0     -277.9319895469    -0.0000457806   0.004673918   0.002081278
  15 14  0     -277.9319795408     0.0000100061   0.002666143   0.002746056
  16 15  0     -277.9320121618    -0.0000326210   0.000241715   0.000115861
  17 16  0     -277.9320122624    -0.0000001006   0.000118970   0.000096637
  18 17  0     -277.9320123122    -0.0000000497   0.000019744   0.000016627
  19 18  0     -277.9320123139    -0.0000000017   0.000005527   0.000005527
  20 19  0     -277.9320123141    -0.0000000002   0.000000402   0.000000295

          -----------------
          DENSITY CONVERGED
          -----------------
     TIME TO FORM FOCK OPERATORS=       9.8 SECONDS (       0.5 SEC/ITER)
     TIME TO SOLVE SCF EQUATIONS=       0.1 SECONDS (       0.0 SEC/ITER)

 FINAL R-PBE ENERGY IS     -277.9320123141 AFTER  20 ITERATIONS
 DFT EXCHANGE + CORRELATION ENERGY =       -32.8944541684
 TOTAL ELECTRON NUMBER             =        34.0000272224

          ------------
          EIGENVECTORS
          ------------

                      1          2          3          4          5
                  -24.2355   -24.2239    -9.9753    -9.9745    -1.0975
                     A          A          A          A          A   
    1  C  1  S    0.000029  -0.000173   0.990716  -0.072437  -0.016333
    2  C  1  S    0.000005  -0.000878   0.036609  -0.003726   0.028755
    3  C  1  S   -0.002859   0.007591  -0.021903   0.007591   0.025033
    4  C  1  X   -0.000404  -0.000702  -0.000512  -0.000829   0.011809
    5  C  1  Y   -0.000066   0.000673   0.000054  -0.000142   0.012114
    6  C  1  Z    0.000133  -0.000210   0.000122   0.000477  -0.007341
    7  C  1  X   -0.000802  -0.001205  -0.002839   0.002761   0.009493
    8  C  1  Y   -0.000313   0.003404   0.000633   0.000321   0.003948
    9  C  1  Z    0.000013  -0.001734   0.000489  -0.001777  -0.007285
   10  C  1 XX   -0.000109  -0.000025  -0.000326  -0.000656   0.003024
   11  C  1 YY    0.000017   0.000242   0.000164   0.000468  -0.000803
   12  C  1 ZZ    0.000092  -0.000217   0.000161   0.000188  -0.002221
   13  C  1 XY   -0.000125  -0.000519   0.000155  -0.000082   0.000010
   14  C  1 XZ    0.000015   0.000215   0.000259   0.000644  -0.001613
   15  C  1 YZ    0.000060  -0.000266   0.000143   0.000058  -0.001234
   16  C  2  S   -0.000125   0.000029   0.072622   0.990658  -0.065598
   17  C  2  S   -0.000506   0.000070   0.001634   0.037061   0.124185
   18  C  2  S    0.008729  -0.002642   0.004677  -0.022075   0.013484
   19  C  2  X    0.000779   0.000344   0.000924   0.000630   0.046752
   20  C  2  Y    0.000872  -0.000018  -0.000003   0.000495   0.079290
   21  C  2  Z    0.000306  -0.000104  -0.000477   0.000165   0.038829
   22  C  2  X    0.000913   0.000687  -0.002418   0.003145   0.009747
   23  C  2  Y    0.003364  -0.000344   0.000124   0.000999   0.005854
   24  C  2  Z    0.002003   0.000174   0.001793  -0.000623   0.002213
   25  C  2 XX   -0.000075  -0.000115  -0.000691  -0.000218  -0.001264
   26  C  2 YY    0.000155   0.000017   0.000502   0.000203   0.008135
   27  C  2 ZZ   -0.000081   0.000098   0.000189   0.000015  -0.006871
   28  C  2 XY    0.000242   0.000134  -0.000052   0.000022   0.014760
   29  C  2 XZ    0.000140  -0.000007   0.000690   0.000248   0.005492
   30  C  2 YZ    0.000155  -0.000030  -0.000005   0.000020   0.010629
   31  F  3  S    0.993082  -0.001394   0.000010   0.000063  -0.235730
   32  F  3  S    0.034021   0.000153  -0.000066   0.000432   0.479536
   33  F  3  S   -0.016815  -0.000196  -0.000237  -0.000651   0.492033
   34  F  3  X   -0.000623  -0.000106   0.000090   0.000190  -0.051590
   35  F  3  Y   -0.000953  -0.000001   0.000038   0.000220  -0.078378
   36  F  3  Z   -0.000429   0.000070   0.000024   0.000089  -0.033654
   37  F  3  X    0.002050   0.000406  -0.000165   0.000762  -0.023982
   38  F  3  Y    0.002943  -0.000016   0.000219   0.001603  -0.036493
   39  F  3  Z    0.001329  -0.000278   0.000101   0.000808  -0.015145
   40  F  3 XX    0.000049  -0.000110   0.000139   0.000119  -0.001122
   41  F  3 YY   -0.000197   0.000040  -0.000119  -0.000522   0.005099
   42  F  3 ZZ    0.000148   0.000071  -0.000020   0.000403  -0.003977
   43  F  3 XY   -0.000334  -0.000024  -0.000039  -0.000876   0.008815
   44  F  3 XZ   -0.000176   0.000036  -0.000127  -0.000362   0.003702
   45  F  3 YZ   -0.000208  -0.000002  -0.000054  -0.000621   0.005831
   46  H  4  S   -0.000851   0.000169  -0.000353  -0.001247   0.022688
   47  H  4  S   -0.000168   0.000624   0.000619   0.003269   0.000367
   48  H  4  X   -0.000103  -0.000127  -0.000084   0.000551  -0.002097
   49  H  4  Y   -0.000340   0.000073  -0.000133  -0.001159   0.005024
   50  H  4  Z   -0.000178  -0.000003   0.000074   0.000248  -0.000472
   51  H  5  S   -0.000953   0.000137  -0.000349  -0.001121   0.022851
   52  H  5  S   -0.000311   0.000005   0.001050   0.003422   0.002082
   53  H  5  X   -0.000115   0.000173  -0.000168  -0.000286   0.001132
   54  H  5  Y   -0.000322  -0.000007  -0.000006   0.000098   0.000327
   55  H  5  Z   -0.000241  -0.000078  -0.000043  -0.001224   0.005335
   56  F  6  S    0.001390   0.993089   0.000047   0.000002  -0.027743
   57  F  6  S    0.000235   0.033679   0.000361  -0.000099   0.056156
   58  F  6  S   -0.000219  -0.015828   0.000058  -0.000184   0.056262
   59  F  6  X    0.000110   0.000650  -0.000087  -0.000075   0.007973
   60  F  6  Y    0.000002  -0.000869   0.000037   0.000013  -0.008125
   61  F  6  Z   -0.000057   0.000351  -0.000007  -0.000010   0.002937
   62  F  6  X   -0.000373  -0.002120  -0.000499   0.000219   0.003913
   63  F  6  Y   -0.000062   0.002674   0.001135   0.000021  -0.003588
   64  F  6  Z    0.000222  -0.001085  -0.000526   0.000007   0.001896
   65  F  6 XX   -0.000108  -0.000000   0.000026   0.000112   0.000345
   66  F  6 YY    0.000047  -0.000163  -0.000451  -0.000041   0.000423
   67  F  6 ZZ    0.000060   0.000163   0.000424  -0.000071  -0.000768
   68  F  6 XY    0.000001   0.000353   0.000882  -0.000064  -0.001274
   69  F  6 XZ    0.000035  -0.000161  -0.000341  -0.000060   0.000483
   70  F  6 YZ   -0.000001   0.000166   0.000501  -0.000030  -0.000714
   71  H  7  S    0.000176  -0.000660  -0.001269  -0.000140   0.003489
   72  H  7  S    0.000675  -0.000034   0.003378   0.000190   0.000526
   73  H  7  X    0.000118   0.000176  -0.000446   0.000168   0.000212
   74  H  7  Y    0.000069  -0.000282  -0.001205   0.000056   0.000780
   75  H  7  Z    0.000001   0.000181  -0.000335  -0.000040   0.000325
   76  H  8  S    0.000121  -0.000781  -0.001144  -0.000166   0.006055
   77  H  8  S   -0.000137  -0.000215   0.003607   0.000486   0.003692
   78  H  8  X   -0.000173   0.000137   0.000310   0.000119   0.000252
   79  H  8  Y   -0.000038  -0.000347   0.000045  -0.000003   0.000239
   80  H  8  Z    0.000085   0.000147   0.001248  -0.000134  -0.001615

                      6          7          8          9         10
                   -1.0573    -0.7150    -0.5803    -0.4685    -0.4639
                     A          A          A          A          A   
    1  C  1  S   -0.052044  -0.153437   0.128079   0.001043  -0.008978
    2  C  1  S    0.100521   0.314164  -0.277358  -0.010397   0.029519
    3  C  1  S    0.015208   0.178382  -0.152026   0.011131   0.006412
    4  C  1  X   -0.044862   0.101291   0.088054  -0.107639  -0.041316
    5  C  1  Y    0.060346  -0.036317   0.037738  -0.179095   0.168116
    6  C  1  Z   -0.026093  -0.033524  -0.090956  -0.166764  -0.179378
    7  C  1  X   -0.013494   0.030012   0.019586  -0.029806   0.001399
    8  C  1  Y    0.007235  -0.023643   0.025155  -0.064638   0.047356
    9  C  1  Z   -0.001668  -0.004584  -0.036041  -0.083978  -0.065075
   10  C  1 XX   -0.000071   0.005893   0.004812  -0.003523  -0.005099
   11  C  1 YY    0.005712  -0.005021  -0.004789   0.001329   0.003983
   12  C  1 ZZ   -0.005641  -0.000873  -0.000024   0.002194   0.001116
   13  C  1 XY   -0.012174   0.000255   0.000307  -0.003139   0.000810
   14  C  1 XZ    0.004318  -0.007393  -0.007463  -0.002200  -0.002945
   15  C  1 YZ   -0.006833   0.000250  -0.000660   0.003201  -0.009932
   16  C  2  S   -0.000423  -0.148987  -0.128066  -0.000900   0.001297
   17  C  2  S   -0.001547   0.305181   0.279221  -0.011017   0.005105
   18  C  2  S    0.017533   0.167282   0.140903   0.031733  -0.017615
   19  C  2  X   -0.022320  -0.102261   0.107945  -0.057050  -0.174198
   20  C  2  Y   -0.007972  -0.047181  -0.014045  -0.213198   0.235971
   21  C  2  Z   -0.001426   0.033707  -0.092767  -0.225457  -0.178477
   22  C  2  X   -0.011377  -0.029745   0.023201   0.005979  -0.058793
   23  C  2  Y    0.001177  -0.028184  -0.025030  -0.043361   0.085777
   24  C  2  Z    0.006303   0.003400  -0.040941  -0.076251  -0.091133
   25  C  2 XX    0.002888   0.005730  -0.004221   0.005947   0.000590
   26  C  2 YY   -0.002461  -0.005208   0.005324  -0.005839   0.001803
   27  C  2 ZZ   -0.000427  -0.000522  -0.001103  -0.000109  -0.002393
   28  C  2 XY   -0.003062   0.000360   0.000961  -0.004915  -0.000719
   29  C  2 XZ   -0.002578  -0.007734   0.008084   0.000030  -0.002086
   30  C  2 YZ   -0.001223  -0.001154   0.000432  -0.014908   0.002742
   31  F  3  S    0.033357   0.058677   0.049406  -0.043726   0.003869
   32  F  3  S   -0.068174  -0.128031  -0.108107   0.090334  -0.008881
   33  F  3  S   -0.072869  -0.146617  -0.133412   0.142416  -0.008573
   34  F  3  X    0.003926  -0.058384  -0.061119   0.271381  -0.145261
   35  F  3  Y    0.009720  -0.066981  -0.154463   0.282418   0.106310
   36  F  3  Z    0.004434  -0.018810  -0.102951   0.025364  -0.142550
   37  F  3  X    0.001910  -0.031943  -0.036868   0.166874  -0.090811
   38  F  3  Y    0.005085  -0.039407  -0.092551   0.170032   0.063410
   39  F  3  Z    0.001497  -0.013541  -0.061855   0.013567  -0.084864
   40  F  3 XX    0.000519   0.000554  -0.003709  -0.003177   0.006512
   41  F  3 YY   -0.000779   0.001896   0.004958  -0.004169  -0.010302
   42  F  3 ZZ    0.000260  -0.002450  -0.001249   0.007346   0.003789
   43  F  3 XY   -0.000923   0.004726   0.004201  -0.011458   0.002640
   44  F  3 XZ   -0.000406   0.001275   0.003801  -0.001313   0.006395
   45  F  3 YZ   -0.000630   0.001749   0.006396  -0.001005   0.003634
   46  H  4  S   -0.001734   0.115297   0.161653   0.079860  -0.226817
   47  H  4  S    0.001200  -0.007018   0.013766   0.024618  -0.042917
   48  H  4  X    0.000140  -0.007758  -0.005132  -0.004446   0.005887
   49  H  4  Y   -0.000481   0.008959   0.010920  -0.000218  -0.008656
   50  H  4  Z   -0.000127  -0.001785  -0.004332  -0.005564  -0.001730
   51  H  5  S    0.000612   0.106467   0.170886   0.141238   0.153387
   52  H  5  S    0.003199  -0.004812   0.010053   0.024449   0.005319
   53  H  5  X   -0.000454   0.000178   0.003871  -0.000303  -0.003760
   54  H  5  Y   -0.000011  -0.002147  -0.002469  -0.005703   0.004239
   55  H  5  Z    0.000282   0.010952   0.012831   0.005522   0.008012
   56  F  6  S   -0.240841   0.052139  -0.039972  -0.003139   0.034507
   57  F  6  S    0.489904  -0.113915   0.088290   0.007592  -0.072245
   58  F  6  S    0.512876  -0.128881   0.106293   0.006649  -0.113228
   59  F  6  X    0.045964   0.050893  -0.057191  -0.067044   0.208777
   60  F  6  Y   -0.061549  -0.053574   0.113927  -0.048385  -0.179066
   61  F  6  Z    0.023395   0.014135  -0.067025  -0.087221   0.005080
   62  F  6  X    0.024042   0.028670  -0.035752  -0.043727   0.130888
   63  F  6  Y   -0.032238  -0.033073   0.071000  -0.027506  -0.109582
   64  F  6  Z    0.011762   0.010817  -0.041784  -0.050597   0.002716
   65  F  6 XX   -0.000025   0.000756   0.002189  -0.003534   0.003762
   66  F  6 YY    0.004352   0.001458  -0.003904   0.005288   0.001596
   67  F  6 ZZ   -0.004327  -0.002214   0.001716  -0.001754  -0.005358
   68  F  6 XY   -0.009142  -0.004249   0.004490   0.000814  -0.008142
   69  F  6 XZ    0.003457   0.001136  -0.003197  -0.003896   0.000442
   70  F  6 YZ   -0.004784  -0.001455   0.004401   0.002676  -0.000115
   71  H  7  S    0.019488   0.118911  -0.162122   0.167396  -0.048927
   72  H  7  S    0.000381  -0.007423  -0.015105   0.031366  -0.014984
   73  H  7  X    0.001289   0.007199  -0.004659   0.004937  -0.003417
   74  H  7  Y    0.004330   0.009818  -0.010817   0.006546   0.000913
   75  H  7  Z    0.000547   0.002528  -0.004972  -0.001449  -0.004548
   76  H  8  S    0.019122   0.111240  -0.173112  -0.133724  -0.108593
   77  H  8  S    0.001219  -0.005287  -0.011488  -0.001694  -0.020495
   78  H  8  X   -0.001172  -0.000132   0.003399  -0.003205  -0.001006
   79  H  8  Y    0.000571  -0.001531   0.002076  -0.003742   0.004412
   80  H  8  Z   -0.004212  -0.011617   0.013066   0.006867   0.004307

                     11         12         13         14         15
                   -0.4317    -0.4049    -0.3947    -0.3255    -0.3005
                     A          A          A          A          A   
    1  C  1  S    0.008436   0.010697  -0.004917  -0.028233  -0.003040
    2  C  1  S   -0.021203  -0.015883   0.004103   0.063242   0.007799
    3  C  1  S   -0.023336  -0.034493   0.028214   0.130712  -0.004398
    4  C  1  X    0.316344  -0.021153   0.050536   0.097420  -0.002675
    5  C  1  Y    0.038624   0.293856   0.045302  -0.001892   0.030292
    6  C  1  Z   -0.084152   0.018730   0.310184  -0.006611   0.082174
    7  C  1  X    0.116632   0.020495   0.015965   0.085227  -0.024111
    8  C  1  Y    0.040184   0.092062   0.030875  -0.042565   0.017974
    9  C  1  Z   -0.040348   0.012605   0.139137  -0.041725  -0.021827
   10  C  1 XX    0.001987   0.000938  -0.009223  -0.012169  -0.004588
   11  C  1 YY   -0.004956   0.003913  -0.003517   0.005208  -0.010075
   12  C  1 ZZ    0.002969  -0.004851   0.012740   0.006961   0.014663
   13  C  1 XY    0.005351  -0.021477   0.002068   0.005263   0.007525
   14  C  1 XZ   -0.008468   0.002465  -0.006497   0.001682  -0.000936
   15  C  1 YZ    0.000339  -0.006326   0.005205  -0.007121  -0.001835
   16  C  2  S   -0.012014  -0.012969  -0.007360   0.021310  -0.001993
   17  C  2  S    0.022671   0.025571   0.009610  -0.044619   0.005398
   18  C  2  S    0.036927   0.041218   0.033582  -0.116298  -0.004238
   19  C  2  X   -0.292869   0.060800  -0.003157  -0.004499  -0.072645
   20  C  2  Y   -0.079395  -0.198207   0.012205   0.033627   0.130961
   21  C  2  Z    0.113468   0.000567  -0.233241   0.049193  -0.193959
   22  C  2  X   -0.105181   0.053518   0.006893   0.040300   0.006120
   23  C  2  Y   -0.003062  -0.059309   0.024218   0.062918   0.023361
   24  C  2  Z    0.063452   0.004008  -0.100838  -0.005491  -0.033403
   25  C  2 XX   -0.002525   0.004077  -0.009805   0.017416   0.001949
   26  C  2 YY   -0.005105  -0.007893  -0.000532  -0.008793  -0.025167
   27  C  2 ZZ    0.007630   0.003815   0.010337  -0.008623   0.023218
   28  C  2 XY   -0.013881  -0.019799  -0.004931   0.009309   0.002045
   29  C  2 XZ   -0.009166   0.000331  -0.010177  -0.003143   0.010417
   30  C  2 YZ   -0.000476  -0.003248  -0.009640  -0.008140   0.008494
   31  F  3  S   -0.019346  -0.009835  -0.004386   0.001700   0.001853
   32  F  3  S    0.039883   0.017283   0.007078  -0.000064  -0.004459
   33  F  3  S    0.055433   0.029233   0.010606  -0.022472  -0.008877
   34  F  3  X   -0.054119   0.219101   0.058957   0.376484   0.203503
   35  F  3  Y    0.259227   0.064654   0.231733  -0.159329  -0.293960
   36  F  3  Z    0.249977   0.166389  -0.178507  -0.257839   0.412677
   37  F  3  X   -0.030060   0.133346   0.033540   0.256293   0.139518
   38  F  3  Y    0.161426   0.038213   0.147847  -0.105775  -0.205544
   39  F  3  Z    0.152751   0.107561  -0.114580  -0.171859   0.287242
   40  F  3 XX    0.009127  -0.003023   0.000599  -0.007959  -0.003835
   41  F  3 YY   -0.006949   0.004092  -0.008487   0.005049   0.006630
   42  F  3 ZZ   -0.002178  -0.001069   0.007888   0.002910  -0.002795
   43  F  3 XY    0.000622  -0.005597  -0.004404  -0.006102   0.000457
   44  F  3 XZ   -0.003446  -0.005281   0.003448  -0.000428  -0.005076
   45  F  3 YZ   -0.010150  -0.003719   0.004435   0.006107  -0.004084
   46  H  4  S   -0.032466   0.184576  -0.030850  -0.061514  -0.216215
   47  H  4  S   -0.004526   0.051323  -0.002754  -0.002106  -0.118355
   48  H  4  X   -0.004632  -0.002940   0.000359   0.002030   0.005236
   49  H  4  Y   -0.004499   0.004690  -0.002007  -0.000802  -0.002385
   50  H  4  Z    0.002729  -0.001917  -0.005454   0.002562  -0.003709
   51  H  5  S   -0.042890  -0.002212   0.197204  -0.078826   0.257897
   52  H  5  S   -0.001541  -0.007589   0.053988  -0.017708   0.132086
   53  H  5  X   -0.006464   0.000595   0.003693  -0.002033  -0.002517
   54  H  5  Y   -0.001279  -0.004839  -0.001046   0.002369  -0.000157
   55  H  5  Z   -0.001782  -0.000768   0.006048  -0.001958   0.005522
   56  F  6  S   -0.018435   0.025066  -0.008364  -0.001968   0.002738
   57  F  6  S    0.040196  -0.050764   0.015988   0.001582  -0.003268
   58  F  6  S    0.051210  -0.075798   0.026697   0.018007  -0.028804
   59  F  6  X    0.024801   0.283447  -0.063538   0.327219  -0.116560
   60  F  6  Y    0.235932  -0.219942   0.231853   0.197026  -0.030786
   61  F  6  Z   -0.129069   0.202497   0.164433  -0.268557  -0.123288
   62  F  6  X    0.008756   0.179036  -0.038333   0.218206  -0.083107
   63  F  6  Y    0.149705  -0.141736   0.149054   0.129926  -0.021651
   64  F  6  Z   -0.078822   0.129944   0.103916  -0.176885  -0.085181
   65  F  6 XX    0.007232   0.002380   0.000950   0.008388  -0.001812
   66  F  6 YY   -0.007885  -0.000764  -0.008102  -0.005927   0.001047
   67  F  6 ZZ    0.000654  -0.001616   0.007152  -0.002460   0.000765
   68  F  6 XY    0.001815  -0.008667   0.004864  -0.004511   0.000856
   69  F  6 XZ   -0.001942   0.006069   0.004015  -0.001035  -0.001986
   70  F  6 YZ    0.006071  -0.005911  -0.004137   0.006112   0.001075
   71  H  7  S   -0.134160  -0.222927  -0.105216   0.003406  -0.046184
   72  H  7  S   -0.024549  -0.064727  -0.022835  -0.025272  -0.036790
   73  H  7  X    0.002768  -0.006331  -0.001053   0.002709  -0.002219
   74  H  7  Y   -0.007547  -0.003890  -0.005078  -0.000709  -0.000636
   75  H  7  Z   -0.003750  -0.002822   0.006252   0.000679   0.002487
   76  H  8  S   -0.042210   0.012269   0.265803   0.051340   0.119751
   77  H  8  S   -0.002627   0.006388   0.065428   0.008104   0.106058
   78  H  8  X    0.007677  -0.000982  -0.002364   0.000669   0.000929
   79  H  8  Y    0.001254   0.007609  -0.000637  -0.001593   0.000095
   80  H  8  Z    0.001750  -0.001303  -0.008565  -0.001549  -0.002018

                     16         17         18         19         20
                   -0.2960    -0.2857     0.0050     0.0203     0.0495
                     A          A          A          A          A   
    1  C  1  S   -0.000808   0.020696  -0.084380  -0.064708   0.039160
    2  C  1  S    0.001378  -0.058484   0.224032   0.101421  -0.057100
    3  C  1  S    0.006883  -0.077808   0.517715   1.032186  -0.830216
    4  C  1  X   -0.064118  -0.222135  -0.274999  -0.092078  -0.111455
    5  C  1  Y   -0.106430  -0.069356   0.357976  -0.183799   0.052825
    6  C  1  Z   -0.148541   0.127175  -0.135170   0.084433  -0.202987
    7  C  1  X    0.003376  -0.044618  -0.436729  -0.209068  -0.212303
    8  C  1  Y    0.000760  -0.009552   0.502670  -0.324264   0.076490
    9  C  1  Z   -0.028833   0.059124  -0.185389   0.169069  -0.475186
   10  C  1 XX   -0.005815  -0.017237   0.003930   0.004382  -0.017152
   11  C  1 YY    0.019530   0.012352  -0.012185  -0.004377  -0.015003
   12  C  1 ZZ   -0.013715   0.004885   0.008254  -0.000006   0.032154
   13  C  1 XY    0.004601   0.007145   0.039319  -0.012698  -0.009383
   14  C  1 XZ   -0.012074   0.009040  -0.011546  -0.005937  -0.014440
   15  C  1 YZ    0.009980  -0.005143   0.012543  -0.001387   0.009795
   16  C  2  S    0.002331   0.020423  -0.024554  -0.066003  -0.003294
   17  C  2  S   -0.006375  -0.058683   0.070656   0.102875  -0.036202
   18  C  2  S    0.001678  -0.087753   0.247727   1.078977   0.499719
   19  C  2  X   -0.036301   0.226329   0.071924   0.100809  -0.180176
   20  C  2  Y    0.037768  -0.043546   0.115840  -0.180603  -0.200408
   21  C  2  Z   -0.032130  -0.126812   0.013122  -0.088653  -0.229995
   22  C  2  X   -0.016896   0.052420   0.182039   0.211792  -0.408869
   23  C  2  Y   -0.008141   0.007558   0.159146  -0.331449  -0.347804
   24  C  2  Z   -0.050431  -0.065523  -0.026368  -0.172435  -0.486712
   25  C  2 XX    0.005161  -0.015553   0.019836   0.002161   0.008728
   26  C  2 YY   -0.003397   0.010535  -0.002683  -0.002443   0.019108
   27  C  2 ZZ   -0.001764   0.005018  -0.017153   0.000282  -0.027836
   28  C  2 XY    0.008163  -0.010195  -0.035289   0.014071   0.017752
   29  C  2 XZ    0.007445   0.008200  -0.000176  -0.004607   0.019079
   30  C  2 YZ    0.004609   0.005987   0.004366   0.001513   0.017673
   31  F  3  S   -0.002298   0.000817   0.025514  -0.013401  -0.044707
   32  F  3  S    0.002584  -0.003921  -0.054096   0.033662   0.085407
   33  F  3  S    0.026145   0.005301  -0.177256   0.065896   0.361780
   34  F  3  X    0.032791  -0.303150   0.080390  -0.050397  -0.079886
   35  F  3  Y   -0.145001   0.067974   0.095980   0.024041  -0.166209
   36  F  3  Z    0.126265   0.209240   0.049367   0.042249  -0.090233
   37  F  3  X    0.020614  -0.218055   0.060623  -0.057688  -0.076527
   38  F  3  Y   -0.098416   0.045230   0.095221   0.040995  -0.170473
   39  F  3  Z    0.088973   0.149573   0.060990   0.048045  -0.068856
   40  F  3 XX   -0.000723   0.003160   0.002883  -0.002799   0.000536
   41  F  3 YY    0.002987  -0.001083   0.000268   0.003112  -0.002318
   42  F  3 ZZ   -0.002264  -0.002078  -0.003151  -0.000314   0.001782
   43  F  3 XY    0.000306   0.002124  -0.000968   0.001032  -0.003458
   44  F  3 XZ   -0.001227   0.000171   0.000346  -0.000367   0.000031
   45  F  3 YZ   -0.001390  -0.002927   0.001820   0.002886   0.000781
   46  H  4  S   -0.074889   0.128898   0.143717  -0.063857   0.022023
   47  H  4  S   -0.027203   0.091909   0.197872  -1.043890   0.015135
   48  H  4  X    0.000810   0.002309   0.014312  -0.007631  -0.009890
   49  H  4  Y   -0.000810   0.002521   0.002459   0.013930  -0.007107
   50  H  4  Z    0.000504  -0.004790  -0.002129  -0.007704  -0.008416
   51  H  5  S    0.026340   0.075108  -0.111921  -0.024205  -0.123203
   52  H  5  S   -0.038775   0.051705  -0.323066  -0.474685  -1.025594
   53  H  5  X   -0.000550   0.004653  -0.000713   0.005813  -0.010836
   54  H  5  Y   -0.000218  -0.002236   0.005404  -0.005220  -0.014316
   55  H  5  Z    0.000917   0.000583   0.005360   0.007472   0.013920
   56  F  6  S   -0.000118   0.000671   0.067412  -0.012068   0.011434
   57  F  6  S    0.001752  -0.004274  -0.130059   0.030227  -0.019090
   58  F  6  S   -0.006861   0.008475  -0.490269   0.057868  -0.099602
   59  F  6  X    0.182445   0.358789  -0.220643   0.046854   0.002319
   60  F  6  Y    0.347029   0.126556   0.298417   0.024722   0.052620
   61  F  6  Z    0.455127  -0.248977  -0.132022  -0.039898  -0.025102
   62  F  6  X    0.123123   0.255486  -0.208750   0.052295  -0.002623
   63  F  6  Y    0.239144   0.085245   0.293750   0.037661   0.048102
   64  F  6  Z    0.314336  -0.174593  -0.130796  -0.043490   0.001889
   65  F  6 XX    0.003564   0.004482   0.000766  -0.002352  -0.001947
   66  F  6 YY   -0.007176  -0.002368   0.001865   0.002857   0.001294
   67  F  6 ZZ    0.003611  -0.002114  -0.002631  -0.000506   0.000653
   68  F  6 XY    0.001150  -0.002379  -0.003091  -0.001404  -0.002475
   69  F  6 XZ    0.005314  -0.000408   0.001832   0.000044  -0.001084
   70  F  6 YZ   -0.004377   0.003453  -0.002264  -0.002644   0.002187
   71  H  7  S    0.191361   0.126808   0.036616  -0.066806  -0.094972
   72  H  7  S    0.101748   0.085395  -0.035985  -1.003003  -0.140661
   73  H  7  X    0.004230  -0.002518  -0.018566   0.005811   0.001552
   74  H  7  Y    0.001940   0.001789   0.010874   0.014055   0.004149
   75  H  7  Z   -0.001840   0.005191  -0.006988   0.008198  -0.007429
   76  H  8  S   -0.185107   0.078094  -0.033441  -0.023895   0.172780
   77  H  8  S   -0.074878   0.051647  -0.134422  -0.494838   1.312026
   78  H  8  X   -0.002800  -0.004558  -0.010846  -0.005994  -0.008186
   79  H  8  Y    0.000036  -0.002668   0.017947  -0.004760   0.004003
   80  H  8  Z    0.003724  -0.000574  -0.001699  -0.008144   0.019037

                     21         22         23         24         25
                    0.0667     0.0783     0.0857     0.1634     0.3471
                     A          A          A          A          A   
    1  C  1  S    0.079591  -0.000754   0.014244   0.074244  -0.005432
    2  C  1  S   -0.151222  -0.012554  -0.025706  -0.075925  -0.034704
    3  C  1  S   -1.003115   0.316684  -0.248240  -1.987426  -0.578565
    4  C  1  X    0.115103   0.004835  -0.097850  -0.284115  -0.420567
    5  C  1  Y    0.052546  -0.242402  -0.124580  -0.075237   0.195017
    6  C  1  Z    0.024342  -0.114000  -0.257750   0.215380   0.160245
    7  C  1  X    0.174693  -0.044070  -0.384509  -1.794700   0.677599
    8  C  1  Y    0.197292  -0.815260  -0.319761  -0.560003  -0.190780
    9  C  1  Z    0.045034  -0.269570  -0.877782   1.018055  -0.649330
   10  C  1 XX    0.008326  -0.003984   0.005978   0.029691  -0.037160
   11  C  1 YY    0.008559   0.005774  -0.012087  -0.017040   0.020063
   12  C  1 ZZ   -0.016885  -0.001791   0.006109  -0.012651   0.017097
   13  C  1 XY    0.013544   0.002596  -0.003417  -0.001569   0.013585
   14  C  1 XZ    0.004896   0.001545   0.010320  -0.031961   0.049969
   15  C  1 YZ   -0.004714  -0.018377   0.003995  -0.020538   0.019398
   16  C  2  S   -0.113686  -0.021213  -0.000719  -0.077120   0.001935
   17  C  2  S    0.241899   0.066366   0.008495   0.088741  -0.105616
   18  C  2  S    1.344688  -0.053903  -0.135735   2.011618  -0.393450
   19  C  2  X    0.171955   0.004889   0.144690  -0.294845   0.395144
   20  C  2  Y    0.107074   0.335395  -0.068288   0.055419   0.119905
   21  C  2  Z    0.023294  -0.129681   0.250518   0.225866  -0.200595
   22  C  2  X    0.358620  -0.030319   0.483029  -1.794552  -0.747434
   23  C  2  Y    0.129755   1.023699  -0.145819   0.411914   0.034393
   24  C  2  Z   -0.013530  -0.324352   0.862553   1.084627   0.840306
   25  C  2 XX   -0.000172   0.007864   0.004546  -0.028775  -0.033234
   26  C  2 YY   -0.011411  -0.004121  -0.014857   0.017361   0.014642
   27  C  2 ZZ    0.011583  -0.003743   0.010311   0.011414   0.018592
   28  C  2 XY   -0.013636  -0.012110   0.003236  -0.009033  -0.022376
   29  C  2 XZ   -0.010806  -0.005275   0.008148   0.032723   0.050126
   30  C  2 YZ   -0.010781  -0.019890  -0.010917  -0.017961  -0.023318
   31  F  3  S    0.045484   0.039935   0.026002   0.004110   0.004449
   32  F  3  S   -0.086258  -0.066026  -0.044759   0.014652  -0.021671
   33  F  3  S   -0.371006  -0.380008  -0.242975  -0.144107   0.030770
   34  F  3  X    0.130014   0.053219  -0.001499   0.105961   0.096801
   35  F  3  Y    0.194077   0.102389   0.086171   0.008313   0.043676
   36  F  3  Z    0.075058   0.099134  -0.036314  -0.028565  -0.060092
   37  F  3  X    0.138932   0.095752   0.003919   0.205714   0.125027
   38  F  3  Y    0.221608   0.101142   0.130904   0.024025  -0.010408
   39  F  3  Z    0.092085   0.134903  -0.047660  -0.065975  -0.117561
   40  F  3 XX   -0.002165   0.000088  -0.004840   0.001606  -0.006614
   41  F  3 YY    0.002610  -0.002484   0.003681   0.002035   0.006803
   42  F  3 ZZ   -0.000445   0.002396   0.001159  -0.003641  -0.000189
   43  F  3 XY    0.003389  -0.000060  -0.000390   0.006100   0.005200
   44  F  3 XZ    0.000619   0.005220  -0.002953   0.008004   0.008122
   45  F  3 YZ    0.004090   0.002738  -0.003569  -0.007304   0.002358
   46  H  4  S   -0.065549   0.032717  -0.026366   0.111402   0.201831
   47  H  4  S   -0.951712   1.324349  -0.940299   0.574289  -0.075952
   48  H  4  X   -0.000693   0.016188   0.000785  -0.009380  -0.005657
   49  H  4  Y    0.016020  -0.004874   0.015497  -0.008614  -0.001103
   50  H  4  Z    0.003634   0.009387   0.008880   0.020818   0.025842
   51  H  5  S   -0.021637   0.004167   0.053717   0.091508   0.300767
   52  H  5  S   -0.707110  -0.975368   1.325737   0.399121   0.192011
   53  H  5  X    0.007936   0.007680  -0.002543  -0.017999  -0.018266
   54  H  5  Y    0.007841   0.013878   0.006360   0.010296   0.012776
   55  H  5  Z    0.009344   0.012023  -0.015564  -0.003814   0.007881
   56  F  6  S   -0.013175  -0.023424   0.012235   0.000809   0.000708
   57  F  6  S    0.023723   0.034804  -0.022348  -0.021673  -0.032686
   58  F  6  S    0.101723   0.232018  -0.107573   0.082258   0.164958
   59  F  6  X    0.053363   0.014248   0.011792   0.089553  -0.131888
   60  F  6  Y   -0.084765  -0.059557   0.036541   0.011625   0.053942
   61  F  6  Z    0.002091   0.047891   0.056664  -0.028488   0.056496
   62  F  6  X    0.064410   0.056739   0.012823   0.172675  -0.072712
   63  F  6  Y   -0.096544  -0.057421   0.071872   0.008052  -0.048884
   64  F  6  Z    0.004641   0.072031   0.069948  -0.061383   0.111162
   65  F  6 XX    0.003544   0.001877  -0.003470  -0.002127   0.000262
   66  F  6 YY   -0.002443   0.001253   0.002621  -0.000263   0.005735
   67  F  6 ZZ   -0.001102  -0.003129   0.000849   0.002389  -0.005997
   68  F  6 XY    0.003409  -0.000265   0.000707   0.005825  -0.012894
   69  F  6 XZ    0.000621  -0.003457  -0.003659  -0.006047   0.007598
   70  F  6 YZ    0.001779   0.001142   0.003561  -0.006984  -0.002997
   71  H  7  S    0.144860   0.010463  -0.011032  -0.109393   0.174092
   72  H  7  S    1.156808  -1.158191  -0.978632  -0.548627  -0.128060
   73  H  7  X   -0.011517   0.008700  -0.000711  -0.011942   0.000879
   74  H  7  Y   -0.014970   0.005477   0.014078   0.007185  -0.002746
   75  H  7  Z    0.002587   0.010634  -0.005022   0.020741  -0.019847
   76  H  8  S   -0.028388  -0.032572   0.038152  -0.091691   0.224887
   77  H  8  S    0.325640   0.609458   1.447199  -0.401707   0.134510
   78  H  8  X    0.005097   0.006667   0.006057  -0.017797   0.021120
   79  H  8  Y    0.000577  -0.010163   0.001590  -0.010087   0.012759
   80  H  8  Z    0.003422   0.005917   0.016922  -0.004491  -0.009154

                     26         27         28         29         30
                    0.3764     0.3923     0.4396     0.4697     0.4719
                     A          A          A          A          A   
    1  C  1  S    0.044921  -0.002195   0.002440  -0.051723   0.057598
    2  C  1  S   -0.356647  -0.023993  -0.067782   0.309265  -0.385882
    3  C  1  S    0.067650   0.026101   0.340013  -0.477592   1.365006
    4  C  1  X    0.312748   0.029597  -0.084902   0.061698  -0.652677
    5  C  1  Y   -0.596205   0.053314  -0.104904  -0.081764  -0.041474
    6  C  1  Z    0.338379   0.156592   0.202015   0.128280   0.254463
    7  C  1  X   -0.478230  -0.108963   0.452628  -0.790083   1.387022
    8  C  1  Y    1.079681  -0.183836   1.232626  -0.117781   0.223623
    9  C  1  Z   -0.905138  -0.326290  -0.022923  -0.862830  -1.074108
   10  C  1 XX   -0.021418   0.003019   0.056434   0.028749   0.042782
   11  C  1 YY    0.005003   0.021470   0.052323  -0.053121  -0.071527
   12  C  1 ZZ    0.016415  -0.024489  -0.108757   0.024373   0.028745
   13  C  1 XY   -0.015992  -0.009762   0.026049  -0.075333  -0.003118
   14  C  1 XZ    0.024200  -0.001611   0.009132   0.019494  -0.046568
   15  C  1 YZ    0.009259   0.013126   0.038605  -0.010060   0.013346
   16  C  2  S   -0.003647   0.050411   0.002427  -0.021988  -0.073075
   17  C  2  S   -0.015167  -0.382145   0.035427   0.126898   0.470118
   18  C  2  S   -0.033930   0.182393  -0.391529   0.125403  -1.403541
   19  C  2  X    0.021147  -0.348631  -0.093829   0.239088  -0.604892
   20  C  2  Y    0.141151  -0.662335   0.098948  -0.002788   0.024344
   21  C  2  Z   -0.151279  -0.384259   0.194096  -0.194393   0.191775
   22  C  2  X    0.002704   0.482771   0.440745   0.216004   1.675802
   23  C  2  Y   -0.310022   0.990162  -1.176909  -0.347771  -0.253061
   24  C  2  Z    0.392024   0.860931  -0.147047   1.198663  -0.520462
   25  C  2 XX    0.003945  -0.018363  -0.062480   0.020761  -0.035618
   26  C  2 YY    0.026401   0.020343  -0.039505  -0.071086   0.039113
   27  C  2 ZZ   -0.030346  -0.001980   0.101985   0.050325  -0.003494
   28  C  2 XY   -0.007380   0.043105   0.008804   0.079959   0.012500
   29  C  2 XZ    0.009262   0.026910  -0.012557  -0.007307   0.053419
   30  C  2 YZ   -0.009117   0.010446   0.017781  -0.002208   0.023760
   31  F  3  S    0.007829   0.005175  -0.008940   0.011274   0.021902
   32  F  3  S   -0.034509   0.080275  -0.032249  -0.016345  -0.076616
   33  F  3  S    0.017911  -0.578496   0.348683  -0.139589  -0.071776
   34  F  3  X    0.064815  -0.178318   0.092597  -0.148547  -0.030265
   35  F  3  Y   -0.017703  -0.254781   0.088889   0.146910   0.039103
   36  F  3  Z    0.008499  -0.144064  -0.177255  -0.057946  -0.005113
   37  F  3  X    0.027957   0.046799  -0.117043   0.034147  -0.055075
   38  F  3  Y    0.030473   0.048460  -0.020995   0.097895   0.069211
   39  F  3  Z   -0.038963  -0.021824  -0.058090  -0.065786   0.050099
   40  F  3 XX    0.008253   0.003461   0.008705  -0.018533   0.015116
   41  F  3 YY   -0.005154  -0.023993   0.002850   0.017081  -0.009460
   42  F  3 ZZ   -0.003099   0.020532  -0.011555   0.001453  -0.005656
   43  F  3 XY   -0.004284  -0.044282   0.014429  -0.005446   0.006034
   44  F  3 XZ    0.006542  -0.017174  -0.011800   0.000361  -0.005064
   45  F  3 YZ    0.005207  -0.030324  -0.002805   0.004638  -0.009897
   46  H  4  S    0.188075   0.073787  -0.427367  -0.741941  -0.264515
   47  H  4  S   -0.094917   0.081984  -0.172146   0.245905  -0.492405
   48  H  4  X    0.027291  -0.018745  -0.001421  -0.001259  -0.020146
   49  H  4  Y   -0.009184   0.003033   0.002808   0.043303  -0.000883
   50  H  4  Z   -0.014197   0.006218   0.007851   0.013254   0.002534
   51  H  5  S   -0.159138   0.255175   0.532443   0.278955  -0.236826
   52  H  5  S    0.141092   0.120282  -0.381870   0.295060  -0.032328
   53  H  5  X   -0.026154  -0.013443   0.006338   0.003058  -0.025231
   54  H  5  Y    0.011398  -0.008286  -0.028669  -0.025710  -0.014475
   55  H  5  Z    0.027612   0.011449  -0.035367   0.014243   0.029843
   56  F  6  S    0.015369   0.008398   0.008141   0.019934  -0.015278
   57  F  6  S    0.045785  -0.028743   0.027252  -0.040498   0.069166
   58  F  6  S   -0.582871  -0.030794  -0.299493  -0.209525  -0.006151
   59  F  6  X    0.138275  -0.032942   0.060946   0.153924   0.040033
   60  F  6  Y   -0.192607  -0.035202  -0.091672   0.127485   0.034594
   61  F  6  Z    0.121672  -0.009873  -0.181114   0.035274   0.029008
   62  F  6  X   -0.110650  -0.017267  -0.122708  -0.046603  -0.069545
   63  F  6  Y    0.101177   0.036306   0.021690   0.099492  -0.027500
   64  F  6  Z    0.007306   0.025716  -0.046100   0.026329   0.073037
   65  F  6 XX   -0.002037   0.006838  -0.007472  -0.013245  -0.019597
   66  F  6 YY   -0.016634  -0.005530  -0.004874   0.013184   0.016162
   67  F  6 ZZ    0.018671  -0.001307   0.012345   0.000060   0.003435
   68  F  6 XY    0.037277   0.007505   0.011521   0.004018   0.003181
   69  F  6 XZ   -0.013333   0.004187   0.013693  -0.001287   0.005564
   70  F  6 YZ    0.022642  -0.002751  -0.004163   0.001449  -0.005999
   71  H  7  S    0.160435   0.115512   0.574436  -0.718916  -0.055258
   72  H  7  S    0.057684  -0.025381   0.091705   0.139232   0.478481
   73  H  7  X    0.014299  -0.021773  -0.001466   0.010536  -0.022094
   74  H  7  Y    0.006514  -0.008252  -0.011472   0.042888   0.015590
   75  H  7  Z   -0.015044   0.015879   0.007082  -0.009390  -0.007665
   76  H  8  S    0.368373  -0.167031  -0.567796   0.049819   0.379857
   77  H  8  S    0.108690   0.081946   0.433108   0.304839   0.182998
   78  H  8  X    0.013280   0.021213   0.004774   0.012896  -0.020482
   79  H  8  Y    0.001592   0.011812   0.038125  -0.022670   0.000450
   80  H  8  Z   -0.008836  -0.025938  -0.034358  -0.033858   0.021558

                     31         32         33         34         35
                    0.5294     0.5489     0.5571     0.5835     0.7885
                     A          A          A          A          A   
    1  C  1  S   -0.023498  -0.044765  -0.020024  -0.067553   0.022580
    2  C  1  S    0.130700   0.353986   0.166136   0.525984  -1.273461
    3  C  1  S   -0.320252  -0.525759  -0.312508  -0.191057   2.488255
    4  C  1  X   -0.354789  -0.087551  -0.252759  -0.081933  -0.116124
    5  C  1  Y   -0.469027  -0.008615  -0.452702  -0.164932   0.125044
    6  C  1  Z   -0.123413   0.321356  -0.580516   0.453105   0.010451
    7  C  1  X    0.841613   0.191470   0.462084   0.714277  -0.248034
    8  C  1  Y    0.799282   0.018079   1.073506  -0.135934  -0.377432
    9  C  1  Z    0.887668  -0.028113   1.116308  -1.158262   0.391755
   10  C  1 XX    0.006002   0.015748  -0.007210   0.041034  -0.050296
   11  C  1 YY   -0.008489   0.055844  -0.054963  -0.008297   0.047322
   12  C  1 ZZ    0.002488  -0.071591   0.062173  -0.032736   0.002974
   13  C  1 XY   -0.053511  -0.003120  -0.032433  -0.031487  -0.037428
   14  C  1 XZ   -0.013296  -0.048115   0.011725  -0.017089   0.032399
   15  C  1 YZ   -0.003603  -0.024194  -0.024145  -0.042818  -0.006607
   16  C  2  S   -0.037570  -0.034072   0.042392   0.068666   0.015979
   17  C  2  S    0.220278   0.253996  -0.355604  -0.539060  -1.273540
   18  C  2  S   -0.430304  -0.343938   0.575806   0.212916   2.810396
   19  C  2  X    0.375661  -0.086318  -0.238597  -0.099189   0.141627
   20  C  2  Y   -0.455876   0.268894   0.329821   0.127366   0.176553
   21  C  2  Z    0.180454  -0.575014  -0.248805   0.436702   0.020935
   22  C  2  X   -0.875485   0.127734   0.441218   0.692872   0.159892
   23  C  2  Y    0.851041  -0.570669  -0.834524   0.260510  -0.369095
   24  C  2  Z   -1.021767   0.577238   0.723106  -1.160977  -0.371804
   25  C  2 XX    0.000677   0.023309  -0.002105  -0.038727  -0.052119
   26  C  2 YY   -0.005672   0.077197   0.018577   0.014392   0.051050
   27  C  2 ZZ    0.004995  -0.100506  -0.016472   0.024335   0.001069
   28  C  2 XY    0.059025  -0.017028  -0.021144  -0.036666   0.033751
   29  C  2 XZ   -0.002656  -0.047298   0.016308   0.019564   0.034730
   30  C  2 YZ    0.006068   0.012488  -0.031116  -0.037308   0.019710
   31  F  3  S    0.020417   0.007009   0.000692  -0.002911   0.039036
   32  F  3  S   -0.090236  -0.046488   0.005197   0.024283  -0.166002
   33  F  3  S    0.017147   0.082098  -0.036209  -0.067681  -0.193748
   34  F  3  X    0.115418   0.072062   0.024417  -0.016834   0.014019
   35  F  3  Y   -0.074636  -0.032703  -0.024750  -0.070230  -0.058683
   36  F  3  Z    0.027768   0.049184  -0.086944   0.039363   0.009022
   37  F  3  X    0.108153  -0.039873   0.003048  -0.012922   0.094170
   38  F  3  Y   -0.026645   0.043316   0.082133   0.015740   0.264245
   39  F  3  Z    0.061997  -0.060852  -0.058624   0.078020   0.098377
   40  F  3 XX   -0.001315   0.002844   0.008892   0.006647   0.012126
   41  F  3 YY    0.002877  -0.017438  -0.014536  -0.006073  -0.019398
   42  F  3 ZZ   -0.001562   0.014594   0.005644  -0.000573   0.007272
   43  F  3 XY   -0.008130   0.000974  -0.002914  -0.000862  -0.017176
   44  F  3 XZ   -0.009497   0.010616  -0.003693  -0.001412  -0.015764
   45  F  3 YZ   -0.001094   0.015084  -0.004878  -0.004302  -0.015288
   46  H  4  S   -0.308632   0.099363   0.313393   0.527674  -0.388519
   47  H  4  S    1.265567  -0.797404  -1.200632  -0.556130  -0.726374
   48  H  4  X   -0.054652  -0.000895   0.035608   0.022966  -0.028017
   49  H  4  Y    0.058493  -0.036637  -0.056922  -0.038604  -0.046738
   50  H  4  Z   -0.027136  -0.031498   0.027171   0.018612   0.005869
   51  H  5  S   -0.289972  -0.739589   0.274379   0.313933  -0.368223
   52  H  5  S   -0.670095   1.302918   0.537634  -1.323601  -0.688628
   53  H  5  X    0.012795   0.021686   0.014152  -0.030208  -0.011830
   54  H  5  Y   -0.001719  -0.006487   0.011565   0.034045  -0.017057
   55  H  5  Z   -0.009306   0.087999   0.003382  -0.065758  -0.022650
   56  F  6  S    0.017414   0.003481  -0.002140   0.001917   0.035365
   57  F  6  S   -0.080382  -0.034875   0.012079  -0.021665  -0.157380
   58  F  6  S    0.017135   0.087306  -0.016793   0.064895  -0.131189
   59  F  6  X   -0.116763  -0.045089   0.039979  -0.026153  -0.024701
   60  F  6  Y   -0.091054  -0.018033   0.022166   0.054163  -0.035957
   61  F  6  Z   -0.021775  -0.073107  -0.060238   0.044441  -0.023870
   62  F  6  X   -0.087932   0.038262  -0.028538  -0.005382  -0.074474
   63  F  6  Y   -0.029727  -0.017772  -0.083664  -0.027994   0.213177
   64  F  6  Z   -0.042464   0.024507  -0.085972   0.071276  -0.064872
   65  F  6 XX    0.001391  -0.002333  -0.007130  -0.004235   0.009715
   66  F  6 YY   -0.002135  -0.004820   0.015922   0.006005  -0.017119
   67  F  6 ZZ    0.000744   0.007153  -0.008793  -0.001770   0.007404
   68  F  6 XY    0.007108  -0.002810  -0.002263  -0.003553   0.017811
   69  F  6 XZ   -0.006410   0.010072  -0.000862   0.001155  -0.014403
   70  F  6 YZ    0.000085  -0.013004   0.003330  -0.001784   0.010458
   71  H  7  S   -0.250892  -0.097569  -0.332518  -0.516018  -0.340564
   72  H  7  S    1.130534   0.036596   1.557476   0.536087  -0.738591
   73  H  7  X    0.047180   0.021799   0.031477   0.020951   0.032123
   74  H  7  Y    0.053195   0.000452   0.073573   0.036213  -0.043978
   75  H  7  Z    0.027871   0.040728   0.012294   0.023841  -0.012536
   76  H  8  S   -0.236579  -0.726303   0.134872  -0.351673  -0.327873
   77  H  8  S   -0.548882   0.690507  -1.234548   1.342708  -0.682773
   78  H  8  X   -0.018845  -0.010753   0.022384  -0.027262   0.012175
   79  H  8  Y   -0.002315  -0.010043  -0.005179  -0.033365  -0.014880
   80  H  8  Z    0.009094  -0.064920   0.052752  -0.070830   0.021712

                     36         37         38         39         40
                    0.9596     0.9850     1.0047     1.0298     1.1155
                     A          A          A          A          A   
    1  C  1  S   -0.019656   0.010558   0.000009  -0.021512   0.024708
    2  C  1  S   -0.850213   0.089604  -0.022407  -0.004340   1.155423
    3  C  1  S    4.040633  -0.793750   0.177366   1.365045  -4.736739
    4  C  1  X   -0.053577   0.049026   0.053026  -0.102429  -0.170697
    5  C  1  Y    0.060748  -0.103880   0.028586   0.203209   0.084122
    6  C  1  Z   -0.036958   0.047564  -0.008915  -0.103693  -0.032926
    7  C  1  X    1.133630  -0.387985   0.141654   0.322715  -1.439007
    8  C  1  Y   -0.041687  -0.057141  -0.026712   0.017733   0.360413
    9  C  1  Z   -0.539451   0.448361  -0.016359  -0.038034   0.897450
   10  C  1 XX    0.087434  -0.007431   0.133544  -0.036272   0.050646
   11  C  1 YY   -0.012829  -0.025469  -0.074471   0.070255   0.014938
   12  C  1 ZZ   -0.074605   0.032899  -0.059073  -0.033982  -0.065584
   13  C  1 XY   -0.008841   0.171365   0.053845  -0.076701  -0.001325
   14  C  1 XZ    0.066385  -0.010207   0.127966  -0.011894   0.109037
   15  C  1 YZ   -0.091486  -0.131456   0.022964  -0.148064   0.000650
   16  C  2  S    0.024874  -0.003628  -0.001727   0.002578  -0.031741
   17  C  2  S    0.547609  -0.343048   0.181712   0.539467  -1.096196
   18  C  2  S   -3.870776   1.311243  -0.134316  -1.190214   4.742756
   19  C  2  X   -0.112231  -0.037198   0.098910   0.070875  -0.130821
   20  C  2  Y   -0.224305  -0.053342   0.053008   0.177377  -0.034623
   21  C  2  Z   -0.120398  -0.041291   0.036953   0.080735  -0.003901
   22  C  2  X    1.160115  -0.243081   0.177781   0.373173  -1.399214
   23  C  2  Y    0.109806  -0.068363   0.054511   0.087971  -0.540035
   24  C  2  Z   -0.613327  -0.149250  -0.114618  -0.297203   0.894888
   25  C  2 XX   -0.057925   0.068853  -0.135769  -0.004677  -0.058373
   26  C  2 YY   -0.033169  -0.069044   0.084881   0.034297  -0.009897
   27  C  2 ZZ    0.091095   0.000191   0.050888  -0.029621   0.068270
   28  C  2 XY   -0.112608  -0.140575   0.052077   0.036224   0.017806
   29  C  2 XZ   -0.069376   0.003116  -0.115866   0.038522  -0.113184
   30  C  2 YZ   -0.092033   0.145075   0.096990   0.098234  -0.005567
   31  F  3  S   -0.065494  -0.006040   0.026278   0.020506   0.006148
   32  F  3  S    0.292491   0.028616  -0.137676  -0.101192  -0.006385
   33  F  3  S    0.241136  -0.050851   0.016143   0.087690  -0.255971
   34  F  3  X    0.350538   0.150045   0.285912  -0.218343   0.044727
   35  F  3  Y    0.256974   0.233448  -0.510266  -0.214761   0.075511
   36  F  3  Z    0.203804  -0.475845  -0.104240  -0.293573   0.353661
   37  F  3  X   -0.669889  -0.200773  -0.268088   0.331074   0.053244
   38  F  3  Y   -0.652656  -0.291800   0.701873   0.365182   0.004662
   39  F  3  Z   -0.364844   0.561801   0.184640   0.421429  -0.499459
   40  F  3 XX    0.019516   0.007140   0.006527   0.005652  -0.009520
   41  F  3 YY   -0.021273   0.000832  -0.007724   0.016039  -0.014147
   42  F  3 ZZ    0.001757  -0.007973   0.001197  -0.021690   0.023667
   43  F  3 XY    0.001387  -0.014186   0.025651   0.039406  -0.032976
   44  F  3 XZ   -0.021652  -0.011313   0.002421   0.007418   0.001250
   45  F  3 YZ   -0.000305  -0.013822   0.009271   0.023786  -0.044330
   46  H  4  S    0.314930  -0.171575  -0.000614   0.203760  -0.530455
   47  H  4  S    0.154654  -0.073184   0.080857   0.034111  -0.298429
   48  H  4  X   -0.013855   0.072652  -0.068784  -0.001034  -0.031027
   49  H  4  Y    0.019599   0.026588  -0.063567  -0.004251  -0.052100
   50  H  4  Z    0.018175  -0.079474  -0.084138  -0.035193  -0.005866
   51  H  5  S    0.308255  -0.192472  -0.000009   0.163360  -0.369768
   52  H  5  S    0.059792  -0.171476  -0.071091  -0.038414  -0.073631
   53  H  5  X    0.039759  -0.026237   0.080025  -0.016230   0.072539
   54  H  5  Y    0.047019  -0.099566  -0.036089  -0.056382  -0.014806
   55  H  5  Z    0.025784  -0.012994  -0.011028  -0.003128  -0.018702
   56  F  6  S    0.046072  -0.028664  -0.011643   0.053745   0.000609
   57  F  6  S   -0.224656   0.147553   0.070893  -0.303053  -0.049858
   58  F  6  S   -0.154418   0.018951  -0.016973   0.058375   0.268555
   59  F  6  X    0.175855  -0.315344   0.296939   0.173303   0.098034
   60  F  6  Y   -0.032157   0.169658   0.393368  -0.476637  -0.194765
   61  F  6  Z    0.254854   0.382727   0.146728   0.326664   0.388689
   62  F  6  X   -0.389745   0.479501  -0.329725  -0.376025  -0.005056
[...]
   27  C  2 ZZ   -0.018471   0.007645   0.013902   0.011344  -0.017380
   28  C  2 XY   -0.001121   0.002046  -0.004916  -0.007125   0.022724
   29  C  2 XZ    0.008884   0.008865  -0.010520   0.032081  -0.049514
   30  C  2 YZ    0.001060  -0.007522  -0.026128  -0.018042   0.024427
   31  F  3  S   -0.016119   0.021484   0.052257   0.001504  -0.004849
   32  F  3  S    0.033812  -0.037632  -0.087810   0.018523   0.032252
   33  F  3  S    0.113131  -0.199019  -0.490639  -0.114701  -0.076266
   34  F  3  X   -0.070563  -0.002801   0.086940   0.105437  -0.118416
   35  F  3  Y   -0.105044   0.070207   0.162289  -0.002249  -0.041870
   36  F  3  Z   -0.006967  -0.043817   0.098058  -0.031856   0.059529
   37  F  3  X   -0.061637  -0.002191   0.139155   0.207764  -0.118744
   38  F  3  Y   -0.129802   0.113962   0.177123   0.005547   0.018732
   39  F  3  Z    0.001261  -0.058214   0.127992  -0.072331   0.121491
   40  F  3 XX    0.002870  -0.004185  -0.002840   0.001698   0.004253
   41  F  3 YY   -0.003775   0.003612  -0.000210   0.001640  -0.005759
   42  F  3 ZZ    0.000905   0.000573   0.003050  -0.003339   0.001506
   43  F  3 XY   -0.003676  -0.000364   0.002419   0.006191  -0.006706
   44  F  3 XZ    0.002477  -0.003574   0.004096   0.007603  -0.008798
   45  F  3 YZ   -0.001521  -0.003768   0.002587  -0.007674  -0.003260
   46  H  4  S    0.109259  -0.011545  -0.054677   0.110817  -0.220563
   47  H  4  S    1.530699  -0.969721   0.529645   0.531886   0.103297
   48  H  4  X    0.011313   0.000670   0.007458  -0.010760   0.003386
   49  H  4  Y   -0.016461   0.014858   0.004520  -0.008069   0.001918
   50  H  4  Z    0.000529   0.006887   0.013390   0.019971  -0.023195
   51  H  5  S   -0.022359   0.040320   0.068192   0.080206  -0.263097
   52  H  5  S   -0.095282   1.360264  -0.736653   0.414211  -0.201280
   53  H  5  X   -0.004548  -0.003028   0.011904  -0.018149   0.023167
   54  H  5  Y    0.000789   0.005081   0.014720   0.009968  -0.014040
   55  H  5  Z    0.001210  -0.015621   0.008127  -0.004432  -0.012493
   56  F  6  S    0.016218   0.020979  -0.052607  -0.001557  -0.004803
   57  F  6  S   -0.034011  -0.036736   0.088425  -0.018468   0.031845
   58  F  6  S   -0.113918  -0.194533   0.493938   0.115474  -0.075033
   59  F  6  X   -0.075428   0.000614   0.094896   0.105384   0.119366
   60  F  6  Y    0.102162   0.066167  -0.164104   0.008719  -0.032436
   61  F  6  Z   -0.001289   0.048268   0.089258  -0.031570  -0.062291
   62  F  6  X   -0.067665  -0.001545   0.147858   0.207961   0.117437
   63  F  6  Y    0.126978   0.108885  -0.178546   0.007838   0.030680
   64  F  6  Z    0.008307   0.065316   0.118325  -0.072246  -0.120484
   65  F  6 XX   -0.002577  -0.004173   0.002658  -0.002225   0.003720
   66  F  6 YY    0.003612   0.003282   0.000149  -0.000386  -0.005409
   67  F  6 ZZ   -0.001035   0.000891  -0.002807   0.002611   0.001690
   68  F  6 XY   -0.003882   0.000178   0.002775   0.006538   0.007563
   69  F  6 XZ   -0.002621  -0.003751  -0.004054  -0.006898  -0.008475
   70  F  6 YZ   -0.001343   0.003802   0.002564  -0.008264   0.002350
   71  H  7  S   -0.109284  -0.010743   0.054681  -0.111170  -0.219980
   72  H  7  S   -1.533348  -0.969285  -0.521794  -0.532865   0.104014
   73  H  7  X    0.010499  -0.001349   0.007765  -0.011065  -0.003501
   74  H  7  Y    0.016981   0.015062  -0.005015   0.006489   0.000497
   75  H  7  Z    0.001399  -0.006003   0.013185   0.020389   0.023330
   76  H  8  S    0.022323   0.039860  -0.068227  -0.080937  -0.266167
   77  H  8  S    0.099001   1.367732   0.725397  -0.411385  -0.199057
   78  H  8  X   -0.004506   0.002983   0.012611  -0.017653  -0.022300
   79  H  8  Y   -0.001053   0.004278  -0.014622  -0.010601  -0.015653
   80  H  8  Z    0.001211   0.015947   0.007220  -0.004926   0.011566

                     26         27
                    0.3940     0.3962
                     A          A   
    1  C  1  S   -0.032630   0.039329
    2  C  1  S    0.278738  -0.268691
    3  C  1  S   -0.141155   0.140388
    4  C  1  X   -0.268292   0.255735
    5  C  1  Y    0.413069  -0.530884
    6  C  1  Z   -0.359834   0.138240
    7  C  1  X    0.411947  -0.272283
    8  C  1  Y   -0.551863   0.854630
    9  C  1  Z    0.793024  -0.344376
   10  C  1 XX    0.006917  -0.013735
   11  C  1 YY   -0.026340  -0.006139
   12  C  1 ZZ    0.019422   0.019873
   13  C  1 XY    0.039588  -0.028755
   14  C  1 XZ   -0.018132   0.016185
   15  C  1 YZ   -0.003766  -0.015136
   16  C  2  S   -0.032220  -0.039565
   17  C  2  S    0.276733   0.270738
   18  C  2  S   -0.142224  -0.138168
   19  C  2  X    0.247338   0.230594
   20  C  2  Y    0.402490   0.536141
   21  C  2  Z    0.380642   0.169954
   22  C  2  X   -0.383245  -0.230980
   23  C  2  Y   -0.526164  -0.850536
   24  C  2  Z   -0.819155  -0.399642
   25  C  2 XX    0.009831   0.016272
   26  C  2 YY   -0.029730   0.004948
   27  C  2 ZZ    0.019899  -0.021220
   28  C  2 XY   -0.036320  -0.027372
   29  C  2 XZ   -0.020209  -0.017308
   30  C  2 YZ    0.000099  -0.014148
   31  F  3  S   -0.009003   0.003725
   32  F  3  S   -0.035658  -0.081171
   33  F  3  S    0.410740   0.382115
   34  F  3  X    0.100024   0.155678
   35  F  3  Y    0.198039   0.157306
   36  F  3  Z    0.090837   0.117471
   37  F  3  X   -0.048478  -0.021663
   38  F  3  Y   -0.055886   0.000151
   39  F  3  Z    0.035978   0.004322
   40  F  3 XX   -0.005880   0.004994
   41  F  3 YY    0.019793   0.011131
   42  F  3 ZZ   -0.013912  -0.016125
   43  F  3 XY    0.036663   0.026846
   44  F  3 XZ    0.008882   0.016306
   45  F  3 YZ    0.017754   0.023673
   46  H  4  S   -0.131104   0.040162
   47  H  4  S   -0.020206  -0.108649
   48  H  4  X   -0.002290   0.030823
   49  H  4  Y    0.002465  -0.006878
   50  H  4  Z    0.006567  -0.016093
   51  H  5  S   -0.049590  -0.329832
   52  H  5  S   -0.154872   0.010278
   53  H  5  X    0.025774  -0.006163
   54  H  5  Y   -0.000736   0.012902
   55  H  5  Z   -0.026185   0.012646
   56  F  6  S   -0.008894  -0.003823
   57  F  6  S   -0.036298   0.081153
   58  F  6  S    0.412013  -0.379748
   59  F  6  X   -0.110340   0.163097
   60  F  6  Y    0.198683  -0.154704
   61  F  6  Z   -0.081455   0.108214
   62  F  6  X    0.050627  -0.020583
   63  F  6  Y   -0.051341  -0.001666
   64  F  6  Z   -0.039359   0.003488
   65  F  6 XX   -0.002798  -0.007246
   66  F  6 YY    0.018345  -0.010884
   67  F  6 ZZ   -0.015547   0.018130
   68  F  6 XY   -0.038561   0.027785
   69  F  6 XZ    0.007771  -0.015886
   70  F  6 YZ   -0.015414   0.021077
   71  H  7  S   -0.129926  -0.042806
   72  H  7  S   -0.020285   0.109003
   73  H  7  X    0.001985   0.030449
   74  H  7  Y    0.002853   0.009262
   75  H  7  Z   -0.006295  -0.015555
   76  H  8  S   -0.053752   0.327518
   77  H  8  S   -0.153570  -0.012048
   78  H  8  X   -0.025563  -0.005855
   79  H  8  Y   -0.003178  -0.013993
   80  H  8  Z    0.025967   0.012137

     ---------------------------------------------------------------------
     PROPERTIES FOR THE PBE      DFT FUNCTIONAL (RHF  TYPE) DENSITY MATRIX
     ---------------------------------------------------------------------

          -----------------
          ENERGY COMPONENTS
          -----------------

         WAVEFUNCTION NORMALIZATION =       1.0000000000

                ONE ELECTRON ENERGY =    -635.3562800844
                TWO ELECTRON ENERGY =     230.6410433857
           NUCLEAR REPULSION ENERGY =     126.7774759415
                                      ------------------
                       TOTAL ENERGY =    -277.9377607572

 ELECTRON-ELECTRON POTENTIAL ENERGY =     230.6410433857
  NUCLEUS-ELECTRON POTENTIAL ENERGY =    -912.4327448945
   NUCLEUS-NUCLEUS POTENTIAL ENERGY =     126.7774759415
                                      ------------------
             TOTAL POTENTIAL ENERGY =    -555.0142255673
               TOTAL KINETIC ENERGY =     277.0764648101
                 VIRIAL RATIO (V/T) =       2.0031085136

          ---------------------------------------
          MULLIKEN AND LOWDIN POPULATION ANALYSES
          ---------------------------------------

     ATOMIC MULLIKEN POPULATION IN EACH MOLECULAR ORBITAL

                      1          2          3          4          5

                  2.000000   2.000000   2.000000   2.000000   2.000000

    1             0.001046   0.000101   1.285990   0.713793   0.117084
    2             0.000062   0.001084   0.713326   1.286461   0.114621
    3             0.229066   1.769807  -0.000192  -0.000319   0.863168
    4             0.000006  -0.000013   0.000233   0.000098   0.002902
    5            -0.000004  -0.000010   0.000288   0.000106   0.005091
    6             1.769837   0.229035  -0.000340  -0.000172   0.888998
    7            -0.000000  -0.000006   0.000315   0.000016   0.002966
    8            -0.000013  -0.000000   0.000380   0.000015   0.005170

                      6          7          8          9         10

                  2.000000   2.000000   2.000000   2.000000   2.000000

    1             0.083546   0.713645   0.470515   0.387771   0.458227
    2             0.085854   0.713608   0.471094   0.385567   0.457699
    3             0.924851   0.148920   0.272898   0.457653   0.350418
    4             0.002134   0.072869   0.118379   0.152312   0.026747
    5             0.001392   0.064412   0.138110   0.003281   0.162072
    6             0.898846   0.149074   0.273010   0.455945   0.356277
    7             0.002056   0.072897   0.118176   0.154224   0.026001
    8             0.001320   0.064575   0.137817   0.003247   0.162558

                     11         12         13         14         15

                  2.000000   2.000000   2.000000   2.000000   2.000000

    1             0.461914   0.299477   0.328609   0.049925   0.146234
    2             0.462127   0.300288   0.329925   0.050065   0.118184
    3             0.501174   0.499753   0.452326   0.924797   0.511261
    4             0.031405   0.201027   0.013744   0.007646   0.075449
    5             0.005334   0.000702   0.205676   0.018139   0.174004
    6             0.501561   0.497244   0.451449   0.923621   0.673273
    7             0.031030   0.200800   0.013298   0.007714   0.100416
    8             0.005454   0.000708   0.204973   0.018094   0.201178

                     16         17

                  2.000000   2.000000

    1             0.100073   0.256489
    2             0.128159   0.256602
    3             0.796115   0.622725
    4             0.121203   0.081619
    5             0.075668   0.039130
    6             0.633530   0.622949
    7             0.096749   0.081032
    8             0.048503   0.039454

               ----- POPULATIONS IN EACH AO -----
                             MULLIKEN      LOWDIN
              1  C  1  S      1.99338     1.97162
              2  C  1  S      0.75940     0.38510
              3  C  1  S      0.36666     0.27904
              4  C  1  X      0.69239     0.63337
              5  C  1  Y      0.62735     0.56812
              6  C  1  Z      0.74832     0.67438
              7  C  1  X      0.17514     0.28377
              8  C  1  Y      0.17022     0.28662
              9  C  1  Z      0.27707     0.36753
             10  C  1 XX      0.01411     0.16114
             11  C  1 YY      0.01575     0.16309
             12  C  1 ZZ      0.01695     0.16216
             13  C  1 XY      0.00945     0.03383
             14  C  1 XZ      0.00826     0.01855
             15  C  1 YZ      0.00000     0.01570
             16  C  2  S      1.99338     1.97162
             17  C  2  S      0.75943     0.38515
             18  C  2  S      0.36685     0.27907
             19  C  2  X      0.70194     0.64125
             20  C  2  Y      0.62462     0.56594
             21  C  2  Z      0.74130     0.66859
             22  C  2  X      0.18214     0.29060
             23  C  2  Y      0.16883     0.28533
             24  C  2  Z      0.27177     0.36212
             25  C  2 XX      0.01439     0.16015
             26  C  2 YY      0.01511     0.16284
             27  C  2 ZZ      0.01696     0.16266
             28  C  2 XY      0.00931     0.03448
             29  C  2 XZ      0.00869     0.01817
             30  C  2 YZ      0.00000     0.01628
             31  F  3  S      1.99544     1.97164
             32  F  3  S      0.94953     0.75210
             33  F  3  S      0.99782     0.52470
             34  F  3  X      1.15024     1.11504
             35  F  3  Y      1.06379     1.02075
             36  F  3  Z      1.19838     1.16655
             37  F  3  X      0.66066     0.68780
             38  F  3  Y      0.60896     0.64796
             39  F  3  Z      0.68915     0.71800
             40  F  3 XX      0.00144     0.19119
             41  F  3 YY      0.00236     0.19373
             42  F  3 ZZ      0.00332     0.18970
             43  F  3 XY      0.00120     0.00418
             44  F  3 XZ      0.00212     0.00166
             45  F  3 YZ      0.00000     0.00300
             46  H  4  S      0.77151     0.64844
             47  H  4  S      0.11946     0.21697
             48  H  4  X      0.00483     0.01079
             49  H  4  Y      0.00860     0.01830
             50  H  4  Z      0.00336     0.00836
             51  H  5  S      0.76716     0.64949
             52  H  5  S      0.10947     0.21719
             53  H  5  X      0.00280     0.00811
             54  H  5  Y      0.00247     0.00608
             55  H  5  Z      0.01149     0.02419
             56  F  6  S      1.99544     1.97164
             57  F  6  S      0.94954     0.75209
             58  F  6  S      0.99773     0.52465
             59  F  6  X      1.13887     1.10277
             60  F  6  Y      1.06714     1.02436
             61  F  6  Z      1.20655     1.17532
             62  F  6  X      0.65381     0.68182
             63  F  6  Y      0.61088     0.64990
             64  F  6  Z      0.69374     0.72175
             65  F  6 XX      0.00144     0.19154
             66  F  6 YY      0.00238     0.19364
             67  F  6 ZZ      0.00350     0.18943
             68  F  6 XY      0.00121     0.00435
             69  F  6 XZ      0.00192     0.00170
             70  F  6 YZ      0.00000     0.00278
             71  H  7  S      0.77147     0.64849
             72  H  7  S      0.11942     0.21699
             73  H  7  X      0.00444     0.01008
             74  H  7  Y      0.00881     0.01868
             75  H  7  Z      0.00354     0.00869
             76  H  8  S      0.76720     0.64955
             77  H  8  S      0.10947     0.21717
             78  H  8  X      0.00274     0.00799
             79  H  8  Y      0.00244     0.00605
             80  H  8  Z      0.01159     0.02437

          ----- MULLIKEN ATOMIC OVERLAP POPULATIONS -----
          (OFF-DIAGONAL ELEMENTS NEED TO BE MULTIPLIED BY 2)

             1           2           3           4           5

    1    4.6109586
    2    0.3915092   4.6117330
    3   -0.0415642   0.2471865   9.1716184
    4   -0.0334091   0.3605267  -0.0290553   0.6379945
    5   -0.0364811   0.3754698  -0.0308139  -0.0345661   0.6097629
    6    0.2473971  -0.0416410   0.0010198   0.0039820   0.0020228
    7    0.3605825  -0.0335017   0.0039798   0.0072819  -0.0049864
    8    0.3754466  -0.0365536   0.0020497  -0.0049945   0.0129852

             6           7           8

    6    9.1712189
    7   -0.0290470   0.6379096
    8   -0.0308141  -0.0345340   0.6098495

          TOTAL MULLIKEN AND LOWDIN ATOMIC POPULATIONS
       ATOM         MULL.POP.    CHARGE          LOW.POP.     CHARGE
    1 C             5.874440    0.125560         6.004024   -0.004024
    2 C             5.874729    0.125271         6.004255   -0.004255
    3 F             9.324421   -0.324421         9.187997   -0.187997
    4 H             0.907760    0.092240         0.902864    0.097136
    5 H             0.893393    0.106607         0.905072    0.094928
    6 F             9.324138   -0.324138         9.187719   -0.187719
    7 H             0.907685    0.092315         0.902937    0.097063
    8 H             0.893435    0.106565         0.905131    0.094869

          MULLIKEN SPHERICAL HARMONIC POPULATIONS
       ATOM           S       P       D      F      G      H      I    TOTAL
    1 C             3.12    2.69    0.06   0.00   0.00   0.00   0.00    5.87
    2 C             3.12    2.69    0.06   0.00   0.00   0.00   0.00    5.87
    3 F             3.94    5.37    0.01   0.00   0.00   0.00   0.00    9.32
    4 H             0.89    0.02    0.00   0.00   0.00   0.00   0.00    0.91
    5 H             0.88    0.02    0.00   0.00   0.00   0.00   0.00    0.89
    6 F             3.94    5.37    0.01   0.00   0.00   0.00   0.00    9.32
    7 H             0.89    0.02    0.00   0.00   0.00   0.00   0.00    0.91
    8 H             0.88    0.02    0.00   0.00   0.00   0.00   0.00    0.89

          -------------------------------
          BOND ORDER AND VALENCE ANALYSIS     BOND ORDER THRESHOLD=0.050
          -------------------------------

                   BOND                       BOND                       BOND
  ATOM PAIR DIST  ORDER      ATOM PAIR DIST  ORDER      ATOM PAIR DIST  ORDER
    1   2  1.507  1.054        1   6  1.397  0.923        1   7  1.109  0.933
    1   8  1.108  0.933        2   3  1.398  0.923        2   4  1.109  0.933
    2   5  1.108  0.933

                       TOTAL       BONDED        FREE
      ATOM            VALENCE     VALENCE     VALENCE
    1 C                 3.862       3.862       0.000
    2 C                 3.862       3.862       0.000
    3 F                 0.982       0.982       0.000
    4 H                 0.954       0.954      -0.000
    5 H                 0.961       0.961       0.000
    6 F                 0.982       0.982       0.000
    7 H                 0.954       0.954      -0.000
    8 H                 0.961       0.961       0.000

          ---------------------
          ELECTROSTATIC MOMENTS
          ---------------------

 POINT   1           X           Y           Z (BOHR)    CHARGE
                -0.000000    0.000000    0.000000        0.00 (A.U.)
         DX          DY          DZ         /D/  (DEBYE)
     0.062131   -2.677345   -0.071997    2.679033
 ...... END OF PROPERTY EVALUATION ......
 STEP CPU TIME =     0.02 TOTAL CPU TIME =         96.9 (      1.6 MIN)
 TOTAL WALL CLOCK TIME=         97.3 SECONDS, CPU UTILIZATION IS    99.53%
  $VIB   
          IVIB=   0 IATOM=   0 ICOORD=   0 E=     -277.9377607572
 -1.880296013E-05 5.560593788E-06-1.816093752E-05-2.545149659E-06-2.909201763E-05
  5.438022408E-05-4.995727687E-06 1.530225548E-05-2.337118588E-05-1.274992108E-05
 -4.632228886E-06-1.187164813E-05 6.616333502E-06 1.777082501E-05 2.726812445E-06
  1.333352129E-06 1.621570463E-05-1.178344980E-05 1.451397832E-05-7.498264623E-06
  7.820544809E-06 1.663009460E-05-1.362686778E-05 2.596400037E-07
  6.213131360E-02-2.677344722E+00-7.199695807E-02
 ......END OF GEOMETRY SEARCH......
 STEP CPU TIME =     0.00 TOTAL CPU TIME =         96.9 (      1.6 MIN)
 TOTAL WALL CLOCK TIME=         97.3 SECONDS, CPU UTILIZATION IS    99.52%
                991181  WORDS OF DYNAMIC MEMORY USED
 EXECUTION OF GAMESS TERMINATED NORMALLY Sun Oct  6 23:31:45 2019
 DDI: 263640 bytes (0.3 MB / 0 MWords) used by master data server.

 ----------------------------------------
 CPU timing information for all processes
 ========================================
 0: 95.169 + 1.695 = 96.865
 ----------------------------------------
 ddikick.x: exited gracefully.
----- accounting info -----
Files used on the master node d12chas543.crc.nd.edu were:
-rw-r--r-- 1 wschnei1 campus 378327 Oct  6 23:31 /scratch365/wschnei1/70-PC1.F07
Sun Oct  6 23:31:48 EDT 2019
0.431u 0.344s 1:41.02 0.7%	0+0k 0+40io 0pf+0w
