----- GAMESS execution script 'rungms' -----
This job is running on host d12chas543.crc.nd.edu
under operating system Linux at Sun Oct 6 23:31:48 EDT 2019
SGE has assigned the following compute nodes to this run:
Available scratch disk space (Kbyte units) at beginning of the job is
Filesystem      1K-blocks     Used  Available Use% Mounted on
/dev/sda2      1949705068 64336088 1885368980   4% /
GAMESS temporary binary files will be written to /tmp/474112.1.debug
GAMESS supplementary output files will be written to /afs/crc.nd.edu/user/w/wschnei1/scr
Copying input file 80-PC1.inp to your run's scratch directory...
reading your own /afs/crc.nd.edu/user/w/wschnei1/.gmsrc

 Distributed Data Interface kickoff program.
 Initiating 1 compute processes on 1 nodes to run the following command:
 /afs/crc.nd.edu/x86_64_linux/g/gamess/nov-2017/gamess/gamess.00.x 80-PC1 

          ******************************************************
          *         GAMESS VERSION = 11 NOV 2017 (R3)         *
          *             FROM IOWA STATE UNIVERSITY             *
          * M.W.SCHMIDT, K.K.BALDRIDGE, J.A.BOATZ, S.T.ELBERT, *
          *   M.S.GORDON, J.H.JENSEN, S.KOSEKI, N.MATSUNAGA,   *
          *          K.A.NGUYEN, S.J.SU, T.L.WINDUS,           *
          *       TOGETHER WITH M.DUPUIS, J.A.MONTGOMERY       *
          *         J.COMPUT.CHEM.  14, 1347-1363(1993)        *
          **************** 64 BIT INTEL VERSION ****************

  SINCE 1993, STUDENTS AND POSTDOCS WORKING AT IOWA STATE UNIVERSITY
  AND ALSO IN THEIR VARIOUS JOBS AFTER LEAVING ISU HAVE MADE IMPORTANT
  CONTRIBUTIONS TO THE CODE:
     IVANA ADAMOVIC, CHRISTINE AIKENS, YURI ALEXEEV, POOJA ARORA,
     ANDREY ASADCHEV, ROB BELL, PRADIPTA BANDYOPADHYAY, JONATHAN BENTZ,
     BRETT BODE, KURT BRORSEN, CALEB CARLIN, GALINA CHABAN, WEI CHEN,
     CHEOL HO CHOI, PAUL DAY, ALBERT DEFUSCO, NUWAN DESILVA, TIM DUDLEY,
     DMITRI FEDOROV, ALEX FINDLATER, GRAHAM FLETCHER, MARK FREITAG,
     KURT GLAESEMANN, ANASTASIA GUININA,
     DAN KEMP, GRANT MERRILL, NORIYUKI MINEZAWA, JONATHAN MULLIN,
     TAKESHI NAGATA, SEAN NEDD, HEATHER NETZLOFF, BOSILJKA NJEGIC, RYAN OLSON,
     MIKE PAK, BUU PHAM,
     SPENCER PRUITT, LUKE ROSKOP, JIM SHOEMAKER, LYUDMILA SLIPCHENKO,
     TONY SMITH, SAROM SOK LEANG, JIE SONG, TETSUYA TAKETSUGU, SIMON WEBB,
     PENG XU, SOOHAENG YOO, FEDERICO ZAHARIEV

  ADDITIONAL CODE HAS BEEN PROVIDED BY COLLABORATORS IN OTHER GROUPS:
     IOWA STATE UNIVERSITY:
          JOE IVANIC, AARON WEST, LAIMUTIS BYTAUTAS, KLAUS RUEDENBERG
     UNIVERSITY OF TOKYO: KIMIHIKO HIRAO, TAKAHITO NAKAJIMA,
          TAKAO TSUNEDA, MUNEAKI KAMIYA, SUSUMU YANAGISAWA,
          KIYOSHI YAGI, MAHITO CHIBA, SEIKEN TOKURA, NAOAKI KAWAKAMI
     UNIVERSITY OF AARHUS: FRANK JENSEN
     UNIVERSITY OF IOWA: VISVALDAS KAIRYS, HUI LI
     NATIONAL INST. OF STANDARDS AND TECHNOLOGY: WALT STEVENS, DAVID GARMER
     UNIVERSITY OF PISA: BENEDETTA MENNUCCI, JACOPO TOMASI
     UNIVERSITY OF MEMPHIS: HENRY KURTZ, PRAKASHAN KORAMBATH
     UNIVERSITY OF ALBERTA: TOBY ZENG, MARIUSZ KLOBUKOWSKI
     UNIVERSITY OF NEW ENGLAND: MARK SPACKMAN
     MIE UNIVERSITY: HIROAKI UMEDA
     NAT. INST. OF ADVANCED INDUSTRIAL SCIENCE AND TECHNOLOGY: KAZUO KITAURA
     MICHIGAN STATE UNIVERSITY:
          KAROL KOWALSKI, MARTA WLOCH, JEFFREY GOUR, JESSE LUTZ,
          WEI LI, PIOTR PIECUCH
     UNIVERSITY OF SILESIA: MONIKA MUSIAL, STANISLAW KUCHARSKI
     FACULTES UNIVERSITAIRES NOTRE-DAME DE LA PAIX:
          OLIVIER QUINET, BENOIT CHAMPAGNE
     UNIVERSITY OF CALIFORNIA - SANTA BARBARA: BERNARD KIRTMAN
     INSTITUTE FOR MOLECULAR SCIENCE:
          KAZUYA ISHIMURA, MICHIO KATOUDA, AND SHIGERU NAGASE
     UNIVERSITY OF NOTRE DAME: ANNA POMOGAEVA, DAN CHIPMAN
     KYUSHU UNIVERSITY:
          HARUYUKI NAKANO,
          FENG LONG GU, JACEK KORCHOWIEC, MARCIN MAKOWSKI, AND YURIKO AOKI,
          HIROTOSHI MORI AND EISAKU MIYOSHI
     PENNSYLVANIA STATE UNIVERSITY:
          TZVETELIN IORDANOV, CHET SWALINA, JONATHAN SKONE,
          SHARON HAMMES-SCHIFFER
     WASEDA UNIVERSITY:
          MASATO KOBAYASHI, TOMOKO AKAMA, TSUGUKI TOUMA,
          TAKESHI YOSHIKAWA, YASUHIRO IKABATA, JUNJI SEINO,
          YUYA NAKAJIMA, HIROMI NAKAI
     NANJING UNIVERSITY: SHUHUA LI
     UNIVERSITY OF NEBRASKA:
          PEIFENG SU, DEJUN SI, NANDUN THELLAMUREGE, YALI WANG, HUI LI
     UNIVERSITY OF ZURICH: ROBERTO PEVERATI, KIM BALDRIDGE
     N. COPERNICUS UNIVERSITY AND JACKSON STATE UNIVERSITY:
          MARIA BARYSZ
     UNIVERSITY OF COPENHAGEN: Jimmy Kromann, CASPER STEINMANN
     TOKYO INSTITUTE OF TECHNOLOGY: HIROYA NAKATA
     NAGOYA UNIVERSITY: YOSHIO NISHIMOTO, STEPHAN IRLE
     MOSCOW STATE UNIVERSITY: VLADIMIR MIRONOV

 EXECUTION OF GAMESS BEGUN Sun Oct  6 23:31:49 2019

            ECHO OF THE FIRST FEW INPUT CARDS -
 INPUT CARD> $CONTRL SCFTYP=RHF DFTTYP=PBE RUNTYP=OPTIMIZE COORD=ZMT NZVAR=18 ISPHER=1 $END 
 INPUT CARD> $BASIS GBASIS=PCseg-1 $END                                                     
 INPUT CARD> $STATPT IFREEZ(1)=12 $END                                                      
 INPUT CARD> $DATA                                                                          
 INPUT CARD>FCH2CH2F eclipsed TS                                                            
 INPUT CARD>C1                                                                              
 INPUT CARD>C                                                                               
 INPUT CARD>C   1   r1                                                                      
 INPUT CARD>F   2   r2   1   A1                                                             
 INPUT CARD>H   2   r3   1   A2   3   D1                                                    
 INPUT CARD>H   2   r4   1   A3   3   D2                                                    
 INPUT CARD>F   1   r5   2   A4   3   D3                                                    
 INPUT CARD>H   1   r6   2   A5   6   D4                                                    
 INPUT CARD>H   1   r7   2   A6   6   D5                                                    
 INPUT CARD>                                                                                
 INPUT CARD>r1=1.5                                                                          
 INPUT CARD>r2=1.4                                                                          
 INPUT CARD>r3=1.1                                                                          
 INPUT CARD>r4=1.1                                                                          
 INPUT CARD>r5=1.5                                                                          
 INPUT CARD>r6=1.1                                                                          
 INPUT CARD>r7=1.1                                                                          
 INPUT CARD>A1=109.54214                                                                    
 INPUT CARD>A2=109.54214                                                                    
 INPUT CARD>A3=109.54214                                                                    
 INPUT CARD>A4=109.54214                                                                    
 INPUT CARD>A5=109.54214                                                                    
 INPUT CARD>A6=109.54214                                                                    
 INPUT CARD>D1=120.                                                                         
 INPUT CARD>D2=-120.                                                                        
 INPUT CARD>D3=80                                                                           
 INPUT CARD>D4=120.                                                                         
 INPUT CARD>D5=-120.                                                                        
 INPUT CARD> $END                                                                           
 INPUT CARD>                                                                                
    1000000 WORDS OF MEMORY AVAILABLE

     BASIS OPTIONS
     -------------
     GBASIS=PCSEG-1      IGAUSS=       0      POLAR=NONE    
     NDFUNC=       0     NFFUNC=       0     DIFFSP=       F
     NPFUNC=       0      DIFFS=       F     BASNAM=        


     RUN TITLE
     ---------
 FCH2CH2F eclipsed TS                                                            

 THE POINT GROUP OF THE MOLECULE IS C1      
 THE ORDER OF THE PRINCIPAL AXIS IS     0

 YOUR FULLY SUBSTITUTED Z-MATRIX IS
 C   
 C      1   1.5000000
 F      2   1.4000000  1  109.5421
 H      2   1.1000000  1  109.5421  3  120.0000  0
 H      2   1.1000000  1  109.5421  3 -120.0000  0
 F      1   1.5000000  2  109.5421  3   80.0000  0
 H      1   1.1000000  2  109.5421  6  120.0000  0
 H      1   1.1000000  2  109.5421  6 -120.0000  0

 THE MOMENTS OF INERTIA ARE (AMU-ANGSTROM**2)
 IXX=    29.988   IYY=   108.250   IZZ=   121.312

 ATOM      ATOMIC                      COORDINATES (BOHR)
           CHARGE         X                   Y                   Z
 C           6.0     1.1544390096       -1.1588776065       -0.6902752554
 C           6.0    -1.2916442632       -1.0226990098        0.7355671996
 F           9.0    -2.7999064701        0.9009692944       -0.2763277632
 H           1.0    -2.2906538927       -2.8387327648        0.5774881872
 H           1.0    -0.9076444988       -0.6179050737        2.7379842051
 F           9.0     2.9064165713        0.8674477706        0.2368033735
 H           1.0     2.0311234808       -3.0197306862       -0.3908792517
 H           1.0     0.7930440208       -0.8842103185       -2.7188065853

          INTERNUCLEAR DISTANCES (ANGS.)
          ------------------------------

                1 C          2 C          3 F          4 H          5 H     

   1 C       0.0000000    1.5000000 *  2.3695781 *  2.1363170 *  2.1363170 *
   2 C       1.5000000 *  0.0000000    1.4000000 *  1.1000000 *  1.1000000 *
   3 F       2.3695781 *  1.4000000 *  0.0000000    2.0476979 *  2.0476979 *
   4 H       2.1363170 *  1.1000000 *  2.0476979 *  0.0000000    1.7955050 *
   5 H       2.1363170 *  1.1000000 *  2.0476979 *  1.7955050 *  0.0000000  
   6 F       1.5000000 *  2.4505612 *  3.0318924    3.3826549    2.5383547 *
   7 H       1.1000000 *  2.1363170 *  3.2929906    2.3456497 *  2.6029341 *
   8 H       1.1000000 *  2.1363170 *  2.4855485 *  2.6029341 *  3.0278848  

                6 F          7 H          8 H     

   1 C       1.5000000 *  1.1000000 *  1.1000000 *
   2 C       2.4505612 *  2.1363170 *  2.1363170 *
   3 F       3.0318924    3.2929906    2.4855485 *
   4 H       3.3826549    2.3456497 *  2.6029341 *
   5 H       2.5383547 *  2.6029341 *  3.0278848  
   6 F       0.0000000    2.1345124 *  2.1345124 *
   7 H       2.1345124 *  0.0000000    1.7955050 *
   8 H       2.1345124 *  1.7955050 *  0.0000000  

  * ... LESS THAN  3.000


     ATOMIC BASIS SET
     ----------------
 THE CONTRACTED PRIMITIVE FUNCTIONS HAVE BEEN UNNORMALIZED
 THE CONTRACTED BASIS FUNCTIONS ARE NOW NORMALIZED TO UNITY

  SHELL TYPE  PRIMITIVE        EXPONENT          CONTRACTION COEFFICIENT(S)

 C         

      1   S       1          1243.2000000    0.005630097702
      1   S       2           187.1450000    0.041950603854
      1   S       3            42.5126000    0.184664360492
      1   S       4            11.7393000    0.466557421368
      1   S       5             3.5054800    0.448234778316

      2   S       6             5.3908900   -0.148114817444
      2   S       7             0.4933410    1.051981714281

      3   S       8             0.1497410    1.000000000000

      4   P       9             9.1805600    0.063992052045
      4   P      10             1.9365800    0.333521296407
      4   P      11             0.5262960    0.741161730513

      5   P      12             0.1363190    1.000000000000

      6   D      13             0.8000000    1.000000000000

 C         

      7   S      14          1243.2000000    0.005630097702
      7   S      15           187.1450000    0.041950603854
      7   S      16            42.5126000    0.184664360492
      7   S      17            11.7393000    0.466557421368
      7   S      18             3.5054800    0.448234778316

      8   S      19             5.3908900   -0.148114817444
      8   S      20             0.4933410    1.051981714281

      9   S      21             0.1497410    1.000000000000

     10   P      22             9.1805600    0.063992052045
     10   P      23             1.9365800    0.333521296407
     10   P      24             0.5262960    0.741161730513

     11   P      25             0.1363190    1.000000000000

     12   D      26             0.8000000    1.000000000000

 F         

     13   S      27          2931.5500000    0.005390132259
     13   S      28           441.1250000    0.040296704072
     13   S      29           100.2320000    0.180202178717
     13   S      30            27.8655000    0.465064284210
     13   S      31             8.4447000    0.452433138251

     14   S      32            13.6123000   -0.151660908297
     14   S      33             1.2612200    1.053515343452

     15   S      34             0.3708000    1.000000000000

     16   P      35            21.9305000    0.070356827475
     16   P      36             4.7855200    0.356742371235
     16   P      37             1.2837800    0.719732016372

     17   P      38             0.3115580    1.000000000000

     18   D      39             1.1000000    1.000000000000

 H         

     19   S      40            12.2518000    0.037217389296
     19   S      41             1.8687100    0.253808206955
     19   S      42             0.4182080    0.797386763917

     20   S      43             0.1061000    1.000000000000

     21   P      44             1.0000000    1.000000000000

 H         

     22   S      45            12.2518000    0.037217389296
     22   S      46             1.8687100    0.253808206955
     22   S      47             0.4182080    0.797386763917

     23   S      48             0.1061000    1.000000000000

     24   P      49             1.0000000    1.000000000000

 F         

     25   S      50          2931.5500000    0.005390132259
     25   S      51           441.1250000    0.040296704072
     25   S      52           100.2320000    0.180202178717
     25   S      53            27.8655000    0.465064284210
     25   S      54             8.4447000    0.452433138251

     26   S      55            13.6123000   -0.151660908297
     26   S      56             1.2612200    1.053515343452

     27   S      57             0.3708000    1.000000000000

     28   P      58            21.9305000    0.070356827475
     28   P      59             4.7855200    0.356742371235
     28   P      60             1.2837800    0.719732016372

     29   P      61             0.3115580    1.000000000000

     30   D      62             1.1000000    1.000000000000

 H         

     31   S      63            12.2518000    0.037217389296
     31   S      64             1.8687100    0.253808206955
     31   S      65             0.4182080    0.797386763917

     32   S      66             0.1061000    1.000000000000

     33   P      67             1.0000000    1.000000000000

 H         

     34   S      68            12.2518000    0.037217389296
     34   S      69             1.8687100    0.253808206955
     34   S      70             0.4182080    0.797386763917

     35   S      71             0.1061000    1.000000000000

     36   P      72             1.0000000    1.000000000000

 TOTAL NUMBER OF BASIS SET SHELLS             =   36
 NUMBER OF CARTESIAN GAUSSIAN BASIS FUNCTIONS =   80
 NOTE: THIS RUN WILL RESTRICT THE MO VARIATION SPACE TO SPHERICAL HARMONICS.
 THE NUMBER OF ORBITALS KEPT IN THE VARIATIONAL SPACE WILL BE PRINTED LATER.
 NUMBER OF ELECTRONS                          =   34
 CHARGE OF MOLECULE                           =    0
 SPIN MULTIPLICITY                            =    1
 NUMBER OF OCCUPIED ORBITALS (ALPHA)          =   17
 NUMBER OF OCCUPIED ORBITALS (BETA )          =   17
 TOTAL NUMBER OF ATOMS                        =    8
 THE NUCLEAR REPULSION ENERGY IS      124.6671780277

     LEBEDEV GRID-BASED DFT OPTIONS
     ------------------------------
     DFTTYP=PBE     
     NRAD  =      96     NLEB  =     302
     NRAD0 =      24     NLEB0 =     110
     SWOFF =    5.00E-03 (PURE SCF -> DFT)
     SWITCH=    3.00E-04 (COARSE -> TIGHT GRID)
     THRESH=    0.00E+00 GTHRE=    1.00E+00

 GRIMME'S EMPIRICAL DISPERSION CORRECTION= F

     $CONTRL OPTIONS
     ---------------
 SCFTYP=RHF          RUNTYP=OPTIMIZE     EXETYP=RUN     
 MPLEVL=       0     CITYP =NONE         CCTYP =NONE         VBTYP =NONE    
 DFTTYP=PBE          TDDFT =NONE    
 MULT  =       1     ICHARG=       0     NZVAR =      18     COORD =ZMT     
 PP    =NONE         RELWFN=NONE         LOCAL =NONE         NUMGRD=       F
 ISPHER=       1     NOSYM =       0     MAXIT =      30     UNITS =ANGS    
 PLTORB=       F     MOLPLT=       F     AIMPAC=       F     FRIEND=        
 NPRINT=       7     IREST =       0     GEOM  =INPUT   
 NORMF =       0     NORMP =       0     ITOL  =      20     ICUT  =       9
 INTTYP=BEST         GRDTYP=BEST         QMTTOL= 1.0E-06

     $SYSTEM OPTIONS
     ---------------
  REPLICATED MEMORY=     1000000 WORDS (ON EVERY NODE).
 DISTRIBUTED MEMDDI=           0 MILLION WORDS IN AGGREGATE,
 MEMDDI DISTRIBUTED OVER   1 PROCESSORS IS           0 WORDS/PROCESSOR.
 TOTAL MEMORY REQUESTED ON EACH PROCESSOR=     1000000 WORDS.
 TIMLIM=      525600.00 MINUTES, OR     365.0 DAYS.
 PARALL= F  BALTYP=  DLB     KDIAG=    0  COREFL= F
 MXSEQ2=     300 MXSEQ3=     150  mem10=         0

          ----------------
          PROPERTIES INPUT
          ----------------

     MOMENTS            FIELD           POTENTIAL          DENSITY
 IEMOM =       1   IEFLD =       0   IEPOT =       0   IEDEN =       0
 WHERE =COMASS     WHERE =NUCLEI     WHERE =NUCLEI     WHERE =NUCLEI  
 OUTPUT=BOTH       OUTPUT=BOTH       OUTPUT=BOTH       OUTPUT=BOTH    
 IEMINT=       0   IEFINT=       0                     IEDINT=       0
                                                       MORB  =       0
          EXTRAPOLATION IN EFFECT
          DIIS IN EFFECT
 ORBITAL PRINTING OPTION: NPREO=     1    80     2     1

     -------------------------------
     INTEGRAL TRANSFORMATION OPTIONS
     -------------------------------
     NWORD  =            0
     CUTOFF = 1.0E-09     MPTRAN =       0
     DIRTRF =       F     AOINTS =DUP     

          ----------------------
          INTEGRAL INPUT OPTIONS
          ----------------------
 NOPK  =       1 NORDER=       0 SCHWRZ=       T

   --- ENCODED Z MATRIX ---
 COORD  TYPE   I   J   K   L   M   N
    1      1    2   1
    2      1    3   2
    3      2    3   2   1
    4      1    4   2
    5      2    4   2   1
    6      3    4   2   1   3
    7      1    5   2
    8      2    5   2   1
    9      3    5   2   1   3
   10      1    6   1
   11      2    6   1   2
   12      3    6   1   2   3
   13      1    7   1
   14      2    7   1   2
   15      3    7   1   2   6
   16      1    8   1
   17      2    8   1   2
   18      3    8   1   2   6

 THE DETERMINANT OF THE G MATRIX IS 10**(   -12)


                     --------------------
                     INTERNAL COORDINATES
                     --------------------

                 - - ATOMS - -         COORDINATE      COORDINATE
 NO.   TYPE    I  J  K  L  M  N        (BOHR,RAD)       (ANG,DEG)
 ----------------------------------------------------------------
   1 STRETCH   2  1                     2.8345890       1.5000000
   2 STRETCH   3  2                     2.6456164       1.4000000
   3 BEND      3  2  1                  1.9118710     109.5421400
   4 STRETCH   4  2                     2.0786986       1.1000000
   5 BEND      4  2  1                  1.9118710     109.5421400
   6 TORSION   4  2  1  3               2.0943951     120.0000000
   7 STRETCH   5  2                     2.0786986       1.1000000
   8 BEND      5  2  1                  1.9118710     109.5421400
   9 TORSION   5  2  1  3              -2.0943951    -120.0000000
  10 STRETCH   6  1                     2.8345890       1.5000000
  11 BEND      6  1  2                  1.9118710     109.5421400
  12 TORSION   6  1  2  3               1.3962634      80.0000000
  13 STRETCH   7  1                     2.0786986       1.1000000
  14 BEND      7  1  2                  1.9118710     109.5421400
  15 TORSION   7  1  2  6               2.0943951     120.0000000
  16 STRETCH   8  1                     2.0786986       1.1000000
  17 BEND      8  1  2                  1.9118710     109.5421400
  18 TORSION   8  1  2  6              -2.0943951    -120.0000000

     ------------------------------------------
     THE POINT GROUP IS C1 , NAXIS= 0, ORDER= 1
     ------------------------------------------

 -- VARIATIONAL SPACE WILL BE RESTRICTED TO PURE SPHERICAL HARMONICS ONLY --
 AFTER EXCLUDING CONTAMINANT COMBINATIONS FROM THE CARTESIAN GAUSSIAN BASIS
 SET, THE NUMBER OF SPHERICAL HARMONICS KEPT IN THE VARIATION SPACE IS   76

     DIMENSIONS OF THE SYMMETRY SUBSPACES ARE
 A   =   76

 ..... DONE SETTING UP THE RUN .....
 STEP CPU TIME =     0.01 TOTAL CPU TIME =          0.0 (      0.0 MIN)
 TOTAL WALL CLOCK TIME=          0.0 SECONDS, CPU UTILIZATION IS    33.33%


          -----------------------------
          STATIONARY POINT LOCATION RUN
          -----------------------------

 OBTAINING INITIAL HESSIAN, HESS=GUESS   
 DIAGONAL GUESS HESSIAN IN INTERNAL COORDS IS
     1  0.3892     2  0.3267     3  0.2379     4  0.3397     5  0.2253
     6  0.2500     7  0.3397     8  0.2253     9  0.2500    10  0.2690
    11  0.2315    12  0.2500    13  0.3397    14  0.2253    15  0.2500
    16  0.3397    17  0.2253    18  0.2500

          PARAMETERS CONTROLLING GEOMETRY SEARCH ARE
          METHOD =QA                  UPHESS =BFGS    
          NNEG   =         0          NFRZ   =         1
          NSTEP  =        50          IFOLOW =         1
          HESS   =GUESS               RESTAR =         F
          IHREP  =         0          HSSEND =         F
          NPRT   =         0          NPUN   =         0
          OPTTOL = 1.000E-04          RMIN   = 1.500E-03
          RMAX   = 1.000E-01          RLIM   = 7.000E-02
          DXMAX  = 3.000E-01          PURIFY =         F
          MOVIE  =         F          TRUPD  =         T
          TRMAX  = 5.000E-01          TRMIN  = 5.000E-02
          ITBMAT =         5          STPT   =         F
          STSTEP = 1.000E-02          PROJCT=          T
          FROZEN COORD(S)=  12

 BEGINNING GEOMETRY SEARCH POINT NSERCH=   0 ...

 COORDINATES OF ALL ATOMS ARE (ANGS)
   ATOM   CHARGE       X              Y              Z
 ------------------------------------------------------------
 C           6.0   0.6109028595  -0.6132516640  -0.3652779609
 C           6.0  -0.6835087582  -0.5411890488   0.3892454273
 F           9.0  -1.4816468040   0.4767724529  -0.1462263656
 H           1.0  -1.2121619259  -1.5021927958   0.3055936103
 H           1.0  -0.4803048191  -0.3269813072   1.4488789501
 F           9.0   1.5380095264   0.4590336251   0.1253109578
 H           1.0   1.0748243364  -1.5979727780  -0.2068444072
 H           1.0   0.4196608534  -0.4679039841  -1.4387305900


                     --------------------
                     INTERNAL COORDINATES
                     --------------------

                 - - ATOMS - -         COORDINATE      COORDINATE
 NO.   TYPE    I  J  K  L  M  N        (BOHR,RAD)       (ANG,DEG)
 ----------------------------------------------------------------
   1 STRETCH   2  1                     2.8345890       1.5000000
   2 STRETCH   3  2                     2.6456164       1.4000000
   3 BEND      3  2  1                  1.9118710     109.5421400
   4 STRETCH   4  2                     2.0786986       1.1000000
   5 BEND      4  2  1                  1.9118710     109.5421400
   6 TORSION   4  2  1  3               2.0943951     120.0000000
   7 STRETCH   5  2                     2.0786986       1.1000000
   8 BEND      5  2  1                  1.9118710     109.5421400
   9 TORSION   5  2  1  3              -2.0943951    -120.0000000
  10 STRETCH   6  1                     2.8345890       1.5000000
  11 BEND      6  1  2                  1.9118710     109.5421400
  12 TORSION   6  1  2  3               1.3962634      80.0000000
  13 STRETCH   7  1                     2.0786986       1.1000000
  14 BEND      7  1  2                  1.9118710     109.5421400
  15 TORSION   7  1  2  6               2.0943951     120.0000000
  16 STRETCH   8  1                     2.0786986       1.1000000
  17 BEND      8  1  2                  1.9118710     109.5421400
  18 TORSION   8  1  2  6              -2.0943951    -120.0000000

 THE CURRENT FULLY SUBSTITUTED Z-MATRIX IS
 C   
 C      1   1.5000000
 F      2   1.4000000  1   109.5421400
 H      2   1.1000000  1   109.5421400  3   120.0000000  0
 H      2   1.1000000  1   109.5421400  3  -120.0000000  0
 F      1   1.5000000  2   109.5421400  3    80.0000000  0
 H      1   1.1000000  2   109.5421400  6   120.0000000  0
 H      1   1.1000000  2   109.5421400  6  -120.0000000  0

          ********************
          1 ELECTRON INTEGRALS
          ********************
 ...... END OF ONE-ELECTRON INTEGRALS ......
 STEP CPU TIME =     0.01 TOTAL CPU TIME =          0.0 (      0.0 MIN)
 TOTAL WALL CLOCK TIME=          0.0 SECONDS, CPU UTILIZATION IS    66.67%

          -------------
          GUESS OPTIONS
          -------------
          GUESS =HUCKEL            NORB  =       0          NORDER=       0
          MIX   =       F          PRTMO =       F          PUNMO =       F
          TOLZ  = 1.0E-08          TOLE  = 1.0E-05
          SYMDEN=       F          PURIFY=       F

 INITIAL GUESS ORBITALS GENERATED BY HUCKEL   ROUTINE.
 HUCKEL GUESS REQUIRES     54920 WORDS.

 STATISTICS FOR GENERATION OF SYMMETRY ORBITAL -Q- MATRIX
 NUMBER OF CARTESIAN ATOMIC ORBITALS=         80
 NUMBER OF SPHERICAL CONTAMINANTS DROPPED=     4
 NUMBER OF LINEARLY DEPENDENT MOS DROPPED=     0
 TOTAL NUMBER OF MOS IN VARIATION SPACE=      76

 SYMMETRIES FOR INITIAL GUESS ORBITALS FOLLOW.   BOTH SET(S).
    17 ORBITALS ARE OCCUPIED (    4 CORE ORBITALS).
     5=A        6=A        7=A        8=A        9=A       10=A       11=A   
    12=A       13=A       14=A       15=A       16=A       17=A       18=A   
    19=A       20=A       21=A       22=A       23=A       24=A       25=A   
    26=A       27=A   
 ...... END OF INITIAL ORBITAL SELECTION ......
 STEP CPU TIME =     0.01 TOTAL CPU TIME =          0.0 (      0.0 MIN)
 TOTAL WALL CLOCK TIME=          0.0 SECONDS, CPU UTILIZATION IS    75.00%

                    ----------------------
                    AO INTEGRAL TECHNOLOGY
                    ----------------------
     S,P,L SHELL ROTATED AXIS INTEGRALS, REPROGRAMMED BY
        KAZUYA ISHIMURA (IMS) AND JOSE SIERRA (SYNSTAR).
     S,P,D,L SHELL ROTATED AXIS INTEGRALS PROGRAMMED BY
        KAZUYA ISHIMURA (INSTITUTE FOR MOLECULAR SCIENCE).
     S,P,D,F,G SHELL TO TOTAL QUARTET ANGULAR MOMENTUM SUM 5,
        ERIC PROGRAM BY GRAHAM FLETCHER (ELORET AND NASA ADVANCED
        SUPERCOMPUTING DIVISION, AMES RESEARCH CENTER).
     S,P,D,F,G,L SHELL GENERAL RYS QUADRATURE PROGRAMMED BY
        MICHEL DUPUIS (PACIFIC NORTHWEST NATIONAL LABORATORY).

          --------------------
          2 ELECTRON INTEGRALS
          --------------------

 THE -PK- OPTION IS OFF, THE INTEGRALS ARE NOT IN SUPERMATRIX FORM.
 STORING   15000 INTEGRALS/RECORD ON DISK, USING 12 BYTES/INTEGRAL.
 TWO ELECTRON INTEGRAL EVALUATION REQUIRES   91062 WORDS OF MEMORY.
 SCHWARZ INEQUALITY OVERHEAD:      3237 INTEGRALS, T=        0.00
 II,JST,KST,LST =  1  1  1  1 NREC =         1 INTLOC =    1
 II,JST,KST,LST =  2  1  1  1 NREC =         1 INTLOC =    2
 II,JST,KST,LST =  3  1  1  1 NREC =         1 INTLOC =    7
 II,JST,KST,LST =  4  1  1  1 NREC =         1 INTLOC =   22
 II,JST,KST,LST =  5  1  1  1 NREC =         1 INTLOC =   67
 II,JST,KST,LST =  6  1  1  1 NREC =         1 INTLOC =  214
 II,JST,KST,LST =  7  1  1  1 NREC =         1 INTLOC = 1189
 II,JST,KST,LST =  8  1  1  1 NREC =         1 INTLOC = 3206
 II,JST,KST,LST =  9  1  1  1 NREC =         1 INTLOC = 5671
 II,JST,KST,LST = 10  1  1  1 NREC =         1 INTLOC = 8596
 II,JST,KST,LST = 11  1  1  1 NREC =         2 INTLOC = 5516
 II,JST,KST,LST = 12  1  1  1 NREC =         3 INTLOC = 8199
 II,JST,KST,LST = 13  1  1  1 NREC =         7 INTLOC = 6109
 II,JST,KST,LST = 14  1  1  1 NREC =         8 INTLOC = 4419
 II,JST,KST,LST = 15  1  1  1 NREC =         9 INTLOC = 5205
 II,JST,KST,LST = 16  1  1  1 NREC =        10 INTLOC = 8065
 II,JST,KST,LST = 17  1  1  1 NREC =        14 INTLOC =10021
 II,JST,KST,LST = 18  1  1  1 NREC =        20 INTLOC = 1067
 II,JST,KST,LST = 19  1  1  1 NREC =        34 INTLOC =12638
 II,JST,KST,LST = 20  1  1  1 NREC =        38 INTLOC =  871
 II,JST,KST,LST = 21  1  1  1 NREC =        41 INTLOC = 7439
 II,JST,KST,LST = 22  1  1  1 NREC =        53 INTLOC =  929
 II,JST,KST,LST = 23  1  1  1 NREC =        57 INTLOC = 6762
 II,JST,KST,LST = 24  1  1  1 NREC =        62 INTLOC = 1707
 II,JST,KST,LST = 25  1  1  1 NREC =        77 INTLOC = 9744
 II,JST,KST,LST = 26  1  1  1 NREC =        80 INTLOC =14007
 II,JST,KST,LST = 27  1  1  1 NREC =        85 INTLOC = 5598
 II,JST,KST,LST = 28  1  1  1 NREC =        91 INTLOC = 8994
 II,JST,KST,LST = 29  1  1  1 NREC =       107 INTLOC =  651
 II,JST,KST,LST = 30  1  1  1 NREC =       130 INTLOC = 7732
 II,JST,KST,LST = 31  1  1  1 NREC =       177 INTLOC = 3193
 II,JST,KST,LST = 32  1  1  1 NREC =       187 INTLOC =14004
 II,JST,KST,LST = 33  1  1  1 NREC =       199 INTLOC = 9031
 II,JST,KST,LST = 34  1  1  1 NREC =       231 INTLOC = 5533
 II,JST,KST,LST = 35  1  1  1 NREC =       244 INTLOC =13236
 II,JST,KST,LST = 36  1  1  1 NREC =       259 INTLOC = 2757
 SCHWARZ INEQUALITY TEST SKIPPED       17545 INTEGRAL BLOCKS.
 TOTAL NUMBER OF NONZERO TWO-ELECTRON INTEGRALS =             4525746
        302 INTEGRAL RECORDS WERE STORED ON DISK FILE  8.
  ...... END OF TWO-ELECTRON INTEGRALS .....
 STEP CPU TIME =     0.47 TOTAL CPU TIME =          0.5 (      0.0 MIN)
 TOTAL WALL CLOCK TIME=          0.5 SECONDS, CPU UTILIZATION IS    96.15%

          --------------------------
               R-PBE SCF CALCULATION
          --------------------------

     NUCLEAR ENERGY =       124.6671780277
     MAXIT =   30     NPUNCH=    2
     EXTRAP=T  DAMP=F  SHIFT=F  RSTRCT=F  DIIS=T  DEM=F  SOSCF=F
         DENSITY MATRIX CONVERGENCE THRESHOLD=  1.00E-05
     COARSE -> FINE DFT GRID SWITCH THRESHOLD=  3.00E-04 (SWITCH IN $DFT)
                   HF -> DFT SWITCH THRESHOLD=  5.00E-03 (SWOFF IN $DFT)
     MEMORY REQUIRED FOR RHF ITERS=    365468 WORDS.

 DFT CODE IS SWITCHING FROM THE FINE GRID NRAD= 96,  NLEB=  302
                      TO THE COARSE GRID NRAD0= 24, NLEB0=  110

     EXCHANGE FUNCTIONAL   =PBE       
     CORRELATION FUNCTIONAL=PBE       
     DFT THRESHOLD         =.172E-07
     GRID CHANGE THRESHOLD =.300E-03
 FOR AN EULER-MACLAURIN QUADRATURE USING  96 RADIAL POINTS:
 SMALLEST GAUSSIAN PRIMITIVE EXPONENT=        0.1061000000 OF TYPE -S-
 ON ATOM NUMBER   4 HAS RADIAL NORMALIZATION=  1.000000
  LARGEST GAUSSIAN PRIMITIVE EXPONENT=     2931.5500000000 OF TYPE -S-
 ON ATOM NUMBER   3 HAS RADIAL NORMALIZATION=  1.000000
 DFT IS SWITCHED OFF, PERFORMING PURE SCF UNTIL SWOFF THRESHOLD IS REACHED.

 ITER EX DEM     TOTAL ENERGY        E CHANGE  DENSITY CHANGE    DIIS ERROR
   1  0  0     -276.1308605658  -276.1308605658   0.190503607   0.678833079
          * * *   INITIATING DIIS PROCEDURE   * * *
   2  1  0     -276.7756059310    -0.6447453652   0.085069924   0.077804098
   3  2  0     -276.8181995093    -0.0425935783   0.048557130   0.055177430
   4  3  0     -276.8343994569    -0.0161999476   0.008849631   0.009183869
   5  4  0     -276.8351519698    -0.0007525129   0.002178514   0.001831691
 CONVERGED TO SWOFF, SO DFT CALCULATION IS NOW SWITCHED ON.
          * * *   INITIATING DIIS PROCEDURE   * * *
   6  5  0     -277.9021729040    -1.0670209342   0.076731412   0.076212170
   7  6  0     -277.9173868869    -0.0152139829   0.069857042   0.054362972
   8  7  0     -277.9150367489     0.0023501380   0.045647291   0.057515530
   9  8  0     -277.9312021558    -0.0161654070   0.006961313   0.005099569
  10  9  0     -277.9314705038    -0.0002683480   0.001569514   0.001363447
  11 10  0     -277.9314810548    -0.0000105510   0.000584779   0.000521686
  12 11  0     -277.9314830391    -0.0000019843   0.000095166   0.000097443
 DFT CODE IS SWITCHING BACK TO THE FINE GRID
          * * *   INITIATING DIIS PROCEDURE   * * *
  13 12  0     -277.9317754696    -0.0002924304   0.003587629   0.003713763
  14 13  0     -277.9318209168    -0.0000454472   0.004530490   0.002565087
  15 14  0     -277.9318119097     0.0000090070   0.002586685   0.003302401
  16 15  0     -277.9318447237    -0.0000328140   0.000249863   0.000127536
  17 16  0     -277.9318448368    -0.0000001131   0.000119032   0.000107521
  18 17  0     -277.9318448887    -0.0000000519   0.000020700   0.000019410
  19 18  0     -277.9318448906    -0.0000000019   0.000005387   0.000005491
  20 19  0     -277.9318448908    -0.0000000002   0.000000403   0.000000288

          -----------------
          DENSITY CONVERGED
          -----------------
     TIME TO FORM FOCK OPERATORS=       9.8 SECONDS (       0.5 SEC/ITER)
     TIME TO SOLVE SCF EQUATIONS=       0.0 SECONDS (       0.0 SEC/ITER)

 FINAL R-PBE ENERGY IS     -277.9318448908 AFTER  20 ITERATIONS
 DFT EXCHANGE + CORRELATION ENERGY =       -32.8960657836
 TOTAL ELECTRON NUMBER             =        34.0000181728

          ------------
          EIGENVECTORS
          ------------

                      1          2          3          4          5
                  -24.2358   -24.2239    -9.9750    -9.9742    -1.0979
                     A          A          A          A          A   
    1  C  1  S    0.000031  -0.000173   0.990806  -0.071192  -0.015743
    2  C  1  S    0.000045  -0.000868   0.036625  -0.003690   0.027583
    3  C  1  S   -0.002998   0.007615  -0.021988   0.007601   0.024909
    4  C  1  X    0.000391   0.000731   0.000510   0.000801  -0.011929
    5  C  1  Y   -0.000050   0.000636   0.000049  -0.000133   0.010730
    6  C  1  Z   -0.000155   0.000227  -0.000146  -0.000527   0.007641
    7  C  1  X    0.000965   0.001464   0.002871  -0.002651  -0.009398
    8  C  1  Y   -0.000329   0.003158   0.000604   0.000276   0.003461
    9  C  1  Z    0.000206   0.001966  -0.000559   0.002021   0.008650
   10  C  1 XX   -0.000104   0.000022  -0.000317  -0.000598   0.003054
   11  C  1 YY    0.000001   0.000176   0.000190   0.000469  -0.001105
   12  C  1 ZZ    0.000103  -0.000198   0.000127   0.000129  -0.001949
   13  C  1 XY    0.000106   0.000518  -0.000158   0.000076  -0.000041
   14  C  1 XZ    0.000028   0.000246   0.000266   0.000692  -0.001793
   15  C  1 YZ   -0.000075   0.000264  -0.000140  -0.000060   0.001221
   16  C  2  S   -0.000125   0.000031   0.071376   0.990749  -0.065558
   17  C  2  S   -0.000500   0.000110   0.001579   0.037075   0.124112
   18  C  2  S    0.008750  -0.002800   0.004729  -0.022142   0.012657
   19  C  2  X   -0.000827  -0.000333  -0.000894  -0.000665  -0.052651
   20  C  2  Y    0.000814  -0.000005   0.000003   0.000462   0.073763
   21  C  2  Z   -0.000335   0.000121   0.000531  -0.000166  -0.042200
   22  C  2  X   -0.001230  -0.000864   0.002308  -0.003176  -0.010507
   23  C  2  Y    0.003071  -0.000384   0.000046   0.000953   0.005568
   24  C  2  Z   -0.002271  -0.000392  -0.002031   0.000700  -0.002175
   25  C  2 XX   -0.000047  -0.000110  -0.000629  -0.000196   0.000448
   26  C  2 YY    0.000115   0.000005   0.000503   0.000197   0.005473
   27  C  2 ZZ   -0.000068   0.000105   0.000126  -0.000002  -0.005921
   28  C  2 XY   -0.000241  -0.000119   0.000058  -0.000024  -0.015278
   29  C  2 XZ    0.000161   0.000004   0.000737   0.000264   0.006835
   30  C  2 YZ   -0.000151   0.000048  -0.000002  -0.000027  -0.010746
   31  F  3  S    0.993082  -0.001391   0.000010   0.000063  -0.236171
   32  F  3  S    0.034010   0.000149  -0.000047   0.000439   0.480382
   33  F  3  S   -0.016786  -0.000203  -0.000284  -0.000675   0.492994
   34  F  3  X    0.000685   0.000105  -0.000088  -0.000207   0.057094
   35  F  3  Y   -0.000884   0.000002   0.000036   0.000204  -0.072865
   36  F  3  Z    0.000468  -0.000060  -0.000030  -0.000096   0.036806
   37  F  3  X   -0.002225  -0.000349   0.000129  -0.000875   0.026661
   38  F  3  Y    0.002734  -0.000014   0.000205   0.001498  -0.033935
   39  F  3  Z   -0.001434   0.000261  -0.000093  -0.000887   0.016549
   40  F  3 XX    0.000008  -0.000101   0.000121   0.000011  -0.000021
   41  F  3 YY   -0.000145   0.000033  -0.000106  -0.000364   0.003545
   42  F  3 ZZ    0.000137   0.000068  -0.000014   0.000353  -0.003525
   43  F  3 XY    0.000337   0.000011   0.000040   0.000906  -0.009042
   44  F  3 XZ   -0.000206   0.000039  -0.000138  -0.000443   0.004508
   45  F  3 YZ    0.000209   0.000004   0.000053   0.000630  -0.005927
   46  H  4  S   -0.000867   0.000175  -0.000362  -0.001237   0.022709
   47  H  4  S   -0.000235   0.000482   0.000570   0.003287   0.000476
   48  H  4  X    0.000129   0.000123   0.000082  -0.000506   0.001892
   49  H  4  Y   -0.000324   0.000067  -0.000132  -0.001196   0.005128
   50  H  4  Z    0.000199   0.000008  -0.000063  -0.000118  -0.000051
   51  H  5  S   -0.000946   0.000183  -0.000334  -0.001118   0.022897
   52  H  5  S   -0.000267   0.000262   0.001128   0.003433   0.002133
   53  H  5  X    0.000143  -0.000167   0.000174   0.000347  -0.001441
   54  H  5  Y   -0.000290  -0.000005   0.000002   0.000209  -0.000179
   55  H  5  Z    0.000259   0.000072   0.000031   0.001196  -0.005260
   56  F  6  S    0.001385   0.993089   0.000047   0.000002  -0.024612
   57  F  6  S    0.000232   0.033669   0.000372  -0.000079   0.049986
   58  F  6  S   -0.000228  -0.015804   0.000025  -0.000230   0.049404
   59  F  6  X   -0.000111  -0.000696   0.000089   0.000071  -0.007507
   60  F  6  Y    0.000005  -0.000813   0.000033   0.000014  -0.006793
   61  F  6  Z    0.000048  -0.000377   0.000007   0.000013  -0.002788
   62  F  6  X    0.000326   0.002252   0.000571  -0.000196  -0.003281
   63  F  6  Y   -0.000054   0.002509   0.001074   0.000021  -0.002996
   64  F  6  Z   -0.000204   0.001152   0.000573  -0.000021  -0.001954
   65  F  6 XX   -0.000095  -0.000035  -0.000066   0.000110   0.000349
   66  F  6 YY    0.000037  -0.000122  -0.000328  -0.000048   0.000257
   67  F  6 ZZ    0.000058   0.000157   0.000393  -0.000062  -0.000605
   68  F  6 XY    0.000010  -0.000352  -0.000897   0.000064   0.001145
   69  F  6 XZ    0.000038  -0.000183  -0.000399  -0.000061   0.000501
   70  F  6 YZ    0.000001  -0.000166  -0.000507   0.000031   0.000669
   71  H  7  S    0.000183  -0.000676  -0.001258  -0.000154   0.003288
   72  H  7  S    0.000536  -0.000095   0.003396   0.000146   0.000263
   73  H  7  X   -0.000116  -0.000196   0.000410  -0.000158  -0.000170
   74  H  7  Y    0.000062  -0.000265  -0.001240   0.000059   0.000763
   75  H  7  Z   -0.000009  -0.000192   0.000224   0.000049  -0.000283
   76  H  8  S    0.000165  -0.000774  -0.001139  -0.000154   0.006435
   77  H  8  S    0.000106  -0.000173   0.003623   0.000566   0.004571
   78  H  8  X    0.000164  -0.000157  -0.000365  -0.000118  -0.000363
   79  H  8  Y   -0.000032  -0.000324   0.000141  -0.000009   0.000158
   80  H  8  Z   -0.000083  -0.000164  -0.001228   0.000140   0.001700

                      6          7          8          9         10
                   -1.0578    -0.7146    -0.5809    -0.4689    -0.4636
                     A          A          A          A          A   
    1  C  1  S   -0.052235  -0.153457   0.127910  -0.001441   0.009073
    2  C  1  S    0.100847   0.314206  -0.276939   0.011083  -0.028489
    3  C  1  S    0.014956   0.179100  -0.151868  -0.007296  -0.007929
    4  C  1  X    0.048299  -0.100721  -0.080582  -0.104461  -0.060578
    5  C  1  Y    0.056810  -0.034059   0.035194   0.199824  -0.152190
    6  C  1  Z    0.028122   0.037033   0.099867  -0.137915  -0.188065
    7  C  1  X    0.014067  -0.030749  -0.016293  -0.031649  -0.002232
    8  C  1  Y    0.007032  -0.022192   0.023487   0.074652  -0.041794
    9  C  1  Z    0.001572   0.003601   0.037507  -0.075590  -0.070621
   10  C  1 XX    0.001148   0.005039   0.003850   0.003229   0.005404
   11  C  1 YY    0.004031  -0.004870  -0.004595  -0.001548  -0.002751
   12  C  1 ZZ   -0.005180  -0.000169   0.000745  -0.001680  -0.002653
   13  C  1 XY    0.012347  -0.000321  -0.000329  -0.003456  -0.000580
   14  C  1 XZ    0.005047  -0.007914  -0.007874   0.001777   0.001886
   15  C  1 YZ    0.006902  -0.000216   0.000782   0.003749  -0.010384
   16  C  2  S   -0.001477  -0.148991  -0.127971   0.000831  -0.000917
   17  C  2  S    0.000481   0.305181   0.278926   0.011705  -0.002828
   18  C  2  S    0.017862   0.167912   0.141076  -0.033316   0.007973
   19  C  2  X    0.022226   0.102096  -0.100652  -0.050293  -0.188406
   20  C  2  Y   -0.006240  -0.044710  -0.011358   0.240256  -0.210522
   21  C  2  Z    0.000864  -0.036984   0.102044  -0.198317  -0.192284
   22  C  2  X    0.011053   0.030793  -0.019034   0.010970  -0.059169
   23  C  2  Y    0.000808  -0.026482  -0.022635   0.054973  -0.087206
   24  C  2  Z   -0.007880  -0.002256   0.043442  -0.060241  -0.095280
   25  C  2 XX    0.002560   0.004796  -0.003065  -0.005215  -0.001268
   26  C  2 YY   -0.002061  -0.005000   0.005044   0.003523  -0.000508
   27  C  2 ZZ   -0.000499   0.000204  -0.001979   0.001692   0.001776
   28  C  2 XY    0.002806  -0.000294  -0.000982  -0.006184  -0.002067
   29  C  2 XZ   -0.002841  -0.008274   0.008516   0.001578   0.002692
   30  C  2 YZ    0.001027   0.001211  -0.000420  -0.015538  -0.000121
   31  F  3  S    0.029992   0.059079   0.048630   0.044298   0.005296
   32  F  3  S   -0.061099  -0.128971  -0.106296  -0.091773  -0.010202
   33  F  3  S   -0.066033  -0.147763  -0.131348  -0.143204  -0.020175
   34  F  3  X   -0.004145   0.063387   0.071541   0.309084  -0.084598
   35  F  3  Y    0.008061  -0.063297  -0.141629  -0.243027  -0.181279
   36  F  3  Z   -0.004373   0.020561   0.112163   0.060186  -0.112430
   37  F  3  X   -0.002465   0.035380   0.042638   0.189968  -0.053593
   38  F  3  Y    0.004213  -0.036969  -0.085177  -0.146852  -0.109185
   39  F  3  Z   -0.001328   0.014616   0.067534   0.033807  -0.067056
   40  F  3 XX    0.000279   0.001140  -0.003042   0.005397  -0.006328
   41  F  3 YY   -0.000510   0.001243   0.003706   0.000973   0.011285
   42  F  3 ZZ    0.000232  -0.002383  -0.000664  -0.006369  -0.004958
   43  F  3 XY    0.000849  -0.004810  -0.004542  -0.011480  -0.001077
   44  F  3 XZ   -0.000448   0.001497   0.004692   0.002865  -0.005973
   45  F  3 YZ    0.000553  -0.001770  -0.006483  -0.001837   0.001416
   46  H  4  S   -0.001329   0.115099   0.160853  -0.122055   0.204947
   47  H  4  S    0.000826  -0.006460   0.013349  -0.031533   0.035744
   48  H  4  X   -0.000094   0.007452   0.004796  -0.005935   0.004247
   49  H  4  Y   -0.000382   0.009339   0.011457  -0.001954   0.008466
   50  H  4  Z    0.000204   0.000552   0.003164  -0.004409  -0.003744
   51  H  5  S    0.001604   0.105857   0.172325  -0.104821  -0.179133
   52  H  5  S    0.004332  -0.006242   0.011539  -0.021655  -0.007712
   53  H  5  X    0.000598  -0.000787  -0.004397   0.000185  -0.003225
   54  H  5  Y    0.000006  -0.003043  -0.003691   0.006642  -0.002320
   55  H  5  Z   -0.000497  -0.010643  -0.012477   0.003137   0.009306
   56  F  6  S   -0.241153   0.052529  -0.039231   0.004774  -0.034861
   57  F  6  S    0.490428  -0.114829   0.086550  -0.010812   0.072881
   58  F  6  S    0.513529  -0.129897   0.104377  -0.012938   0.114649
   59  F  6  X   -0.049684  -0.054431   0.062724  -0.078042   0.217613
   60  F  6  Y   -0.057774  -0.050848   0.105714   0.048455   0.173679
   61  F  6  Z   -0.025294  -0.015112   0.072236  -0.079327   0.006588
   62  F  6  X   -0.026166  -0.031289   0.038793  -0.050447   0.135760
   63  F  6  Y   -0.030203  -0.031157   0.066225   0.027811   0.106571
   64  F  6  Z   -0.012676  -0.011477   0.045112  -0.045734   0.003463
   65  F  6 XX    0.000944   0.001224   0.001669   0.003968  -0.004229
   66  F  6 YY    0.003106   0.000951  -0.003066  -0.005426  -0.001102
   67  F  6 ZZ   -0.004051  -0.002175   0.001397   0.001458   0.005331
   68  F  6 XY    0.009233   0.004276  -0.004659   0.000583  -0.008092
   69  F  6 XZ    0.004050   0.001281  -0.003774   0.003914  -0.000406
   70  F  6 YZ    0.004857   0.001452  -0.004468   0.001875  -0.000243
   71  H  7  S    0.019545   0.118802  -0.161281  -0.168337   0.047891
   72  H  7  S    0.000559  -0.006762  -0.014390  -0.029881   0.013797
   73  H  7  X   -0.001149  -0.006940   0.004396   0.004828  -0.003725
   74  H  7  Y    0.004405   0.010192  -0.011309  -0.006480  -0.000626
   75  H  7  Z   -0.000189  -0.001429   0.004027  -0.001880  -0.004296
   76  H  8  S    0.019124   0.110635  -0.174729   0.127365   0.109150
   77  H  8  S    0.001134  -0.006862  -0.013543  -0.002998   0.017665
   78  H  8  X    0.001428   0.000739  -0.003813  -0.002761  -0.001199
   79  H  8  Y    0.000205  -0.002365   0.003103   0.003472  -0.004587
   80  H  8  Z    0.004171   0.011388  -0.012840   0.006939   0.004114

                     11         12         13         14         15
                   -0.4318    -0.4037    -0.3957    -0.3269    -0.3023
                     A          A          A          A          A   
    1  C  1  S   -0.008661  -0.010889   0.004899   0.029043   0.000709
    2  C  1  S    0.021768   0.016144  -0.003548  -0.065021  -0.001910
    3  C  1  S    0.025018   0.037159  -0.029103  -0.129519   0.013446
    4  C  1  X    0.313428  -0.017226   0.055238   0.095162  -0.008479
    5  C  1  Y   -0.036396  -0.293084  -0.056900   0.005026  -0.047815
    6  C  1  Z   -0.092030   0.010390   0.311860  -0.010751   0.116355
    7  C  1  X    0.112402   0.020790   0.016799   0.078182  -0.034186
    8  C  1  Y   -0.038783  -0.094022  -0.037086   0.039362  -0.007703
    9  C  1  Z   -0.047450   0.009561   0.136991  -0.041241  -0.006898
   10  C  1 XX   -0.000818  -0.002302   0.009809   0.012996   0.003500
   11  C  1 YY    0.005010  -0.001679   0.002477  -0.005608   0.013396
   12  C  1 ZZ   -0.004193   0.003981  -0.012286  -0.007388  -0.016896
   13  C  1 XY    0.005728  -0.021421   0.002375   0.004927   0.008140
   14  C  1 XZ    0.008805  -0.003160   0.005443  -0.001895  -0.004166
   15  C  1 YZ    0.000869  -0.005126   0.006342  -0.006832  -0.003270
   16  C  2  S    0.011976   0.012425   0.008431  -0.022119   0.001167
   17  C  2  S   -0.022882  -0.024198  -0.011289   0.046353  -0.002623
   18  C  2  S   -0.034581  -0.041951  -0.037004   0.115690   0.006174
   19  C  2  X   -0.286232   0.057369  -0.000925  -0.004019  -0.046226
   20  C  2  Y    0.074282   0.202714  -0.007239  -0.037745  -0.128115
   21  C  2  Z    0.124372   0.008984  -0.235449   0.048785  -0.178242
   22  C  2  X   -0.100117   0.049888   0.011349   0.035817   0.012970
   23  C  2  Y    0.004373   0.063865  -0.023136  -0.058998  -0.024469
   24  C  2  Z    0.072193   0.007140  -0.098571  -0.002979  -0.026235
   25  C  2 XX    0.004566  -0.003836   0.010419  -0.018233  -0.000608
   26  C  2 YY    0.004207   0.006541  -0.000523   0.009543   0.023156
   27  C  2 ZZ   -0.008773  -0.002706  -0.009896   0.008690  -0.022548
   28  C  2 XY   -0.013170  -0.020007  -0.006387   0.008302  -0.002727
   29  C  2 XZ    0.009351  -0.000037   0.009317   0.003518  -0.011057
   30  C  2 YZ   -0.000293  -0.001672  -0.009779  -0.008039   0.003785
   31  F  3  S    0.018814   0.008496   0.004974  -0.001243  -0.002395
   32  F  3  S   -0.038843  -0.014963  -0.007905  -0.001144   0.005874
   33  F  3  S   -0.053486  -0.023939  -0.012369   0.019877   0.012199
   34  F  3  X   -0.029908   0.224507   0.091650   0.357173   0.168174
   35  F  3  Y   -0.234746  -0.006097  -0.237628   0.173015   0.284007
   36  F  3  Z    0.273288   0.179230  -0.144117  -0.273256   0.360954
   37  F  3  X   -0.014989   0.137908   0.053958   0.245482   0.113458
   38  F  3  Y   -0.146021  -0.001178  -0.151317   0.116715   0.199623
   39  F  3  Z    0.167358   0.116246  -0.092193  -0.182677   0.252333
   40  F  3 XX   -0.008629   0.004304   0.000197   0.008790   0.003440
   41  F  3 YY    0.005341  -0.006244   0.007725  -0.005102  -0.005991
   42  F  3 ZZ    0.003288   0.001940  -0.007921  -0.003688   0.002551
   43  F  3 XY   -0.000273  -0.004189  -0.005552  -0.004656   0.001339
   44  F  3 XZ    0.004693   0.006230  -0.002905   0.000057   0.004851
   45  F  3 YZ   -0.010211  -0.002975   0.002776   0.006360  -0.002994
   46  H  4  S    0.032746  -0.188294   0.005776   0.073203   0.176365
   47  H  4  S    0.005711  -0.054233  -0.004890   0.007336   0.099163
   48  H  4  X   -0.004548  -0.002577  -0.000232   0.002467   0.004813
   49  H  4  Y    0.004411  -0.005362   0.000758   0.001177   0.001647
   50  H  4  Z    0.002549  -0.000712  -0.005953   0.002362  -0.004684
   51  H  5  S    0.042340   0.025592  -0.195632   0.071114  -0.247377
   52  H  5  S   -0.002526   0.016457  -0.054186   0.010539  -0.136894
   53  H  5  X   -0.006663  -0.000084   0.004484  -0.002712  -0.001659
   54  H  5  Y    0.000789   0.004681   0.002301  -0.002878   0.000909
   55  H  5  Z   -0.001508  -0.002026   0.005590  -0.001439   0.005306
   56  F  6  S    0.020088  -0.023176   0.009007   0.001647  -0.003023
   57  F  6  S   -0.043731   0.047052  -0.017330  -0.000595   0.005571
   58  F  6  S   -0.056174   0.068942  -0.028427  -0.016107   0.023787
   59  F  6  X   -0.005544   0.295416  -0.080597   0.305234  -0.147038
   60  F  6  Y   -0.238451   0.171210  -0.242435  -0.208961   0.132225
   61  F  6  Z   -0.149136   0.205043   0.149310  -0.283096  -0.230744
   62  F  6  X   -0.010577   0.187386  -0.049331   0.205645  -0.100319
   63  F  6  Y   -0.150852   0.110762  -0.155824  -0.139625   0.091957
   64  F  6  Z   -0.091331   0.131905   0.094202  -0.187033  -0.160867
   65  F  6 XX   -0.006619  -0.003844  -0.000535  -0.008919   0.002657
   66  F  6 YY    0.007009   0.002724   0.007946   0.005912  -0.003125
   67  F  6 ZZ   -0.000391   0.001120  -0.007411   0.003008   0.000468
   68  F  6 XY    0.003044  -0.007778   0.005759  -0.003192   0.000145
   69  F  6 XZ    0.002847  -0.006727  -0.003985   0.001464   0.003639
   70  F  6 YZ    0.006544  -0.005135  -0.003004   0.006364   0.001920
   71  H  7  S    0.130873   0.229003   0.093466  -0.012187   0.068176
   72  H  7  S    0.024775   0.068284   0.018625   0.021236   0.050396
   73  H  7  X    0.003045  -0.005965  -0.000397   0.002995  -0.003486
   74  H  7  Y    0.007695   0.004820   0.004390   0.000547   0.000431
   75  H  7  Z   -0.003015  -0.002026   0.007022   0.000747   0.003615
   76  H  8  S    0.033530  -0.022817  -0.268910  -0.048690  -0.156477
   77  H  8  S   -0.003225  -0.010816  -0.067152  -0.003477  -0.118157
   78  H  8  X    0.007976  -0.001108  -0.003260   0.000006   0.001396
   79  H  8  Y   -0.001485  -0.007406   0.001657   0.002063   0.000666
   80  H  8  Z    0.001039  -0.002196  -0.008523  -0.001422  -0.002770

                     16         17         18         19         20
                   -0.2946    -0.2855     0.0075     0.0208     0.0446
                     A          A          A          A          A   
    1  C  1  S    0.000725  -0.021333  -0.083332   0.063793   0.046854
    2  C  1  S   -0.002468   0.059744   0.222399  -0.101126  -0.082224
    3  C  1  S    0.007113   0.081989   0.471663  -1.006630  -0.862336
    4  C  1  X   -0.068370  -0.214692   0.306404  -0.092023   0.075757
    5  C  1  Y    0.111636   0.074346   0.356650   0.187609   0.013238
    6  C  1  Z   -0.121457   0.128867   0.150023   0.080474   0.171854
    7  C  1  X   -0.014731  -0.037363   0.462074  -0.207936   0.139294
    8  C  1  Y    0.003699   0.010420   0.531111   0.339705   0.048229
    9  C  1  Z   -0.029975   0.059818   0.202980   0.154181   0.438159
   10  C  1 XX    0.006862   0.016654  -0.002264  -0.004027  -0.019081
   11  C  1 YY   -0.017182  -0.013375  -0.008931   0.007300  -0.014732
   12  C  1 ZZ    0.010320  -0.003279   0.011195  -0.003273   0.033814
   13  C  1 XY    0.005186   0.005375  -0.037604  -0.013160   0.014020
   14  C  1 XZ    0.012807  -0.009635  -0.016065   0.005059  -0.008729
   15  C  1 YZ    0.006165  -0.005166  -0.014646  -0.000008  -0.014547
   16  C  2  S   -0.000630  -0.021111  -0.016779   0.064146   0.014913
   17  C  2  S    0.003016   0.059964   0.047167  -0.099759  -0.075485
   18  C  2  S   -0.014588   0.092072   0.243105  -1.054338   0.279550
   19  C  2  X   -0.062022   0.220266  -0.032173   0.093196   0.210946
   20  C  2  Y   -0.082269   0.050809   0.065853   0.189326  -0.247668
   21  C  2  Z   -0.071119  -0.127814   0.025749  -0.093994   0.202172
   22  C  2  X   -0.029537   0.044876  -0.093007   0.197921   0.437734
   23  C  2  Y   -0.008126  -0.005212   0.080878   0.355163  -0.471619
   24  C  2  Z   -0.049138  -0.064439   0.121806  -0.176320   0.398556
   25  C  2 XX   -0.005655   0.015359   0.020115  -0.002506   0.008382
   26  C  2 YY    0.009776  -0.011934   0.004087   0.004920   0.014332
   27  C  2 ZZ   -0.004121  -0.003426  -0.024202  -0.002414  -0.022714
   28  C  2 XY    0.007847  -0.008567   0.028868   0.014827  -0.028035
   29  C  2 XZ   -0.010138  -0.008623  -0.000597   0.002809   0.020752
   30  C  2 YZ    0.003709   0.006294  -0.013086   0.000307  -0.021144
   31  F  3  S    0.002406  -0.000311   0.011807   0.013858  -0.054178
   32  F  3  S   -0.003950   0.002504  -0.028282  -0.034497   0.102182
   33  F  3  S   -0.022262  -0.007982  -0.070041  -0.070082   0.443722
   34  F  3  X    0.062120  -0.305052  -0.050863  -0.052255   0.124726
   35  F  3  Y    0.222315  -0.081331   0.036728  -0.026795  -0.189116
   36  F  3  Z    0.205430   0.206098  -0.035977   0.039987   0.131926
   37  F  3  X    0.043636  -0.217253  -0.029734  -0.057432   0.124891
   38  F  3  Y    0.152574  -0.053736   0.037012  -0.042156  -0.192750
   39  F  3  Z    0.142903   0.146676  -0.048765   0.047246   0.119888
   40  F  3 XX    0.001485  -0.003337   0.003203   0.003109  -0.000554
   41  F  3 YY   -0.004256   0.001094  -0.000100  -0.002893  -0.001814
   42  F  3 ZZ    0.002771   0.002243  -0.003104  -0.000216   0.002368
   43  F  3 XY    0.001180   0.001834   0.001764   0.001737   0.003562
   44  F  3 XZ    0.002070  -0.000159   0.000213   0.000197  -0.001518
   45  F  3 YZ   -0.001732  -0.002669  -0.002329   0.002802   0.000342
   46  H  4  S    0.132033  -0.140559   0.146149   0.066487  -0.011192
   47  H  4  S    0.054364  -0.097363   0.230270   1.088677  -0.172635
   48  H  4  X    0.001498   0.001815  -0.011373  -0.007393   0.015035
   49  H  4  Y    0.001785  -0.002960  -0.000003  -0.015781  -0.005501
   50  H  4  Z   -0.000611  -0.004211   0.004852  -0.005786   0.009044
   51  H  5  S   -0.093995  -0.056450  -0.143317   0.020173  -0.096978
   52  H  5  S    0.002612  -0.045818  -0.461006   0.399865  -0.662526
   53  H  5  X   -0.000533   0.004127   0.002183   0.005049   0.011863
   54  H  5  Y    0.000166   0.002091   0.001429   0.006252  -0.017310
   55  H  5  Z    0.002435  -0.000221  -0.007428   0.005491  -0.008255
   56  F  6  S   -0.000984  -0.000277   0.068629   0.011221   0.005576
   57  F  6  S    0.000678   0.003219  -0.130961  -0.028719  -0.006016
   58  F  6  S    0.013411  -0.010803  -0.506223  -0.051526  -0.062773
   59  F  6  X    0.126539   0.359942   0.238474   0.045178  -0.021174
   60  F  6  Y   -0.350564  -0.138313   0.285615  -0.032468   0.026249
   61  F  6  Z    0.396909  -0.247678   0.153559  -0.039476   0.006463
   62  F  6  X    0.085602   0.254935   0.230998   0.048460  -0.008589
   63  F  6  Y   -0.241780  -0.092696   0.280636  -0.043829   0.021390
   64  F  6  Z    0.273749  -0.173248   0.150141  -0.044010  -0.016087
   65  F  6 XX   -0.002802  -0.004656   0.000893   0.002626  -0.002401
   66  F  6 YY    0.006524   0.002342   0.001533  -0.002699   0.000875
   67  F  6 ZZ   -0.003722   0.002313  -0.002426   0.000073   0.001526
   68  F  6 XY    0.002278  -0.002058   0.003571  -0.002095   0.002113
   69  F  6 XZ   -0.004538   0.000431   0.002450  -0.000108  -0.001007
   70  F  6 YZ   -0.003267   0.003257   0.002338  -0.002517  -0.002952
   71  H  7  S   -0.179751  -0.135784   0.020713   0.072892  -0.103242
   72  H  7  S   -0.088168  -0.089712   0.000194   1.057147  -0.047994
   73  H  7  X    0.003152  -0.002002   0.018766   0.005381  -0.003082
   74  H  7  Y   -0.002066  -0.002187   0.009437  -0.016104   0.001932
   75  H  7  Z   -0.001631   0.004737   0.008274   0.006374   0.008695
   76  H  8  S    0.160303  -0.061592  -0.013068   0.014989   0.193310
   77  H  8  S    0.051269  -0.045209  -0.093033   0.400426   1.253910
   78  H  8  X   -0.001926  -0.004159   0.013183  -0.005552   0.005735
   79  H  8  Y   -0.000152   0.002535   0.018306   0.005468   0.003645
   80  H  8  Z    0.003497   0.000152   0.001563  -0.006018  -0.018660

                     21         22         23         24         25
                    0.0656     0.0839     0.0855     0.1625     0.3487
                     A          A          A          A          A   
    1  C  1  S    0.075002  -0.019172   0.010553   0.074251   0.005120
    2  C  1  S   -0.139753   0.023909  -0.013545  -0.074511   0.039558
    3  C  1  S   -0.945130   0.523355  -0.176249  -2.003712   0.589194
    4  C  1  X   -0.089259   0.005532   0.116534   0.276403  -0.420504
    5  C  1  Y    0.038894  -0.199967  -0.161622  -0.078153  -0.179543
    6  C  1  Z    0.013296   0.061088   0.289609  -0.221412   0.169633
    7  C  1  X   -0.132810  -0.034806   0.417927   1.746795   0.635181
    8  C  1  Y    0.105216  -0.725605  -0.514940  -0.557116   0.182474
    9  C  1  Z    0.019002   0.091203   0.894614  -1.105753  -0.692739
   10  C  1 XX    0.005125  -0.009805   0.005903   0.025924   0.034222
   11  C  1 YY    0.008524   0.003747  -0.009938  -0.018683  -0.024808
   12  C  1 ZZ   -0.013649   0.006058   0.004035  -0.007241  -0.009414
   13  C  1 XY   -0.013364   0.001037  -0.001244   0.003273   0.013151
   14  C  1 XZ    0.000927  -0.001821   0.009137  -0.034168  -0.050838
   15  C  1 YZ    0.008565   0.014350  -0.001257   0.021080   0.020370
   16  C  2  S   -0.116624   0.005772  -0.006811  -0.077156  -0.003967
   17  C  2  S    0.245432  -0.001675   0.032579   0.087449   0.122460
   18  C  2  S    1.398141  -0.253137  -0.179583   2.025842   0.385871
   19  C  2  X   -0.144945   0.095505  -0.155333   0.283587   0.380212
   20  C  2  Y    0.146325   0.287858   0.033087   0.056251  -0.092356
   21  C  2  Z    0.047870   0.213416  -0.199858  -0.236699  -0.225141
   22  C  2  X   -0.266984   0.273636  -0.513231   1.734937  -0.687615
   23  C  2  Y    0.284793   0.953915   0.149808   0.399099  -0.043513
   24  C  2  Z    0.194355   0.565209  -0.677044  -1.187939   0.917287
   25  C  2 XX    0.001195   0.006351   0.008693  -0.025163   0.029207
   26  C  2 YY   -0.005391   0.006579  -0.013050   0.019918  -0.021151
   27  C  2 ZZ    0.004195  -0.012930   0.004356   0.005244  -0.008056
   28  C  2 XY    0.016002   0.005397   0.004434   0.010826  -0.022360
   29  C  2 XZ   -0.011392  -0.004887   0.004073   0.034366  -0.052225
   30  C  2 YZ    0.010769   0.007340   0.016997   0.017866  -0.023816
   31  F  3  S    0.045231   0.012492   0.041767   0.003456  -0.005782
   32  F  3  S   -0.084200  -0.016257  -0.073828   0.016215   0.022498
   33  F  3  S   -0.375484  -0.139786  -0.378411  -0.137354  -0.004531
   34  F  3  X   -0.144297  -0.009498  -0.031019  -0.100321   0.092406
   35  F  3  Y    0.169135  -0.002856   0.116051   0.008883  -0.033771
   36  F  3  Z   -0.093391  -0.065146  -0.000367   0.036092  -0.070932
   37  F  3  X   -0.163129  -0.047777  -0.052215  -0.205073   0.121224
   38  F  3  Y    0.189800  -0.029751   0.158620   0.018452   0.002841
   39  F  3  Z   -0.120477  -0.100303  -0.007928   0.077002  -0.123816
   40  F  3 XX   -0.001173   0.002120  -0.004496   0.002543   0.005510
   41  F  3 YY    0.000659  -0.004714   0.002764   0.002621  -0.005426
   42  F  3 ZZ    0.000514   0.002594   0.001731  -0.005164  -0.000084
   43  F  3 XY   -0.002918   0.002119   0.000422  -0.005164   0.003394
   44  F  3 XZ    0.002305   0.005001  -0.001496   0.007803  -0.007881
   45  F  3 YZ   -0.004958  -0.002031   0.002065   0.007341   0.001057
   46  H  4  S   -0.041982   0.049706  -0.010313   0.111409  -0.205406
   47  H  4  S   -0.627195   1.694178  -0.398192   0.621591   0.068611
   48  H  4  X   -0.002317  -0.013316  -0.008577   0.007336  -0.005623
   49  H  4  Y    0.012259  -0.013460   0.011996  -0.010029   0.002448
   50  H  4  Z   -0.004078  -0.001220  -0.010934  -0.020521   0.026488
   51  H  5  S   -0.047394  -0.023009   0.036625   0.088848  -0.305186
   52  H  5  S   -1.103884  -1.315096   0.917789   0.336101  -0.210666
   53  H  5  X   -0.009205  -0.005660   0.000179   0.018518  -0.017270
   54  H  5  Y    0.006829   0.004667   0.011037   0.011277  -0.012619
   55  H  5  Z   -0.014957  -0.016182   0.010056   0.000875   0.009862
   56  F  6  S   -0.014963  -0.022238   0.012625   0.001612  -0.002389
   57  F  6  S    0.025856   0.034878  -0.026908  -0.023581   0.037219
   58  F  6  S    0.121254   0.215145  -0.092625   0.074663  -0.150212
   59  F  6  X   -0.053014  -0.002314   0.004272  -0.083107  -0.135105
   60  F  6  Y   -0.072837  -0.035489   0.042208   0.010566  -0.048394
   61  F  6  Z    0.006018  -0.018151  -0.053379   0.036586   0.061815
   62  F  6  X   -0.074012  -0.041987  -0.008047  -0.170991  -0.065684
   63  F  6  Y   -0.085410  -0.037670   0.079568   0.013425   0.038653
   64  F  6  Z   -0.003747  -0.043599  -0.070922   0.071728   0.115385
   65  F  6 XX    0.003691   0.001710  -0.002854  -0.002721  -0.001982
   66  F  6 YY   -0.001391   0.001397   0.003378  -0.000764  -0.004134
   67  F  6 ZZ   -0.002300  -0.003106  -0.000523   0.003485   0.006117
   68  F  6 XY   -0.002820   0.002104   0.000124  -0.005109  -0.011884
   69  F  6 XZ    0.000116  -0.001949  -0.004177  -0.005844  -0.007880
   70  F  6 YZ   -0.001676   0.000160  -0.003026   0.007205  -0.002700
   71  H  7  S    0.132459  -0.024987  -0.004969  -0.109372  -0.172572
   72  H  7  S    0.949530  -1.148471  -1.154625  -0.604757   0.122209
   73  H  7  X    0.009349  -0.012132   0.000931   0.009925   0.001058
   74  H  7  Y   -0.013120   0.006035   0.014581   0.008509   0.003577
   75  H  7  Z   -0.004697  -0.007326   0.003742  -0.020681  -0.019674
   76  H  8  S   -0.023288  -0.008934   0.018246  -0.090190  -0.224629
   77  H  8  S    0.440031   0.328851   1.591837  -0.325853  -0.150565
   78  H  8  X   -0.004480  -0.002758  -0.007597   0.018576   0.019963
   79  H  8  Y    0.000280  -0.008136   0.002041  -0.011165  -0.012860
   80  H  8  Z   -0.004894  -0.003552  -0.018276   0.001642  -0.011008

                     26         27         28         29         30
                    0.3754     0.3923     0.4542     0.4610     0.4716
                     A          A          A          A          A   
    1  C  1  S    0.045270   0.002869   0.011436  -0.030661  -0.068771
    2  C  1  S   -0.358869  -0.056187  -0.111124   0.136784   0.453182
    3  C  1  S    0.097079   0.037564   0.443090   0.059664  -1.440110
    4  C  1  X   -0.346114  -0.073176   0.089723   0.073496  -0.624214
    5  C  1  Y   -0.579164   0.001194  -0.015547  -0.081816   0.022489
    6  C  1  Z   -0.344924  -0.158940  -0.167465  -0.279540   0.256648
    7  C  1  X    0.500235   0.195513  -0.713259   0.349355   1.445839
    8  C  1  Y    1.089956  -0.095877   1.149586   0.289938  -0.165619
    9  C  1  Z    0.869353   0.337483  -0.193840   1.098950  -0.959459
   10  C  1 XX   -0.013890  -0.003959   0.044434   0.054617  -0.028943
   11  C  1 YY    0.009075   0.023090   0.077289  -0.047957   0.057616
   12  C  1 ZZ    0.004815  -0.019132  -0.121723  -0.006660  -0.028672
   13  C  1 XY    0.009370   0.009732  -0.044237   0.057458   0.016456
   14  C  1 XZ    0.027977  -0.006510  -0.011991   0.009544   0.049777
   15  C  1 YZ   -0.011082  -0.006324  -0.023926  -0.015312   0.017661
   16  C  2  S   -0.007966   0.049828   0.013490  -0.029485   0.067074
   17  C  2  S    0.020972  -0.381853  -0.023261   0.177434  -0.434372
   18  C  2  S   -0.078294   0.216240  -0.427721  -0.282739   1.393140
   19  C  2  X   -0.060325   0.406886   0.121465  -0.015110  -0.612272
   20  C  2  Y    0.196508  -0.618305   0.018405   0.010828  -0.026415
   21  C  2  Z    0.086015   0.412415  -0.277109   0.078102   0.276667
   22  C  2  X    0.013156  -0.542484  -0.275087  -0.827486   1.493344
   23  C  2  Y   -0.397380   0.953475  -0.905801  -0.768766   0.089749
   24  C  2  Z   -0.272612  -0.851512   0.634920  -0.871177  -0.893627
   25  C  2 XX   -0.001090  -0.007519  -0.066093  -0.009273   0.033302
   26  C  2 YY    0.026538   0.022400  -0.019510  -0.073798  -0.053333
   27  C  2 ZZ   -0.025448  -0.014881   0.085603   0.083071   0.020031
   28  C  2 XY    0.011641  -0.038187   0.016298  -0.074291  -0.003208
   29  C  2 XZ   -0.000949   0.030501  -0.000821   0.014508  -0.054681
   30  C  2 YZ    0.002116  -0.011004  -0.012003   0.008714   0.026795
   31  F  3  S    0.006858   0.005440  -0.013517   0.013238  -0.019631
   32  F  3  S   -0.042425   0.080159  -0.016422  -0.038006   0.073077
   33  F  3  S    0.074077  -0.583699   0.360257  -0.084474   0.048140
   34  F  3  X   -0.088209   0.191104  -0.118445   0.121142   0.008746
   35  F  3  Y   -0.000385  -0.249993   0.032697   0.170481   0.000762
   36  F  3  Z   -0.018937   0.138964   0.156099   0.100593   0.019053
   37  F  3  X   -0.007445  -0.052634   0.127332   0.026451  -0.053675
   38  F  3  Y    0.026470   0.043455  -0.050284   0.112252  -0.041590
   39  F  3  Z    0.031205   0.012056   0.027274   0.049781   0.076949
   40  F  3 XX    0.009205  -0.000704   0.013446  -0.010377  -0.018584
   41  F  3 YY   -0.003884  -0.017096  -0.001540   0.012470   0.011939
   42  F  3 ZZ   -0.005320   0.017800  -0.011906  -0.002093   0.006645
   43  F  3 XY    0.000495   0.046734  -0.013190  -0.000080   0.005347
   44  F  3 XZ    0.007433  -0.020347  -0.013184  -0.005520   0.005900
   45  F  3 YZ   -0.007784   0.030198   0.003976  -0.000184  -0.010927
   46  H  4  S    0.168931   0.139078  -0.170081  -0.856085   0.070798
   47  H  4  S   -0.096133   0.079718  -0.209945   0.039081   0.504940
   48  H  4  X   -0.024752   0.016407   0.003174   0.003747  -0.021578
   49  H  4  Y   -0.008974   0.002146  -0.006154   0.036258   0.009390
   50  H  4  Z    0.017306  -0.003352  -0.001341  -0.020477  -0.000333
   51  H  5  S   -0.164878   0.177630   0.435813   0.424568   0.317554
   52  H  5  S    0.106692   0.128899  -0.501820   0.094249   0.094500
   53  H  5  X    0.021969   0.015066  -0.000749   0.002564  -0.023728
   54  H  5  Y    0.009739  -0.006589  -0.019174  -0.036052   0.006936
   55  H  5  Z   -0.025842  -0.014458   0.044864  -0.002225   0.026627
   56  F  6  S    0.014843   0.008318   0.001124   0.018875   0.019856
   57  F  6  S    0.049133  -0.020995   0.030376  -0.014528  -0.077461
   58  F  6  S   -0.587367  -0.078667  -0.166644  -0.316047  -0.048570
   59  F  6  X   -0.151354   0.019174   0.009823  -0.164890   0.007957
   60  F  6  Y   -0.187129  -0.056921  -0.129671   0.095782  -0.012268
   61  F  6  Z   -0.117972   0.000033   0.181751   0.030826   0.032159
   62  F  6  X    0.120914   0.012589   0.102667   0.100861  -0.050621
   63  F  6  Y    0.088531   0.043604  -0.026199   0.101391   0.045709
   64  F  6  Z    0.002771  -0.016726   0.038255  -0.022540   0.075309
   65  F  6 XX   -0.006298   0.006613  -0.001620  -0.018729   0.015557
   66  F  6 YY   -0.011274  -0.006474  -0.009237   0.012374  -0.012252
   67  F  6 ZZ    0.017572  -0.000139   0.010857   0.006355  -0.003305
   68  F  6 XY   -0.037859  -0.011500  -0.007824  -0.007737   0.000913
   69  F  6 XZ   -0.015514   0.001762   0.015051   0.005243  -0.005923
   70  F  6 YZ   -0.022906   0.000592   0.004417   0.001324  -0.006164
   71  H  7  S    0.207855   0.123585   0.761072  -0.462962  -0.088118
   72  H  7  S    0.055254  -0.011788   0.040826   0.245235  -0.408580
   73  H  7  X   -0.015164   0.017033   0.003192  -0.001218  -0.026260
   74  H  7  Y    0.006105  -0.007268  -0.025805   0.032882  -0.003826
   75  H  7  Z    0.015885  -0.017655  -0.013374   0.013173  -0.005202
   76  H  8  S    0.324565  -0.129816  -0.623617  -0.031222  -0.389981
   77  H  8  S    0.120495   0.052208   0.367639   0.466488  -0.097190
   78  H  8  X   -0.011325  -0.019175   0.003833  -0.005329  -0.021077
   79  H  8  Y    0.002320   0.008953   0.043315  -0.007394  -0.004509
   80  H  8  Z    0.008231   0.025064   0.030597   0.038009   0.029811

                     31         32         33         34         35
                    0.5292     0.5471     0.5586     0.5840     0.7907
                     A          A          A          A          A   
    1  C  1  S   -0.023708  -0.045888  -0.029149  -0.064657   0.022646
    2  C  1  S    0.147759   0.352969   0.223701   0.513796  -1.278751
    3  C  1  S   -0.328104  -0.499333  -0.260318  -0.229906   2.493550
    4  C  1  X    0.340864   0.080652   0.287223   0.017771   0.123315
    5  C  1  Y   -0.491228   0.023809  -0.507039  -0.094226   0.106322
    6  C  1  Z    0.109435  -0.382226   0.443223  -0.492888  -0.002758
    7  C  1  X   -0.802394  -0.230900  -0.644415  -0.535805   0.172104
    8  C  1  Y    0.805555  -0.027057   1.282242  -0.391501  -0.333791
    9  C  1  Z   -0.754571   0.125418  -0.863542   1.247010  -0.490237
   10  C  1 XX    0.008649   0.016239   0.006715   0.041440  -0.048264
   11  C  1 YY   -0.022185   0.052110  -0.053508  -0.014515   0.045355
   12  C  1 ZZ    0.013537  -0.068350   0.046794  -0.026926   0.002909
   13  C  1 XY    0.057016   0.009171   0.032859   0.029097   0.037823
   14  C  1 XZ   -0.009006  -0.050905   0.011713  -0.015195   0.036099
   15  C  1 YZ   -0.002390   0.037299   0.016644   0.041216   0.006949
   16  C  2  S   -0.037696  -0.041184   0.044394   0.065280   0.016110
   17  C  2  S    0.236841   0.308726  -0.354853  -0.519117  -1.280448
   18  C  2  S   -0.435763  -0.460122   0.437612   0.242685   2.813789
   19  C  2  X   -0.370324   0.058346   0.275807   0.033008  -0.152857
   20  C  2  Y   -0.494784   0.251304   0.398843   0.058016   0.153524
   21  C  2  Z   -0.155152   0.510981   0.205598  -0.467619  -0.029679
   22  C  2  X    0.854581  -0.067383  -0.639809  -0.500770  -0.081429
   23  C  2  Y    0.919525  -0.514812  -1.085051   0.516864  -0.318099
   24  C  2  Z    0.869274  -0.395755  -0.544225   1.222438   0.466152
   25  C  2 XX    0.004944   0.017733  -0.010408  -0.039091  -0.048204
   26  C  2 YY   -0.019613   0.067465   0.032424   0.021215   0.046133
   27  C  2 ZZ    0.014668  -0.085198  -0.022016   0.017876   0.002071
   28  C  2 XY   -0.062670   0.003782   0.026705   0.034771  -0.034313
   29  C  2 XZ    0.003141  -0.053515   0.007065   0.016681   0.040196
   30  C  2 YZ    0.003138  -0.036649   0.026514   0.032999  -0.019928
   31  F  3  S    0.017830   0.008091  -0.001016  -0.002054   0.037570
   32  F  3  S   -0.079244  -0.051422   0.005241   0.023882  -0.159669
   33  F  3  S    0.024816   0.089477   0.001044  -0.085448  -0.187943
   34  F  3  X   -0.099374  -0.069797  -0.033329   0.022242  -0.018467
   35  F  3  Y   -0.068500  -0.039286  -0.022858  -0.082939  -0.062756
   36  F  3  Z   -0.025287  -0.045844   0.084054  -0.048603  -0.017313
   37  F  3  X   -0.105230   0.029827   0.024909  -0.004655  -0.108794
   38  F  3  Y   -0.037813   0.040988   0.088049   0.005305   0.244670
   39  F  3  Z   -0.045082   0.050715   0.055785  -0.086222  -0.099831
   40  F  3 XX   -0.003452   0.002636   0.011741   0.004378   0.010121
   41  F  3 YY    0.006179  -0.016846  -0.016045  -0.004287  -0.016540
   42  F  3 ZZ   -0.002727   0.014209   0.004304  -0.000091   0.006419
   43  F  3 XY    0.006377   0.000321   0.003646   0.001626   0.018115
   44  F  3 XZ   -0.009141   0.011165  -0.003826  -0.001072  -0.018266
   45  F  3 YZ   -0.000923  -0.012335   0.005454   0.003720   0.016717
   46  H  4  S   -0.349959   0.017706   0.349574   0.516805  -0.384759
   47  H  4  S    1.283169  -0.598415  -1.419378  -0.375548  -0.687296
   48  H  4  X    0.051852   0.010914  -0.037039  -0.016631   0.030050
   49  H  4  Y    0.066558  -0.022384  -0.066757  -0.037178  -0.045288
   50  H  4  Z    0.016905   0.038229  -0.016982  -0.011268  -0.002031
   51  H  5  S   -0.233036  -0.767166   0.250435   0.273212  -0.374855
   52  H  5  S   -0.700962   1.184293   0.554557  -1.376717  -0.736940
   53  H  5  X   -0.010740  -0.024134  -0.012841   0.031513   0.011704
   54  H  5  Y   -0.001349  -0.019431   0.011643   0.041562  -0.014131
   55  H  5  Z    0.014474  -0.083632  -0.006255   0.061704   0.024040
   56  F  6  S    0.014622   0.005389  -0.000233   0.000867   0.033986
   57  F  6  S   -0.069449  -0.041325   0.006376  -0.020516  -0.151039
   58  F  6  S    0.029623   0.082631  -0.032078   0.083282  -0.126277
   59  F  6  X    0.102237   0.047891  -0.037852   0.030531   0.031655
   60  F  6  Y   -0.082940  -0.029556   0.019273   0.066172  -0.042596
   61  F  6  Z    0.016334   0.056813   0.071519  -0.056553   0.033328
   62  F  6  X    0.081902  -0.024713   0.042786  -0.012315   0.082392
   63  F  6  Y   -0.038427  -0.006947  -0.090222  -0.019940   0.200972
   64  F  6  Z    0.027552  -0.033260   0.072614  -0.078856   0.064042
   65  F  6 XX    0.000174  -0.001915  -0.009591  -0.002140   0.008498
   66  F  6 YY    0.000711  -0.006886   0.015863   0.004799  -0.015692
   67  F  6 ZZ   -0.000884   0.008801  -0.006272  -0.002659   0.007194
   68  F  6 XY   -0.005971   0.001823   0.003627   0.004004  -0.018432
   69  F  6 XZ   -0.006198   0.010472   0.001300   0.000380  -0.016161
   70  F  6 YZ    0.000586   0.011792  -0.000093   0.001399  -0.011562
   71  H  7  S   -0.294246  -0.115664  -0.357368  -0.503847  -0.338225
   72  H  7  S    1.124544   0.005914   1.666113   0.350536  -0.695852
   73  H  7  X   -0.043874  -0.024077  -0.033351  -0.014947  -0.033724
   74  H  7  Y    0.060046   0.002612   0.077539   0.034451  -0.043128
   75  H  7  Z   -0.019909  -0.040966  -0.009098  -0.017959   0.008983
   76  H  8  S   -0.175888  -0.748171   0.015523  -0.319448  -0.334484
   77  H  8  S   -0.576109   0.781157  -1.029919   1.409140  -0.733077
   78  H  8  X    0.016420   0.016793  -0.019417   0.028437  -0.011129
   79  H  8  Y   -0.002875  -0.019048  -0.003046  -0.040757  -0.012943
   80  H  8  Z   -0.014449   0.068327  -0.038899   0.068889  -0.023184

                     36         37         38         39         40
                    0.9565     0.9803     0.9881     1.0289     1.1282
                     A          A          A          A          A   
    1  C  1  S   -0.019408   0.007663   0.006361  -0.021438   0.025426
    2  C  1  S   -0.822355   0.014817   0.124603  -0.034525   1.249537
    3  C  1  S    3.938430  -0.435864  -0.672131   1.454818  -4.969571
    4  C  1  X    0.045738  -0.023618  -0.075561   0.119197   0.186624
    5  C  1  Y    0.075570  -0.105543   0.000842   0.190895   0.111853
    6  C  1  Z    0.034024  -0.039425   0.004161   0.118529   0.031582
    7  C  1  X   -1.072835   0.231987   0.155391  -0.350416   1.457359
    8  C  1  Y   -0.095981   0.031262  -0.080461   0.045689   0.227541
    9  C  1  Z    0.612139  -0.490142  -0.197010   0.052560  -0.913827
   10  C  1 XX    0.117250  -0.021813   0.112524  -0.016605   0.048013
   11  C  1 YY   -0.035488  -0.027356  -0.071020   0.041247   0.017056
   12  C  1 ZZ   -0.081762   0.049169  -0.041503  -0.024641  -0.065069
   13  C  1 XY    0.001173  -0.147640  -0.100156   0.089485   0.002926
   14  C  1 XZ    0.079750  -0.011418   0.093445   0.013656   0.100230
   15  C  1 YZ    0.070911   0.154321  -0.033668   0.144273  -0.005932
   16  C  2  S    0.024065  -0.001755  -0.006586   0.002919  -0.033045
   17  C  2  S    0.546963  -0.314788  -0.033936   0.539077  -1.197419
   18  C  2  S   -3.789322   1.030330   0.832034  -1.190212   4.988737
   19  C  2  X    0.104768   0.053952  -0.116576  -0.095070   0.135895
   20  C  2  Y   -0.219343  -0.061256   0.039554   0.165301  -0.064667
   21  C  2  Z    0.120793   0.042002  -0.029560  -0.102603   0.004952
   22  C  2  X   -1.073213   0.216974   0.140679  -0.377955   1.426499
   23  C  2  Y    0.187009  -0.021772   0.095023   0.094667  -0.418781
   24  C  2  Z    0.696078   0.236818   0.031087   0.336491  -0.904569
   25  C  2 XX   -0.090059   0.089629  -0.097476  -0.014750  -0.052307
   26  C  2 YY   -0.004816  -0.096072   0.041788   0.024477  -0.016046
   27  C  2 ZZ    0.094875   0.006443   0.055688  -0.009727   0.068353
   28  C  2 XY    0.100393   0.152732  -0.053525  -0.052172  -0.016325
   29  C  2 XZ   -0.083648   0.024018  -0.073271   0.037510  -0.106028
   30  C  2 YZ    0.073264  -0.121309  -0.141547  -0.097736   0.005623
   31  F  3  S   -0.060074  -0.011956   0.035043   0.023011   0.009371
   32  F  3  S    0.262000   0.058929  -0.182961  -0.115415  -0.029613
   33  F  3  S    0.240871  -0.034595  -0.029345   0.092684  -0.276954
   34  F  3  X   -0.422326  -0.053647  -0.258027   0.230461  -0.151031
   35  F  3  Y    0.146270   0.363812  -0.440881  -0.237851   0.083673
   36  F  3  Z   -0.180461   0.419714   0.301269   0.269645  -0.268706
   37  F  3  X    0.756473   0.101046   0.189571  -0.363348   0.083493
   38  F  3  Y   -0.492656  -0.469603   0.636375   0.391443  -0.020286
   39  F  3  Z    0.335617  -0.483184  -0.440109  -0.400622   0.375041
   40  F  3 XX    0.019327   0.003914   0.006684   0.011534  -0.016169
   41  F  3 YY   -0.022954   0.005978  -0.006866   0.007940  -0.007377
   42  F  3 ZZ    0.003627  -0.009892   0.000182  -0.019474   0.023546
   43  F  3 XY   -0.002321   0.015375  -0.014861  -0.042189   0.047054
   44  F  3 XZ   -0.021614  -0.016865   0.003627   0.009515  -0.001352
   45  F  3 YZ    0.001899   0.010913  -0.001944  -0.024450   0.049098
   46  H  4  S    0.313133  -0.133079  -0.087261   0.196446  -0.535848
   47  H  4  S    0.234851  -0.051143   0.092493   0.050461  -0.254077
   48  H  4  X    0.019598  -0.084703   0.049616   0.013579   0.023613
   49  H  4  Y    0.012957   0.043363  -0.041899  -0.007859  -0.042784
   50  H  4  Z   -0.006105   0.063920   0.100036   0.038045   0.017431
   51  H  5  S    0.292245  -0.176030  -0.120834   0.176615  -0.423237
   52  H  5  S    0.009263  -0.216509  -0.101320  -0.092880  -0.129319
   53  H  5  X   -0.051362   0.057777  -0.053295   0.010074  -0.063567
   54  H  5  Y    0.037636  -0.083047  -0.061929  -0.052257  -0.010320
   55  H  5  Z   -0.022808   0.009473   0.026777   0.007219   0.025298
   56  F  6  S    0.042671  -0.017990  -0.027845   0.055814  -0.002958
   57  F  6  S   -0.202611   0.087767   0.157348  -0.316134  -0.029136
   58  F  6  S   -0.156494   0.018948   0.004745   0.061060   0.294476
   59  F  6  X   -0.258744   0.311654  -0.220787  -0.239813  -0.209083
   60  F  6  Y    0.060312   0.100949   0.447960  -0.419014  -0.198323
   61  F  6  Z   -0.229464  -0.404599  -0.067710  -0.351903  -0.308766
   62  F  6  X    0.488028  -0.438107   0.175539   0.474106   0.138584
[...]
   27  C  2 ZZ   -0.020289  -0.000477   0.003845  -0.005697   0.007890
   28  C  2 XY   -0.002657   0.004874   0.005613  -0.008660   0.023091
   29  C  2 XZ    0.010108  -0.005594   0.006322  -0.034047   0.050675
   30  C  2 YZ   -0.013140   0.020223   0.009538  -0.017760   0.023898
   31  F  3  S   -0.034872   0.037833   0.031568  -0.000254   0.005747
   32  F  3  S    0.064384  -0.061303  -0.057871  -0.020431  -0.033420
   33  F  3  S    0.291121  -0.364901  -0.278771   0.098230   0.059455
   34  F  3  X    0.115399  -0.056593  -0.026449   0.099178  -0.117288
   35  F  3  Y   -0.147407   0.082046   0.095044   0.002020   0.032285
   36  F  3  Z    0.049947  -0.074842   0.023594  -0.041710   0.069236
   37  F  3  X    0.130429  -0.111229  -0.029655   0.204665  -0.110341
   38  F  3  Y   -0.174785   0.078094   0.143355   0.002291  -0.012281
   39  F  3  Z    0.056506  -0.110766   0.029924  -0.086592   0.127169
   40  F  3 XX    0.003253  -0.000904  -0.003865  -0.002693  -0.002647
   41  F  3 YY   -0.002520  -0.002620   0.003952  -0.002250   0.004307
   42  F  3 ZZ   -0.000734   0.003523  -0.000088   0.004942  -0.001660
   43  F  3 XY    0.004680   0.000488  -0.000154   0.005309  -0.005192
   44  F  3 XZ   -0.000082   0.004512  -0.003362  -0.007284   0.008695
   45  F  3 YZ    0.002537  -0.001346   0.002700  -0.007750  -0.002278
   46  H  4  S    0.110829   0.000354   0.006312  -0.110017   0.224522
   47  H  4  S    1.208025   1.118590  -0.857093  -0.573772  -0.095877
   48  H  4  X   -0.006830  -0.011780  -0.004938  -0.008946   0.003602
   49  H  4  Y   -0.016047  -0.004057   0.014396   0.009341  -0.003079
   50  H  4  Z    0.006049  -0.009168  -0.007709   0.019783  -0.023177
   51  H  5  S   -0.038151   0.027964   0.021090  -0.076936   0.264497
   52  H  5  S    0.253934  -0.924199   1.299827  -0.356165   0.211174
   53  H  5  X    0.008562  -0.008377   0.002928  -0.018903   0.022022
   54  H  5  Y   -0.004606   0.010521   0.008180  -0.010796   0.013556
   55  H  5  Z    0.003084  -0.011225   0.014242  -0.001640  -0.014395
   56  F  6  S    0.034393  -0.037244   0.032230   0.000344   0.005784
   57  F  6  S   -0.063457   0.060205  -0.058942   0.020357  -0.033085
   58  F  6  S   -0.287108   0.359721  -0.285110  -0.099587   0.057038
   59  F  6  X    0.119812  -0.058987   0.031202   0.099185   0.117639
   60  F  6  Y    0.144209  -0.082927   0.093718  -0.008757   0.022319
   61  F  6  Z    0.039240  -0.069480  -0.028653  -0.041071  -0.070500
   62  F  6  X    0.136034  -0.113360   0.037268   0.204503   0.110099
   63  F  6  Y    0.171039  -0.078474   0.141385  -0.015989  -0.025294
   64  F  6  Z    0.043741  -0.105919  -0.037662  -0.085412  -0.125285
   65  F  6 XX   -0.002935   0.000905  -0.003875   0.003062  -0.002369
   66  F  6 YY    0.002463   0.002467   0.003581   0.000906   0.004156
   67  F  6 ZZ    0.000472  -0.003372   0.000295  -0.003967  -0.001787
   68  F  6 XY    0.004922   0.000256   0.000271   0.005731   0.005976
   69  F  6 XZ   -0.000165  -0.004645  -0.003418   0.006602   0.008386
   70  F  6 YZ    0.002372  -0.001666  -0.002796  -0.008500   0.001472
   71  H  7  S   -0.111758   0.000193   0.006008   0.111531   0.226369
   72  H  7  S   -1.207452  -1.131047  -0.843729   0.570706  -0.098092
   73  H  7  X   -0.006315  -0.011453   0.005724  -0.009271  -0.003587
   74  H  7  Y    0.016634   0.004135   0.014681  -0.007533  -0.001338
   75  H  7  Z    0.004901  -0.009404   0.006820   0.020356   0.023236
   76  H  8  S    0.038648  -0.027693   0.021229   0.077066   0.263781
   77  H  8  S   -0.251281   0.942837   1.284321   0.358064   0.211630
   78  H  8  X    0.008713  -0.008833  -0.002425  -0.018482  -0.021404
   79  H  8  Y    0.004346  -0.010797   0.007457   0.011468   0.015440
   80  H  8  Z    0.002717  -0.010695  -0.014600  -0.002431   0.013414

                     26         27
                    0.3941     0.3948
                     A          A   
    1  C  1  S    0.041482  -0.029544
    2  C  1  S   -0.294239   0.253610
    3  C  1  S    0.188101  -0.147047
    4  C  1  X   -0.307785   0.281805
    5  C  1  Y   -0.553150   0.350259
    6  C  1  Z   -0.195738   0.333849
    7  C  1  X    0.314164  -0.444778
    8  C  1  Y    0.934518  -0.464489
    9  C  1  Z    0.425489  -0.692956
   10  C  1 XX   -0.003228   0.003143
   11  C  1 YY   -0.004161  -0.027016
   12  C  1 ZZ    0.007389   0.023874
   13  C  1 XY    0.029468  -0.032888
   14  C  1 XZ    0.025961  -0.013962
   15  C  1 YZ    0.008620   0.000634
   16  C  2  S   -0.035428  -0.036439
   17  C  2  S    0.244180   0.301829
   18  C  2  S   -0.157999  -0.179044
   19  C  2  X   -0.232364  -0.314182
   20  C  2  Y    0.481760   0.429767
   21  C  2  Z   -0.168185  -0.393144
   22  C  2  X    0.197887   0.467583
   23  C  2  Y   -0.822291  -0.587892
   24  C  2  Z    0.358306   0.800312
   25  C  2 XX    0.004134   0.006199
   26  C  2 YY    0.008360  -0.027982
   27  C  2 ZZ   -0.012494   0.021783
   28  C  2 XY    0.022078   0.034826
   29  C  2 XZ   -0.024423  -0.020686
   30  C  2 YZ    0.007812   0.005532
   31  F  3  S    0.003017  -0.007448
   32  F  3  S   -0.076444  -0.047219
   33  F  3  S    0.361635   0.446551
   34  F  3  X   -0.160538  -0.128981
   35  F  3  Y    0.129499   0.207240
   36  F  3  Z   -0.104761  -0.101265
   37  F  3  X    0.036334   0.044083
   38  F  3  Y    0.006562  -0.048986
   39  F  3  Z    0.001449  -0.023903
   40  F  3 XX    0.009463  -0.001443
   41  F  3 YY    0.004347   0.014729
   42  F  3 ZZ   -0.013809  -0.013285
   43  F  3 XY   -0.024290  -0.040519
   44  F  3 XZ    0.016785   0.013865
   45  F  3 YZ   -0.021967  -0.020164
   46  H  4  S    0.013243  -0.153331
   47  H  4  S   -0.108870  -0.036404
   48  H  4  X   -0.028415  -0.002300
   49  H  4  Y   -0.006895   0.001726
   50  H  4  Z    0.018427  -0.007583
   51  H  5  S   -0.276504  -0.048994
   52  H  5  S   -0.007573  -0.131701
   53  H  5  X    0.006471  -0.023020
   54  H  5  Y    0.009785   0.001547
   55  H  5  Z   -0.013407   0.024670
   56  F  6  S   -0.001729  -0.007914
   57  F  6  S    0.083823  -0.032870
   58  F  6  S   -0.434463   0.376068
   59  F  6  X   -0.187100   0.105917
   60  F  6  Y   -0.165065   0.182000
   61  F  6  Z   -0.109748   0.068527
   62  F  6  X    0.043413  -0.038964
   63  F  6  Y   -0.000120  -0.046347
   64  F  6  Z   -0.002270   0.026722
   65  F  6 XX   -0.011151  -0.000592
   66  F  6 YY   -0.007536   0.012948
   67  F  6 ZZ    0.018688  -0.012356
   68  F  6 XY   -0.032149   0.036941
   69  F  6 XZ   -0.017829   0.008799
   70  F  6 YZ   -0.022577   0.013637
   71  H  7  S    0.017240  -0.152816
   72  H  7  S    0.112474  -0.016614
   73  H  7  X   -0.027999  -0.002641
   74  H  7  Y    0.008707   0.003755
   75  H  7  Z    0.016179   0.010560
   76  H  8  S    0.280348   0.001464
   77  H  8  S    0.029219  -0.128525
   78  H  8  X    0.001944   0.023735
   79  H  8  Y   -0.010478  -0.003027
   80  H  8  Z   -0.008282  -0.026609

     ---------------------------------------------------------------------
     PROPERTIES FOR THE PBE      DFT FUNCTIONAL (RHF  TYPE) DENSITY MATRIX
     ---------------------------------------------------------------------

          -----------------
          ENERGY COMPONENTS
          -----------------

         WAVEFUNCTION NORMALIZATION =       1.0000000000

                ONE ELECTRON ENERGY =    -634.2561988892
                TWO ELECTRON ENERGY =     230.0907845812
           NUCLEAR REPULSION ENERGY =     126.2279822784
                                      ------------------
                       TOTAL ENERGY =    -277.9374320297

 ELECTRON-ELECTRON POTENTIAL ENERGY =     230.0907845812
  NUCLEUS-ELECTRON POTENTIAL ENERGY =    -911.3328695670
   NUCLEUS-NUCLEUS POTENTIAL ENERGY =     126.2279822784
                                      ------------------
             TOTAL POTENTIAL ENERGY =    -555.0141027075
               TOTAL KINETIC ENERGY =     277.0766706778
                 VIRIAL RATIO (V/T) =       2.0031065818

          ---------------------------------------
          MULLIKEN AND LOWDIN POPULATION ANALYSES
          ---------------------------------------

     ATOMIC MULLIKEN POPULATION IN EACH MOLECULAR ORBITAL

                      1          2          3          4          5

                  2.000000   2.000000   2.000000   2.000000   2.000000

    1             0.000156   0.000983   1.418150   0.581622   0.114073
    2             0.000939   0.000201   0.581175   1.418603   0.115142
    3             1.610113   0.388764  -0.000159  -0.000351   0.882401
    4            -0.000003  -0.000007   0.000204   0.000129   0.003041
    5            -0.000006  -0.000001   0.000271   0.000130   0.005502
    6             0.388796   1.610082  -0.000372  -0.000137   0.871384
    7             0.000004  -0.000015   0.000327   0.000007   0.003008
    8             0.000001  -0.000008   0.000403  -0.000003   0.005449

                      6          7          8          9         10

                  2.000000   2.000000   2.000000   2.000000   2.000000

    1             0.085539   0.713595   0.471968   0.409525   0.433662
    2             0.084591   0.713505   0.472333   0.395660   0.446467
    3             0.906003   0.150089   0.268980   0.464889   0.352763
    4             0.002226   0.073048   0.118041   0.154773   0.024642
    5             0.001118   0.063015   0.141435   0.003355   0.156288
    6             0.917127   0.150330   0.268097   0.396129   0.421795
    7             0.002255   0.073340   0.117806   0.169619   0.010157
    8             0.001141   0.063078   0.141339   0.006051   0.154226

                     11         12         13         14         15

                  2.000000   2.000000   2.000000   2.000000   2.000000

    1             0.454882   0.300584   0.336382   0.050836   0.131438
    2             0.454842   0.300281   0.337091   0.050971   0.126668
    3             0.509238   0.493221   0.446460   0.922211   0.596263
    4             0.032039   0.204722   0.007212   0.010311   0.068357
    5             0.003163   0.002191   0.210882   0.016616   0.187127
    6             0.510941   0.491760   0.444082   0.922295   0.625745
    7             0.031739   0.204941   0.007086   0.010228   0.072598
    8             0.003155   0.002300   0.210805   0.016531   0.191804

                     16         17

                  2.000000   2.000000

    1             0.121374   0.250252
    2             0.126840   0.250179
    3             0.706201   0.629269
    4             0.118859   0.089771
    5             0.069527   0.030476
    6             0.678451   0.629869
    7             0.114518   0.089721
    8             0.064230   0.030463

               ----- POPULATIONS IN EACH AO -----
                             MULLIKEN      LOWDIN
              1  C  1  S      1.99339     1.97164
              2  C  1  S      0.75968     0.38538
              3  C  1  S      0.36823     0.27933
              4  C  1  X      0.68118     0.62299
              5  C  1  Y      0.64158     0.58033
              6  C  1  Z      0.74461     0.67201
              7  C  1  X      0.16831     0.27806
              8  C  1  Y      0.18275     0.29778
              9  C  1  Z      0.27132     0.36229
             10  C  1 XX      0.01361     0.16135
             11  C  1 YY      0.01548     0.16229
             12  C  1 ZZ      0.01679     0.16173
             13  C  1 XY      0.01077     0.03327
             14  C  1 XZ      0.00733     0.02156
             15  C  1 YZ      0.00000     0.01354
             16  C  2  S      1.99339     1.97164
             17  C  2  S      0.75966     0.38539
             18  C  2  S      0.36848     0.27934
             19  C  2  X      0.68958     0.62989
             20  C  2  Y      0.64219     0.58095
             21  C  2  Z      0.73557     0.66458
             22  C  2  X      0.17431     0.28401
             23  C  2  Y      0.18412     0.29897
             24  C  2  Z      0.26419     0.35529
             25  C  2 XX      0.01376     0.16052
             26  C  2 YY      0.01475     0.16169
             27  C  2 ZZ      0.01673     0.16187
             28  C  2 XY      0.01088     0.03369
             29  C  2 XZ      0.00789     0.02171
             30  C  2 YZ      0.00000     0.01466
             31  F  3  S      1.99544     1.97164
             32  F  3  S      0.94941     0.75200
             33  F  3  S      0.99777     0.52503
             34  F  3  X      1.13280     1.09614
             35  F  3  Y      1.08956     1.04889
             36  F  3  Z      1.19021     1.15772
             37  F  3  X      0.65100     0.67919
             38  F  3  Y      0.62415     0.66121
             39  F  3  Z      0.68563     0.71457
             40  F  3 XX      0.00142     0.19168
             41  F  3 YY      0.00221     0.19290
             42  F  3 ZZ      0.00328     0.18998
             43  F  3 XY      0.00152     0.00406
             44  F  3 XZ      0.00196     0.00206
             45  F  3 YZ      0.00000     0.00273
             46  H  4  S      0.77169     0.64934
             47  H  4  S      0.11888     0.21657
             48  H  4  X      0.00456     0.01019
             49  H  4  Y      0.00910     0.01926
             50  H  4  Z      0.00314     0.00808
             51  H  5  S      0.76562     0.64727
             52  H  5  S      0.10865     0.21707
             53  H  5  X      0.00286     0.00814
             54  H  5  Y      0.00276     0.00657
             55  H  5  Z      0.01121     0.02369
             56  F  6  S      1.99544     1.97164
             57  F  6  S      0.94943     0.75204
             58  F  6  S      0.99782     0.52509
             59  F  6  X      1.12309     1.08568
             60  F  6  Y      1.08892     1.04822
             61  F  6  Z      1.20053     1.16886
             62  F  6  X      0.64522     0.67414
             63  F  6  Y      0.62402     0.66130
             64  F  6  Z      0.69152     0.71950
             65  F  6 XX      0.00142     0.19201
             66  F  6 YY      0.00227     0.19296
             67  F  6 ZZ      0.00347     0.18968
             68  F  6 XY      0.00146     0.00425
             69  F  6 XZ      0.00176     0.00203
             70  F  6 YZ      0.00000     0.00253
             71  H  7  S      0.77178     0.64944
             72  H  7  S      0.11876     0.21648
             73  H  7  X      0.00423     0.00960
             74  H  7  Y      0.00927     0.01959
             75  H  7  Z      0.00330     0.00836
             76  H  8  S      0.76557     0.64738
             77  H  8  S      0.10857     0.21709
             78  H  8  X      0.00278     0.00799
             79  H  8  Y      0.00262     0.00634
             80  H  8  Z      0.01143     0.02410

          ----- MULLIKEN ATOMIC OVERLAP POPULATIONS -----
          (OFF-DIAGONAL ELEMENTS NEED TO BE MULTIPLIED BY 2)

             1           2           3           4           5

    1    4.6129556
    2    0.3931625   4.6135890
    3   -0.0409638   0.2450961   9.1740398
    4   -0.0330964   0.3608538  -0.0295107   0.6346187
    5   -0.0376647   0.3746540  -0.0297196  -0.0327234   0.6038748
    6    0.2451356  -0.0410624   0.0008358   0.0039568   0.0026256
    7    0.3607486  -0.0330725   0.0039559   0.0058864  -0.0026366
    8    0.3747434  -0.0377311   0.0026239  -0.0026202   0.0126788

             6           7           8

    6    9.1740168
    7   -0.0294518   0.6346249
    8   -0.0296818  -0.0327140   0.6036647

          TOTAL MULLIKEN AND LOWDIN ATOMIC POPULATIONS
       ATOM         MULL.POP.    CHARGE          LOW.POP.     CHARGE
    1 C             5.875021    0.124979         6.003561   -0.003561
    2 C             5.875489    0.124511         6.004181   -0.004181
    3 F             9.326357   -0.326357         9.189790   -0.189790
    4 H             0.907365    0.092635         0.903441    0.096559
    5 H             0.891089    0.108911         0.902743    0.097257
    6 F             9.326374   -0.326374         9.189908   -0.189908
    7 H             0.907341    0.092659         0.903469    0.096531
    8 H             0.890964    0.109036         0.902907    0.097093

          MULLIKEN SPHERICAL HARMONIC POPULATIONS
       ATOM           S       P       D      F      G      H      I    TOTAL
    1 C             3.12    2.69    0.06   0.00   0.00   0.00   0.00    5.88
    2 C             3.12    2.69    0.06   0.00   0.00   0.00   0.00    5.88
    3 F             3.94    5.37    0.01   0.00   0.00   0.00   0.00    9.33
    4 H             0.89    0.02    0.00   0.00   0.00   0.00   0.00    0.91
    5 H             0.87    0.02    0.00   0.00   0.00   0.00   0.00    0.89
    6 F             3.94    5.37    0.01   0.00   0.00   0.00   0.00    9.33
    7 H             0.89    0.02    0.00   0.00   0.00   0.00   0.00    0.91
    8 H             0.87    0.02    0.00   0.00   0.00   0.00   0.00    0.89

          -------------------------------
          BOND ORDER AND VALENCE ANALYSIS     BOND ORDER THRESHOLD=0.050
          -------------------------------

                   BOND                       BOND                       BOND
  ATOM PAIR DIST  ORDER      ATOM PAIR DIST  ORDER      ATOM PAIR DIST  ORDER
    1   2  1.508  1.052        1   6  1.399  0.920        1   7  1.109  0.935
    1   8  1.107  0.933        2   3  1.399  0.920        2   4  1.109  0.935
    2   5  1.107  0.933

                       TOTAL       BONDED        FREE
      ATOM            VALENCE     VALENCE     VALENCE
    1 C                 3.857       3.857      -0.000
    2 C                 3.857       3.857      -0.000
    3 F                 0.980       0.980      -0.000
    4 H                 0.956       0.956      -0.000
    5 H                 0.964       0.964      -0.000
    6 F                 0.980       0.980      -0.000
    7 H                 0.956       0.956       0.000
    8 H                 0.964       0.964      -0.000

          ---------------------
          ELECTROSTATIC MOMENTS
          ---------------------

 POINT   1           X           Y           Z (BOHR)    CHARGE
                 0.000000   -0.000000   -0.000000       -0.00 (A.U.)
         DX          DY          DZ         /D/  (DEBYE)
    -0.050038   -2.508954    0.084538    2.510877
 ...... END OF PROPERTY EVALUATION ......
 STEP CPU TIME =     0.03 TOTAL CPU TIME =         93.0 (      1.6 MIN)
 TOTAL WALL CLOCK TIME=         93.7 SECONDS, CPU UTILIZATION IS    99.28%
  $VIB   
          IVIB=   0 IATOM=   0 ICOORD=   0 E=     -277.9374320297
  5.051951106E-05 2.050448912E-05 2.538293853E-05-1.261132573E-05-4.612953564E-05
 -5.573643906E-05 9.035584810E-06 2.428289485E-05 2.341054866E-05 2.511737294E-05
 -1.770449741E-06 1.109468165E-05-1.248299442E-05 2.210121465E-05 2.970054813E-07
 -8.564940608E-06 9.934963449E-06 1.129925741E-05-2.338492952E-05-1.024188835E-05
 -1.107015248E-05-2.762827853E-05-1.868168835E-05-4.677840197E-06
 -5.003833136E-02-2.508954145E+00 8.453806008E-02
 ......END OF GEOMETRY SEARCH......
 STEP CPU TIME =     0.00 TOTAL CPU TIME =         93.0 (      1.6 MIN)
 TOTAL WALL CLOCK TIME=         93.7 SECONDS, CPU UTILIZATION IS    99.27%
                991181  WORDS OF DYNAMIC MEMORY USED
 EXECUTION OF GAMESS TERMINATED NORMALLY Sun Oct  6 23:33:22 2019
 DDI: 263640 bytes (0.3 MB / 0 MWords) used by master data server.

 ----------------------------------------
 CPU timing information for all processes
 ========================================
 0: 91.255 + 1.761 = 93.16
 ----------------------------------------
 ddikick.x: exited gracefully.
----- accounting info -----
Files used on the master node d12chas543.crc.nd.edu were:
-rw-r--r-- 1 wschnei1 campus 378327 Oct  6 23:33 /scratch365/wschnei1/80-PC1.F07
Sun Oct  6 23:33:25 EDT 2019
0.438u 0.352s 1:37.41 0.8%	0+0k 0+32io 0pf+0w
