----- GAMESS execution script 'rungms' -----
This job is running on host d12chas543.crc.nd.edu
under operating system Linux at Sun Oct 6 23:33:26 EDT 2019
SGE has assigned the following compute nodes to this run:
Available scratch disk space (Kbyte units) at beginning of the job is
Filesystem      1K-blocks     Used  Available Use% Mounted on
/dev/sda2      1949705068 64393420 1885311648   4% /
GAMESS temporary binary files will be written to /tmp/474112.1.debug
GAMESS supplementary output files will be written to /afs/crc.nd.edu/user/w/wschnei1/scr
Copying input file 90-PC1.inp to your run's scratch directory...
reading your own /afs/crc.nd.edu/user/w/wschnei1/.gmsrc

 Distributed Data Interface kickoff program.
 Initiating 1 compute processes on 1 nodes to run the following command:
 /afs/crc.nd.edu/x86_64_linux/g/gamess/nov-2017/gamess/gamess.00.x 90-PC1 

          ******************************************************
          *         GAMESS VERSION = 11 NOV 2017 (R3)         *
          *             FROM IOWA STATE UNIVERSITY             *
          * M.W.SCHMIDT, K.K.BALDRIDGE, J.A.BOATZ, S.T.ELBERT, *
          *   M.S.GORDON, J.H.JENSEN, S.KOSEKI, N.MATSUNAGA,   *
          *          K.A.NGUYEN, S.J.SU, T.L.WINDUS,           *
          *       TOGETHER WITH M.DUPUIS, J.A.MONTGOMERY       *
          *         J.COMPUT.CHEM.  14, 1347-1363(1993)        *
          **************** 64 BIT INTEL VERSION ****************

  SINCE 1993, STUDENTS AND POSTDOCS WORKING AT IOWA STATE UNIVERSITY
  AND ALSO IN THEIR VARIOUS JOBS AFTER LEAVING ISU HAVE MADE IMPORTANT
  CONTRIBUTIONS TO THE CODE:
     IVANA ADAMOVIC, CHRISTINE AIKENS, YURI ALEXEEV, POOJA ARORA,
     ANDREY ASADCHEV, ROB BELL, PRADIPTA BANDYOPADHYAY, JONATHAN BENTZ,
     BRETT BODE, KURT BRORSEN, CALEB CARLIN, GALINA CHABAN, WEI CHEN,
     CHEOL HO CHOI, PAUL DAY, ALBERT DEFUSCO, NUWAN DESILVA, TIM DUDLEY,
     DMITRI FEDOROV, ALEX FINDLATER, GRAHAM FLETCHER, MARK FREITAG,
     KURT GLAESEMANN, ANASTASIA GUININA,
     DAN KEMP, GRANT MERRILL, NORIYUKI MINEZAWA, JONATHAN MULLIN,
     TAKESHI NAGATA, SEAN NEDD, HEATHER NETZLOFF, BOSILJKA NJEGIC, RYAN OLSON,
     MIKE PAK, BUU PHAM,
     SPENCER PRUITT, LUKE ROSKOP, JIM SHOEMAKER, LYUDMILA SLIPCHENKO,
     TONY SMITH, SAROM SOK LEANG, JIE SONG, TETSUYA TAKETSUGU, SIMON WEBB,
     PENG XU, SOOHAENG YOO, FEDERICO ZAHARIEV

  ADDITIONAL CODE HAS BEEN PROVIDED BY COLLABORATORS IN OTHER GROUPS:
     IOWA STATE UNIVERSITY:
          JOE IVANIC, AARON WEST, LAIMUTIS BYTAUTAS, KLAUS RUEDENBERG
     UNIVERSITY OF TOKYO: KIMIHIKO HIRAO, TAKAHITO NAKAJIMA,
          TAKAO TSUNEDA, MUNEAKI KAMIYA, SUSUMU YANAGISAWA,
          KIYOSHI YAGI, MAHITO CHIBA, SEIKEN TOKURA, NAOAKI KAWAKAMI
     UNIVERSITY OF AARHUS: FRANK JENSEN
     UNIVERSITY OF IOWA: VISVALDAS KAIRYS, HUI LI
     NATIONAL INST. OF STANDARDS AND TECHNOLOGY: WALT STEVENS, DAVID GARMER
     UNIVERSITY OF PISA: BENEDETTA MENNUCCI, JACOPO TOMASI
     UNIVERSITY OF MEMPHIS: HENRY KURTZ, PRAKASHAN KORAMBATH
     UNIVERSITY OF ALBERTA: TOBY ZENG, MARIUSZ KLOBUKOWSKI
     UNIVERSITY OF NEW ENGLAND: MARK SPACKMAN
     MIE UNIVERSITY: HIROAKI UMEDA
     NAT. INST. OF ADVANCED INDUSTRIAL SCIENCE AND TECHNOLOGY: KAZUO KITAURA
     MICHIGAN STATE UNIVERSITY:
          KAROL KOWALSKI, MARTA WLOCH, JEFFREY GOUR, JESSE LUTZ,
          WEI LI, PIOTR PIECUCH
     UNIVERSITY OF SILESIA: MONIKA MUSIAL, STANISLAW KUCHARSKI
     FACULTES UNIVERSITAIRES NOTRE-DAME DE LA PAIX:
          OLIVIER QUINET, BENOIT CHAMPAGNE
     UNIVERSITY OF CALIFORNIA - SANTA BARBARA: BERNARD KIRTMAN
     INSTITUTE FOR MOLECULAR SCIENCE:
          KAZUYA ISHIMURA, MICHIO KATOUDA, AND SHIGERU NAGASE
     UNIVERSITY OF NOTRE DAME: ANNA POMOGAEVA, DAN CHIPMAN
     KYUSHU UNIVERSITY:
          HARUYUKI NAKANO,
          FENG LONG GU, JACEK KORCHOWIEC, MARCIN MAKOWSKI, AND YURIKO AOKI,
          HIROTOSHI MORI AND EISAKU MIYOSHI
     PENNSYLVANIA STATE UNIVERSITY:
          TZVETELIN IORDANOV, CHET SWALINA, JONATHAN SKONE,
          SHARON HAMMES-SCHIFFER
     WASEDA UNIVERSITY:
          MASATO KOBAYASHI, TOMOKO AKAMA, TSUGUKI TOUMA,
          TAKESHI YOSHIKAWA, YASUHIRO IKABATA, JUNJI SEINO,
          YUYA NAKAJIMA, HIROMI NAKAI
     NANJING UNIVERSITY: SHUHUA LI
     UNIVERSITY OF NEBRASKA:
          PEIFENG SU, DEJUN SI, NANDUN THELLAMUREGE, YALI WANG, HUI LI
     UNIVERSITY OF ZURICH: ROBERTO PEVERATI, KIM BALDRIDGE
     N. COPERNICUS UNIVERSITY AND JACKSON STATE UNIVERSITY:
          MARIA BARYSZ
     UNIVERSITY OF COPENHAGEN: Jimmy Kromann, CASPER STEINMANN
     TOKYO INSTITUTE OF TECHNOLOGY: HIROYA NAKATA
     NAGOYA UNIVERSITY: YOSHIO NISHIMOTO, STEPHAN IRLE
     MOSCOW STATE UNIVERSITY: VLADIMIR MIRONOV

 EXECUTION OF GAMESS BEGUN Sun Oct  6 23:33:26 2019

            ECHO OF THE FIRST FEW INPUT CARDS -
 INPUT CARD> $CONTRL SCFTYP=RHF DFTTYP=PBE RUNTYP=OPTIMIZE COORD=ZMT NZVAR=18 ISPHER=1 $END 
 INPUT CARD> $BASIS GBASIS=PCseg-1 $END                                                     
 INPUT CARD> $STATPT IFREEZ(1)=12 $END                                                      
 INPUT CARD> $DATA                                                                          
 INPUT CARD>FCH2CH2F eclipsed TS                                                            
 INPUT CARD>C1                                                                              
 INPUT CARD>C                                                                               
 INPUT CARD>C   1   r1                                                                      
 INPUT CARD>F   2   r2   1   A1                                                             
 INPUT CARD>H   2   r3   1   A2   3   D1                                                    
 INPUT CARD>H   2   r4   1   A3   3   D2                                                    
 INPUT CARD>F   1   r5   2   A4   3   D3                                                    
 INPUT CARD>H   1   r6   2   A5   6   D4                                                    
 INPUT CARD>H   1   r7   2   A6   6   D5                                                    
 INPUT CARD>                                                                                
 INPUT CARD>r1=1.5                                                                          
 INPUT CARD>r2=1.4                                                                          
 INPUT CARD>r3=1.1                                                                          
 INPUT CARD>r4=1.1                                                                          
 INPUT CARD>r5=1.5                                                                          
 INPUT CARD>r6=1.1                                                                          
 INPUT CARD>r7=1.1                                                                          
 INPUT CARD>A1=109.54214                                                                    
 INPUT CARD>A2=109.54214                                                                    
 INPUT CARD>A3=109.54214                                                                    
 INPUT CARD>A4=109.54214                                                                    
 INPUT CARD>A5=109.54214                                                                    
 INPUT CARD>A6=109.54214                                                                    
 INPUT CARD>D1=120.                                                                         
 INPUT CARD>D2=-120.                                                                        
 INPUT CARD>D3=90                                                                           
 INPUT CARD>D4=120.                                                                         
 INPUT CARD>D5=-120.                                                                        
 INPUT CARD> $END                                                                           
 INPUT CARD>                                                                                
    1000000 WORDS OF MEMORY AVAILABLE

     BASIS OPTIONS
     -------------
     GBASIS=PCSEG-1      IGAUSS=       0      POLAR=NONE    
     NDFUNC=       0     NFFUNC=       0     DIFFSP=       F
     NPFUNC=       0      DIFFS=       F     BASNAM=        


     RUN TITLE
     ---------
 FCH2CH2F eclipsed TS                                                            

 THE POINT GROUP OF THE MOLECULE IS C1      
 THE ORDER OF THE PRINCIPAL AXIS IS     0

 YOUR FULLY SUBSTITUTED Z-MATRIX IS
 C   
 C      1   1.5000000
 F      2   1.4000000  1  109.5421
 H      2   1.1000000  1  109.5421  3  120.0000  0
 H      2   1.1000000  1  109.5421  3 -120.0000  0
 F      1   1.5000000  2  109.5421  3   90.0000  0
 H      1   1.1000000  2  109.5421  6  120.0000  0
 H      1   1.1000000  2  109.5421  6 -120.0000  0

 THE MOMENTS OF INERTIA ARE (AMU-ANGSTROM**2)
 IXX=    28.063   IYY=   114.206   IZZ=   123.803

 ATOM      ATOMIC                      COORDINATES (BOHR)
           CHARGE         X                   Y                   Z
 C           6.0     1.1234256160       -1.0802389085       -0.7394794818
 C           6.0    -1.2520894843       -0.9333212227        0.8000782133
 F           9.0    -2.9029265447        0.8259910695       -0.2856672926
 H           1.0    -2.1661049365       -2.7996704263        0.8480804714
 H           1.0    -0.7891296696       -0.3411720742        2.7381224361
 F           9.0     3.0021224444        0.8061825961        0.2335605113
 H           1.0     1.9273056174       -2.9918960161       -0.5968896505
 H           1.0     0.6899765064       -0.6600743169       -2.7285927010

          INTERNUCLEAR DISTANCES (ANGS.)
          ------------------------------

                1 C          2 C          3 F          4 H          5 H     

   1 C       0.0000000    1.5000000 *  2.3695781 *  2.1363170 *  2.1363170 *
   2 C       1.5000000 *  0.0000000    1.4000000 *  1.1000000 *  1.1000000 *
   3 F       2.3695781 *  1.4000000 *  0.0000000    2.0476979 *  2.0476979 *
   4 H       2.1363170 *  1.1000000 *  2.0476979 *  0.0000000    1.7955050 *
   5 H       2.1363170 *  1.1000000 *  2.0476979 *  1.7955050 *  0.0000000  
   6 F       1.5000000 *  2.4505612 *  3.1368917    3.3505899    2.4799645 *
   7 H       1.1000000 *  2.1363170 *  3.2622507    2.2993893 *  2.6736632 *
   8 H       1.1000000 *  2.1363170 *  2.4299107 *  2.6736632 *  3.0016260  

                6 F          7 H          8 H     

   1 C       1.5000000 *  1.1000000 *  1.1000000 *
   2 C       2.4505612 *  2.1363170 *  2.1363170 *
   3 F       3.1368917    3.2622507    2.4299107 *
   4 H       3.3505899    2.2993893 *  2.6736632 *
   5 H       2.4799645 *  2.6736632 *  3.0016260  
   6 F       0.0000000    2.1345124 *  2.1345124 *
   7 H       2.1345124 *  0.0000000    1.7955050 *
   8 H       2.1345124 *  1.7955050 *  0.0000000  

  * ... LESS THAN  3.000


     ATOMIC BASIS SET
     ----------------
 THE CONTRACTED PRIMITIVE FUNCTIONS HAVE BEEN UNNORMALIZED
 THE CONTRACTED BASIS FUNCTIONS ARE NOW NORMALIZED TO UNITY

  SHELL TYPE  PRIMITIVE        EXPONENT          CONTRACTION COEFFICIENT(S)

 C         

      1   S       1          1243.2000000    0.005630097702
      1   S       2           187.1450000    0.041950603854
      1   S       3            42.5126000    0.184664360492
      1   S       4            11.7393000    0.466557421368
      1   S       5             3.5054800    0.448234778316

      2   S       6             5.3908900   -0.148114817444
      2   S       7             0.4933410    1.051981714281

      3   S       8             0.1497410    1.000000000000

      4   P       9             9.1805600    0.063992052045
      4   P      10             1.9365800    0.333521296407
      4   P      11             0.5262960    0.741161730513

      5   P      12             0.1363190    1.000000000000

      6   D      13             0.8000000    1.000000000000

 C         

      7   S      14          1243.2000000    0.005630097702
      7   S      15           187.1450000    0.041950603854
      7   S      16            42.5126000    0.184664360492
      7   S      17            11.7393000    0.466557421368
      7   S      18             3.5054800    0.448234778316

      8   S      19             5.3908900   -0.148114817444
      8   S      20             0.4933410    1.051981714281

      9   S      21             0.1497410    1.000000000000

     10   P      22             9.1805600    0.063992052045
     10   P      23             1.9365800    0.333521296407
     10   P      24             0.5262960    0.741161730513

     11   P      25             0.1363190    1.000000000000

     12   D      26             0.8000000    1.000000000000

 F         

     13   S      27          2931.5500000    0.005390132259
     13   S      28           441.1250000    0.040296704072
     13   S      29           100.2320000    0.180202178717
     13   S      30            27.8655000    0.465064284210
     13   S      31             8.4447000    0.452433138251

     14   S      32            13.6123000   -0.151660908297
     14   S      33             1.2612200    1.053515343452

     15   S      34             0.3708000    1.000000000000

     16   P      35            21.9305000    0.070356827475
     16   P      36             4.7855200    0.356742371235
     16   P      37             1.2837800    0.719732016372

     17   P      38             0.3115580    1.000000000000

     18   D      39             1.1000000    1.000000000000

 H         

     19   S      40            12.2518000    0.037217389296
     19   S      41             1.8687100    0.253808206955
     19   S      42             0.4182080    0.797386763917

     20   S      43             0.1061000    1.000000000000

     21   P      44             1.0000000    1.000000000000

 H         

     22   S      45            12.2518000    0.037217389296
     22   S      46             1.8687100    0.253808206955
     22   S      47             0.4182080    0.797386763917

     23   S      48             0.1061000    1.000000000000

     24   P      49             1.0000000    1.000000000000

 F         

     25   S      50          2931.5500000    0.005390132259
     25   S      51           441.1250000    0.040296704072
     25   S      52           100.2320000    0.180202178717
     25   S      53            27.8655000    0.465064284210
     25   S      54             8.4447000    0.452433138251

     26   S      55            13.6123000   -0.151660908297
     26   S      56             1.2612200    1.053515343452

     27   S      57             0.3708000    1.000000000000

     28   P      58            21.9305000    0.070356827475
     28   P      59             4.7855200    0.356742371235
     28   P      60             1.2837800    0.719732016372

     29   P      61             0.3115580    1.000000000000

     30   D      62             1.1000000    1.000000000000

 H         

     31   S      63            12.2518000    0.037217389296
     31   S      64             1.8687100    0.253808206955
     31   S      65             0.4182080    0.797386763917

     32   S      66             0.1061000    1.000000000000

     33   P      67             1.0000000    1.000000000000

 H         

     34   S      68            12.2518000    0.037217389296
     34   S      69             1.8687100    0.253808206955
     34   S      70             0.4182080    0.797386763917

     35   S      71             0.1061000    1.000000000000

     36   P      72             1.0000000    1.000000000000

 TOTAL NUMBER OF BASIS SET SHELLS             =   36
 NUMBER OF CARTESIAN GAUSSIAN BASIS FUNCTIONS =   80
 NOTE: THIS RUN WILL RESTRICT THE MO VARIATION SPACE TO SPHERICAL HARMONICS.
 THE NUMBER OF ORBITALS KEPT IN THE VARIATIONAL SPACE WILL BE PRINTED LATER.
 NUMBER OF ELECTRONS                          =   34
 CHARGE OF MOLECULE                           =    0
 SPIN MULTIPLICITY                            =    1
 NUMBER OF OCCUPIED ORBITALS (ALPHA)          =   17
 NUMBER OF OCCUPIED ORBITALS (BETA )          =   17
 TOTAL NUMBER OF ATOMS                        =    8
 THE NUCLEAR REPULSION ENERGY IS      124.3044249499

     LEBEDEV GRID-BASED DFT OPTIONS
     ------------------------------
     DFTTYP=PBE     
     NRAD  =      96     NLEB  =     302
     NRAD0 =      24     NLEB0 =     110
     SWOFF =    5.00E-03 (PURE SCF -> DFT)
     SWITCH=    3.00E-04 (COARSE -> TIGHT GRID)
     THRESH=    0.00E+00 GTHRE=    1.00E+00

 GRIMME'S EMPIRICAL DISPERSION CORRECTION= F

     $CONTRL OPTIONS
     ---------------
 SCFTYP=RHF          RUNTYP=OPTIMIZE     EXETYP=RUN     
 MPLEVL=       0     CITYP =NONE         CCTYP =NONE         VBTYP =NONE    
 DFTTYP=PBE          TDDFT =NONE    
 MULT  =       1     ICHARG=       0     NZVAR =      18     COORD =ZMT     
 PP    =NONE         RELWFN=NONE         LOCAL =NONE         NUMGRD=       F
 ISPHER=       1     NOSYM =       0     MAXIT =      30     UNITS =ANGS    
 PLTORB=       F     MOLPLT=       F     AIMPAC=       F     FRIEND=        
 NPRINT=       7     IREST =       0     GEOM  =INPUT   
 NORMF =       0     NORMP =       0     ITOL  =      20     ICUT  =       9
 INTTYP=BEST         GRDTYP=BEST         QMTTOL= 1.0E-06

     $SYSTEM OPTIONS
     ---------------
  REPLICATED MEMORY=     1000000 WORDS (ON EVERY NODE).
 DISTRIBUTED MEMDDI=           0 MILLION WORDS IN AGGREGATE,
 MEMDDI DISTRIBUTED OVER   1 PROCESSORS IS           0 WORDS/PROCESSOR.
 TOTAL MEMORY REQUESTED ON EACH PROCESSOR=     1000000 WORDS.
 TIMLIM=      525600.00 MINUTES, OR     365.0 DAYS.
 PARALL= F  BALTYP=  DLB     KDIAG=    0  COREFL= F
 MXSEQ2=     300 MXSEQ3=     150  mem10=         0

          ----------------
          PROPERTIES INPUT
          ----------------

     MOMENTS            FIELD           POTENTIAL          DENSITY
 IEMOM =       1   IEFLD =       0   IEPOT =       0   IEDEN =       0
 WHERE =COMASS     WHERE =NUCLEI     WHERE =NUCLEI     WHERE =NUCLEI  
 OUTPUT=BOTH       OUTPUT=BOTH       OUTPUT=BOTH       OUTPUT=BOTH    
 IEMINT=       0   IEFINT=       0                     IEDINT=       0
                                                       MORB  =       0
          EXTRAPOLATION IN EFFECT
          DIIS IN EFFECT
 ORBITAL PRINTING OPTION: NPREO=     1    80     2     1

     -------------------------------
     INTEGRAL TRANSFORMATION OPTIONS
     -------------------------------
     NWORD  =            0
     CUTOFF = 1.0E-09     MPTRAN =       0
     DIRTRF =       F     AOINTS =DUP     

          ----------------------
          INTEGRAL INPUT OPTIONS
          ----------------------
 NOPK  =       1 NORDER=       0 SCHWRZ=       T

   --- ENCODED Z MATRIX ---
 COORD  TYPE   I   J   K   L   M   N
    1      1    2   1
    2      1    3   2
    3      2    3   2   1
    4      1    4   2
    5      2    4   2   1
    6      3    4   2   1   3
    7      1    5   2
    8      2    5   2   1
    9      3    5   2   1   3
   10      1    6   1
   11      2    6   1   2
   12      3    6   1   2   3
   13      1    7   1
   14      2    7   1   2
   15      3    7   1   2   6
   16      1    8   1
   17      2    8   1   2
   18      3    8   1   2   6

 THE DETERMINANT OF THE G MATRIX IS 10**(   -12)


                     --------------------
                     INTERNAL COORDINATES
                     --------------------

                 - - ATOMS - -         COORDINATE      COORDINATE
 NO.   TYPE    I  J  K  L  M  N        (BOHR,RAD)       (ANG,DEG)
 ----------------------------------------------------------------
   1 STRETCH   2  1                     2.8345890       1.5000000
   2 STRETCH   3  2                     2.6456164       1.4000000
   3 BEND      3  2  1                  1.9118710     109.5421400
   4 STRETCH   4  2                     2.0786986       1.1000000
   5 BEND      4  2  1                  1.9118710     109.5421400
   6 TORSION   4  2  1  3               2.0943951     120.0000000
   7 STRETCH   5  2                     2.0786986       1.1000000
   8 BEND      5  2  1                  1.9118710     109.5421400
   9 TORSION   5  2  1  3              -2.0943951    -120.0000000
  10 STRETCH   6  1                     2.8345890       1.5000000
  11 BEND      6  1  2                  1.9118710     109.5421400
  12 TORSION   6  1  2  3               1.5707963      90.0000000
  13 STRETCH   7  1                     2.0786986       1.1000000
  14 BEND      7  1  2                  1.9118710     109.5421400
  15 TORSION   7  1  2  6               2.0943951     120.0000000
  16 STRETCH   8  1                     2.0786986       1.1000000
  17 BEND      8  1  2                  1.9118710     109.5421400
  18 TORSION   8  1  2  6              -2.0943951    -120.0000000

     ------------------------------------------
     THE POINT GROUP IS C1 , NAXIS= 0, ORDER= 1
     ------------------------------------------

 -- VARIATIONAL SPACE WILL BE RESTRICTED TO PURE SPHERICAL HARMONICS ONLY --
 AFTER EXCLUDING CONTAMINANT COMBINATIONS FROM THE CARTESIAN GAUSSIAN BASIS
 SET, THE NUMBER OF SPHERICAL HARMONICS KEPT IN THE VARIATION SPACE IS   76

     DIMENSIONS OF THE SYMMETRY SUBSPACES ARE
 A   =   76

 ..... DONE SETTING UP THE RUN .....
 STEP CPU TIME =     0.01 TOTAL CPU TIME =          0.0 (      0.0 MIN)
 TOTAL WALL CLOCK TIME=          0.0 SECONDS, CPU UTILIZATION IS    33.33%


          -----------------------------
          STATIONARY POINT LOCATION RUN
          -----------------------------

 OBTAINING INITIAL HESSIAN, HESS=GUESS   
 DIAGONAL GUESS HESSIAN IN INTERNAL COORDS IS
     1  0.3892     2  0.3267     3  0.2379     4  0.3397     5  0.2253
     6  0.2500     7  0.3397     8  0.2253     9  0.2500    10  0.2690
    11  0.2315    12  0.2500    13  0.3397    14  0.2253    15  0.2500
    16  0.3397    17  0.2253    18  0.2500

          PARAMETERS CONTROLLING GEOMETRY SEARCH ARE
          METHOD =QA                  UPHESS =BFGS    
          NNEG   =         0          NFRZ   =         1
          NSTEP  =        50          IFOLOW =         1
          HESS   =GUESS               RESTAR =         F
          IHREP  =         0          HSSEND =         F
          NPRT   =         0          NPUN   =         0
          OPTTOL = 1.000E-04          RMIN   = 1.500E-03
          RMAX   = 1.000E-01          RLIM   = 7.000E-02
          DXMAX  = 3.000E-01          PURIFY =         F
          MOVIE  =         F          TRUPD  =         T
          TRMAX  = 5.000E-01          TRMIN  = 5.000E-02
          ITBMAT =         5          STPT   =         F
          STSTEP = 1.000E-02          PROJCT=          T
          FROZEN COORD(S)=  12

 BEGINNING GEOMETRY SEARCH POINT NSERCH=   0 ...

 COORDINATES OF ALL ATOMS ARE (ANGS)
   ATOM   CHARGE       X              Y              Z
 ------------------------------------------------------------
 C           6.0   0.5944912772  -0.5716378541  -0.3913157181
 C           6.0  -0.6625772691  -0.4938923573   0.4233831881
 F           9.0  -1.5361626837   0.4370956820  -0.1511686321
 H           1.0  -1.1462534519  -1.4815218950   0.4487848910
 H           1.0  -0.4175894678  -0.1805404998   1.4489520988
 F           9.0   1.5886548970   0.4266134886   0.1235949089
 H           1.0   1.0198862851  -1.5832433038  -0.3158604234
 H           1.0   0.3651198697  -0.3492963113  -1.4439091798


                     --------------------
                     INTERNAL COORDINATES
                     --------------------

                 - - ATOMS - -         COORDINATE      COORDINATE
 NO.   TYPE    I  J  K  L  M  N        (BOHR,RAD)       (ANG,DEG)
 ----------------------------------------------------------------
   1 STRETCH   2  1                     2.8345890       1.5000000
   2 STRETCH   3  2                     2.6456164       1.4000000
   3 BEND      3  2  1                  1.9118710     109.5421400
   4 STRETCH   4  2                     2.0786986       1.1000000
   5 BEND      4  2  1                  1.9118710     109.5421400
   6 TORSION   4  2  1  3               2.0943951     120.0000000
   7 STRETCH   5  2                     2.0786986       1.1000000
   8 BEND      5  2  1                  1.9118710     109.5421400
   9 TORSION   5  2  1  3              -2.0943951    -120.0000000
  10 STRETCH   6  1                     2.8345890       1.5000000
  11 BEND      6  1  2                  1.9118710     109.5421400
  12 TORSION   6  1  2  3               1.5707963      90.0000000
  13 STRETCH   7  1                     2.0786986       1.1000000
  14 BEND      7  1  2                  1.9118710     109.5421400
  15 TORSION   7  1  2  6               2.0943951     120.0000000
  16 STRETCH   8  1                     2.0786986       1.1000000
  17 BEND      8  1  2                  1.9118710     109.5421400
  18 TORSION   8  1  2  6              -2.0943951    -120.0000000

 THE CURRENT FULLY SUBSTITUTED Z-MATRIX IS
 C   
 C      1   1.5000000
 F      2   1.4000000  1   109.5421400
 H      2   1.1000000  1   109.5421400  3   120.0000000  0
 H      2   1.1000000  1   109.5421400  3  -120.0000000  0
 F      1   1.5000000  2   109.5421400  3    90.0000000  0
 H      1   1.1000000  2   109.5421400  6   120.0000000  0
 H      1   1.1000000  2   109.5421400  6  -120.0000000  0

          ********************
          1 ELECTRON INTEGRALS
          ********************
 ...... END OF ONE-ELECTRON INTEGRALS ......
 STEP CPU TIME =     0.02 TOTAL CPU TIME =          0.0 (      0.0 MIN)
 TOTAL WALL CLOCK TIME=          0.0 SECONDS, CPU UTILIZATION IS   100.00%

          -------------
          GUESS OPTIONS
          -------------
          GUESS =HUCKEL            NORB  =       0          NORDER=       0
          MIX   =       F          PRTMO =       F          PUNMO =       F
          TOLZ  = 1.0E-08          TOLE  = 1.0E-05
          SYMDEN=       F          PURIFY=       F

 INITIAL GUESS ORBITALS GENERATED BY HUCKEL   ROUTINE.
 HUCKEL GUESS REQUIRES     54920 WORDS.

 STATISTICS FOR GENERATION OF SYMMETRY ORBITAL -Q- MATRIX
 NUMBER OF CARTESIAN ATOMIC ORBITALS=         80
 NUMBER OF SPHERICAL CONTAMINANTS DROPPED=     4
 NUMBER OF LINEARLY DEPENDENT MOS DROPPED=     0
 TOTAL NUMBER OF MOS IN VARIATION SPACE=      76

 SYMMETRIES FOR INITIAL GUESS ORBITALS FOLLOW.   BOTH SET(S).
    17 ORBITALS ARE OCCUPIED (    4 CORE ORBITALS).
     5=A        6=A        7=A        8=A        9=A       10=A       11=A   
    12=A       13=A       14=A       15=A       16=A       17=A       18=A   
    19=A       20=A       21=A       22=A       23=A       24=A       25=A   
    26=A       27=A   
 ...... END OF INITIAL ORBITAL SELECTION ......
 STEP CPU TIME =     0.00 TOTAL CPU TIME =          0.0 (      0.0 MIN)
 TOTAL WALL CLOCK TIME=          0.0 SECONDS, CPU UTILIZATION IS    75.00%

                    ----------------------
                    AO INTEGRAL TECHNOLOGY
                    ----------------------
     S,P,L SHELL ROTATED AXIS INTEGRALS, REPROGRAMMED BY
        KAZUYA ISHIMURA (IMS) AND JOSE SIERRA (SYNSTAR).
     S,P,D,L SHELL ROTATED AXIS INTEGRALS PROGRAMMED BY
        KAZUYA ISHIMURA (INSTITUTE FOR MOLECULAR SCIENCE).
     S,P,D,F,G SHELL TO TOTAL QUARTET ANGULAR MOMENTUM SUM 5,
        ERIC PROGRAM BY GRAHAM FLETCHER (ELORET AND NASA ADVANCED
        SUPERCOMPUTING DIVISION, AMES RESEARCH CENTER).
     S,P,D,F,G,L SHELL GENERAL RYS QUADRATURE PROGRAMMED BY
        MICHEL DUPUIS (PACIFIC NORTHWEST NATIONAL LABORATORY).

          --------------------
          2 ELECTRON INTEGRALS
          --------------------

 THE -PK- OPTION IS OFF, THE INTEGRALS ARE NOT IN SUPERMATRIX FORM.
 STORING   15000 INTEGRALS/RECORD ON DISK, USING 12 BYTES/INTEGRAL.
 TWO ELECTRON INTEGRAL EVALUATION REQUIRES   91062 WORDS OF MEMORY.
 SCHWARZ INEQUALITY OVERHEAD:      3229 INTEGRALS, T=        0.01
 II,JST,KST,LST =  1  1  1  1 NREC =         1 INTLOC =    1
 II,JST,KST,LST =  2  1  1  1 NREC =         1 INTLOC =    2
 II,JST,KST,LST =  3  1  1  1 NREC =         1 INTLOC =    7
 II,JST,KST,LST =  4  1  1  1 NREC =         1 INTLOC =   22
 II,JST,KST,LST =  5  1  1  1 NREC =         1 INTLOC =   67
 II,JST,KST,LST =  6  1  1  1 NREC =         1 INTLOC =  214
 II,JST,KST,LST =  7  1  1  1 NREC =         1 INTLOC = 1189
 II,JST,KST,LST =  8  1  1  1 NREC =         1 INTLOC = 3209
 II,JST,KST,LST =  9  1  1  1 NREC =         1 INTLOC = 5674
 II,JST,KST,LST = 10  1  1  1 NREC =         1 INTLOC = 8599
 II,JST,KST,LST = 11  1  1  1 NREC =         2 INTLOC = 5520
 II,JST,KST,LST = 12  1  1  1 NREC =         3 INTLOC = 8204
 II,JST,KST,LST = 13  1  1  1 NREC =         7 INTLOC = 6119
 II,JST,KST,LST = 14  1  1  1 NREC =         8 INTLOC = 4475
 II,JST,KST,LST = 15  1  1  1 NREC =         9 INTLOC = 5259
 II,JST,KST,LST = 16  1  1  1 NREC =        10 INTLOC = 8118
 II,JST,KST,LST = 17  1  1  1 NREC =        14 INTLOC =10088
 II,JST,KST,LST = 18  1  1  1 NREC =        20 INTLOC = 1140
 II,JST,KST,LST = 19  1  1  1 NREC =        34 INTLOC =12729
 II,JST,KST,LST = 20  1  1  1 NREC =        38 INTLOC =  965
 II,JST,KST,LST = 21  1  1  1 NREC =        41 INTLOC = 7538
 II,JST,KST,LST = 22  1  1  1 NREC =        53 INTLOC = 1214
 II,JST,KST,LST = 23  1  1  1 NREC =        57 INTLOC = 7062
 II,JST,KST,LST = 24  1  1  1 NREC =        62 INTLOC = 2009
 II,JST,KST,LST = 25  1  1  1 NREC =        77 INTLOC =10115
 II,JST,KST,LST = 26  1  1  1 NREC =        80 INTLOC =14060
 II,JST,KST,LST = 27  1  1  1 NREC =        85 INTLOC = 4887
 II,JST,KST,LST = 28  1  1  1 NREC =        91 INTLOC = 8049
 II,JST,KST,LST = 29  1  1  1 NREC =       106 INTLOC =11939
 II,JST,KST,LST = 30  1  1  1 NREC =       130 INTLOC = 2341
 II,JST,KST,LST = 31  1  1  1 NREC =       175 INTLOC =14347
 II,JST,KST,LST = 32  1  1  1 NREC =       186 INTLOC =10260
 II,JST,KST,LST = 33  1  1  1 NREC =       198 INTLOC = 4738
 II,JST,KST,LST = 34  1  1  1 NREC =       230 INTLOC = 5020
 II,JST,KST,LST = 35  1  1  1 NREC =       243 INTLOC =12561
 II,JST,KST,LST = 36  1  1  1 NREC =       258 INTLOC = 1449
 SCHWARZ INEQUALITY TEST SKIPPED       17851 INTEGRAL BLOCKS.
 TOTAL NUMBER OF NONZERO TWO-ELECTRON INTEGRALS =             4510564
        301 INTEGRAL RECORDS WERE STORED ON DISK FILE  8.
  ...... END OF TWO-ELECTRON INTEGRALS .....
 STEP CPU TIME =     0.47 TOTAL CPU TIME =          0.5 (      0.0 MIN)
 TOTAL WALL CLOCK TIME=          0.5 SECONDS, CPU UTILIZATION IS    98.04%

          --------------------------
               R-PBE SCF CALCULATION
          --------------------------

     NUCLEAR ENERGY =       124.3044249499
     MAXIT =   30     NPUNCH=    2
     EXTRAP=T  DAMP=F  SHIFT=F  RSTRCT=F  DIIS=T  DEM=F  SOSCF=F
         DENSITY MATRIX CONVERGENCE THRESHOLD=  1.00E-05
     COARSE -> FINE DFT GRID SWITCH THRESHOLD=  3.00E-04 (SWITCH IN $DFT)
                   HF -> DFT SWITCH THRESHOLD=  5.00E-03 (SWOFF IN $DFT)
     MEMORY REQUIRED FOR RHF ITERS=    365468 WORDS.

 DFT CODE IS SWITCHING FROM THE FINE GRID NRAD= 96,  NLEB=  302
                      TO THE COARSE GRID NRAD0= 24, NLEB0=  110

     EXCHANGE FUNCTIONAL   =PBE       
     CORRELATION FUNCTIONAL=PBE       
     DFT THRESHOLD         =.172E-07
     GRID CHANGE THRESHOLD =.300E-03
 FOR AN EULER-MACLAURIN QUADRATURE USING  96 RADIAL POINTS:
 SMALLEST GAUSSIAN PRIMITIVE EXPONENT=        0.1061000000 OF TYPE -S-
 ON ATOM NUMBER   4 HAS RADIAL NORMALIZATION=  1.000000
  LARGEST GAUSSIAN PRIMITIVE EXPONENT=     2931.5500000000 OF TYPE -S-
 ON ATOM NUMBER   3 HAS RADIAL NORMALIZATION=  1.000000
 DFT IS SWITCHED OFF, PERFORMING PURE SCF UNTIL SWOFF THRESHOLD IS REACHED.

 ITER EX DEM     TOTAL ENERGY        E CHANGE  DENSITY CHANGE    DIIS ERROR
   1  0  0     -276.1302087551  -276.1302087551   0.189853188   0.691024338
          * * *   INITIATING DIIS PROCEDURE   * * *
   2  1  0     -276.7746387268    -0.6444299717   0.085490949   0.077593708
   3  2  0     -276.8172903940    -0.0426516672   0.048641086   0.054329487
   4  3  0     -276.8334753239    -0.0161849299   0.008836860   0.010409304
   5  4  0     -276.8342343088    -0.0007589848   0.002174012   0.001460928
 CONVERGED TO SWOFF, SO DFT CALCULATION IS NOW SWITCHED ON.
          * * *   INITIATING DIIS PROCEDURE   * * *
   6  5  0     -277.9007727074    -1.0665383986   0.080090296   0.082670529
   7  6  0     -277.9160620117    -0.0152893044   0.068505787   0.049031003
   8  7  0     -277.9136802668     0.0023817449   0.044111988   0.056243366
   9  8  0     -277.9297300691    -0.0160498023   0.006965027   0.005349990
  10  9  0     -277.9299969109    -0.0002668418   0.001487188   0.001277532
  11 10  0     -277.9300071661    -0.0000102552   0.000577063   0.000473354
  12 11  0     -277.9300091464    -0.0000019803   0.000093697   0.000083112
 DFT CODE IS SWITCHING BACK TO THE FINE GRID
          * * *   INITIATING DIIS PROCEDURE   * * *
  13 12  0     -277.9307937606    -0.0007846142   0.003426287   0.003474261
  14 13  0     -277.9308388524    -0.0000450918   0.004498963   0.002538660
  15 14  0     -277.9308302032     0.0000086492   0.002533010   0.003197632
  16 15  0     -277.9308640641    -0.0000338609   0.000220687   0.000122176
  17 16  0     -277.9308641436    -0.0000000795   0.000112147   0.000102688
  18 17  0     -277.9308641903    -0.0000000468   0.000018259   0.000017845
  19 18  0     -277.9308641917    -0.0000000013   0.000005596   0.000004462
  20 19  0     -277.9308641919    -0.0000000002   0.000000382   0.000000294

          -----------------
          DENSITY CONVERGED
          -----------------
     TIME TO FORM FOCK OPERATORS=       9.8 SECONDS (       0.5 SEC/ITER)
     TIME TO SOLVE SCF EQUATIONS=       0.1 SECONDS (       0.0 SEC/ITER)

 FINAL R-PBE ENERGY IS     -277.9308641919 AFTER  20 ITERATIONS
 DFT EXCHANGE + CORRELATION ENERGY =       -32.8981696744
 TOTAL ELECTRON NUMBER             =        33.9999959664

          ------------
          EIGENVECTORS
          ------------

                      1          2          3          4          5
                  -24.2361   -24.2241    -9.9745    -9.9737    -1.0984
                     A          A          A          A          A   
    1  C  1  S    0.000035  -0.000173   0.991272  -0.064352  -0.015246
    2  C  1  S    0.000094  -0.000863   0.036660  -0.003453   0.026592
    3  C  1  S   -0.003226   0.007726  -0.022102   0.007496   0.024829
    4  C  1  X    0.000370   0.000755   0.000501   0.000776  -0.012046
    5  C  1  Y   -0.000035   0.000596   0.000043  -0.000127   0.009529
    6  C  1  Z   -0.000173   0.000242  -0.000161  -0.000572   0.007838
    7  C  1  X    0.001205   0.001695   0.002905  -0.002517  -0.009201
    8  C  1  Y   -0.000449   0.002934   0.000573   0.000221   0.002757
    9  C  1  Z    0.000370   0.002181  -0.000642   0.002207   0.009803
   10  C  1 XX   -0.000095   0.000073  -0.000308  -0.000546   0.003072
   11  C  1 YY   -0.000012   0.000111   0.000212   0.000470  -0.001369
   12  C  1 ZZ    0.000107  -0.000184   0.000096   0.000076  -0.001702
   13  C  1 XY    0.000082   0.000505  -0.000157   0.000075  -0.000069
   14  C  1 XZ    0.000035   0.000273   0.000265   0.000731  -0.001940
   15  C  1 YZ   -0.000085   0.000257  -0.000135  -0.000065   0.001192
   16  C  2  S   -0.000125   0.000035   0.064536   0.991217  -0.065493
   17  C  2  S   -0.000500   0.000159   0.001308   0.037097   0.123972
   18  C  2  S    0.008858  -0.003049   0.004918  -0.022170   0.011912
   19  C  2  X   -0.000869  -0.000314  -0.000860  -0.000701  -0.058404
   20  C  2  Y    0.000748   0.000006   0.000012   0.000425   0.067401
   21  C  2  Z   -0.000363   0.000136   0.000578  -0.000168  -0.045231
   22  C  2  X   -0.001510  -0.001128   0.002212  -0.003181  -0.011123
   23  C  2  Y    0.002768  -0.000533  -0.000071   0.000915   0.005313
   24  C  2  Z   -0.002529  -0.000539  -0.002215   0.000754  -0.002120
   25  C  2 XX   -0.000017  -0.000100  -0.000570  -0.000176   0.002344
   26  C  2 YY    0.000074  -0.000004   0.000503   0.000192   0.002653
   27  C  2 ZZ   -0.000057   0.000104   0.000068  -0.000016  -0.004997
   28  C  2 XY   -0.000229  -0.000097   0.000068  -0.000023  -0.015366
   29  C  2 XZ    0.000181   0.000009   0.000772   0.000281   0.008257
   30  C  2 YZ   -0.000145   0.000064  -0.000013  -0.000035  -0.010521
   31  F  3  S    0.993082  -0.001193   0.000009   0.000063  -0.236514
   32  F  3  S    0.033999   0.000120  -0.000036   0.000446   0.481034
   33  F  3  S   -0.016770  -0.000145  -0.000314  -0.000701   0.493741
   34  F  3  X    0.000742   0.000091  -0.000085  -0.000223   0.062524
   35  F  3  Y   -0.000807   0.000004   0.000034   0.000187  -0.066567
   36  F  3  Z    0.000502  -0.000047  -0.000032  -0.000102   0.039584
   37  F  3  X   -0.002388  -0.000238   0.000103  -0.000992   0.029293
   38  F  3  Y    0.002503  -0.000007   0.000173   0.001373  -0.031025
   39  F  3  Z   -0.001533   0.000231  -0.000085  -0.000962   0.017757
   40  F  3 XX   -0.000033  -0.000082   0.000103  -0.000107   0.001176
   41  F  3 YY   -0.000091   0.000021  -0.000093  -0.000197   0.001915
   42  F  3 ZZ    0.000124   0.000061  -0.000010   0.000304  -0.003091
   43  F  3 XY    0.000331  -0.000002   0.000034   0.000910  -0.009034
   44  F  3 XZ   -0.000236   0.000042  -0.000144  -0.000529   0.005328
   45  F  3 YZ    0.000203   0.000008   0.000048   0.000619  -0.005820
   46  H  4  S   -0.000890   0.000178  -0.000367  -0.001226   0.022719
   47  H  4  S   -0.000268   0.000278   0.000491   0.003319   0.000662
   48  H  4  X    0.000155   0.000116   0.000083  -0.000449   0.001633
   49  H  4  Y   -0.000304   0.000061  -0.000123  -0.001221   0.005183
   50  H  4  Z    0.000222   0.000014  -0.000052   0.000012  -0.000570
   51  H  5  S   -0.000937   0.000249  -0.000320  -0.001119   0.022885
   52  H  5  S   -0.000235   0.000530   0.001167   0.003452   0.002181
   53  H  5  X    0.000172  -0.000152   0.000176   0.000395  -0.001692
   54  H  5  Y   -0.000257  -0.000002   0.000009   0.000322  -0.000709
   55  H  5  Z    0.000274   0.000056   0.000012   0.001156  -0.005128
   56  F  6  S    0.001186   0.993089   0.000047   0.000002  -0.021972
   57  F  6  S    0.000192   0.033660   0.000384  -0.000064   0.044773
   58  F  6  S   -0.000173  -0.015795  -0.000006  -0.000262   0.043712
   59  F  6  X   -0.000096  -0.000739   0.000090   0.000068  -0.007110
   60  F  6  Y    0.000007  -0.000755   0.000031   0.000017  -0.005644
   61  F  6  Z    0.000036  -0.000395   0.000006   0.000015  -0.002589
   62  F  6  X    0.000227   0.002375   0.000648  -0.000175  -0.002718
   63  F  6  Y   -0.000043   0.002339   0.001004   0.000020  -0.002502
   64  F  6  Z   -0.000177   0.001201   0.000611  -0.000025  -0.001991
   65  F  6 XX   -0.000074  -0.000069  -0.000167   0.000108   0.000365
   66  F  6 YY    0.000022  -0.000082  -0.000203  -0.000058   0.000113
   67  F  6 ZZ    0.000053   0.000151   0.000370  -0.000050  -0.000478
   68  F  6 XY    0.000020  -0.000347  -0.000899   0.000057   0.001022
   69  F  6 XZ    0.000042  -0.000202  -0.000453  -0.000065   0.000512
   70  F  6 YZ   -0.000002  -0.000160  -0.000498   0.000026   0.000608
   71  H  7  S    0.000188  -0.000698  -0.001245  -0.000178   0.003111
   72  H  7  S    0.000335  -0.000124   0.003423   0.000107  -0.000135
   73  H  7  X   -0.000112  -0.000216   0.000363  -0.000144  -0.000123
   74  H  7  Y    0.000057  -0.000249  -0.001267   0.000054   0.000755
   75  H  7  Z   -0.000018  -0.000202   0.000123   0.000056  -0.000251
   76  H  8  S    0.000229  -0.000764  -0.001137  -0.000154   0.006800
   77  H  8  S    0.000359  -0.000138   0.003634   0.000648   0.005376
   78  H  8  X    0.000145  -0.000180  -0.000408  -0.000120  -0.000474
   79  H  8  Y   -0.000023  -0.000302   0.000230  -0.000011   0.000061
   80  H  8  Z   -0.000070  -0.000177  -0.001202   0.000138   0.001769

                      6          7          8          9         10
                   -1.0583    -0.7142    -0.5813    -0.4694    -0.4634
                     A          A          A          A          A   
    1  C  1  S   -0.052374  -0.153516   0.127709  -0.001649  -0.008963
    2  C  1  S    0.101055   0.314300  -0.276522   0.010791   0.027564
    3  C  1  S    0.014773   0.179812  -0.151096  -0.002863   0.006862
    4  C  1  X    0.051754  -0.100283  -0.073415  -0.099299   0.074496
    5  C  1  Y    0.052957  -0.031257   0.033020   0.214214   0.142103
    6  C  1  Z    0.029617   0.040345   0.107033  -0.117437   0.188361
    7  C  1  X    0.014513  -0.031690  -0.013703  -0.033161   0.005235
    8  C  1  Y    0.006918  -0.020131   0.022770   0.083360   0.037625
    9  C  1  Z    0.001503   0.002938   0.038701  -0.069465   0.072829
   10  C  1 XX    0.002469   0.004222   0.002941   0.003071  -0.005369
   11  C  1 YY    0.002334  -0.004724  -0.004402  -0.001861   0.001490
   12  C  1 ZZ   -0.004803   0.000502   0.001461  -0.001211   0.003879
   13  C  1 XY    0.012328  -0.000384  -0.000411  -0.003671   0.001715
   14  C  1 XZ    0.005736  -0.008297  -0.008157   0.001672  -0.000652
   15  C  1 YZ    0.006756  -0.000135   0.000950   0.004041   0.010562
   16  C  2  S   -0.002373  -0.148975  -0.127903   0.000833   0.000416
   17  C  2  S    0.002217   0.305131   0.278763   0.011625   0.001087
   18  C  2  S    0.018061   0.168397   0.140628  -0.033861   0.001844
   19  C  2  X    0.022092   0.102041  -0.093638  -0.046474   0.199525
   20  C  2  Y   -0.004778  -0.042121  -0.007892   0.257191   0.191052
   21  C  2  Z    0.000298  -0.039897   0.109543  -0.178778   0.196310
   22  C  2  X    0.010543   0.031990  -0.015638   0.014292   0.058918
   23  C  2  Y    0.000005  -0.024244  -0.020559   0.064991   0.089508
   24  C  2  Z   -0.009162  -0.001351   0.045659  -0.047927   0.094193
   25  C  2 XX    0.002264   0.003887  -0.001951  -0.004150   0.001418
   26  C  2 YY   -0.001751  -0.004778   0.004758   0.000867   0.000318
   27  C  2 ZZ   -0.000513   0.000891  -0.002807   0.003283  -0.001736
   28  C  2 XY    0.002493  -0.000342  -0.000947  -0.006874   0.003543
   29  C  2 XZ   -0.003057  -0.008671   0.008813   0.003259  -0.003745
   30  C  2 YZ    0.000831   0.001275  -0.000435  -0.015192   0.002374
   31  F  3  S    0.027125   0.059470   0.047904   0.043375  -0.012807
   32  F  3  S   -0.055100  -0.129785  -0.104704  -0.090115   0.025989
   33  F  3  S   -0.060079  -0.149150  -0.129098  -0.139174   0.043099
   34  F  3  X   -0.004277   0.068495   0.081831   0.333079   0.022192
   35  F  3  Y    0.006627  -0.058910  -0.127594  -0.191874   0.233332
   36  F  3  Z   -0.004268   0.022214   0.120298   0.081720   0.076017
   37  F  3  X   -0.002900   0.038613   0.048650   0.204648   0.014980
   38  F  3  Y    0.003465  -0.034069  -0.077048  -0.116476   0.141077
   39  F  3  Z   -0.001144   0.015635   0.072574   0.046217   0.045335
   40  F  3 XX    0.000089   0.001759  -0.002286   0.007487   0.005468
   41  F  3 YY   -0.000301   0.000550   0.002405  -0.002052  -0.010968
   42  F  3 ZZ    0.000212  -0.002309  -0.000119  -0.005435   0.005500
   43  F  3 XY    0.000766  -0.004779  -0.004700  -0.010456   0.004438
   44  F  3 XZ   -0.000475   0.001729   0.005608   0.004093   0.005012
   45  F  3 YZ    0.000477  -0.001747  -0.006333  -0.001827   0.000785
   46  H  4  S   -0.000992   0.114759   0.160208  -0.152673  -0.179775
   47  H  4  S    0.000260  -0.005787   0.012409  -0.035912  -0.027887
   48  H  4  X   -0.000058   0.007028   0.004337  -0.006730  -0.002538
   49  H  4  Y   -0.000273   0.009606   0.011918  -0.003721  -0.007700
   50  H  4  Z    0.000258  -0.000684   0.001977  -0.002860   0.005248
   51  H  5  S    0.002501   0.105229   0.173394  -0.071037   0.194208
   52  H  5  S    0.005389  -0.007603   0.013033  -0.019011   0.008657
   53  H  5  X    0.000728  -0.001268  -0.004760   0.000232   0.002691
   54  H  5  Y   -0.000022  -0.003956  -0.004925   0.006967   0.000367
   55  H  5  Z   -0.000685  -0.010222  -0.011984   0.000842  -0.009817
   56  F  6  S   -0.241387   0.052912  -0.038518   0.005458   0.035047
   57  F  6  S    0.490823  -0.115632   0.085008  -0.011954  -0.073346
   58  F  6  S    0.513971  -0.131160   0.102172  -0.016241  -0.114836
   59  F  6  X   -0.053383  -0.058101   0.068300  -0.082522  -0.228507
   60  F  6  Y   -0.053693  -0.047778   0.097545   0.053496  -0.162774
   61  F  6  Z   -0.026612  -0.015733   0.076203  -0.072089  -0.009546
   62  F  6  X   -0.028250  -0.033720   0.042217  -0.052591  -0.142222
   63  F  6  Y   -0.028029  -0.029021   0.061445   0.030906  -0.100259
   64  F  6  Z   -0.013259  -0.011923   0.047650  -0.041177  -0.005081
   65  F  6 XX    0.001978   0.001712   0.001089   0.004221   0.004946
   66  F  6 YY    0.001862   0.000436  -0.002244  -0.005508   0.000273
   67  F  6 ZZ   -0.003839  -0.002148   0.001155   0.001288  -0.005219
   68  F  6 XY    0.009200   0.004236  -0.004758   0.000048   0.007906
   69  F  6 XZ    0.004583   0.001402  -0.004330   0.003839   0.000460
   70  F  6 YZ    0.004758   0.001407  -0.004376   0.001157   0.000366
   71  H  7  S    0.019592   0.118653  -0.160601  -0.168969  -0.052264
   72  H  7  S    0.000845  -0.005918  -0.013123  -0.027480  -0.014482
   73  H  7  X   -0.000966  -0.006572   0.004010   0.004638   0.004036
   74  H  7  Y    0.004451   0.010495  -0.011740  -0.006449   0.000100
   75  H  7  Z    0.000129  -0.000413   0.003174  -0.002468   0.003922
   76  H  8  S    0.019096   0.110069  -0.175971   0.125465  -0.104545
   77  H  8  S    0.001095  -0.008399  -0.015564  -0.006544  -0.013525
   78  H  8  X    0.001636   0.001231  -0.004082  -0.002297   0.001368
   79  H  8  Y   -0.000142  -0.003127   0.004050   0.003091   0.004845
   80  H  8  Z    0.004103   0.011099  -0.012544   0.007105  -0.003659

                     11         12         13         14         15
                   -0.4319    -0.4024    -0.3967    -0.3279    -0.3038
                     A          A          A          A          A   
    1  C  1  S   -0.008897  -0.011275   0.004413   0.029844  -0.000834
    2  C  1  S    0.022394   0.016591  -0.002391  -0.066557   0.002446
    3  C  1  S    0.026217   0.041187  -0.027766  -0.129500   0.016217
    4  C  1  X    0.310352  -0.016623   0.057655   0.093090  -0.016798
    5  C  1  Y   -0.033995  -0.288448  -0.078094   0.007846  -0.052334
    6  C  1  Z   -0.097669  -0.011177   0.313217  -0.013483   0.127146
    7  C  1  X    0.107613   0.019497   0.016918   0.072523  -0.037012
    8  C  1  Y   -0.036299  -0.093919  -0.045796   0.033534   0.000179
    9  C  1  Z   -0.053148   0.001836   0.134570  -0.039757   0.005496
   10  C  1 XX    0.000412  -0.004093   0.010155   0.013738   0.002911
   11  C  1 YY    0.004834   0.000378   0.001175  -0.006076   0.013660
   12  C  1 ZZ   -0.005246   0.003715  -0.011330  -0.007662  -0.016571
   13  C  1 XY    0.006223  -0.021075   0.001813   0.004470   0.009345
   14  C  1 XZ    0.009085  -0.003796   0.004582  -0.002267  -0.007003
   15  C  1 YZ    0.001361  -0.003963   0.007105  -0.006684  -0.002990
   16  C  2  S    0.011868   0.011394   0.009814  -0.022987   0.000185
   17  C  2  S   -0.023003  -0.022211  -0.013675   0.048012   0.000504
   18  C  2  S   -0.031971  -0.040784  -0.041256   0.116331   0.007764
   19  C  2  X   -0.279267   0.053066   0.004382  -0.002373  -0.028707
   20  C  2  Y    0.069779   0.206814   0.005588  -0.040939  -0.129801
   21  C  2  Z    0.132541   0.026127  -0.236642   0.050498  -0.166674
   22  C  2  X   -0.094635   0.043947   0.018172   0.032877   0.016070
   23  C  2  Y    0.006943   0.069160  -0.018264  -0.052471  -0.024092
   24  C  2  Z    0.079243   0.014252  -0.095315   0.000395  -0.028990
   25  C  2 XX    0.006525  -0.004033   0.010815  -0.018967  -0.000316
   26  C  2 YY    0.003315   0.005559  -0.001814   0.010044   0.021130
   27  C  2 ZZ   -0.009840  -0.001526  -0.009001   0.008923  -0.020814
   28  C  2 XY   -0.012268  -0.019487  -0.008418   0.007150  -0.006065
   29  C  2 XZ    0.009396  -0.000109   0.008834   0.003990  -0.011919
   30  C  2 YZ   -0.000261   0.000450  -0.009518  -0.008108   0.000216
   31  F  3  S    0.018286   0.006791   0.005647  -0.000850  -0.002584
   32  F  3  S   -0.037652  -0.012085  -0.008874  -0.002041   0.006996
   33  F  3  S   -0.052002  -0.017704  -0.014251   0.016763   0.011039
   34  F  3  X   -0.006739   0.216615   0.135263   0.334068   0.144788
   35  F  3  Y   -0.207681   0.065774  -0.229055   0.181762   0.295614
   36  F  3  Z    0.292586   0.188711  -0.104736  -0.293040   0.324955
   37  F  3  X   -0.000986   0.134727   0.081206   0.231651   0.095437
   38  F  3  Y   -0.129013   0.044766  -0.145566   0.124088   0.208321
   39  F  3  Z    0.179541   0.122697  -0.066541  -0.196949   0.228558
   40  F  3 XX   -0.008041   0.005317   0.001526   0.009326   0.003180
   41  F  3 YY    0.003723  -0.008276   0.006128  -0.004835  -0.005713
   42  F  3 ZZ    0.004318   0.002959  -0.007655  -0.004492   0.002532
   43  F  3 XY   -0.000936  -0.001961  -0.006521  -0.003202   0.002147
   44  F  3 XZ    0.005970   0.007047  -0.001889  -0.000557   0.004768
   45  F  3 YZ   -0.009880  -0.001843   0.001378   0.006494  -0.002053
   46  H  4  S    0.032970  -0.187389  -0.027336   0.083298   0.151050
   47  H  4  S    0.007142  -0.055927  -0.014693   0.013497   0.085884
   48  H  4  X   -0.004498  -0.001976  -0.000832   0.002785   0.004522
   49  H  4  Y    0.004299  -0.005737  -0.000826   0.001560   0.000984
   50  H  4  Z    0.002297   0.000745  -0.006089   0.002119  -0.005246
   51  H  5  S    0.041165   0.055982  -0.188726   0.064709  -0.237403
   52  H  5  S   -0.006940   0.026738  -0.052938   0.003117  -0.132243
   53  H  5  X   -0.006807  -0.001054   0.005004  -0.003280  -0.001137
   54  H  5  Y    0.000308   0.004071   0.003619  -0.003323   0.001677
   55  H  5  Z   -0.001190  -0.003340   0.004760  -0.000875   0.005001
   56  F  6  S    0.021782  -0.021551   0.008841   0.001392  -0.003093
   57  F  6  S   -0.047200   0.043886  -0.017025   0.000101   0.007030
   58  F  6  S   -0.061649   0.062852  -0.027832  -0.013851   0.019162
   59  F  6  X   -0.038503   0.306746  -0.088019   0.280452  -0.148827
   60  F  6  Y   -0.238749   0.131226  -0.244175  -0.218164   0.186956
   61  F  6  Z   -0.167479   0.196594   0.144708  -0.299727  -0.262270
   62  F  6  X   -0.031146   0.195539  -0.054056   0.190889  -0.098886
   63  F  6  Y   -0.150671   0.085114  -0.157027  -0.147287   0.130117
   64  F  6  Z   -0.102810   0.126852   0.091283  -0.199078  -0.183877
   65  F  6 XX   -0.005807  -0.005213  -0.000164  -0.009192   0.002973
   66  F  6 YY    0.005992   0.004108   0.007675   0.005687  -0.004034
   67  F  6 ZZ   -0.000184   0.001105  -0.007511   0.003505   0.001061
   68  F  6 XY    0.004219  -0.006820   0.006395  -0.001884  -0.000641
   69  F  6 XZ    0.003839  -0.007019  -0.004190   0.002098   0.004391
   70  F  6 YZ    0.006803  -0.004052  -0.002214   0.006512   0.001812
   71  H  7  S    0.125551   0.230230   0.090085  -0.020753   0.066230
   72  H  7  S    0.024861   0.071066   0.017691   0.015597   0.049459
   73  H  7  X    0.003447  -0.005448   0.000089   0.003220  -0.003936
   74  H  7  Y    0.007645   0.005475   0.003874   0.000330   0.000068
   75  H  7  Z   -0.002327  -0.001619   0.007530   0.000806   0.004246
   76  H  8  S    0.025613  -0.021086  -0.272051  -0.045730  -0.163864
   77  H  8  S   -0.008739  -0.011331  -0.069733   0.002332  -0.115384
   78  H  8  X    0.008228  -0.001086  -0.004023  -0.000598   0.001423
   79  H  8  Y   -0.001601  -0.007172   0.002328   0.002475   0.001376
   80  H  8  Z    0.000420  -0.002602  -0.008480  -0.001234  -0.002868

                     16         17         18         19         20
                   -0.2929    -0.2856     0.0065     0.0207     0.0415
                     A          A          A          A          A   
    1  C  1  S   -0.000117  -0.021825   0.075807   0.062631   0.063892
    2  C  1  S   -0.001359   0.060617  -0.205957  -0.101682  -0.127486
    3  C  1  S    0.020444   0.085700  -0.349363  -0.962079  -0.970213
    4  C  1  X   -0.075267  -0.205410  -0.329682  -0.095918   0.009541
    5  C  1  Y    0.123900   0.077562  -0.339454   0.187660  -0.054373
    6  C  1  Z   -0.105215   0.133652  -0.167619   0.070633   0.144640
    7  C  1  X   -0.028543  -0.030758  -0.478202  -0.210535   0.042335
    8  C  1  Y    0.014010   0.011889  -0.528140   0.351492  -0.067479
    9  C  1  Z   -0.023528   0.059183  -0.243919   0.132592   0.411732
   10  C  1 XX    0.007476   0.016031   0.010150  -0.003142  -0.018311
   11  C  1 YY   -0.016508  -0.013634   0.006377   0.010598  -0.013875
   12  C  1 ZZ    0.009032  -0.002397  -0.016527  -0.007456   0.032187
   13  C  1 XY    0.004758   0.003366   0.034184  -0.013351   0.018556
   14  C  1 XZ    0.012727  -0.010315   0.018814   0.004506  -0.001361
   15  C  1 YZ    0.002644  -0.005281   0.017524   0.002406  -0.015487
   16  C  2  S    0.000061  -0.021654   0.004844   0.060585   0.027958
   17  C  2  S    0.002146   0.060764  -0.013187  -0.092594  -0.099853
   18  C  2  S   -0.024339   0.096607  -0.201183  -1.020423   0.065572
   19  C  2  X   -0.069518   0.213208  -0.027933   0.074833   0.228830
   20  C  2  Y   -0.109419   0.056802  -0.010112   0.204400  -0.246583
   21  C  2  Z   -0.079203  -0.131700  -0.068940  -0.107392   0.168262
   22  C  2  X   -0.038793   0.038892  -0.034704   0.163632   0.448108
   23  C  2  Y   -0.022045  -0.001658   0.002281   0.393085  -0.481058
   24  C  2  Z   -0.040381  -0.062246  -0.206417  -0.203170   0.299138
   25  C  2 XX   -0.005772   0.015188  -0.020992  -0.003806   0.007799
   26  C  2 YY    0.011884  -0.012584  -0.007919   0.006995   0.006589
   27  C  2 ZZ   -0.006112  -0.002604   0.028911  -0.003188  -0.014388
   28  C  2 XY    0.006368  -0.006754  -0.018319   0.016189  -0.034603
   29  C  2 XZ   -0.011645  -0.008999  -0.001404   0.000231   0.022918
   30  C  2 YZ    0.000667   0.006842   0.022588  -0.000341  -0.017576
   31  F  3  S    0.002640   0.000035   0.005179   0.016143  -0.054554
   32  F  3  S   -0.005596   0.001530  -0.004550  -0.038183   0.102733
   33  F  3  S   -0.019096  -0.010257  -0.060558  -0.091657   0.447668
   34  F  3  X    0.056238  -0.302806   0.001775  -0.058828   0.150631
   35  F  3  Y    0.258328  -0.094017   0.027652  -0.022731  -0.179201
   36  F  3  Z    0.219845   0.208116   0.007017   0.032163   0.159507
   37  F  3  X    0.042095  -0.213871  -0.018247  -0.062842   0.149527
   38  F  3  Y    0.177999  -0.061873   0.025969  -0.036147  -0.180887
   39  F  3  Z    0.152112   0.146997   0.019031   0.041172   0.153950
   40  F  3 XX    0.001533  -0.003499  -0.002988   0.003244  -0.001838
   41  F  3 YY   -0.004425   0.001114   0.000409  -0.002467  -0.001250
   42  F  3 ZZ    0.002892   0.002385   0.002579  -0.000777   0.003088
   43  F  3 XY    0.002008   0.001469  -0.002647   0.002295   0.003140
   44  F  3 XZ    0.002119  -0.000086   0.000112   0.000065  -0.002539
   45  F  3 YZ   -0.001434  -0.002438   0.002560   0.002629   0.001409
   46  H  4  S    0.152764  -0.147971  -0.137730   0.069825  -0.048256
   47  H  4  S    0.062306  -0.098867  -0.242718   1.120248  -0.256317
   48  H  4  X    0.001393   0.001506   0.006392  -0.007354   0.018177
   49  H  4  Y    0.002223  -0.003327   0.002116  -0.017071  -0.003865
   50  H  4  Z   -0.001378  -0.003584  -0.007360  -0.004303   0.007055
   51  H  5  S   -0.124416  -0.043239   0.166712   0.020744  -0.052628
   52  H  5  S   -0.017471  -0.044470   0.553373   0.343099  -0.321366
   53  H  5  X   -0.000125   0.003477  -0.004313   0.003697   0.012019
   54  H  5  Y    0.000204   0.001943   0.003285   0.007730  -0.016743
   55  H  5  Z    0.003175  -0.000882   0.008292   0.003664  -0.002599
   56  F  6  S   -0.001634   0.000014  -0.067864   0.009150  -0.005152
   57  F  6  S    0.002874   0.002412   0.128012  -0.024538   0.013797
   58  F  6  S    0.014147  -0.012743   0.505956  -0.037673   0.021714
   59  F  6  X    0.095685   0.355690  -0.249730   0.038940  -0.057391
   60  F  6  Y   -0.353599  -0.147468  -0.264672  -0.044067  -0.017900
   61  F  6  Z    0.355383  -0.254040  -0.162378  -0.040085  -0.034829
   62  F  6  X    0.066507   0.250733  -0.247714   0.040045  -0.043452
   63  F  6  Y   -0.244057  -0.098461  -0.257481  -0.053313  -0.023300
   64  F  6  Z    0.244525  -0.176938  -0.155780  -0.044966  -0.053459
   65  F  6 XX   -0.002312  -0.004786  -0.000895   0.002805  -0.002613
   66  F  6 YY    0.005852   0.002294  -0.001057  -0.002445   0.000462
   67  F  6 ZZ   -0.003539   0.002492   0.001953  -0.000361   0.002151
   68  F  6 XY    0.003033  -0.001689  -0.003873  -0.002899   0.001156
   69  F  6 XZ   -0.003953   0.000563  -0.002823  -0.000203  -0.001870
   70  F  6 YZ   -0.002438   0.003108  -0.001785  -0.002263  -0.004036
   71  H  7  S   -0.180976  -0.138341  -0.001227   0.083681  -0.100708
   72  H  7  S   -0.083734  -0.089617  -0.037273   1.099931   0.008074
   73  H  7  X    0.002345  -0.001669  -0.018411   0.004561  -0.005487
   74  H  7  Y   -0.002388  -0.002448  -0.007472  -0.017869  -0.000742
   75  H  7  Z   -0.001606   0.004287  -0.009781   0.004364   0.007821
   76  H  8  S    0.154980  -0.052415  -0.022651   0.000503   0.202482
   77  H  8  S    0.046715  -0.043758  -0.029224   0.281527   1.277520
   78  H  8  X   -0.001359  -0.003644  -0.014717  -0.005280   0.001234
   79  H  8  Y   -0.000030   0.002422  -0.018173   0.005715   0.001471
   80  H  8  Z    0.003610   0.000686  -0.000154  -0.003577  -0.019074

                     21         22         23         24         25
                    0.0646     0.0871     0.0915     0.1631     0.3501
                     A          A          A          A          A   
    1  C  1  S    0.070355   0.016202   0.018764   0.074119   0.003830
    2  C  1  S   -0.128770  -0.011090  -0.026173  -0.074454   0.050570
    3  C  1  S   -0.906759  -0.411334  -0.492847  -2.002116   0.599082
    4  C  1  X   -0.067896   0.122524  -0.057180   0.269108  -0.415654
    5  C  1  Y    0.048610  -0.040917   0.248048  -0.093051  -0.146822
    6  C  1  Z    0.026442   0.242119  -0.182710  -0.225805   0.184796
    7  C  1  X   -0.111188   0.428768  -0.090081   1.697335   0.588001
    8  C  1  Y    0.118700  -0.133861   0.877308  -0.575835   0.143939
    9  C  1  Z    0.041280   0.731869  -0.494635  -1.172992  -0.737990
   10  C  1 XX    0.002359   0.011023   0.007628   0.022642   0.032213
   11  C  1 YY    0.007997  -0.007916   0.001700  -0.020224  -0.030106
   12  C  1 ZZ   -0.010356  -0.003107  -0.009328  -0.002419  -0.002107
   13  C  1 XY   -0.012429  -0.005745   0.000091   0.004427   0.011627
   14  C  1 XZ   -0.001497   0.006250  -0.004344  -0.035320  -0.050693
   15  C  1 YZ    0.009129  -0.007130  -0.008405   0.021392   0.021325
   16  C  2  S   -0.115903  -0.016372  -0.010832  -0.077226  -0.006074
   17  C  2  S    0.238889   0.053583   0.003867   0.087892   0.140272
   18  C  2  S    1.439146  -0.010732   0.432954   2.025033   0.378045
   19  C  2  X   -0.122540  -0.211430  -0.023927   0.273510   0.359266
   20  C  2  Y    0.139607  -0.074791  -0.268400   0.065948  -0.063164
   21  C  2  Z    0.085968  -0.266843  -0.111258  -0.247018  -0.251838
   22  C  2  X   -0.202309  -0.649330   0.013381   1.671444  -0.627104
   23  C  2  Y    0.293923  -0.239154  -0.923212   0.396512  -0.049290
   24  C  2  Z    0.285723  -0.789334  -0.256850  -1.276252   0.991664
   25  C  2 XX    0.001168   0.006305  -0.009778  -0.022081   0.025638
   26  C  2 YY   -0.000504  -0.012113  -0.002489   0.022721  -0.028691
   27  C  2 ZZ   -0.000665   0.005808   0.012267  -0.000641   0.003053
   28  C  2 XY    0.014960   0.007688  -0.003865   0.012430  -0.021823
   29  C  2 XZ   -0.011883   0.001887   0.005345   0.034704  -0.053172
   30  C  2 YZ    0.007012   0.015146  -0.008670   0.017181  -0.023124
   31  F  3  S    0.039579   0.042534  -0.025222   0.003991  -0.007148
   32  F  3  S   -0.073305  -0.079659   0.041162   0.014608   0.022876
   33  F  3  S   -0.328748  -0.363576   0.244135  -0.137102   0.024443
   34  F  3  X   -0.145670  -0.055726   0.012856  -0.096979   0.087007
   35  F  3  Y    0.132474   0.123719  -0.021954   0.011910  -0.021318
   36  F  3  Z   -0.093796   0.001406   0.045427   0.042383  -0.082113
   37  F  3  X   -0.167540  -0.065011   0.055253  -0.205830   0.119896
   38  F  3  Y    0.146830   0.177312  -0.007824   0.015206  -0.004692
   39  F  3  Z   -0.123342   0.001722   0.082404   0.086098  -0.129035
   40  F  3 XX   -0.000429  -0.004829  -0.000094   0.003544   0.004707
   41  F  3 YY   -0.000734   0.004593   0.003638   0.003054  -0.004522
   42  F  3 ZZ    0.001163   0.000236  -0.003544  -0.006598  -0.000185
   43  F  3 XY   -0.002354  -0.001166  -0.003342  -0.004211   0.001021
   44  F  3 XZ    0.003040  -0.002964  -0.002942   0.007453  -0.007086
   45  F  3 YZ   -0.005121   0.001428   0.000566   0.007133  -0.000269
   46  H  4  S   -0.029510  -0.023480  -0.036103   0.109887  -0.215786
   47  H  4  S   -0.555811  -0.978593  -1.427466   0.702559   0.056381
   48  H  4  X   -0.002544  -0.005811   0.015399   0.005008  -0.005904
   49  H  4  Y    0.010267   0.015575   0.008488  -0.011783   0.003807
   50  H  4  Z   -0.003276  -0.010801   0.001427  -0.019677   0.026796
   51  H  5  S   -0.066876   0.028198   0.016967   0.086696  -0.305985
   52  H  5  S   -1.287733   1.296673   0.875125   0.258782  -0.225917
   53  H  5  X   -0.009457   0.001091   0.005544   0.018699  -0.016542
   54  H  5  Y    0.003455   0.011310  -0.005280   0.012202  -0.012638
   55  H  5  Z   -0.017583   0.013889   0.011303  -0.002326   0.012051
   56  F  6  S   -0.014813   0.026524   0.013342   0.001478  -0.004036
   57  F  6  S    0.026485  -0.051388  -0.019715  -0.022602   0.039586
   58  F  6  S    0.115549  -0.213825  -0.134273   0.070305  -0.125100
   59  F  6  X   -0.053650   0.024234  -0.005403  -0.079098  -0.135034
   60  F  6  Y   -0.056722   0.062202   0.000264   0.007531  -0.035928
   61  F  6  Z    0.019326  -0.025956   0.028345   0.044101   0.067276
   62  F  6  X   -0.077006   0.030856   0.033304  -0.170088  -0.062126
   63  F  6  Y   -0.069678   0.098167  -0.017713   0.017896   0.029060
   64  F  6  Z    0.006554  -0.029288   0.061670   0.080912   0.117291
   65  F  6 XX    0.003503  -0.002987  -0.000244  -0.003431  -0.003399
   66  F  6 YY   -0.000678   0.002690  -0.003064  -0.001028  -0.002556
   67  F  6 ZZ   -0.002825   0.000296   0.003308   0.004459   0.005955
   68  F  6 XY   -0.002295  -0.000555  -0.003019  -0.004466  -0.009956
   69  F  6 XZ    0.000234  -0.002711   0.002776  -0.005510  -0.007664
   70  F  6 YZ   -0.001530  -0.001963   0.001033   0.007297  -0.002048
   71  H  7  S    0.121417   0.016084   0.026042  -0.107284  -0.179664
   72  H  7  S    0.904025  -0.416074   1.567406  -0.693964   0.113335
   73  H  7  X    0.008173   0.008751   0.010978   0.007695   0.002202
   74  H  7  Y   -0.012149   0.008960  -0.012439   0.010054   0.003863
   75  H  7  Z   -0.005019   0.006104   0.001070  -0.020230  -0.019620
   76  H  8  S   -0.014398  -0.001204  -0.011114  -0.089591  -0.225746
   77  H  8  S    0.446268   1.267412  -1.046214  -0.236941  -0.163566
   78  H  8  X   -0.003355  -0.005175   0.006041   0.019034   0.018635
   79  H  8  Y    0.001115   0.007586   0.003756  -0.012193  -0.013206
   80  H  8  Z   -0.005192  -0.014013   0.012018  -0.001284  -0.012605

                     26         27         28         29         30
                    0.3740     0.3921     0.4512     0.4711     0.4733
                     A          A          A          A          A   
    1  C  1  S    0.044573   0.006483   0.026061  -0.047035   0.052795
    2  C  1  S   -0.354550  -0.072977  -0.116221   0.360040  -0.299814
    3  C  1  S    0.131450   0.057758   0.111897  -1.398979   0.639618
    4  C  1  X   -0.391936  -0.101028   0.016735  -0.507761   0.329526
    5  C  1  Y   -0.552290  -0.033191   0.077899   0.020554  -0.016245
    6  C  1  Z   -0.344516  -0.146345   0.173603   0.439448   0.044910
    7  C  1  X    0.529012   0.237580  -0.740399   1.328349  -0.597233
    8  C  1  Y    1.069981  -0.013456   0.322163  -0.824239  -0.708920
    9  C  1  Z    0.828302   0.278339  -1.037036  -1.129096   0.321531
   10  C  1 XX   -0.006895  -0.008470  -0.024082  -0.061957  -0.031445
   11  C  1 YY    0.013473   0.025444   0.082405   0.008256  -0.071703
   12  C  1 ZZ   -0.006579  -0.016973  -0.058322   0.053700   0.103148
   13  C  1 XY    0.004400   0.008041  -0.065730   0.018343  -0.011102
   14  C  1 XZ    0.029063  -0.011890  -0.020139   0.049436  -0.018883
   15  C  1 YZ   -0.011379   0.000808   0.016410   0.028029   0.000022
   16  C  2  S   -0.009586   0.048874   0.027613   0.050963  -0.044720
   17  C  2  S    0.042381  -0.373428  -0.115100  -0.366760   0.256125
   18  C  2  S   -0.110633   0.241373  -0.026294   1.422845  -0.540709
   19  C  2  X   -0.096182   0.469900   0.027792  -0.485993   0.325709
   20  C  2  Y    0.204907  -0.568979   0.004523   0.014045   0.051190
   21  C  2  Z    0.034402   0.417485  -0.228430   0.396895  -0.049417
   22  C  2  X    0.028343  -0.596581   0.661925   1.497536  -0.446201
   23  C  2  Y   -0.402650   0.902147   0.219834   0.759063   0.788689
   24  C  2  Z   -0.157251  -0.795193   1.065265  -0.937957   0.480409
   25  C  2 XX   -0.006708   0.000897  -0.026151   0.062268   0.023966
   26  C  2 YY    0.026657   0.022541   0.051856   0.001890   0.077645
   27  C  2 ZZ   -0.019949  -0.023438  -0.025705  -0.064159  -0.101611
   28  C  2 XY    0.012556  -0.032934   0.067913   0.012474   0.014934
   29  C  2 XZ   -0.009917   0.030402  -0.019359  -0.055187   0.020620
   30  C  2 YZ   -0.005667  -0.015145  -0.026081   0.015961  -0.028043
   31  F  3  S    0.005260   0.004645  -0.020017  -0.011343   0.016891
   32  F  3  S   -0.042762   0.081404   0.024859   0.074533  -0.030812
   33  F  3  S    0.104303  -0.572781   0.302690  -0.128587  -0.199801
   34  F  3  X   -0.100732   0.202674  -0.159934   0.029687   0.003632
   35  F  3  Y   -0.000350  -0.242125  -0.120580  -0.075721  -0.093038
   36  F  3  Z   -0.030382   0.136634   0.001601  -0.100612  -0.146583
   37  F  3  X    0.010152  -0.054074   0.044790  -0.123585  -0.059169
   38  F  3  Y    0.021500   0.032609  -0.129171  -0.038537   0.007128
   39  F  3  Z    0.020913   0.002573  -0.013517   0.044581  -0.081240
   40  F  3 XX    0.010300  -0.005366   0.015448  -0.017460   0.008526
   41  F  3 YY   -0.004202  -0.009502  -0.009703   0.003831  -0.011763
   42  F  3 ZZ   -0.006098   0.014868  -0.005745   0.013629   0.003237
   43  F  3 XY   -0.001251   0.047166  -0.007886   0.010500   0.004894
   44  F  3 XZ    0.008112  -0.024269  -0.001019   0.015986   0.006945
   45  F  3 YZ   -0.009396   0.029166   0.000150  -0.009334   0.005534
   46  H  4  S    0.160862   0.190971   0.621147   0.440499   0.393115
   47  H  4  S   -0.093947   0.078845  -0.140416   0.446608  -0.215297
   48  H  4  X   -0.020719   0.015557  -0.000431  -0.021462   0.012392
   49  H  4  Y   -0.007618   0.001834  -0.029085  -0.005266  -0.017210
   50  H  4  Z    0.020186  -0.000567   0.021180   0.008821   0.009421
   51  H  5  S   -0.175205   0.111125  -0.173577  -0.167930  -0.671887
   52  H  5  S    0.076343   0.116121  -0.310636   0.395176   0.266538
   53  H  5  X    0.017928   0.015191  -0.001636  -0.020895   0.009467
   54  H  5  Y    0.007968  -0.005783   0.020241   0.027430   0.020497
   55  H  5  Z   -0.023704  -0.015401   0.022280  -0.011265  -0.050759
   56  F  6  S    0.014540   0.006788  -0.017593   0.007411  -0.021400
   57  F  6  S    0.050363  -0.011216   0.027494  -0.066972   0.043683
   58  F  6  S   -0.584377  -0.102839   0.237414   0.157302   0.238186
   59  F  6  X   -0.162197   0.007505   0.146653   0.049058   0.034876
   60  F  6  Y   -0.181592  -0.074770  -0.143213   0.034179   0.060841
   61  F  6  Z   -0.115367   0.003247   0.058456  -0.085051  -0.149915
   62  F  6  X    0.130998   0.007083  -0.041399  -0.132432  -0.071519
   63  F  6  Y    0.074891   0.041212  -0.112730   0.014902  -0.044905
   64  F  6  Z    0.009067  -0.004324   0.025888   0.055664  -0.061480
   65  F  6 XX   -0.010338   0.005618   0.015687   0.017899  -0.002803
   66  F  6 YY   -0.006158  -0.006055  -0.014151  -0.006440   0.009989
   67  F  6 ZZ    0.016496   0.000437  -0.001535  -0.011460  -0.007186
   68  F  6 XY   -0.037841  -0.013957   0.003884   0.006942   0.007337
   69  F  6 XZ   -0.017600   0.000148   0.004043  -0.016250  -0.008252
   70  F  6 YZ   -0.022416  -0.000182   0.001819  -0.006631   0.001420
   71  H  7  S    0.248568   0.151923   0.754400  -0.352197  -0.243902
   72  H  7  S    0.055681  -0.005004  -0.195620  -0.389679   0.137658
   73  H  7  X   -0.014760   0.012518   0.000788  -0.022520   0.018101
   74  H  7  Y    0.005449  -0.006389  -0.037583   0.005312   0.007229
   75  H  7  Z    0.015912  -0.020299  -0.022816   0.000177   0.006668
   76  H  8  S    0.277112  -0.135196  -0.336698   0.088138   0.693918
   77  H  8  S    0.125279   0.023276  -0.174300  -0.492264  -0.388922
   78  H  8  X   -0.010195  -0.016460   0.006099  -0.019380   0.007062
   79  H  8  Y    0.003415   0.007252   0.026465  -0.025795  -0.020782
   80  H  8  Z    0.008361   0.023395  -0.013110  -0.012885  -0.058515

                     31         32         33         34         35
                    0.5306     0.5447     0.5591     0.5837     0.7920
                     A          A          A          A          A   
    1  C  1  S   -0.019779  -0.048611  -0.035054  -0.061913   0.022792
    2  C  1  S    0.137040   0.363673   0.255099   0.503506  -1.284877
    3  C  1  S   -0.300524  -0.509728  -0.166073  -0.287297   2.499837
    4  C  1  X    0.310982   0.101832   0.302363  -0.039501   0.130690
    5  C  1  Y   -0.510614   0.004677  -0.547753  -0.026399   0.083429
    6  C  1  Z    0.134564  -0.403223   0.318477  -0.504264   0.002647
    7  C  1  X   -0.741986  -0.312970  -0.788391  -0.359180   0.090484
    8  C  1  Y    0.805627   0.005189   1.478116  -0.658153  -0.282534
    9  C  1  Z   -0.698362   0.131065  -0.596532   1.266536  -0.574873
   10  C  1 XX    0.009314   0.017697   0.019642   0.041608  -0.045670
   11  C  1 YY   -0.035467   0.039819  -0.053975  -0.020939   0.042298
   12  C  1 ZZ    0.026153  -0.057516   0.034334  -0.020669   0.003372
   13  C  1 XY    0.054682   0.020507   0.032093   0.025248   0.036987
   14  C  1 XZ   -0.002159  -0.050337   0.010635  -0.012166   0.040347
   15  C  1 YZ   -0.013397   0.047880   0.009627   0.038774   0.008548
   16  C  2  S   -0.033327  -0.049013   0.046099   0.062328   0.016350
   17  C  2  S    0.222901   0.362485  -0.350176  -0.504005  -1.287421
   18  C  2  S   -0.391377  -0.562759   0.286538   0.295075   2.811657
   19  C  2  X   -0.357599   0.010801   0.292549  -0.026091  -0.163388
   20  C  2  Y   -0.547735   0.206718   0.443408  -0.013759   0.126168
   21  C  2  Z   -0.159901   0.459349   0.125076  -0.472290  -0.035855
   22  C  2  X    0.841734   0.044653  -0.788489  -0.312005  -0.000188
   23  C  2  Y    1.031650  -0.404682  -1.292836   0.797307  -0.252377
   24  C  2  Z    0.774792  -0.233196  -0.284899   1.203286   0.549616
   25  C  2 XX    0.008573   0.015679  -0.020863  -0.039241  -0.043718
   26  C  2 YY   -0.033130   0.049940   0.041484   0.027590   0.040010
   27  C  2 ZZ    0.024557  -0.065618  -0.020620   0.011651   0.003708
   28  C  2 XY   -0.060129  -0.014002   0.028742   0.031160  -0.032542
   29  C  2 XZ    0.011168  -0.052505   0.001130   0.013258   0.045869
   30  C  2 YZ    0.018753  -0.053930   0.018638   0.027614  -0.020846
   31  F  3  S    0.013570   0.010260  -0.003274  -0.000901   0.035859
   32  F  3  S   -0.061625  -0.060022   0.007963   0.022422  -0.152501
   33  F  3  S    0.033293   0.092827   0.037622  -0.105450  -0.180363
   34  F  3  X   -0.083755  -0.070319  -0.036817   0.024694  -0.023103
   35  F  3  Y   -0.062171  -0.047740  -0.016566  -0.099285  -0.062643
   36  F  3  Z   -0.025198  -0.041257   0.082692  -0.053169  -0.018420
   37  F  3  X   -0.097226   0.010581   0.051263  -0.023212  -0.121074
   38  F  3  Y   -0.055540   0.037188   0.091500  -0.007449   0.217769
   39  F  3  Z   -0.033378   0.042829   0.047691  -0.091920  -0.104246
   40  F  3 XX   -0.004953   0.001850   0.013971   0.002174   0.007848
   41  F  3 YY    0.009239  -0.015483  -0.015997  -0.002955  -0.012999
   42  F  3 ZZ   -0.004286   0.013633   0.002026   0.000781   0.005151
   43  F  3 XY    0.003573   0.002095   0.004508   0.002210   0.018624
   44  F  3 XZ   -0.008946   0.010907  -0.004853  -0.000560  -0.021165
   45  F  3 YZ   -0.002651  -0.009885   0.006255   0.003281   0.018003
   46  H  4  S   -0.358400  -0.080857   0.362852   0.513317  -0.381129
   47  H  4  S    1.330407  -0.358320  -1.570384  -0.200439  -0.646162
   48  H  4  X    0.045806   0.021291  -0.036570  -0.009635   0.031154
   49  H  4  Y    0.072308  -0.004393  -0.072187  -0.035818  -0.042393
   50  H  4  Z    0.004580   0.041307  -0.006470  -0.005595   0.003357
   51  H  5  S   -0.136483  -0.789968   0.251951   0.231073  -0.381529
   52  H  5  S   -0.817773   1.048055   0.507684  -1.405222  -0.786257
   53  H  5  X   -0.006991  -0.026198  -0.009744   0.029924   0.012661
   54  H  5  Y    0.003158  -0.031441   0.010693   0.049259  -0.011380
   55  H  5  Z    0.024604  -0.076813  -0.005907   0.056526   0.025382
   56  F  6  S    0.010342   0.007698   0.001940  -0.000421   0.032450
   57  F  6  S   -0.052835  -0.050034   0.000878  -0.018459  -0.144127
   58  F  6  S    0.045226   0.081040  -0.053224   0.102936  -0.120367
   59  F  6  X    0.088718   0.052111  -0.035244   0.031860   0.038719
   60  F  6  Y   -0.073347  -0.041436   0.012646   0.081653  -0.045704
   61  F  6  Z    0.012815   0.043860   0.076898  -0.066020   0.035181
   62  F  6  X    0.068728  -0.006607   0.060743  -0.030474   0.089007
   63  F  6  Y   -0.049235  -0.003755  -0.094118  -0.011015   0.183928
   64  F  6  Z    0.018631  -0.037779   0.059928  -0.083898   0.066724
   65  F  6 XX   -0.000155  -0.001826  -0.011359  -0.000200   0.007035
   66  F  6 YY    0.003110  -0.007396   0.015132   0.004050  -0.013859
   67  F  6 ZZ   -0.002954   0.009222  -0.003773  -0.003850   0.006824
   68  F  6 XY   -0.004217   0.000492   0.004760   0.004394  -0.019073
   69  F  6 XZ   -0.006418   0.010267   0.003250  -0.000654  -0.018157
   70  F  6 YZ    0.000911   0.010397   0.001688   0.001105  -0.012701
   71  H  7  S   -0.303526  -0.173011  -0.367545  -0.499215  -0.336989
   72  H  7  S    1.108885   0.100396   1.766637   0.175253  -0.650013
   73  H  7  X   -0.037099  -0.029056  -0.033777  -0.008203  -0.034436
   74  H  7  Y    0.063561   0.012137   0.080707   0.033084  -0.041074
   75  H  7  Z   -0.010571  -0.041569  -0.004012  -0.013756   0.003912
   76  H  8  S   -0.074673  -0.756182  -0.065503  -0.280984  -0.341794
   77  H  8  S   -0.675787   0.763294  -0.864487   1.441889  -0.783645
   78  H  8  X    0.012325   0.021298  -0.014920   0.026569  -0.011311
   79  H  8  Y   -0.000182  -0.027977  -0.001635  -0.047832  -0.011370
   80  H  8  Z   -0.024524   0.065992  -0.029038   0.065773  -0.024707

                     36         37         38         39         40
                    0.9486     0.9712     0.9771     1.0294     1.1356
                     A          A          A          A          A   
    1  C  1  S   -0.015933  -0.001153   0.014141  -0.021247   0.024654
    2  C  1  S   -0.677728  -0.234365   0.341624  -0.057769   1.296930
    3  C  1  S    3.286167   0.855751  -1.855076   1.521847  -4.994024
    4  C  1  X    0.024139   0.017280  -0.083699   0.134953   0.197964
    5  C  1  Y    0.093914  -0.082254  -0.065433   0.177596   0.130810
    6  C  1  Z    0.044275  -0.034404  -0.005297   0.129958   0.029466
    7  C  1  X   -0.851532  -0.169267   0.502794  -0.349282   1.435382
    8  C  1  Y   -0.170863   0.087137   0.005943   0.052590   0.028116
    9  C  1  Z    0.561721  -0.213342  -0.606500   0.074252  -0.868744
   10  C  1 XX    0.157746  -0.022490   0.057427  -0.001455   0.030512
   11  C  1 YY   -0.057519  -0.028681  -0.059917   0.016523   0.015719
   12  C  1 ZZ   -0.100228   0.051171   0.002490  -0.015068  -0.046231
   13  C  1 XY   -0.025440  -0.092187  -0.152647   0.098757   0.010066
   14  C  1 XZ    0.096431  -0.004257   0.052047   0.030824   0.084928
   15  C  1 YZ    0.021965   0.179532   0.005980   0.137215  -0.003542
   16  C  2  S    0.019422   0.006552  -0.013559   0.003308  -0.032795
   17  C  2  S    0.478003  -0.101221  -0.321296   0.528518  -1.252273
   18  C  2  S   -3.180288  -0.352223   2.217362  -1.172637   5.031497
   19  C  2  X    0.066857   0.110736  -0.117471  -0.115468   0.138733
   20  C  2  Y   -0.195262  -0.108796   0.056261   0.143093  -0.084874
   21  C  2  Z    0.120292   0.062694  -0.032946  -0.118408   0.007300
   22  C  2  X   -0.836792  -0.106236   0.531915  -0.375850   1.412460
   23  C  2  Y    0.270649   0.053909   0.046026   0.110845  -0.231384
   24  C  2  Z    0.627743   0.428509  -0.113253   0.360718  -0.858821
   25  C  2 XX   -0.134388   0.091393  -0.012874  -0.015010  -0.030434
   26  C  2 YY    0.023932  -0.100846  -0.035966   0.008190  -0.018144
   27  C  2 ZZ    0.110456   0.009453   0.048839   0.006821   0.048579
   28  C  2 XY    0.053792   0.186256  -0.021986  -0.062318  -0.008461
   29  C  2 XZ   -0.098039   0.023615  -0.009756   0.045166  -0.092935
   30  C  2 YZ    0.026608  -0.043443  -0.191111  -0.091997   0.009112
   31  F  3  S   -0.043042  -0.034502   0.043781   0.024440   0.011536
   32  F  3  S    0.173157   0.166200  -0.219793  -0.124946  -0.046894
   33  F  3  S    0.215230   0.040390  -0.098076   0.096182  -0.288596
   34  F  3  X   -0.502752  -0.031417  -0.099198   0.239036  -0.219948
   35  F  3  Y   -0.054437   0.516137  -0.225060  -0.241303   0.133242
   36  F  3  Z   -0.069280   0.191024   0.525025   0.257860  -0.151994
   37  F  3  X    0.801711   0.172562  -0.059739  -0.384771   0.176924
   38  F  3  Y   -0.188013  -0.737105   0.419809   0.388347  -0.109522
   39  F  3  Z    0.181062  -0.157171  -0.725879  -0.392716   0.199911
   40  F  3 XX    0.019254   0.001978   0.002895   0.016922  -0.024979
   41  F  3 YY   -0.024573   0.007093   0.003386   0.000513   0.002032
   42  F  3 ZZ    0.005319  -0.009072  -0.006282  -0.017436   0.022947
   43  F  3 XY   -0.003620   0.014228  -0.004263  -0.042066   0.059752
   44  F  3 XZ   -0.017842  -0.024496   0.001179   0.011940  -0.002740
   45  F  3 YZ    0.004986   0.005885   0.002153  -0.023607   0.048322
   46  H  4  S    0.263347   0.001997  -0.214899   0.186488  -0.507066
   47  H  4  S    0.315698   0.015118   0.003162   0.069786  -0.192371
   48  H  4  X    0.038943  -0.095196   0.004954   0.020961   0.011037
   49  H  4  Y    0.000647   0.057400  -0.008911  -0.006902  -0.027762
   50  H  4  Z    0.021432   0.022130   0.114015   0.038426   0.024283
   51  H  5  S    0.224988  -0.037699  -0.271415   0.188509  -0.468930
   52  H  5  S   -0.005716  -0.217834  -0.154437  -0.139668  -0.192027
   53  H  5  X   -0.072699   0.073967   0.005035   0.007900  -0.047584
   54  H  5  Y    0.015697  -0.040160  -0.096779  -0.048145  -0.001345
   55  H  5  Z   -0.007420  -0.010240   0.041735   0.011449   0.029455
   56  F  6  S    0.030906   0.006778  -0.042067   0.057356  -0.005416
   57  F  6  S   -0.135512  -0.043896   0.222389  -0.326630  -0.013217
   58  F  6  S   -0.142647  -0.014241   0.055250   0.064780   0.309728
   59  F  6  X   -0.370467   0.265832  -0.012028  -0.285941  -0.282034
   60  F  6  Y    0.212615  -0.023936   0.413501  -0.380586  -0.246715
   61  F  6  Z   -0.132886  -0.440854  -0.102181  -0.358189  -0.191376
   62  F  6  X    0.583459  -0.287509  -0.144294   0.544232   0.229136
[...]
   27  C  2 ZZ   -0.013904  -0.009171   0.000596   0.000373  -0.001696
   28  C  2 XY   -0.004256   0.002315  -0.012159   0.010180   0.022313
   29  C  2 XZ    0.008912  -0.004591  -0.001941   0.034865   0.050958
   30  C  2 YZ   -0.016435   0.011259  -0.010514   0.017033   0.022264
   31  F  3  S   -0.039428   0.024659  -0.040916   0.000355   0.006605
   32  F  3  S    0.071094  -0.039595   0.076102   0.018926  -0.032882
   33  F  3  S    0.335891  -0.240094   0.355469  -0.090427   0.035239
   34  F  3  X    0.134682  -0.021022   0.057913  -0.095109  -0.111833
   35  F  3  Y   -0.135201   0.021853  -0.110582   0.001770   0.020513
   36  F  3  Z    0.062123  -0.047378   0.003907   0.050139   0.078266
   37  F  3  X    0.164507  -0.067817   0.066599  -0.202129  -0.104606
   38  F  3  Y   -0.156371   0.003774  -0.162521  -0.005744  -0.005194
   39  F  3  Z    0.081609  -0.083499   0.005188   0.098283   0.130905
   40  F  3 XX    0.002634   0.000153   0.003491   0.003735  -0.001721
   41  F  3 YY   -0.000594  -0.003715  -0.004105   0.002738   0.003384
   42  F  3 ZZ   -0.002040   0.003562   0.000614  -0.006473  -0.001663
   43  F  3 XY    0.003978   0.003029   0.000667  -0.004402  -0.002931
   44  F  3 XZ   -0.001751   0.003500   0.002839   0.006833   0.008059
   45  F  3 YZ    0.002806  -0.000385  -0.001299   0.007559  -0.001284
   46  H  4  S    0.093390   0.027737  -0.022746   0.106029   0.230443
   47  H  4  S    0.880680   1.411754   0.749106   0.651862  -0.078691
   48  H  4  X   -0.003216  -0.013219   0.008604   0.006889   0.004732
   49  H  4  Y   -0.013006  -0.008972  -0.013433  -0.011029  -0.003835
   50  H  4  Z    0.007856  -0.003053   0.008270  -0.019267  -0.023218
   51  H  5  S   -0.020715  -0.001579   0.000605   0.075353   0.264673
   52  H  5  S    0.631108  -0.968657  -1.196136   0.281001   0.217234
   53  H  5  X    0.009372  -0.006130  -0.001804   0.019321   0.020870
   54  H  5  Y   -0.004741   0.005504  -0.011211   0.011555   0.013034
   55  H  5  Z    0.008244  -0.012027  -0.011856  -0.001465  -0.016357
   56  F  6  S    0.038961  -0.024317  -0.040966  -0.000216   0.006599
   57  F  6  S   -0.070186   0.038987   0.076150  -0.019137  -0.033129
   58  F  6  S   -0.331915   0.236918   0.355982   0.088872   0.036698
   59  F  6  X    0.137618  -0.021477  -0.061546  -0.094828   0.113065
   60  F  6  Y    0.134261  -0.024405  -0.108056   0.006551   0.009775
   61  F  6  Z    0.048144  -0.045237   0.005856   0.050205  -0.078910
   62  F  6  X    0.168227  -0.067571  -0.072435  -0.201218   0.103738
   63  F  6  Y    0.156030  -0.007642  -0.159283   0.022172  -0.020880
   64  F  6  Z    0.065394  -0.082969   0.009031   0.097281  -0.129270
   65  F  6 XX   -0.002450  -0.000003   0.003434  -0.004015  -0.001430
   66  F  6 YY    0.000813   0.003455  -0.003786  -0.001167   0.003308
   67  F  6 ZZ    0.001637  -0.003452   0.000352   0.005182  -0.001878
   68  F  6 XY    0.004251   0.002850  -0.000655  -0.004907   0.003971
   69  F  6 XZ    0.001419  -0.003819   0.002920  -0.006110   0.007836
   70  F  6 YZ    0.002812  -0.001017   0.001660   0.008607   0.000539
   71  H  7  S   -0.094899  -0.027431  -0.023235  -0.106557   0.231351
   72  H  7  S   -0.887983  -1.418700   0.733290  -0.649388  -0.080775
   73  H  7  X   -0.002952  -0.012792  -0.009197   0.007282  -0.004713
   74  H  7  Y    0.013811   0.009250  -0.013694   0.008968  -0.001598
   75  H  7  Z    0.006675  -0.003864  -0.007009  -0.020152   0.023306
   76  H  8  S    0.022016   0.001624   0.001051  -0.075114   0.262454
   77  H  8  S   -0.617048   0.979906  -1.188191  -0.282996   0.217350
   78  H  8  X    0.009437  -0.006336   0.001405   0.018954  -0.020445
   79  H  8  Y    0.005040  -0.006287  -0.010154  -0.012283   0.015216
   80  H  8  Z    0.007586  -0.011607   0.012732  -0.000339   0.015149

                     26         27
                    0.3921     0.3952
                     A          A   
    1  C  1  S   -0.037916   0.032668
    2  C  1  S    0.275014  -0.267197
    3  C  1  S   -0.204822   0.178780
    4  C  1  X    0.329310  -0.340383
    5  C  1  Y    0.505789  -0.368585
    6  C  1  Z    0.194756  -0.324411
    7  C  1  X   -0.306960   0.503169
    8  C  1  Y   -0.881710   0.519290
    9  C  1  Z   -0.406615   0.617867
   10  C  1 XX   -0.006129  -0.000480
   11  C  1 YY    0.006411   0.026837
   12  C  1 ZZ   -0.000282  -0.026356
   13  C  1 XY   -0.025017   0.029674
   14  C  1 XZ   -0.031087   0.012058
   15  C  1 YZ   -0.003435   0.005380
   16  C  2  S    0.035600   0.035135
   17  C  2  S   -0.256850  -0.284739
   18  C  2  S    0.195298   0.193103
   19  C  2  X    0.291441   0.347431
   20  C  2  Y   -0.474301  -0.380231
   21  C  2  Z    0.217140   0.371935
   22  C  2  X   -0.249386  -0.501708
   23  C  2  Y    0.817807   0.530399
   24  C  2  Z   -0.441097  -0.694021
   25  C  2 XX    0.004956  -0.001806
   26  C  2 YY   -0.007508   0.026772
   27  C  2 ZZ    0.002552  -0.024967
   28  C  2 XY   -0.021227  -0.028819
   29  C  2 XZ    0.032080   0.016491
   30  C  2 YZ   -0.003205  -0.011726
   31  F  3  S   -0.001148   0.005471
   32  F  3  S    0.075375   0.049513
   33  F  3  S   -0.391774  -0.418297
   34  F  3  X    0.177975   0.133766
   35  F  3  Y   -0.126721  -0.196547
   36  F  3  Z    0.114032   0.093014
   37  F  3  X   -0.053209  -0.034725
   38  F  3  Y   -0.005442   0.037592
   39  F  3  Z    0.001011   0.011069
   40  F  3 XX   -0.012965  -0.002015
   41  F  3 YY    0.000050  -0.008451
   42  F  3 ZZ    0.012915   0.010466
   43  F  3 XY    0.026219   0.039256
   44  F  3 XZ   -0.019673  -0.016446
   45  F  3 YZ    0.022820   0.018319
   46  H  4  S    0.015948   0.187773
   47  H  4  S    0.112723   0.032735
   48  H  4  X    0.025743   0.002652
   49  H  4  Y    0.005832  -0.001694
   50  H  4  Z   -0.019528   0.011583
   51  H  5  S    0.247500  -0.005165
   52  H  5  S    0.033067   0.102067
   53  H  5  X   -0.003352   0.021213
   54  H  5  Y   -0.007645  -0.002086
   55  H  5  Z    0.010678  -0.024179
   56  F  6  S    0.000800   0.005619
   57  F  6  S   -0.078265   0.044350
   58  F  6  S    0.416870  -0.392790
   59  F  6  X    0.190023  -0.128506
   60  F  6  Y    0.143094  -0.190445
   61  F  6  Z    0.107052  -0.068059
   62  F  6  X   -0.055765   0.032829
   63  F  6  Y    0.005430   0.035957
   64  F  6  Z    0.001567  -0.014039
   65  F  6 XX    0.014775  -0.003471
   66  F  6 YY    0.002313  -0.008589
   67  F  6 ZZ   -0.017087   0.012060
   68  F  6 XY    0.029909  -0.038947
   69  F  6 XZ    0.018743  -0.012191
   70  F  6 YZ    0.021468  -0.014281
   71  H  7  S   -0.032215   0.186052
   72  H  7  S   -0.112802   0.026020
   73  H  7  X    0.025559  -0.001122
   74  H  7  Y   -0.008185  -0.003158
   75  H  7  Z   -0.018176  -0.012601
   76  H  8  S   -0.247720  -0.021502
   77  H  8  S   -0.039966   0.099476
   78  H  8  X   -0.001617  -0.021391
   79  H  8  Y    0.008425   0.001417
   80  H  8  Z    0.008384   0.024838

     ---------------------------------------------------------------------
     PROPERTIES FOR THE PBE      DFT FUNCTIONAL (RHF  TYPE) DENSITY MATRIX
     ---------------------------------------------------------------------

          -----------------
          ENERGY COMPONENTS
          -----------------

         WAVEFUNCTION NORMALIZATION =       1.0000000000

                ONE ELECTRON ENERGY =    -633.2126027019
                TWO ELECTRON ENERGY =     229.5705643381
           NUCLEAR REPULSION ENERGY =     125.7055911933
                                      ------------------
                       TOTAL ENERGY =    -277.9364471706

 ELECTRON-ELECTRON POTENTIAL ENERGY =     229.5705643381
  NUCLEUS-ELECTRON POTENTIAL ENERGY =    -910.2886436101
   NUCLEUS-NUCLEUS POTENTIAL ENERGY =     125.7055911933
                                      ------------------
             TOTAL POTENTIAL ENERGY =    -555.0124880787
               TOTAL KINETIC ENERGY =     277.0760409081
                 VIRIAL RATIO (V/T) =       2.0031053073

          ---------------------------------------
          MULLIKEN AND LOWDIN POPULATION ANALYSES
          ---------------------------------------

     ATOMIC MULLIKEN POPULATION IN EACH MOLECULAR ORBITAL

                      1          2          3          4          5

                  2.000000   2.000000   2.000000   2.000000   2.000000

    1            -0.000056   0.001191   0.795351   1.204411   0.110406
    2             0.001175  -0.000038   1.203929   0.795837   0.116056
    3             1.946066   0.052812  -0.000317  -0.000190   0.907728
    4            -0.000012  -0.000001   0.000297   0.000038   0.003162
    5            -0.000006   0.000004   0.000390   0.000017   0.005909
    6             0.052824   1.946055  -0.000212  -0.000293   0.847984
    7             0.000002  -0.000015   0.000237   0.000099   0.002984
    8             0.000008  -0.000009   0.000325   0.000082   0.005772

                      6          7          8          9         10

                  2.000000   2.000000   2.000000   2.000000   2.000000

    1             0.088115   0.712860   0.473543   0.461507   0.381602
    2             0.082769   0.712955   0.473722   0.383127   0.462976
    3             0.881115   0.152165   0.264494   0.616269   0.204882
    4             0.002321   0.073192   0.118197   0.016814   0.166171
    5             0.000895   0.061788   0.144156   0.097794   0.056570
    6             0.941263   0.151890   0.263607   0.215083   0.601073
    7             0.002506   0.073398   0.118070   0.076470   0.105841
    8             0.001017   0.061754   0.144212   0.132936   0.020884

                     11         12         13         14         15

                  2.000000   2.000000   2.000000   2.000000   2.000000

    1             0.442931   0.300894   0.344186   0.052164   0.127758
    2             0.443006   0.298488   0.343184   0.052039   0.127524
    3             0.524482   0.488347   0.440690   0.919203   0.628031
    4             0.029858   0.204560   0.003021   0.013091   0.058112
    5             0.002210   0.006095   0.212218   0.015182   0.183795
    6             0.525723   0.489367   0.440667   0.920277   0.632202
    7             0.029568   0.205782   0.002957   0.012974   0.058460
    8             0.002221   0.006467   0.213079   0.015070   0.184117

                     16         17

                  2.000000   2.000000

    1             0.133743   0.245625
    2             0.135098   0.244983
    3             0.667866   0.634727
    4             0.125552   0.091739
    5             0.074580   0.027214
    6             0.665666   0.635455
    7             0.123197   0.093751
    8             0.074298   0.026505

               ----- POPULATIONS IN EACH AO -----
                             MULLIKEN      LOWDIN
              1  C  1  S      1.99339     1.97166
              2  C  1  S      0.75997     0.38570
              3  C  1  S      0.37043     0.27987
              4  C  1  X      0.66862     0.61152
              5  C  1  Y      0.65684     0.59359
              6  C  1  Z      0.74080     0.66957
              7  C  1  X      0.16129     0.27156
              8  C  1  Y      0.19627     0.30937
              9  C  1  Z      0.26535     0.35742
             10  C  1 XX      0.01281     0.16177
             11  C  1 YY      0.01536     0.16155
             12  C  1 ZZ      0.01641     0.16059
             13  C  1 XY      0.01210     0.03220
             14  C  1 XZ      0.00660     0.02463
             15  C  1 YZ      0.00000     0.01214
             16  C  2  S      1.99339     1.97166
             17  C  2  S      0.75990     0.38567
             18  C  2  S      0.37063     0.27988
             19  C  2  X      0.67594     0.61757
             20  C  2  Y      0.66166     0.59777
             21  C  2  Z      0.72881     0.65962
             22  C  2  X      0.16654     0.27666
             23  C  2  Y      0.20127     0.31361
             24  C  2  Z      0.25531     0.34809
             25  C  2 XX      0.01275     0.16100
             26  C  2 YY      0.01450     0.16043
             27  C  2 ZZ      0.01613     0.16027
             28  C  2 XY      0.01252     0.03208
             29  C  2 XZ      0.00747     0.02541
             30  C  2 YZ      0.00000     0.01433
             31  F  3  S      1.99544     1.97164
             32  F  3  S      0.94934     0.75191
             33  F  3  S      0.99773     0.52544
             34  F  3  X      1.11481     1.07663
             35  F  3  Y      1.11554     1.07738
             36  F  3  Z      1.18226     1.14918
             37  F  3  X      0.64106     0.67005
             38  F  3  Y      0.63972     0.67469
             39  F  3  Z      0.68213     0.71103
             40  F  3 XX      0.00140     0.19218
             41  F  3 YY      0.00212     0.19210
             42  F  3 ZZ      0.00318     0.19023
             43  F  3 XY      0.00186     0.00392
             44  F  3 XZ      0.00179     0.00248
             45  F  3 YZ      0.00000     0.00248
             46  H  4  S      0.77186     0.65035
             47  H  4  S      0.11746     0.21592
             48  H  4  X      0.00424     0.00954
             49  H  4  Y      0.00950     0.02004
             50  H  4  Z      0.00306     0.00806
             51  H  5  S      0.76416     0.64536
             52  H  5  S      0.10777     0.21689
             53  H  5  X      0.00292     0.00816
             54  H  5  Y      0.00320     0.00734
             55  H  5  Z      0.01076     0.02287
             56  F  6  S      1.99544     1.97164
             57  F  6  S      0.94936     0.75197
             58  F  6  S      0.99784     0.52559
             59  F  6  X      1.10611     1.06730
             60  F  6  Y      1.11026     1.07169
             61  F  6  Z      1.19605     1.16410
             62  F  6  X      0.63609     0.66579
             63  F  6  Y      0.63707     0.67253
             64  F  6  Z      0.69008     0.71773
             65  F  6 XX      0.00139     0.19250
             66  F  6 YY      0.00222     0.19232
             67  F  6 ZZ      0.00341     0.18987
             68  F  6 XY      0.00172     0.00416
             69  F  6 XZ      0.00159     0.00235
             70  F  6 YZ      0.00000     0.00227
             71  H  7  S      0.77199     0.65055
             72  H  7  S      0.11748     0.21589
             73  H  7  X      0.00398     0.00907
             74  H  7  Y      0.00968     0.02038
             75  H  7  Z      0.00315     0.00820
             76  H  8  S      0.76412     0.64567
             77  H  8  S      0.10774     0.21692
             78  H  8  X      0.00285     0.00799
             79  H  8  Y      0.00288     0.00679
             80  H  8  Z      0.01116     0.02364

          ----- MULLIKEN ATOMIC OVERLAP POPULATIONS -----
          (OFF-DIAGONAL ELEMENTS NEED TO BE MULTIPLIED BY 2)

             1           2           3           4           5

    1    4.6173535
    2    0.3916438   4.6180883
    3   -0.0406028   0.2428375   9.1766248
    4   -0.0329542   0.3627974  -0.0298471   0.6296359
    5   -0.0397617   0.3748565  -0.0285470  -0.0309722   0.5979380
    6    0.2428831  -0.0405339   0.0007072   0.0038600   0.0033202
    7    0.3626131  -0.0329996   0.0038752   0.0036447  -0.0000333
    8    0.3750566  -0.0398608   0.0033204  -0.0000516   0.0120102

             6           7           8

    6    9.1767391
    7   -0.0298018   0.6299488
    8   -0.0285436  -0.0309670   0.5977735

          TOTAL MULLIKEN AND LOWDIN ATOMIC POPULATIONS
       ATOM         MULL.POP.    CHARGE          LOW.POP.     CHARGE
    1 C             5.876231    0.123769         6.003145   -0.003145
    2 C             5.876829    0.123171         6.004059   -0.004059
    3 F             9.328368   -0.328368         9.191343   -0.191343
    4 H             0.906113    0.093887         0.903915    0.096085
    5 H             0.888811    0.111189         0.900617    0.099383
    6 F             9.328630   -0.328630         9.191821   -0.191821
    7 H             0.906280    0.093720         0.904085    0.095915
    8 H             0.888738    0.111262         0.901015    0.098985

          MULLIKEN SPHERICAL HARMONIC POPULATIONS
       ATOM           S       P       D      F      G      H      I    TOTAL
    1 C             3.12    2.69    0.06   0.00   0.00   0.00   0.00    5.88
    2 C             3.12    2.69    0.06   0.00   0.00   0.00   0.00    5.88
    3 F             3.94    5.38    0.01   0.00   0.00   0.00   0.00    9.33
    4 H             0.89    0.02    0.00   0.00   0.00   0.00   0.00    0.91
    5 H             0.87    0.02    0.00   0.00   0.00   0.00   0.00    0.89
    6 F             3.94    5.38    0.01   0.00   0.00   0.00   0.00    9.33
    7 H             0.89    0.02    0.00   0.00   0.00   0.00   0.00    0.91
    8 H             0.87    0.02    0.00   0.00   0.00   0.00   0.00    0.89

          -------------------------------
          BOND ORDER AND VALENCE ANALYSIS     BOND ORDER THRESHOLD=0.050
          -------------------------------

                   BOND                       BOND                       BOND
  ATOM PAIR DIST  ORDER      ATOM PAIR DIST  ORDER      ATOM PAIR DIST  ORDER
    1   2  1.511  1.047        1   6  1.401  0.916        1   7  1.108  0.937
    1   8  1.107  0.935        2   3  1.400  0.917        2   4  1.109  0.937
    2   5  1.107  0.935

                       TOTAL       BONDED        FREE
      ATOM            VALENCE     VALENCE     VALENCE
    1 C                 3.848       3.848      -0.000
    2 C                 3.848       3.848       0.000
    3 F                 0.978       0.978      -0.000
    4 H                 0.956       0.956      -0.000
    5 H                 0.966       0.966       0.000
    6 F                 0.978       0.978      -0.000
    7 H                 0.956       0.956       0.000
    8 H                 0.966       0.966      -0.000

          ---------------------
          ELECTROSTATIC MOMENTS
          ---------------------

 POINT   1           X           Y           Z (BOHR)    CHARGE
                 0.000000   -0.000000   -0.000000       -0.00 (A.U.)
         DX          DY          DZ         /D/  (DEBYE)
    -0.042286   -2.316980    0.105447    2.319763
 ...... END OF PROPERTY EVALUATION ......
 STEP CPU TIME =     0.02 TOTAL CPU TIME =         91.9 (      1.5 MIN)
 TOTAL WALL CLOCK TIME=         92.4 SECONDS, CPU UTILIZATION IS    99.51%
  $VIB   
          IVIB=   0 IATOM=   0 ICOORD=   0 E=     -277.9364471706
  6.910519607E-05 2.574076337E-05 4.207393167E-05-4.007924476E-05-6.234447277E-05
 -4.720781197E-05 1.731084723E-05 3.689000938E-05 5.841415453E-06 2.887052040E-05
 -4.876532497E-06 1.561224226E-05-4.609856387E-06 1.898041755E-05 4.617507065E-06
 -1.551125178E-05 3.448347913E-06-8.322452429E-07-2.442219468E-05-7.841435125E-06
 -1.370441600E-05-3.066401609E-05-9.997097818E-06-6.400623228E-06
 -4.228552409E-02-2.316979737E+00 1.054467818E-01
 ......END OF GEOMETRY SEARCH......
 STEP CPU TIME =     0.00 TOTAL CPU TIME =         91.9 (      1.5 MIN)
 TOTAL WALL CLOCK TIME=         92.4 SECONDS, CPU UTILIZATION IS    99.50%
                991181  WORDS OF DYNAMIC MEMORY USED
 EXECUTION OF GAMESS TERMINATED NORMALLY Sun Oct  6 23:34:58 2019
 DDI: 263640 bytes (0.3 MB / 0 MWords) used by master data server.

 ----------------------------------------
 CPU timing information for all processes
 ========================================
 0: 90.324 + 1.616 = 91.941
 ----------------------------------------
 ddikick.x: exited gracefully.
----- accounting info -----
Files used on the master node d12chas543.crc.nd.edu were:
-rw-r--r-- 1 wschnei1 campus 378327 Oct  6 23:34 /scratch365/wschnei1/90-PC1.F07
Sun Oct  6 23:35:02 EDT 2019
0.431u 0.337s 1:36.10 0.7%	0+0k 0+40io 0pf+0w
