   2   2   0   0
  0.5000000E+03  0.1000000E-08  0.1000000E-08  0.1000000E-08  0.1000000E-15
  1.000000000000000E-004
  CAR 
 N2                                      
      2.52932538    -27.87482421  301    -10.01238633      1.00000000
    -27.875  0.0000E+00  0.0000E+00
    -27.773  0.0000E+00  0.0000E+00
    -27.672  0.0000E+00  0.0000E+00
    -27.571  0.0000E+00  0.0000E+00
    -27.469  0.0000E+00  0.0000E+00
    -27.368  0.0000E+00  0.0000E+00
    -27.267  0.0000E+00  0.0000E+00
    -27.165  0.0000E+00  0.0000E+00
    -27.064  0.0000E+00  0.0000E+00
    -26.963  0.0000E+00  0.0000E+00
    -26.861  0.0000E+00  0.0000E+00
    -26.760  0.0000E+00  0.0000E+00
    -26.659  0.0000E+00  0.0000E+00
    -26.557  0.0000E+00  0.0000E+00
    -26.456  0.1973E+02  0.2000E+01
    -26.355  0.0000E+00  0.2000E+01
    -26.253  0.0000E+00  0.2000E+01
    -26.152  0.0000E+00  0.2000E+01
    -26.051  0.0000E+00  0.2000E+01
    -25.949  0.0000E+00  0.2000E+01
    -25.848  0.0000E+00  0.2000E+01
    -25.747  0.0000E+00  0.2000E+01
    -25.645  0.0000E+00  0.2000E+01
    -25.544  0.0000E+00  0.2000E+01
    -25.442  0.0000E+00  0.2000E+01
    -25.341  0.0000E+00  0.2000E+01
    -25.240  0.0000E+00  0.2000E+01
    -25.138  0.0000E+00  0.2000E+01
    -25.037  0.0000E+00  0.2000E+01
    -24.936  0.0000E+00  0.2000E+01
    -24.834  0.0000E+00  0.2000E+01
    -24.733  0.0000E+00  0.2000E+01
    -24.632  0.0000E+00  0.2000E+01
    -24.530  0.0000E+00  0.2000E+01
    -24.429  0.0000E+00  0.2000E+01
    -24.328  0.0000E+00  0.2000E+01
    -24.226  0.0000E+00  0.2000E+01
    -24.125  0.0000E+00  0.2000E+01
    -24.024  0.0000E+00  0.2000E+01
    -23.922  0.0000E+00  0.2000E+01
    -23.821  0.0000E+00  0.2000E+01
    -23.720  0.0000E+00  0.2000E+01
    -23.618  0.0000E+00  0.2000E+01
    -23.517  0.0000E+00  0.2000E+01
    -23.416  0.0000E+00  0.2000E+01
    -23.314  0.0000E+00  0.2000E+01
    -23.213  0.0000E+00  0.2000E+01
    -23.112  0.0000E+00  0.2000E+01
    -23.010  0.0000E+00  0.2000E+01
    -22.909  0.0000E+00  0.2000E+01
    -22.807  0.0000E+00  0.2000E+01
    -22.706  0.0000E+00  0.2000E+01
    -22.605  0.0000E+00  0.2000E+01
    -22.503  0.0000E+00  0.2000E+01
    -22.402  0.0000E+00  0.2000E+01
    -22.301  0.0000E+00  0.2000E+01
    -22.199  0.0000E+00  0.2000E+01
    -22.098  0.0000E+00  0.2000E+01
    -21.997  0.0000E+00  0.2000E+01
    -21.895  0.0000E+00  0.2000E+01
    -21.794  0.0000E+00  0.2000E+01
    -21.693  0.0000E+00  0.2000E+01
    -21.591  0.0000E+00  0.2000E+01
    -21.490  0.0000E+00  0.2000E+01
    -21.389  0.0000E+00  0.2000E+01
    -21.287  0.0000E+00  0.2000E+01
    -21.186  0.0000E+00  0.2000E+01
    -21.085  0.0000E+00  0.2000E+01
    -20.983  0.0000E+00  0.2000E+01
    -20.882  0.0000E+00  0.2000E+01
    -20.781  0.0000E+00  0.2000E+01
    -20.679  0.0000E+00  0.2000E+01
    -20.578  0.0000E+00  0.2000E+01
    -20.476  0.0000E+00  0.2000E+01
    -20.375  0.0000E+00  0.2000E+01
    -20.274  0.0000E+00  0.2000E+01
    -20.172  0.0000E+00  0.2000E+01
    -20.071  0.0000E+00  0.2000E+01
    -19.970  0.0000E+00  0.2000E+01
    -19.868  0.0000E+00  0.2000E+01
    -19.767  0.0000E+00  0.2000E+01
    -19.666  0.0000E+00  0.2000E+01
    -19.564  0.0000E+00  0.2000E+01
    -19.463  0.0000E+00  0.2000E+01
    -19.362  0.0000E+00  0.2000E+01
    -19.260  0.0000E+00  0.2000E+01
    -19.159  0.0000E+00  0.2000E+01
    -19.058  0.0000E+00  0.2000E+01
    -18.956  0.0000E+00  0.2000E+01
    -18.855  0.0000E+00  0.2000E+01
    -18.754  0.0000E+00  0.2000E+01
    -18.652  0.0000E+00  0.2000E+01
    -18.551  0.0000E+00  0.2000E+01
    -18.450  0.0000E+00  0.2000E+01
    -18.348  0.0000E+00  0.2000E+01
    -18.247  0.0000E+00  0.2000E+01
    -18.145  0.0000E+00  0.2000E+01
    -18.044  0.0000E+00  0.2000E+01
    -17.943  0.0000E+00  0.2000E+01
    -17.841  0.0000E+00  0.2000E+01
    -17.740  0.0000E+00  0.2000E+01
    -17.639  0.0000E+00  0.2000E+01
    -17.537  0.0000E+00  0.2000E+01
    -17.436  0.0000E+00  0.2000E+01
    -17.335  0.0000E+00  0.2000E+01
    -17.233  0.0000E+00  0.2000E+01
    -17.132  0.0000E+00  0.2000E+01
    -17.031  0.0000E+00  0.2000E+01
    -16.929  0.0000E+00  0.2000E+01
    -16.828  0.0000E+00  0.2000E+01
    -16.727  0.0000E+00  0.2000E+01
    -16.625  0.0000E+00  0.2000E+01
    -16.524  0.0000E+00  0.2000E+01
    -16.423  0.0000E+00  0.2000E+01
    -16.321  0.0000E+00  0.2000E+01
    -16.220  0.0000E+00  0.2000E+01
    -16.119  0.0000E+00  0.2000E+01
    -16.017  0.0000E+00  0.2000E+01
    -15.916  0.0000E+00  0.2000E+01
    -15.815  0.0000E+00  0.2000E+01
    -15.713  0.0000E+00  0.2000E+01
    -15.612  0.0000E+00  0.2000E+01
    -15.510  0.0000E+00  0.2000E+01
    -15.409  0.0000E+00  0.2000E+01
    -15.308  0.0000E+00  0.2000E+01
    -15.206  0.0000E+00  0.2000E+01
    -15.105  0.0000E+00  0.2000E+01
    -15.004  0.0000E+00  0.2000E+01
    -14.902  0.0000E+00  0.2000E+01
    -14.801  0.0000E+00  0.2000E+01
    -14.700  0.0000E+00  0.2000E+01
    -14.598  0.0000E+00  0.2000E+01
    -14.497  0.0000E+00  0.2000E+01
    -14.396  0.0000E+00  0.2000E+01
    -14.294  0.0000E+00  0.2000E+01
    -14.193  0.1973E+02  0.4000E+01
    -14.092  0.0000E+00  0.4000E+01
    -13.990  0.0000E+00  0.4000E+01
    -13.889  0.0000E+00  0.4000E+01
    -13.788  0.0000E+00  0.4000E+01
    -13.686  0.0000E+00  0.4000E+01
    -13.585  0.0000E+00  0.4000E+01
    -13.484  0.0000E+00  0.4000E+01
    -13.382  0.0000E+00  0.4000E+01
    -13.281  0.0000E+00  0.4000E+01
    -13.179  0.0000E+00  0.4000E+01
    -13.078  0.0000E+00  0.4000E+01
    -12.977  0.0000E+00  0.4000E+01
    -12.875  0.0000E+00  0.4000E+01
    -12.774  0.0000E+00  0.4000E+01
    -12.673  0.0000E+00  0.4000E+01
    -12.571  0.0000E+00  0.4000E+01
    -12.470  0.0000E+00  0.4000E+01
    -12.369  0.0000E+00  0.4000E+01
    -12.267  0.0000E+00  0.4000E+01
    -12.166  0.0000E+00  0.4000E+01
    -12.065  0.0000E+00  0.4000E+01
    -11.963  0.0000E+00  0.4000E+01
    -11.862  0.0000E+00  0.4000E+01
    -11.761  0.0000E+00  0.4000E+01
    -11.659  0.0000E+00  0.4000E+01
    -11.558  0.0000E+00  0.4000E+01
    -11.457  0.0000E+00  0.4000E+01
    -11.355  0.0000E+00  0.4000E+01
    -11.254  0.0000E+00  0.4000E+01
    -11.153  0.0000E+00  0.4000E+01
    -11.051  0.0000E+00  0.4000E+01
    -10.950  0.0000E+00  0.4000E+01
    -10.849  0.0000E+00  0.4000E+01
    -10.747  0.0000E+00  0.4000E+01
    -10.646  0.0000E+00  0.8000E+01
    -10.544  0.0000E+00  0.8000E+01
    -10.443  0.0000E+00  0.8000E+01
    -10.342  0.0000E+00  0.8000E+01
    -10.240  0.0000E+00  0.8000E+01
    -10.139  0.0000E+00  0.8000E+01
    -10.038  0.1973E+02  0.1000E+02
     -9.936  0.0000E+00  0.1000E+02
     -9.835  0.0000E+00  0.1000E+02
     -9.734  0.0000E+00  0.1000E+02
     -9.632  0.0000E+00  0.1000E+02
     -9.531  0.0000E+00  0.1000E+02
     -9.430  0.0000E+00  0.1000E+02
     -9.328  0.0000E+00  0.1000E+02
     -9.227  0.0000E+00  0.1000E+02
     -9.126  0.0000E+00  0.1000E+02
     -9.024  0.0000E+00  0.1000E+02
     -8.923  0.0000E+00  0.1000E+02
     -8.822  0.0000E+00  0.1000E+02
     -8.720  0.0000E+00  0.1000E+02
     -8.619  0.0000E+00  0.1000E+02
     -8.518  0.0000E+00  0.1000E+02
     -8.416  0.0000E+00  0.1000E+02
     -8.315  0.0000E+00  0.1000E+02
     -8.213  0.0000E+00  0.1000E+02
     -8.112  0.0000E+00  0.1000E+02
     -8.011  0.0000E+00  0.1000E+02
     -7.909  0.0000E+00  0.1000E+02
     -7.808  0.0000E+00  0.1000E+02
     -7.707  0.0000E+00  0.1000E+02
     -7.605  0.0000E+00  0.1000E+02
     -7.504  0.0000E+00  0.1000E+02
     -7.403  0.0000E+00  0.1000E+02
     -7.301  0.0000E+00  0.1000E+02
     -7.200  0.0000E+00  0.1000E+02
     -7.099  0.0000E+00  0.1000E+02
     -6.997  0.0000E+00  0.1000E+02
     -6.896  0.0000E+00  0.1000E+02
     -6.795  0.0000E+00  0.1000E+02
     -6.693  0.0000E+00  0.1000E+02
     -6.592  0.0000E+00  0.1000E+02
     -6.491  0.0000E+00  0.1000E+02
     -6.389  0.0000E+00  0.1000E+02
     -6.288  0.0000E+00  0.1000E+02
     -6.187  0.0000E+00  0.1000E+02
     -6.085  0.0000E+00  0.1000E+02
     -5.984  0.0000E+00  0.1000E+02
     -5.882  0.0000E+00  0.1000E+02
     -5.781  0.0000E+00  0.1000E+02
     -5.680  0.0000E+00  0.1000E+02
     -5.578  0.0000E+00  0.1000E+02
     -5.477  0.0000E+00  0.1000E+02
     -5.376  0.0000E+00  0.1000E+02
     -5.274  0.0000E+00  0.1000E+02
     -5.173  0.0000E+00  0.1000E+02
     -5.072  0.0000E+00  0.1000E+02
     -4.970  0.0000E+00  0.1000E+02
     -4.869  0.0000E+00  0.1000E+02
     -4.768  0.0000E+00  0.1000E+02
     -4.666  0.0000E+00  0.1000E+02
     -4.565  0.0000E+00  0.1000E+02
     -4.464  0.0000E+00  0.1000E+02
     -4.362  0.0000E+00  0.1000E+02
     -4.261  0.0000E+00  0.1000E+02
     -4.160  0.0000E+00  0.1000E+02
     -4.058  0.0000E+00  0.1000E+02
     -3.957  0.0000E+00  0.1000E+02
     -3.856  0.0000E+00  0.1000E+02
     -3.754  0.0000E+00  0.1000E+02
     -3.653  0.0000E+00  0.1000E+02
     -3.552  0.0000E+00  0.1000E+02
     -3.450  0.0000E+00  0.1000E+02
     -3.349  0.0000E+00  0.1000E+02
     -3.247  0.0000E+00  0.1000E+02
     -3.146  0.3947E+02  0.1400E+02
     -3.045  0.0000E+00  0.1400E+02
     -2.943  0.0000E+00  0.1400E+02
     -2.842  0.0000E+00  0.1400E+02
     -2.741  0.0000E+00  0.1400E+02
     -2.639  0.0000E+00  0.1400E+02
     -2.538  0.0000E+00  0.1400E+02
     -2.437  0.0000E+00  0.1400E+02
     -2.335  0.0000E+00  0.1400E+02
     -2.234  0.0000E+00  0.1400E+02
     -2.133  0.0000E+00  0.1400E+02
     -2.031  0.0000E+00  0.1400E+02
     -1.930  0.0000E+00  0.1400E+02
     -1.829  0.0000E+00  0.1400E+02
     -1.727  0.0000E+00  0.1400E+02
     -1.626  0.0000E+00  0.1400E+02
     -1.525  0.0000E+00  0.1400E+02
     -1.423  0.0000E+00  0.1400E+02
     -1.322  0.0000E+00  0.1400E+02
     -1.221  0.0000E+00  0.1400E+02
     -1.119  0.0000E+00  0.1400E+02
     -1.018  0.0000E+00  0.1400E+02
     -0.916  0.0000E+00  0.1400E+02
     -0.815  0.0000E+00  0.1400E+02
     -0.714  0.0000E+00  0.1400E+02
     -0.612  0.0000E+00  0.1400E+02
     -0.511  0.0000E+00  0.1400E+02
     -0.410  0.0000E+00  0.1400E+02
     -0.308  0.0000E+00  0.1400E+02
     -0.207  0.1297E+02  0.1531E+02
     -0.106  0.0000E+00  0.1600E+02
     -0.004  0.0000E+00  0.1600E+02
      0.097  0.0000E+00  0.1600E+02
      0.198  0.0000E+00  0.1600E+02
      0.300  0.0000E+00  0.1600E+02
      0.401  0.0000E+00  0.1600E+02
      0.502  0.0000E+00  0.1600E+02
      0.604  0.0000E+00  0.1600E+02
      0.705  0.0000E+00  0.1600E+02
      0.806  0.0000E+00  0.1600E+02
      0.908  0.0000E+00  0.1600E+02
      1.009  0.0000E+00  0.1600E+02
      1.110  0.0000E+00  0.1600E+02
      1.212  0.0000E+00  0.1800E+02
      1.313  0.0000E+00  0.1800E+02
      1.415  0.0000E+00  0.1800E+02
      1.516  0.0000E+00  0.1800E+02
      1.617  0.0000E+00  0.1800E+02
      1.719  0.0000E+00  0.1800E+02
      1.820  0.0000E+00  0.1800E+02
      1.921  0.0000E+00  0.1800E+02
      2.023  0.0000E+00  0.1800E+02
      2.124  0.0000E+00  0.1800E+02
      2.225  0.0000E+00  0.1800E+02
      2.327  0.0000E+00  0.1800E+02
      2.428  0.0000E+00  0.1800E+02
      2.529  0.0000E+00  0.1800E+02
