    2    2    1    1
  0.5000000E+03  0.1000000E-08  0.1000000E-08  0.1000000E-08  0.1000000E-15
  1.000000000000000E-004
  CAR 
 N2                                      
   10    1    9
 
  0.0000000E+00  0.0000000E+00  0.0000000E+00  0.1000000E+01
   1      -26.4928
   2      -14.2069
   3      -10.6887
   4      -10.6887
   5      -10.0546
   6       -3.1812
   7       -3.1812
   8       -0.2085
   9        1.1473
