       N       E                     dE             d eps       ncg     rms          rms(c)
DAV:   1     0.975809569369E+02    0.97581E+02   -0.19337E+03    18   0.470E+02
DAV:   2    -0.204699749608E+01   -0.99628E+02   -0.99628E+02    36   0.101E+02
DAV:   3    -0.162945945251E+02   -0.14248E+02   -0.14248E+02    36   0.797E+01
DAV:   4    -0.163958044188E+02   -0.10121E+00   -0.10121E+00    18   0.683E+00
DAV:   5    -0.163967336729E+02   -0.92925E-03   -0.92925E-03    27   0.622E-01    0.484E+00
RMM:   6    -0.160809611705E+02    0.31577E+00   -0.35466E-01    21   0.440E+00    0.266E+00
RMM:   7    -0.159853694696E+02    0.95592E-01   -0.35687E-01    22   0.427E+00    0.542E-01
RMM:   8    -0.159815626504E+02    0.38068E-02   -0.16232E-02    19   0.117E+00    0.380E-02
RMM:   9    -0.159824500571E+02   -0.88741E-03   -0.55012E-04    17   0.194E-01    0.259E-02
RMM:  10    -0.159842395417E+02   -0.17895E-02   -0.11788E-03    17   0.278E-01    0.216E-02
RMM:  11    -0.159844073796E+02   -0.16784E-03   -0.49523E-05    17   0.507E-02    0.116E-02
RMM:  12    -0.159853623897E+02   -0.95501E-03   -0.42539E-04    17   0.144E-01    0.106E-02
RMM:  13    -0.159855680803E+02   -0.20569E-03   -0.66528E-05    16   0.617E-02    0.774E-03
RMM:  14    -0.159856920294E+02   -0.12395E-03   -0.43186E-05    14   0.424E-02    0.639E-03
RMM:  15    -0.159857053371E+02   -0.13308E-04   -0.80334E-06    11   0.181E-02
   1 F= -.15985705E+02 E0= -.15985705E+02  d E =-.340915E-33
