 Entering Gaussian System, Link 0=/usr/local/g03/g03
 Initial command:
 /usr/local/g03/l1.exe /scratch/webmodemo/webmo-4350/14318/Gau-19464.inp -scrdir=/scratch/webmodemo/webmo-4350/14318/
 Entering Link 1 = /usr/local/g03/l1.exe PID=     19465.
  
 Copyright (c) 1988,1990,1992,1993,1995,1998,2003, Gaussian, Inc.
                  All Rights Reserved.
  
 This is the Gaussian(R) 03 program.  It is based on the
 the Gaussian(R) 98 system (copyright 1998, Gaussian, Inc.),
 the Gaussian(R) 94 system (copyright 1995, Gaussian, Inc.),
 the Gaussian 92(TM) system (copyright 1992, Gaussian, Inc.),
 the Gaussian 90(TM) system (copyright 1990, Gaussian, Inc.),
 the Gaussian 88(TM) system (copyright 1988, Gaussian, Inc.),
 the Gaussian 86(TM) system (copyright 1986, Carnegie Mellon
 University), and the Gaussian 82(TM) system (copyright 1983,
 Carnegie Mellon University). Gaussian is a federally registered
 trademark of Gaussian, Inc.
  
 This software contains proprietary and confidential information,
 including trade secrets, belonging to Gaussian, Inc.
  
 This software is provided under written license and may be
 used, copied, transmitted, or stored only in accord with that
 written license.
  
 The following legend is applicable only to US Government
 contracts under DFARS:
  
                    RESTRICTED RIGHTS LEGEND
  
 Use, duplication or disclosure by the US Government is subject
 to restrictions as set forth in subparagraph (c)(1)(ii) of the
 Rights in Technical Data and Computer Software clause at DFARS
 252.227-7013.
  
 Gaussian, Inc.
 Carnegie Office Park, Building 6, Pittsburgh, PA 15106 USA
  
 The following legend is applicable only to US Government
 contracts under FAR:
  
                    RESTRICTED RIGHTS LEGEND
  
 Use, reproduction and disclosure by the US Government is subject
 to restrictions as set forth in subparagraph (c) of the
 Commercial Computer Software - Restricted Rights clause at FAR
 52.227-19.
  
 Gaussian, Inc.
 Carnegie Office Park, Building 6, Pittsburgh, PA 15106 USA
  
  
 ---------------------------------------------------------------
 Warning -- This program may not be used in any manner that
 competes with the business of Gaussian, Inc. or will provide
 assistance to any competitor of Gaussian, Inc.  The licensee
 of this program is prohibited from giving any competitor of
 Gaussian, Inc. access to this program.  By using this program,
 the user acknowledges that Gaussian, Inc. is engaged in the
 business of creating and licensing software in the field of
 computational chemistry and represents and warrants to the
 licensee that it is not a competitor of Gaussian, Inc. and that
 it will not use this program in any manner prohibited above.
 ---------------------------------------------------------------
  

 Cite this work as:
 Gaussian 03, Revision B.05,
 M. J. Frisch, G. W. Trucks, H. B. Schlegel, G. E. Scuseria, 
 M. A. Robb, J. R. Cheeseman, J. A. Montgomery, Jr., T. Vreven, 
 K. N. Kudin, J. C. Burant, J. M. Millam, S. S. Iyengar, J. Tomasi, 
 V. Barone, B. Mennucci, M. Cossi, G. Scalmani, N. Rega, 
 G. A. Petersson, H. Nakatsuji, M. Hada, M. Ehara, K. Toyota, 
 R. Fukuda, J. Hasegawa, M. Ishida, T. Nakajima, Y. Honda, O. Kitao, 
 H. Nakai, M. Klene, X. Li, J. E. Knox, H. P. Hratchian, J. B. Cross, 
 C. Adamo, J. Jaramillo, R. Gomperts, R. E. Stratmann, O. Yazyev, 
 A. J. Austin, R. Cammi, C. Pomelli, J. W. Ochterski, P. Y. Ayala, 
 K. Morokuma, G. A. Voth, P. Salvador, J. J. Dannenberg, 
 V. G. Zakrzewski, S. Dapprich, A. D. Daniels, M. C. Strain, 
 O. Farkas, D. K. Malick, A. D. Rabuck, K. Raghavachari, 
 J. B. Foresman, J. V. Ortiz, Q. Cui, A. G. Baboul, S. Clifford, 
 J. Cioslowski, B. B. Stefanov, G. Liu, A. Liashenko, P. Piskorz, 
 I. Komaromi, R. L. Martin, D. J. Fox, T. Keith, M. A. Al-Laham, 
 C. Y. Peng, A. Nanayakkara, M. Challacombe, P. M. W. Gill, 
 B. Johnson, W. Chen, M. W. Wong, C. Gonzalez, and J. A. Pople, 
 Gaussian, Inc., Pittsburgh PA, 2003.
 
 **********************************************
 Gaussian 03:  x86-Linux-G03RevB.05 24-Oct-2003
                  16-Sep-2007 
 **********************************************
 ---------------------------------------
 #P HF/3-21G OPT GFINPUT POP=FULL 6D 10F
 ---------------------------------------
 1/18=20,38=1/1,3;
 2/9=110,17=6,18=5,40=1/2;
 3/5=5,8=22,11=9,16=1,24=10,25=1,30=1/1,2,3;
 4//1;
 5/5=2,38=5/2;
 6/7=3,28=1/1;
 7//1,2,3,16;
 1/18=20/3(1);
 99//99;
 2/9=110/2;
 3/5=5,8=22,11=9,16=1,25=1,30=1/1,2,3;
 4/5=5,16=3/1;
 5/5=2,38=5/2;
 7//1,2,3,16;
 1/18=20/3(-5);
 2/9=110/2;
 6/7=3,19=2,28=1/1;
 99/9=1/99;
 Leave Link    1 at Sun Sep 16 22:15:13 2007, MaxMem=          0 cpu:       0.1
 (Enter /usr/local/g03/l101.exe)
 --
 HF
 --
 Symbolic Z-matrix:
 Charge =  0 Multiplicity = 1
 F
 H                    1    B1
       Variables:
  B1                    1.04                     
 
                    Isotopes and Nuclear Properties:

  Atom         1           2
 IAtWgt=          19           1
 AtmWgt=  18.9984033   1.0078250
 IAtSpn=           1           1
 AtZEff=   0.0000000   0.0000000
 AtQMom=   0.0000000   0.0000000
 AtGFac=   2.6288670   2.7928460
 Leave Link  101 at Sun Sep 16 22:15:13 2007, MaxMem=    6291456 cpu:       0.1
 (Enter /usr/local/g03/l103.exe)

 GradGradGradGradGradGradGradGradGradGradGradGradGradGradGradGradGradGrad
 Berny optimization.
 Initialization pass.
                           ----------------------------
                           !    Initial Parameters    !
                           ! (Angstroms and Degrees)  !
 --------------------------                            --------------------------
 ! Name  Definition              Value          Derivative Info.                !
 --------------------------------------------------------------------------------
 ! R1    R(1,2)                  1.04           estimate D2E/DX2                !
 --------------------------------------------------------------------------------
 Trust Radius=3.00D-01 FncErr=1.00D-07 GrdErr=1.00D-07
 Number of steps in this run=  20 maximum allowed number of steps= 100.
 GradGradGradGradGradGradGradGradGradGradGradGradGradGradGradGradGradGrad

 Leave Link  103 at Sun Sep 16 22:15:13 2007, MaxMem=    6291456 cpu:       0.0
 (Enter /usr/local/g03/l202.exe)
                          Input orientation:                          
 ---------------------------------------------------------------------
 Center     Atomic     Atomic              Coordinates (Angstroms)
 Number     Number      Type              X           Y           Z
 ---------------------------------------------------------------------
    1          9             0        0.000000    0.000000    0.000000
    2          1             0        0.000000    0.000000    1.040000
 ---------------------------------------------------------------------
 Stoichiometry    FH
 Framework group  C*V[C*(HF)]
 Deg. of freedom     1
 Full point group                 C*V     NOp   4
 Largest Abelian subgroup         C2V     NOp   4
 Largest concise Abelian subgroup C1      NOp   1
                         Standard orientation:                         
 ---------------------------------------------------------------------
 Center     Atomic     Atomic              Coordinates (Angstroms)
 Number     Number      Type              X           Y           Z
 ---------------------------------------------------------------------
    1          9             0        0.000000    0.000000    0.104000
    2          1             0        0.000000    0.000000   -0.936000
 ---------------------------------------------------------------------
 Rotational constants (GHZ):      0.0000000    488.2176696    488.2176696
 Leave Link  202 at Sun Sep 16 22:15:13 2007, MaxMem=    6291456 cpu:       0.0
 (Enter /usr/local/g03/l301.exe)
 Standard basis: 3-21G (6D, 10F)
 AO basis set in the form of general basis input:
  1 0
 S   3 1.00       0.000000000000
      0.4138010000D+03  0.5854830293D-01
      0.6224460000D+02  0.3493080175D+00
      0.1343400000D+02  0.7096320355D+00
 SP   2 1.00       0.000000000000
      0.9777590000D+01 -0.4073262777D+00  0.2466800032D+00
      0.2086170000D+01  0.1223137831D+01  0.8523210110D+00
 SP   1 1.00       0.000000000000
      0.4823830000D+00  0.1000000000D+01  0.1000000000D+01
 ****
  2 0
 S   2 1.00       0.000000000000
      0.5447178000D+01  0.1562849787D+00
      0.8245472400D+00  0.9046908767D+00
 S   1 1.00       0.000000000000
      0.1831915800D+00  0.1000000000D+01
 ****

 There are     7 symmetry adapted basis functions of A1  symmetry.
 There are     0 symmetry adapted basis functions of A2  symmetry.
 There are     2 symmetry adapted basis functions of B1  symmetry.
 There are     2 symmetry adapted basis functions of B2  symmetry.
 Integral buffers will be    262144 words long.
 Raffenetti 1 integral format.
 Two-electron integral symmetry is turned on.
    11 basis functions,    18 primitive gaussians,    11 cartesian basis functions
     5 alpha electrons        5 beta electrons
       nuclear repulsion energy         4.5794181488 Hartrees.
 IExCor=   0 DFT=F Ex=HF Corr=None ExCW=0 ScaHFX=  1.000000
 ScaDFX=  1.000000  1.000000  1.000000  1.000000
 IRadAn=      0 IRanWt=     -1 IRanGd=            0 ICorTp=0
 NAtoms=    2 NActive=    2 NUniq=    2 SFac= 1.00D+00 NAtFMM=   60 Big=F
 Leave Link  301 at Sun Sep 16 22:15:14 2007, MaxMem=    6291456 cpu:       0.0
 (Enter /usr/local/g03/l302.exe)
 NPDir=0 NMtPBC=     1 NCelOv=     1 NCel=       1 NClECP=     1 NCelD=      1
         NCelK=      1 NCelE2=     1 NClLst=     1 CellRange=     0.0.
 One-electron integrals computed using PRISM.
 NBasis=    11 RedAO= T  NBF=     7     0     2     2
 NBsUse=    11 1.00D-06 NBFU=     7     0     2     2
 Leave Link  302 at Sun Sep 16 22:15:14 2007, MaxMem=    6291456 cpu:       0.1
 (Enter /usr/local/g03/l303.exe)
 DipDrv:  MaxL=1.
 Leave Link  303 at Sun Sep 16 22:15:14 2007, MaxMem=    6291456 cpu:       0.0
 (Enter /usr/local/g03/l401.exe)
 Harris functional with IExCor=  205 diagonalized for initial guess.
 ExpMin= 1.83D-01 ExpMax= 4.14D+02 ExpMxC= 4.14D+02 IAcc=1 IRadAn=         1 AccDes= 1.00D-06
 HarFok:  IExCor= 205 AccDes= 1.00D-06 IRadAn=         1 IDoV=1
 ScaDFX=  1.000000  1.000000  1.000000  1.000000
 Harris En= -99.4544015680311    
 Initial guess orbital symmetries:
       Occupied  (SG) (SG) (SG) (PI) (PI)
       Virtual   (SG) (SG) (PI) (PI) (SG) (SG)
 The electronic state of the initial guess is 1-SG.
 Leave Link  401 at Sun Sep 16 22:15:14 2007, MaxMem=    6291456 cpu:       0.0
 (Enter /usr/local/g03/l502.exe)
 Closed shell SCF:
 Requested convergence on RMS density matrix=1.00D-08 within 128 cycles.
 Requested convergence on MAX density matrix=1.00D-06.
 Requested convergence on             energy=1.00D-06.
 No special actions if energy rises.
 Using DIIS extrapolation, IDIIS=  1040.
 Integral symmetry usage will be decided dynamically.
 Keep R1 integrals in memory in canonical form, NReq=      421782.
 IEnd=     18764 IEndB=     18764 NGot=   6291456 MDV=   6287570
 LenX=   6287570
 Symmetry not used in FoFDir.
 MinBra= 0 MaxBra= 1 Meth= 1.
 IRaf=       0 NMat=   1 IRICut=       1 DoRegI=T DoRafI=F ISym2E= 0 JSym2E=0.

 Cycle   1  Pass 1  IDiag  1:
 E= -99.4150005596045    
 DIIS: error= 5.60D-02 at cycle   1 NSaved=   1.
 NSaved= 1 IEnMin= 1 EnMin= -99.4150005596045     IErMin= 1 ErrMin= 5.60D-02
 ErrMax= 5.60D-02 EMaxC= 1.00D-01 BMatC= 7.94D-02 BMatP= 7.94D-02
 IDIUse=3 WtCom= 4.40D-01 WtEn= 5.60D-01
 Coeff-Com:  0.100D+01
 Coeff-En:   0.100D+01
 Coeff:      0.100D+01
 Gap=     0.717 Goal=   None    Shift=    0.000
 GapD=    0.717 DampG=2.000 DampE=0.500 DampFc=1.0000 IDamp=-1.
 RMSDP=1.37D-02 MaxDP=6.22D-02              OVMax= 8.75D-02

 Cycle   2  Pass 1  IDiag  1:
 E= -99.4438752274157     Delta-E=       -0.028874667811 Rises=F Damp=F
 DIIS: error= 3.34D-02 at cycle   2 NSaved=   2.
 NSaved= 2 IEnMin= 2 EnMin= -99.4438752274157     IErMin= 2 ErrMin= 3.34D-02
 ErrMax= 3.34D-02 EMaxC= 1.00D-01 BMatC= 1.69D-02 BMatP= 7.94D-02
 IDIUse=3 WtCom= 6.66D-01 WtEn= 3.34D-01
 Coeff-Com:  0.273D+00 0.727D+00
 Coeff-En:   0.000D+00 0.100D+01
 Coeff:      0.182D+00 0.818D+00
 Gap=     0.820 Goal=   None    Shift=    0.000
 RMSDP=5.53D-03 MaxDP=2.39D-02 DE=-2.89D-02 OVMax= 1.70D-02

 Cycle   3  Pass 1  IDiag  1:
 E= -99.4507347439852     Delta-E=       -0.006859516570 Rises=F Damp=F
 DIIS: error= 5.58D-03 at cycle   3 NSaved=   3.
 NSaved= 3 IEnMin= 3 EnMin= -99.4507347439852     IErMin= 3 ErrMin= 5.58D-03
 ErrMax= 5.58D-03 EMaxC= 1.00D-01 BMatC= 6.76D-04 BMatP= 1.69D-02
 IDIUse=3 WtCom= 9.44D-01 WtEn= 5.58D-02
 Coeff-Com: -0.245D-01 0.133D+00 0.892D+00
 Coeff-En:   0.000D+00 0.000D+00 0.100D+01
 Coeff:     -0.231D-01 0.125D+00 0.898D+00
 Gap=     0.809 Goal=   None    Shift=    0.000
 RMSDP=1.25D-03 MaxDP=5.91D-03 DE=-6.86D-03 OVMax= 9.08D-03

 Cycle   4  Pass 1  IDiag  1:
 E= -99.4511805341795     Delta-E=       -0.000445790194 Rises=F Damp=F
 DIIS: error= 1.12D-03 at cycle   4 NSaved=   4.
 NSaved= 4 IEnMin= 4 EnMin= -99.4511805341795     IErMin= 4 ErrMin= 1.12D-03
 ErrMax= 1.12D-03 EMaxC= 1.00D-01 BMatC= 1.63D-05 BMatP= 6.76D-04
 IDIUse=3 WtCom= 9.89D-01 WtEn= 1.12D-02
 Coeff-Com:  0.767D-02-0.797D-01-0.306D+00 0.138D+01
 Coeff-En:   0.000D+00 0.000D+00 0.000D+00 0.100D+01
 Coeff:      0.758D-02-0.788D-01-0.303D+00 0.137D+01
 Gap=     0.814 Goal=   None    Shift=    0.000
 RMSDP=3.20D-04 MaxDP=9.99D-04 DE=-4.46D-04 OVMax= 2.07D-03

 Cycle   5  Pass 1  IDiag  1:
 E= -99.4511962249754     Delta-E=       -0.000015690796 Rises=F Damp=F
 DIIS: error= 8.09D-05 at cycle   5 NSaved=   5.
 NSaved= 5 IEnMin= 5 EnMin= -99.4511962249754     IErMin= 5 ErrMin= 8.09D-05
 ErrMax= 8.09D-05 EMaxC= 1.00D-01 BMatC= 9.09D-08 BMatP= 1.63D-05
 IDIUse=1 WtCom= 1.00D+00 WtEn= 0.00D+00
 Coeff-Com: -0.154D-02 0.193D-01 0.705D-01-0.394D+00 0.131D+01
 Coeff:     -0.154D-02 0.193D-01 0.705D-01-0.394D+00 0.131D+01
 Gap=     0.814 Goal=   None    Shift=    0.000
 RMSDP=4.29D-05 MaxDP=1.57D-04 DE=-1.57D-05 OVMax= 2.79D-04

 Cycle   6  Pass 1  IDiag  1:
 E= -99.4511963812689     Delta-E=       -0.000000156293 Rises=F Damp=F
 DIIS: error= 1.58D-06 at cycle   6 NSaved=   6.
 NSaved= 6 IEnMin= 6 EnMin= -99.4511963812689     IErMin= 6 ErrMin= 1.58D-06
 ErrMax= 1.58D-06 EMaxC= 1.00D-01 BMatC= 3.34D-11 BMatP= 9.09D-08
 IDIUse=1 WtCom= 1.00D+00 WtEn= 0.00D+00
 Coeff-Com:  0.195D-03-0.243D-02-0.881D-02 0.494D-01-0.171D+00 0.113D+01
 Coeff:      0.195D-03-0.243D-02-0.881D-02 0.494D-01-0.171D+00 0.113D+01
 Gap=     0.814 Goal=   None    Shift=    0.000
 RMSDP=6.26D-07 MaxDP=2.82D-06 DE=-1.56D-07 OVMax= 4.25D-06

 Cycle   7  Pass 1  IDiag  1:
 E= -99.4511963813125     Delta-E=       -0.000000000044 Rises=F Damp=F
 DIIS: error= 2.10D-07 at cycle   7 NSaved=   7.
 NSaved= 7 IEnMin= 7 EnMin= -99.4511963813125     IErMin= 7 ErrMin= 2.10D-07
 ErrMax= 2.10D-07 EMaxC= 1.00D-01 BMatC= 5.93D-13 BMatP= 3.34D-11
 IDIUse=1 WtCom= 1.00D+00 WtEn= 0.00D+00
 Coeff-Com: -0.123D-04 0.158D-03 0.573D-03-0.333D-02 0.122D-01-0.161D+00
 Coeff-Com:  0.115D+01
 Coeff:     -0.123D-04 0.158D-03 0.573D-03-0.333D-02 0.122D-01-0.161D+00
 Coeff:      0.115D+01
 Gap=     0.814 Goal=   None    Shift=    0.000
 RMSDP=5.95D-08 MaxDP=2.17D-07 DE=-4.37D-11 OVMax= 3.31D-07

 Cycle   8  Pass 1  IDiag  1:
 E= -99.4511963813130     Delta-E=        0.000000000000 Rises=F Damp=F
 DIIS: error= 1.06D-08 at cycle   8 NSaved=   8.
 NSaved= 8 IEnMin= 8 EnMin= -99.4511963813130     IErMin= 8 ErrMin= 1.06D-08
 ErrMax= 1.06D-08 EMaxC= 1.00D-01 BMatC= 1.99D-15 BMatP= 5.93D-13
 IDIUse=1 WtCom= 1.00D+00 WtEn= 0.00D+00
 Coeff-Com:  0.220D-06-0.354D-05-0.131D-04 0.970D-04-0.437D-03 0.136D-01
 Coeff-Com: -0.148D+00 0.114D+01
 Coeff:      0.220D-06-0.354D-05-0.131D-04 0.970D-04-0.437D-03 0.136D-01
 Coeff:     -0.148D+00 0.114D+01
 Gap=     0.814 Goal=   None    Shift=    0.000
 RMSDP=2.74D-09 MaxDP=8.09D-09 DE=-4.69D-13 OVMax= 1.28D-08

 SCF Done:  E(RHF) =  -99.4511963813     A.U. after    8 cycles
             Convg  =    0.2739D-08             -V/T =  2.0040
             S**2   =   0.0000
 KE= 9.905842946932D+01 PE=-2.481517086225D+02 EE= 4.506266462312D+01
 Leave Link  502 at Sun Sep 16 22:15:14 2007, MaxMem=    6291456 cpu:       0.0
 (Enter /usr/local/g03/l601.exe)
 Copying SCF densities to generalized density rwf, ISCF=0 IROHF=0.

 **********************************************************************

            Population analysis using the SCF density.

 **********************************************************************

 Orbital symmetries:
       Occupied  (SG) (SG) (SG) (PI) (PI)
       Virtual   (SG) (SG) (PI) (PI) (SG) (SG)
 The electronic state is 1-SG.
 Alpha  occ. eigenvalues --  -26.11989  -1.51786  -0.66349  -0.59137  -0.59137
 Alpha virt. eigenvalues --    0.22307   1.12619   2.23838   2.23838   2.44954
 Alpha virt. eigenvalues --    3.60431
     Molecular Orbital Coefficients
                           1         2         3         4         5
                        (SG)--O   (SG)--O   (SG)--O   (PI)--O   (PI)--O
     EIGENVALUES --   -26.11989  -1.51786  -0.66349  -0.59137  -0.59137
   1 1   F  1S          0.98181  -0.24841  -0.06027   0.00000   0.00000
   2        2S          0.09418   0.24058   0.05835   0.00000   0.00000
   3        2PX         0.00000   0.00000   0.00000   0.54266   0.00000
   4        2PY         0.00000   0.00000   0.00000   0.00000   0.54266
   5        2PZ        -0.00222  -0.04140   0.42635   0.00000   0.00000
   6        3S         -0.02805   0.78358   0.27025   0.00000   0.00000
   7        3PX         0.00000   0.00000   0.00000   0.61575   0.00000
   8        3PY         0.00000   0.00000   0.00000   0.00000   0.61575
   9        3PZ         0.00382  -0.05746   0.47064   0.00000   0.00000
  10 2   H  1S          0.00188   0.08115  -0.24404   0.00000   0.00000
  11        2S          0.00562   0.02834  -0.22151   0.00000   0.00000
                           6         7         8         9        10
                        (SG)--V   (SG)--V   (PI)--V   (PI)--V   (SG)--V
     EIGENVALUES --     0.22307   1.12619   2.23838   2.23838   2.44954
   1 1   F  1S          0.07015   0.01740   0.00000   0.00000   0.03513
   2        2S         -0.03058  -0.04377   0.00000   0.00000  -0.17653
   3        2PX         0.00000   0.00000   0.00000   1.00932   0.00000
   4        2PY         0.00000   0.00000   1.00932   0.00000   0.00000
   5        2PZ         0.27823   0.25022   0.00000   0.00000  -1.00450
   6        3S         -0.56383   0.13577   0.00000   0.00000   0.02095
   7        3PX         0.00000   0.00000   0.00000  -0.96647   0.00000
   8        3PY         0.00000   0.00000  -0.96647   0.00000   0.00000
   9        3PZ         0.50717   0.15949   0.00000   0.00000   1.13231
  10 2   H  1S          0.12072   1.30089   0.00000   0.00000   0.40408
  11        2S          1.11087  -0.97283   0.00000   0.00000   0.06131
                          11
                        (SG)--V
     EIGENVALUES --     3.60431
   1 1   F  1S         -0.12424
   2        2S          1.50535
   3        2PX         0.00000
   4        2PY         0.00000
   5        2PZ        -0.17411
   6        3S         -1.46074
   7        3PX         0.00000
   8        3PY         0.00000
   9        3PZ         0.34208
  10 2   H  1S          0.20105
  11        2S          0.31557
      DENSITY MATRIX.
                           1         2         3         4         5
   1 1   F  1S          2.05857
   2        2S          0.05837   0.14030
   3        2PX         0.00000   0.00000   0.58897
   4        2PY         0.00000   0.00000   0.00000   0.58897
   5        2PZ        -0.03519   0.02942   0.00000   0.00000   0.36698
   6        3S         -0.47695   0.40328   0.00000   0.00000   0.16568
   7        3PX         0.00000   0.00000   0.66829   0.00000   0.00000
   8        3PY         0.00000   0.00000   0.00000   0.66829   0.00000
   9        3PZ        -0.02067   0.02799   0.00000   0.00000   0.40605
  10 2   H  1S         -0.00722   0.01092   0.00000   0.00000  -0.21482
  11        2S          0.02365  -0.01116   0.00000   0.00000  -0.19125
                           6         7         8         9        10
   6        3S          1.37565
   7        3PX         0.00000   0.75829
   8        3PY         0.00000   0.00000   0.75829
   9        3PZ         0.16410   0.00000   0.00000   0.44963
  10 2   H  1S         -0.00483   0.00000   0.00000  -0.23902   0.13229
  11        2S         -0.07563   0.00000   0.00000  -0.21171   0.11273
                          11
  11        2S          0.09980
    Full Mulliken population analysis:
                           1         2         3         4         5
   1 1   F  1S          2.05857
   2        2S          0.01253   0.14030
   3        2PX         0.00000   0.00000   0.58897
   4        2PY         0.00000   0.00000   0.00000   0.58897
   5        2PZ         0.00000   0.00000   0.00000   0.00000   0.36698
   6        3S         -0.08756   0.29528   0.00000   0.00000   0.00000
   7        3PX         0.00000   0.00000   0.32637   0.00000   0.00000
   8        3PY         0.00000   0.00000   0.00000   0.32637   0.00000
   9        3PZ         0.00000   0.00000   0.00000   0.00000   0.19830
  10 2   H  1S         -0.00008   0.00098   0.00000   0.00000   0.02450
  11        2S          0.00107  -0.00255   0.00000   0.00000   0.01642
                           6         7         8         9        10
   6        3S          1.37565
   7        3PX         0.00000   0.75829
   8        3PY         0.00000   0.00000   0.75829
   9        3PZ         0.00000   0.00000   0.00000   0.44963
  10 2   H  1S         -0.00133   0.00000   0.00000   0.11584   0.13229
  11        2S         -0.03824   0.00000   0.00000   0.08042   0.07281
                          11
  11        2S          0.09980
     Gross orbital populations:
                           1
   1 1   F  1S          1.98454
   2        2S          0.44654
   3        2PX         0.91534
   4        2PY         0.91534
   5        2PZ         0.60619
   6        3S          1.54380
   7        3PX         1.08466
   8        3PY         1.08466
   9        3PZ         0.84419
  10 2   H  1S          0.34499
  11        2S          0.22975
          Condensed to atoms (all electrons):
              1          2
     1  F    9.228244   0.197021
     2  H    0.197021   0.377714
 Mulliken atomic charges:
              1
     1  F   -0.425265
     2  H    0.425265
 Sum of Mulliken charges=   0.00000
 Atomic charges with hydrogens summed into heavy atoms:
              1
     1  F    0.000000
     2  H    0.000000
 Sum of Mulliken charges=   0.00000
 Electronic spatial extent (au):  =    13.5645
 Charge=     0.0000 electrons
 Dipole moment (field-independent basis, Debye):
    X=     0.0000    Y=     0.0000    Z=    -2.2468  Tot=     2.2468
 Quadrupole moment (field-independent basis, Debye-Ang):
   XX=    -5.2658   YY=    -5.2658   ZZ=    -3.0376
   XY=     0.0000   XZ=     0.0000   YZ=     0.0000
 Traceless Quadrupole moment (field-independent basis, Debye-Ang):
   XX=    -0.7427   YY=    -0.7427   ZZ=     1.4855
   XY=     0.0000   XZ=     0.0000   YZ=     0.0000
 Octapole moment (field-independent basis, Debye-Ang**2):
  XXX=     0.0000  YYY=     0.0000  ZZZ=    -2.0580  XYY=     0.0000
  XXY=     0.0000  XXZ=    -0.0689  XZZ=     0.0000  YZZ=     0.0000
  YYZ=    -0.0689  XYZ=     0.0000
 Hexadecapole moment (field-independent basis, Debye-Ang**3):
 XXXX=    -2.5420 YYYY=    -2.5420 ZZZZ=    -2.8016 XXXY=     0.0000
 XXXZ=     0.0000 YYYX=     0.0000 YYYZ=     0.0000 ZZZX=     0.0000
 ZZZY=     0.0000 XXYY=    -0.8473 XXZZ=    -1.2346 YYZZ=    -1.2346
 XXYZ=     0.0000 YYXZ=     0.0000 ZZXY=     0.0000
 N-N= 4.579418148750D+00 E-N=-2.481517085240D+02  KE= 9.905842946932D+01
 Symmetry A1   KE= 8.627715400273D+01
 Symmetry A2   KE= 0.000000000000D+00
 Symmetry B1   KE= 6.390637733297D+00
 Symmetry B2   KE= 6.390637733297D+00
 Orbital energies and kinetic energies (alpha):
                           1         2
       1  (SG)--O     -26.11989  36.90559
       2  (SG)--O      -1.51786   3.77674
       3  (SG)--O      -0.66349   2.45625
       4  (PI)--O      -0.59137   3.19532
       5  (PI)--O      -0.59137   3.19532
       6  (SG)--V       0.22307   1.54095
       7  (SG)--V       1.12619   2.63772
       8  (PI)--V       2.23838   6.47862
       9  (PI)--V       2.23838   6.47862
      10  (SG)--V       2.44954   6.63290
      11  (SG)--V       3.60431   8.48655
 Total kinetic energy from orbitals= 9.905842946932D+01
 No NMR shielding tensors so no spin-rotation constants.
 Leave Link  601 at Sun Sep 16 22:15:14 2007, MaxMem=    6291456 cpu:       0.1
 (Enter /usr/local/g03/l701.exe)
 Compute integral first derivatives.
 ... and contract with generalized density number  0.
 Leave Link  701 at Sun Sep 16 22:15:14 2007, MaxMem=    6291456 cpu:       0.1
 (Enter /usr/local/g03/l702.exe)
 L702 exits ... SP integral derivatives will be done elsewhere.
 Leave Link  702 at Sun Sep 16 22:15:15 2007, MaxMem=    6291456 cpu:       0.0
 (Enter /usr/local/g03/l703.exe)
 Compute integral first derivatives, UseDBF=F.
 Integral derivatives from FoFDir, PRISM(SPDF).
 Petite list used in FoFDir.
 MinBra= 0 MaxBra= 1 Meth= 1.
 IRaf=       0 NMat=   1 IRICut=       1 DoRegI=T DoRafI=F ISym2E= 1 JSym2E=1.
 Leave Link  703 at Sun Sep 16 22:15:15 2007, MaxMem=    6291456 cpu:       0.0
 (Enter /usr/local/g03/l716.exe)
 Dipole        = 0.00000000D+00 0.00000000D+00-8.83968955D-01
 ***** Axes restored to original set *****
 -------------------------------------------------------------------
 Center     Atomic                   Forces (Hartrees/Bohr)
 Number     Number              X              Y              Z
 -------------------------------------------------------------------
    1          9           0.000000000    0.000000000    0.083520329
    2          1           0.000000000    0.000000000   -0.083520329
 -------------------------------------------------------------------
 Cartesian Forces:  Max     0.083520329 RMS     0.048220485
 Leave Link  716 at Sun Sep 16 22:15:15 2007, MaxMem=    6291456 cpu:       0.0
 (Enter /usr/local/g03/l103.exe)

 GradGradGradGradGradGradGradGradGradGradGradGradGradGradGradGradGradGrad
 Berny optimization.
 Internal  Forces:  Max     0.083520329 RMS     0.083520329
 Search for a local minimum.
 Step number   1 out of a maximum of  20
 All quantities printed in internal units (Hartrees-Bohrs-Radians)
 Second derivative matrix not updated -- first step.
 The second derivative matrix:
                          R1
           R1           0.41294
     Eigenvalues ---    0.41294
 RFO step:  Lambda=-1.62527808D-02.
 Linear search not attempted -- first point.
 Iteration  1 RMS(Cart)=  0.13760065 RMS(Int)=  0.00000000
 Iteration  2 RMS(Cart)=  0.00000000 RMS(Int)=  0.00000000
 Variable       Old X    -DE/DX   Delta X   Delta X   Delta X     New X
                                 (Linear)    (Quad)   (Total)
    R1        1.96532  -0.08352   0.00000  -0.19460  -0.19460   1.77072
         Item               Value     Threshold  Converged?
 Maximum Force            0.083520     0.000450     NO 
 RMS     Force            0.083520     0.000300     NO 
 Maximum Displacement     0.097298     0.001800     NO 
 RMS     Displacement     0.137601     0.001200     NO 
 Predicted change in Energy=-8.434120D-03
 GradGradGradGradGradGradGradGradGradGradGradGradGradGradGradGradGradGrad

 Leave Link  103 at Sun Sep 16 22:15:15 2007, MaxMem=    6291456 cpu:       0.0
 (Enter /usr/local/g03/l202.exe)
                          Input orientation:                          
 ---------------------------------------------------------------------
 Center     Atomic     Atomic              Coordinates (Angstroms)
 Number     Number      Type              X           Y           Z
 ---------------------------------------------------------------------
    1          9             0        0.000000    0.000000    0.051488
    2          1             0        0.000000    0.000000    0.988512
 ---------------------------------------------------------------------
 Stoichiometry    FH
 Framework group  C*V[C*(HF)]
 Deg. of freedom     1
 Full point group                 C*V     NOp   4
 Largest Abelian subgroup         C2V     NOp   4
 Largest concise Abelian subgroup C1      NOp   1
                         Standard orientation:                         
 ---------------------------------------------------------------------
 Center     Atomic     Atomic              Coordinates (Angstroms)
 Number     Number      Type              X           Y           Z
 ---------------------------------------------------------------------
    1          9             0        0.000000    0.000000    0.093702
    2          1             0        0.000000    0.000000   -0.843321
 ---------------------------------------------------------------------
 Rotational constants (GHZ):      0.0000000    601.4213941    601.4213941
 Leave Link  202 at Sun Sep 16 22:15:15 2007, MaxMem=    6291456 cpu:       0.0
 (Enter /usr/local/g03/l301.exe)
 Standard basis: 3-21G (6D, 10F)
 There are     7 symmetry adapted basis functions of A1  symmetry.
 There are     0 symmetry adapted basis functions of A2  symmetry.
 There are     2 symmetry adapted basis functions of B1  symmetry.
 There are     2 symmetry adapted basis functions of B2  symmetry.
 Integral buffers will be    262144 words long.
 Raffenetti 1 integral format.
 Two-electron integral symmetry is turned on.
    11 basis functions,    18 primitive gaussians,    11 cartesian basis functions
     5 alpha electrons        5 beta electrons
       nuclear repulsion energy         5.0826826091 Hartrees.
 IExCor=   0 DFT=F Ex=HF Corr=None ExCW=0 ScaHFX=  1.000000
 ScaDFX=  1.000000  1.000000  1.000000  1.000000
 IRadAn=      0 IRanWt=     -1 IRanGd=            0 ICorTp=0
 NAtoms=    2 NActive=    2 NUniq=    2 SFac= 1.00D+00 NAtFMM=   60 Big=F
 Leave Link  301 at Sun Sep 16 22:15:15 2007, MaxMem=    6291456 cpu:       0.0
 (Enter /usr/local/g03/l302.exe)
 NPDir=0 NMtPBC=     1 NCelOv=     1 NCel=       1 NClECP=     1 NCelD=      1
         NCelK=      1 NCelE2=     1 NClLst=     1 CellRange=     0.0.
 One-electron integrals computed using PRISM.
 NBasis=    11 RedAO= T  NBF=     7     0     2     2
 NBsUse=    11 1.00D-06 NBFU=     7     0     2     2
 Leave Link  302 at Sun Sep 16 22:15:15 2007, MaxMem=    6291456 cpu:       0.1
 (Enter /usr/local/g03/l303.exe)
 DipDrv:  MaxL=1.
 Leave Link  303 at Sun Sep 16 22:15:15 2007, MaxMem=    6291456 cpu:       0.0
 (Enter /usr/local/g03/l401.exe)
 Initial guess read from the read-write file:
 Guess basis will be translated and rotated to current coordinates.
 Initial guess orbital symmetries:
       Occupied  (SG) (SG) (SG) (PI) (PI)
       Virtual   (SG) (SG) (PI) (PI) (SG) (SG)
 The electronic state of the initial guess is 1-SG.
 Generating alternative initial guess.
 Harris functional with IExCor=  205 diagonalized for initial guess.
 ExpMin= 1.83D-01 ExpMax= 4.14D+02 ExpMxC= 4.14D+02 IAcc=1 IRadAn=         1 AccDes= 1.00D-06
 HarFok:  IExCor= 205 AccDes= 1.00D-06 IRadAn=         1 IDoV=1
 ScaDFX=  1.000000  1.000000  1.000000  1.000000
 Harris En= -99.4554126546184    
 Leave Link  401 at Sun Sep 16 22:15:16 2007, MaxMem=    6291456 cpu:       0.0
 (Enter /usr/local/g03/l502.exe)
 Closed shell SCF:
 Requested convergence on RMS density matrix=1.00D-08 within 128 cycles.
 Requested convergence on MAX density matrix=1.00D-06.
 Requested convergence on             energy=1.00D-06.
 No special actions if energy rises.
 Using DIIS extrapolation, IDIIS=  1040.
 Integral symmetry usage will be decided dynamically.
 Keep R1 integrals in memory in canonical form, NReq=      421782.
 IEnd=     18764 IEndB=     18764 NGot=   6291456 MDV=   6287570
 LenX=   6287570
 Symmetry not used in FoFDir.
 MinBra= 0 MaxBra= 1 Meth= 1.
 IRaf=       0 NMat=   1 IRICut=       1 DoRegI=T DoRafI=F ISym2E= 0 JSym2E=0.

 Cycle   1  Pass 1  IDiag  1:
 E= -99.4568258702293    
 DIIS: error= 1.98D-02 at cycle   1 NSaved=   1.
 NSaved= 1 IEnMin= 1 EnMin= -99.4568258702293     IErMin= 1 ErrMin= 1.98D-02
 ErrMax= 1.98D-02 EMaxC= 1.00D-01 BMatC= 3.70D-03 BMatP= 3.70D-03
 IDIUse=3 WtCom= 8.02D-01 WtEn= 1.98D-01
 Coeff-Com:  0.100D+01
 Coeff-En:   0.100D+01
 Coeff:      0.100D+01
 Recover alternate guess density for next cycle.
 RMSDP=1.26D-02 MaxDP=6.36D-02              OVMax= 0.00D+00

 Cycle   2  Pass 1  IDiag  1:
 E= -99.4260313290858     Delta-E=        0.030794541144 Rises=F Damp=F
 Switch densities from cycles 1 and 2 for lowest energy.
 DIIS: error= 5.77D-02 at cycle   2 NSaved=   2.
 NSaved= 2 IEnMin= 1 EnMin= -99.4568258702293     IErMin= 1 ErrMin= 1.98D-02
 ErrMax= 5.77D-02 EMaxC= 1.00D+00 BMatC= 8.00D-02 BMatP= 3.70D-03
 IDIUse=1 WtCom= 1.00D+00 WtEn= 0.00D+00
 Coeff-Com:  0.904D+00 0.963D-01
 Coeff:      0.904D+00 0.963D-01
 Gap=     0.873 Goal=   None    Shift=    0.000
 RMSDP=4.11D-03 MaxDP=1.75D-02 DE= 3.08D-02 OVMax= 2.07D-02

 Cycle   3  Pass 1  IDiag  1:
 E= -99.4600533935885     Delta-E=       -0.034022064503 Rises=F Damp=F
 DIIS: error= 3.08D-03 at cycle   3 NSaved=   3.
 NSaved= 3 IEnMin= 3 EnMin= -99.4600533935885     IErMin= 3 ErrMin= 3.08D-03
 ErrMax= 3.08D-03 EMaxC= 1.00D+00 BMatC= 9.63D-05 BMatP= 3.70D-03
 IDIUse=1 WtCom= 1.00D+00 WtEn= 0.00D+00
 Coeff-Com: -0.152D+00-0.123D-01 0.116D+01
 Coeff:     -0.152D+00-0.123D-01 0.116D+01
 Gap=     0.863 Goal=   None    Shift=    0.000
 RMSDP=1.10D-03 MaxDP=4.49D-03 DE=-3.40D-02 OVMax= 6.88D-03

 Cycle   4  Pass 1  IDiag  1:
 E= -99.4602099593321     Delta-E=       -0.000156565744 Rises=F Damp=F
 DIIS: error= 4.61D-04 at cycle   4 NSaved=   4.
 NSaved= 4 IEnMin= 4 EnMin= -99.4602099593321     IErMin= 4 ErrMin= 4.61D-04
 ErrMax= 4.61D-04 EMaxC= 1.00D+00 BMatC= 4.42D-06 BMatP= 9.63D-05
 IDIUse=1 WtCom= 1.00D+00 WtEn= 0.00D+00
 Coeff-Com:  0.273D-01 0.607D-03-0.333D+00 0.131D+01
 Coeff:      0.273D-01 0.607D-03-0.333D+00 0.131D+01
 Gap=     0.860 Goal=   None    Shift=    0.000
 RMSDP=2.94D-04 MaxDP=1.03D-03 DE=-1.57D-04 OVMax= 2.00D-03

 Cycle   5  Pass 1  IDiag  1:
 E= -99.4602185821921     Delta-E=       -0.000008622860 Rises=F Damp=F
 DIIS: error= 7.24D-05 at cycle   5 NSaved=   5.
 NSaved= 5 IEnMin= 5 EnMin= -99.4602185821921     IErMin= 5 ErrMin= 7.24D-05
 ErrMax= 7.24D-05 EMaxC= 1.00D+00 BMatC= 9.47D-08 BMatP= 4.42D-06
 IDIUse=1 WtCom= 1.00D+00 WtEn= 0.00D+00
 Coeff-Com: -0.165D-02 0.299D-03 0.277D-01-0.235D+00 0.121D+01
 Coeff:     -0.165D-02 0.299D-03 0.277D-01-0.235D+00 0.121D+01
 Gap=     0.860 Goal=   None    Shift=    0.000
 RMSDP=4.06D-05 MaxDP=1.38D-04 DE=-8.62D-06 OVMax= 2.92D-04

 Cycle   6  Pass 1  IDiag  1:
 E= -99.4602187497728     Delta-E=       -0.000000167581 Rises=F Damp=F
 DIIS: error= 1.07D-05 at cycle   6 NSaved=   6.
 NSaved= 6 IEnMin= 6 EnMin= -99.4602187497728     IErMin= 6 ErrMin= 1.07D-05
 ErrMax= 1.07D-05 EMaxC= 1.00D+00 BMatC= 1.23D-09 BMatP= 9.47D-08
 IDIUse=1 WtCom= 1.00D+00 WtEn= 0.00D+00
 Coeff-Com: -0.291D-03-0.559D-04 0.466D-02-0.224D-01 0.275D-02 0.102D+01
 Coeff:     -0.291D-03-0.559D-04 0.466D-02-0.224D-01 0.275D-02 0.102D+01
 Gap=     0.860 Goal=   None    Shift=    0.000
 RMSDP=1.95D-06 MaxDP=9.54D-06 DE=-1.68D-07 OVMax= 9.30D-07

 Cycle   7  Pass 1  IDiag  1:
 E= -99.4602187505500     Delta-E=       -0.000000000777 Rises=F Damp=F
 DIIS: error= 2.32D-06 at cycle   7 NSaved=   7.
 NSaved= 7 IEnMin= 7 EnMin= -99.4602187505500     IErMin= 7 ErrMin= 2.32D-06
 ErrMax= 2.32D-06 EMaxC= 1.00D+00 BMatC= 5.13D-11 BMatP= 1.23D-09
 IDIUse=1 WtCom= 1.00D+00 WtEn= 0.00D+00
 Coeff-Com:  0.817D-04 0.685D-05-0.148D-02 0.115D-01-0.373D-01-0.540D-01
 Coeff-Com:  0.108D+01
 Coeff:      0.817D-04 0.685D-05-0.148D-02 0.115D-01-0.373D-01-0.540D-01
 Coeff:      0.108D+01
 Gap=     0.860 Goal=   None    Shift=    0.000
 RMSDP=7.06D-07 MaxDP=2.65D-06 DE=-7.77D-10 OVMax= 3.96D-06

 Cycle   8  Pass 1  IDiag  1:
 E= -99.4602187505934     Delta-E=       -0.000000000043 Rises=F Damp=F
 DIIS: error= 6.04D-08 at cycle   8 NSaved=   8.
 NSaved= 8 IEnMin= 8 EnMin= -99.4602187505934     IErMin= 8 ErrMin= 6.04D-08
 ErrMax= 6.04D-08 EMaxC= 1.00D+00 BMatC= 9.19D-14 BMatP= 5.13D-11
 IDIUse=1 WtCom= 1.00D+00 WtEn= 0.00D+00
 Coeff-Com: -0.109D-04-0.129D-05 0.212D-03-0.175D-02 0.550D-02 0.751D-02
 Coeff-Com: -0.186D+00 0.117D+01
 Coeff:     -0.109D-04-0.129D-05 0.212D-03-0.175D-02 0.550D-02 0.751D-02
 Coeff:     -0.186D+00 0.117D+01
 Gap=     0.860 Goal=   None    Shift=    0.000
 RMSDP=1.86D-08 MaxDP=9.46D-08 DE=-4.34D-11 OVMax= 4.75D-08

 Cycle   9  Pass 1  IDiag  1:
 E= -99.4602187505935     Delta-E=        0.000000000000 Rises=F Damp=F
 DIIS: error= 3.25D-09 at cycle   9 NSaved=   9.
 NSaved= 9 IEnMin= 9 EnMin= -99.4602187505935     IErMin= 9 ErrMin= 3.25D-09
 ErrMax= 3.25D-09 EMaxC= 1.00D+00 BMatC= 1.76D-16 BMatP= 9.19D-14
 IDIUse=1 WtCom= 1.00D+00 WtEn= 0.00D+00
 Coeff-Com:  0.514D-06 0.647D-07-0.996D-05 0.805D-04-0.249D-03-0.292D-03
 Coeff-Com:  0.964D-02-0.856D-01 0.108D+01
 Coeff:      0.514D-06 0.647D-07-0.996D-05 0.805D-04-0.249D-03-0.292D-03
 Coeff:      0.964D-02-0.856D-01 0.108D+01
 Gap=     0.860 Goal=   None    Shift=    0.000
 RMSDP=1.15D-09 MaxDP=3.88D-09 DE=-7.11D-14 OVMax= 5.59D-09

 SCF Done:  E(RHF) =  -99.4602187506     A.U. after    9 cycles
             Convg  =    0.1145D-08             -V/T =  2.0022
             S**2   =   0.0000
 KE= 9.923844058222D+01 PE=-2.492122398777D+02 EE= 4.543089793580D+01
 Leave Link  502 at Sun Sep 16 22:15:16 2007, MaxMem=    6291456 cpu:       0.0
 (Enter /usr/local/g03/l701.exe)
 Compute integral first derivatives.
 ... and contract with generalized density number  0.
 Leave Link  701 at Sun Sep 16 22:15:16 2007, MaxMem=    6291456 cpu:       0.1
 (Enter /usr/local/g03/l702.exe)
 L702 exits ... SP integral derivatives will be done elsewhere.
 Leave Link  702 at Sun Sep 16 22:15:16 2007, MaxMem=    6291456 cpu:       0.0
 (Enter /usr/local/g03/l703.exe)
 Compute integral first derivatives, UseDBF=F.
 Integral derivatives from FoFDir, PRISM(SPDF).
 Petite list used in FoFDir.
 MinBra= 0 MaxBra= 1 Meth= 1.
 IRaf=       0 NMat=   1 IRICut=       1 DoRegI=T DoRafI=F ISym2E= 1 JSym2E=1.
 Leave Link  703 at Sun Sep 16 22:15:16 2007, MaxMem=    6291456 cpu:       0.1
 (Enter /usr/local/g03/l716.exe)
 Dipole        = 0.00000000D+00 0.00000000D+00-8.54993109D-01
 ***** Axes restored to original set *****
 -------------------------------------------------------------------
 Center     Atomic                   Forces (Hartrees/Bohr)
 Number     Number              X              Y              Z
 -------------------------------------------------------------------
    1          9           0.000000000    0.000000000   -0.000479691
    2          1           0.000000000    0.000000000    0.000479691
 -------------------------------------------------------------------
 Cartesian Forces:  Max     0.000479691 RMS     0.000276950
 Leave Link  716 at Sun Sep 16 22:15:16 2007, MaxMem=    6291456 cpu:       0.0
 (Enter /usr/local/g03/l103.exe)

 GradGradGradGradGradGradGradGradGradGradGradGradGradGradGradGradGradGrad
 Berny optimization.
 Internal  Forces:  Max     0.000479691 RMS     0.000479691
 Search for a local minimum.
 Step number   2 out of a maximum of  20
 All quantities printed in internal units (Hartrees-Bohrs-Radians)
 Update second derivatives using D2CorX and points  1  2
 Trust test= 1.07D+00 RLast= 1.95D-01 DXMaxT set to 4.24D-01
 The second derivative matrix:
                          R1
           R1           0.43166
     Eigenvalues ---    0.43166
 RFO step:  Lambda= 0.00000000D+00.
 Quartic linear search produced a step of -0.00419.
 Iteration  1 RMS(Cart)=  0.00057589 RMS(Int)=  0.00000000
 Iteration  2 RMS(Cart)=  0.00000000 RMS(Int)=  0.00000000
 Variable       Old X    -DE/DX   Delta X   Delta X   Delta X     New X
                                 (Linear)    (Quad)   (Total)
    R1        1.77072   0.00048   0.00081   0.00000   0.00081   1.77153
         Item               Value     Threshold  Converged?
 Maximum Force            0.000480     0.000450     NO 
 RMS     Force            0.000480     0.000300     NO 
 Maximum Displacement     0.000407     0.001800     YES
 RMS     Displacement     0.000576     0.001200     YES
 Predicted change in Energy=-2.475149D-07
 GradGradGradGradGradGradGradGradGradGradGradGradGradGradGradGradGradGrad

 Leave Link  103 at Sun Sep 16 22:15:16 2007, MaxMem=    6291456 cpu:       0.0
 (Enter /usr/local/g03/l202.exe)
                          Input orientation:                          
 ---------------------------------------------------------------------
 Center     Atomic     Atomic              Coordinates (Angstroms)
 Number     Number      Type              X           Y           Z
 ---------------------------------------------------------------------
    1          9             0        0.000000    0.000000    0.051273
    2          1             0        0.000000    0.000000    0.988727
 ---------------------------------------------------------------------
 Stoichiometry    FH
 Framework group  C*V[C*(HF)]
 Deg. of freedom     1
 Full point group                 C*V     NOp   4
 Largest Abelian subgroup         C2V     NOp   4
 Largest concise Abelian subgroup C1      NOp   1
                         Standard orientation:                         
 ---------------------------------------------------------------------
 Center     Atomic     Atomic              Coordinates (Angstroms)
 Number     Number      Type              X           Y           Z
 ---------------------------------------------------------------------
    1          9             0        0.000000    0.000000    0.093745
    2          1             0        0.000000    0.000000   -0.843709
 ---------------------------------------------------------------------
 Rotational constants (GHZ):      0.0000000    600.8685348    600.8685348
 Leave Link  202 at Sun Sep 16 22:15:16 2007, MaxMem=    6291456 cpu:       0.0
 (Enter /usr/local/g03/l301.exe)
 Standard basis: 3-21G (6D, 10F)
 There are     7 symmetry adapted basis functions of A1  symmetry.
 There are     0 symmetry adapted basis functions of A2  symmetry.
 There are     2 symmetry adapted basis functions of B1  symmetry.
 There are     2 symmetry adapted basis functions of B2  symmetry.
 Integral buffers will be    262144 words long.
 Raffenetti 1 integral format.
 Two-electron integral symmetry is turned on.
    11 basis functions,    18 primitive gaussians,    11 cartesian basis functions
     5 alpha electrons        5 beta electrons
       nuclear repulsion energy         5.0803459327 Hartrees.
 IExCor=   0 DFT=F Ex=HF Corr=None ExCW=0 ScaHFX=  1.000000
 ScaDFX=  1.000000  1.000000  1.000000  1.000000
 IRadAn=      0 IRanWt=     -1 IRanGd=            0 ICorTp=0
 NAtoms=    2 NActive=    2 NUniq=    2 SFac= 1.00D+00 NAtFMM=   60 Big=F
 Leave Link  301 at Sun Sep 16 22:15:17 2007, MaxMem=    6291456 cpu:       0.0
 (Enter /usr/local/g03/l302.exe)
 NPDir=0 NMtPBC=     1 NCelOv=     1 NCel=       1 NClECP=     1 NCelD=      1
         NCelK=      1 NCelE2=     1 NClLst=     1 CellRange=     0.0.
 One-electron integrals computed using PRISM.
 NBasis=    11 RedAO= T  NBF=     7     0     2     2
 NBsUse=    11 1.00D-06 NBFU=     7     0     2     2
 Leave Link  302 at Sun Sep 16 22:15:17 2007, MaxMem=    6291456 cpu:       0.1
 (Enter /usr/local/g03/l303.exe)
 DipDrv:  MaxL=1.
 Leave Link  303 at Sun Sep 16 22:15:17 2007, MaxMem=    6291456 cpu:       0.0
 (Enter /usr/local/g03/l401.exe)
 Initial guess read from the read-write file:
 Guess basis will be translated and rotated to current coordinates.
 Initial guess orbital symmetries:
       Occupied  (SG) (SG) (SG) (PI) (PI)
       Virtual   (SG) (SG) (PI) (PI) (SG) (SG)
 The electronic state of the initial guess is 1-SG.
 Leave Link  401 at Sun Sep 16 22:15:17 2007, MaxMem=    6291456 cpu:       0.0
 (Enter /usr/local/g03/l502.exe)
 Closed shell SCF:
 Requested convergence on RMS density matrix=1.00D-08 within 128 cycles.
 Requested convergence on MAX density matrix=1.00D-06.
 Requested convergence on             energy=1.00D-06.
 No special actions if energy rises.
 Using DIIS extrapolation, IDIIS=  1040.
 Integral symmetry usage will be decided dynamically.
 Keep R1 integrals in memory in canonical form, NReq=      421782.
 IEnd=     18764 IEndB=     18764 NGot=   6291456 MDV=   6287570
 LenX=   6287570
 Symmetry not used in FoFDir.
 MinBra= 0 MaxBra= 1 Meth= 1.
 IRaf=       0 NMat=   1 IRICut=       1 DoRegI=T DoRafI=F ISym2E= 0 JSym2E=0.

 Cycle   1  Pass 1  IDiag  1:
 E= -99.4602188680300    
 DIIS: error= 9.66D-05 at cycle   1 NSaved=   1.
 NSaved= 1 IEnMin= 1 EnMin= -99.4602188680300     IErMin= 1 ErrMin= 9.66D-05
 ErrMax= 9.66D-05 EMaxC= 1.00D-01 BMatC= 8.62D-08 BMatP= 8.62D-08
 IDIUse=1 WtCom= 1.00D+00 WtEn= 0.00D+00
 Coeff-Com:  0.100D+01
 Coeff:      0.100D+01
 Gap=     0.860 Goal=   None    Shift=    0.000
 RMSDP=1.87D-05 MaxDP=7.69D-05              OVMax= 9.37D-05

 Cycle   2  Pass 1  IDiag  1:
 E= -99.4602189367361     Delta-E=       -0.000000068706 Rises=F Damp=F
 DIIS: error= 1.99D-05 at cycle   2 NSaved=   2.
 NSaved= 2 IEnMin= 2 EnMin= -99.4602189367361     IErMin= 2 ErrMin= 1.99D-05
 ErrMax= 1.99D-05 EMaxC= 1.00D-01 BMatC= 6.69D-09 BMatP= 8.62D-08
 IDIUse=1 WtCom= 1.00D+00 WtEn= 0.00D+00
 Coeff-Com: -0.113D-01 0.101D+01
 Coeff:     -0.113D-01 0.101D+01
 Gap=     0.860 Goal=   None    Shift=    0.000
 RMSDP=5.26D-06 MaxDP=1.70D-05 DE=-6.87D-08 OVMax= 2.13D-05

 Cycle   3  Pass 1  IDiag  1:
 E= -99.4602189419356     Delta-E=       -0.000000005199 Rises=F Damp=F
 DIIS: error= 5.77D-06 at cycle   3 NSaved=   3.
 NSaved= 3 IEnMin= 3 EnMin= -99.4602189419356     IErMin= 3 ErrMin= 5.77D-06
 ErrMax= 5.77D-06 EMaxC= 1.00D-01 BMatC= 6.82D-10 BMatP= 6.69D-09
 IDIUse=1 WtCom= 1.00D+00 WtEn= 0.00D+00
 Coeff-Com: -0.602D-01 0.164D+00 0.896D+00
 Coeff:     -0.602D-01 0.164D+00 0.896D+00
 Gap=     0.860 Goal=   None    Shift=    0.000
 RMSDP=2.19D-06 MaxDP=8.16D-06 DE=-5.20D-09 OVMax= 1.57D-05

 Cycle   4  Pass 1  IDiag  1:
 E= -99.4602189427046     Delta-E=       -0.000000000769 Rises=F Damp=F
 DIIS: error= 1.99D-06 at cycle   4 NSaved=   4.
 NSaved= 4 IEnMin= 4 EnMin= -99.4602189427046     IErMin= 4 ErrMin= 1.99D-06
 ErrMax= 1.99D-06 EMaxC= 1.00D-01 BMatC= 5.22D-11 BMatP= 6.82D-10
 IDIUse=1 WtCom= 1.00D+00 WtEn= 0.00D+00
 Coeff-Com:  0.150D-01-0.120D+00-0.125D+00 0.123D+01
 Coeff:      0.150D-01-0.120D+00-0.125D+00 0.123D+01
 Gap=     0.860 Goal=   None    Shift=    0.000
 RMSDP=7.86D-07 MaxDP=2.57D-06 DE=-7.69D-10 OVMax= 5.14D-06

 Cycle   5  Pass 1  IDiag  1:
 E= -99.4602189427696     Delta-E=       -0.000000000065 Rises=F Damp=F
 DIIS: error= 1.52D-07 at cycle   5 NSaved=   5.
 NSaved= 5 IEnMin= 5 EnMin= -99.4602189427696     IErMin= 5 ErrMin= 1.52D-07
 ErrMax= 1.52D-07 EMaxC= 1.00D-01 BMatC= 3.39D-13 BMatP= 5.22D-11
 IDIUse=1 WtCom= 1.00D+00 WtEn= 0.00D+00
 Coeff-Com: -0.108D-02 0.129D-01 0.812D-02-0.202D+00 0.118D+01
 Coeff:     -0.108D-02 0.129D-01 0.812D-02-0.202D+00 0.118D+01
 Gap=     0.860 Goal=   None    Shift=    0.000
 RMSDP=6.03D-08 MaxDP=1.90D-07 DE=-6.50D-11 OVMax= 3.85D-07

 Cycle   6  Pass 1  IDiag  1:
 E= -99.4602189427699     Delta-E=        0.000000000000 Rises=F Damp=F
 DIIS: error= 1.73D-08 at cycle   6 NSaved=   6.
 NSaved= 6 IEnMin= 6 EnMin= -99.4602189427699     IErMin= 6 ErrMin= 1.73D-08
 ErrMax= 1.73D-08 EMaxC= 1.00D-01 BMatC= 1.93D-15 BMatP= 3.39D-13
 IDIUse=1 WtCom= 1.00D+00 WtEn= 0.00D+00
 Coeff-Com:  0.162D-03-0.213D-02-0.155D-02 0.417D-01-0.260D+00 0.122D+01
 Coeff:      0.162D-03-0.213D-02-0.155D-02 0.417D-01-0.260D+00 0.122D+01
 Gap=     0.860 Goal=   None    Shift=    0.000
 RMSDP=5.44D-09 MaxDP=2.09D-08 DE=-3.84D-13 OVMax= 3.06D-08

 SCF Done:  E(RHF) =  -99.4602189428     A.U. after    6 cycles
             Convg  =    0.5442D-08             -V/T =  2.0022
             S**2   =   0.0000
 KE= 9.923754583525D+01 PE=-2.492073470386D+02 EE= 4.542923632782D+01
 Leave Link  502 at Sun Sep 16 22:15:17 2007, MaxMem=    6291456 cpu:       0.0
 (Enter /usr/local/g03/l701.exe)
 Compute integral first derivatives.
 ... and contract with generalized density number  0.
 Leave Link  701 at Sun Sep 16 22:15:17 2007, MaxMem=    6291456 cpu:       0.1
 (Enter /usr/local/g03/l702.exe)
 L702 exits ... SP integral derivatives will be done elsewhere.
 Leave Link  702 at Sun Sep 16 22:15:17 2007, MaxMem=    6291456 cpu:       0.0
 (Enter /usr/local/g03/l703.exe)
 Compute integral first derivatives, UseDBF=F.
 Integral derivatives from FoFDir, PRISM(SPDF).
 Petite list used in FoFDir.
 MinBra= 0 MaxBra= 1 Meth= 1.
 IRaf=       0 NMat=   1 IRICut=       1 DoRegI=T DoRafI=F ISym2E= 1 JSym2E=1.
 Leave Link  703 at Sun Sep 16 22:15:18 2007, MaxMem=    6291456 cpu:       0.0
 (Enter /usr/local/g03/l716.exe)
 Dipole        = 0.00000000D+00 0.00000000D+00-8.55139689D-01
 ***** Axes restored to original set *****
 -------------------------------------------------------------------
 Center     Atomic                   Forces (Hartrees/Bohr)
 Number     Number              X              Y              Z
 -------------------------------------------------------------------
    1          9           0.000000000    0.000000000    0.000007528
    2          1           0.000000000    0.000000000   -0.000007528
 -------------------------------------------------------------------
 Cartesian Forces:  Max     0.000007528 RMS     0.000004346
 Leave Link  716 at Sun Sep 16 22:15:18 2007, MaxMem=    6291456 cpu:       0.0
 (Enter /usr/local/g03/l103.exe)

 GradGradGradGradGradGradGradGradGradGradGradGradGradGradGradGradGradGrad
 Berny optimization.
 Internal  Forces:  Max     0.000007528 RMS     0.000007528
 Search for a local minimum.
 Step number   3 out of a maximum of  20
 All quantities printed in internal units (Hartrees-Bohrs-Radians)
 Update second derivatives using D2CorX and points  3
 Trust test= 7.76D-01 RLast= 8.14D-04 DXMaxT set to 4.24D-01
 The second derivative matrix:
                          R1
           R1           0.43166
     Eigenvalues ---    0.43166
 RFO step:  Lambda= 0.00000000D+00.
 Quartic linear search produced a step of -0.01547.
 Iteration  1 RMS(Cart)=  0.00000891 RMS(Int)=  0.00000000
 Iteration  2 RMS(Cart)=  0.00000000 RMS(Int)=  0.00000000
 Variable       Old X    -DE/DX   Delta X   Delta X   Delta X     New X
                                 (Linear)    (Quad)   (Total)
    R1        1.77153  -0.00001  -0.00001   0.00000  -0.00001   1.77152
         Item               Value     Threshold  Converged?
 Maximum Force            0.000008     0.000450     YES
 RMS     Force            0.000008     0.000300     YES
 Maximum Displacement     0.000006     0.001800     YES
 RMS     Displacement     0.000009     0.001200     YES
 Predicted change in Energy=-6.058898D-11
 Optimization completed.
    -- Stationary point found.
                           ----------------------------
                           !   Optimized Parameters   !
                           ! (Angstroms and Degrees)  !
 --------------------------                            --------------------------
 ! Name  Definition              Value          Derivative Info.                !
 --------------------------------------------------------------------------------
 ! R1    R(1,2)                  0.9375         -DE/DX =    0.0                 !
 --------------------------------------------------------------------------------
 GradGradGradGradGradGradGradGradGradGradGradGradGradGradGradGradGradGrad

 Largest change from initial coordinates is atom    2       0.092 Angstoms.
 Leave Link  103 at Sun Sep 16 22:15:18 2007, MaxMem=    6291456 cpu:       0.0
 (Enter /usr/local/g03/l202.exe)
                          Input orientation:                          
 ---------------------------------------------------------------------
 Center     Atomic     Atomic              Coordinates (Angstroms)
 Number     Number      Type              X           Y           Z
 ---------------------------------------------------------------------
    1          9             0        0.000000    0.000000    0.051273
    2          1             0        0.000000    0.000000    0.988727
 ---------------------------------------------------------------------
 Stoichiometry    FH
 Framework group  C*V[C*(HF)]
 Deg. of freedom     1
 Full point group                 C*V     NOp   4
 Largest Abelian subgroup         C2V     NOp   4
 Largest concise Abelian subgroup C1      NOp   1
                         Standard orientation:                         
 ---------------------------------------------------------------------
 Center     Atomic     Atomic              Coordinates (Angstroms)
 Number     Number      Type              X           Y           Z
 ---------------------------------------------------------------------
    1          9             0        0.000000    0.000000    0.093745
    2          1             0        0.000000    0.000000   -0.843709
 ---------------------------------------------------------------------
 Rotational constants (GHZ):      0.0000000    600.8685348    600.8685348
 Leave Link  202 at Sun Sep 16 22:15:18 2007, MaxMem=    6291456 cpu:       0.0
 (Enter /usr/local/g03/l601.exe)
 Copying SCF densities to generalized density rwf, ISCF=0 IROHF=0.

 **********************************************************************

            Population analysis using the SCF density.

 **********************************************************************

 Orbital symmetries:
       Occupied  (SG) (SG) (SG) (PI) (PI)
       Virtual   (SG) (SG) (PI) (PI) (SG) (SG)
 The electronic state is 1-SG.
 Alpha  occ. eigenvalues --  -26.11516  -1.54681  -0.69881  -0.59745  -0.59745
 Alpha virt. eigenvalues --    0.26229   1.20608   2.23463   2.23463   2.42716
 Alpha virt. eigenvalues --    3.67342
     Molecular Orbital Coefficients
                           1         2         3         4         5
                        (SG)--O   (SG)--O   (SG)--O   (PI)--O   (PI)--O
     EIGENVALUES --   -26.11516  -1.54681  -0.69881  -0.59745  -0.59745
   1 1   F  1S          0.98183  -0.24571  -0.06897   0.00000   0.00000
   2        2S          0.09482   0.23729   0.06402   0.00000   0.00000
   3        2PX         0.00000   0.00000   0.00000   0.54115   0.00000
   4        2PY         0.00000   0.00000   0.00000   0.00000   0.54115
   5        2PZ        -0.00253  -0.05843   0.43683   0.00000   0.00000
   6        3S         -0.02964   0.76958   0.31003   0.00000   0.00000
   7        3PX         0.00000   0.00000   0.00000   0.61720   0.00000
   8        3PY         0.00000   0.00000   0.00000   0.00000   0.61720
   9        3PZ         0.00474  -0.06931   0.46267   0.00000   0.00000
  10 2   H  1S          0.00246   0.10430  -0.25969   0.00000   0.00000
  11        2S          0.00665   0.02048  -0.17306   0.00000   0.00000
                           6         7         8         9        10
                        (SG)--V   (SG)--V   (PI)--V   (PI)--V   (SG)--V
     EIGENVALUES --     0.26229   1.20608   2.23463   2.23463   2.42716
   1 1   F  1S          0.07698   0.03060   0.00000   0.00000   0.04052
   2        2S         -0.03042  -0.04324   0.00000   0.00000  -0.17622
   3        2PX         0.00000   0.00000   1.01013   0.00000   0.00000
   4        2PY         0.00000   0.00000   0.00000   1.01013   0.00000
   5        2PZ         0.25060   0.27804   0.00000   0.00000  -0.99836
   6        3S         -0.66683   0.00354   0.00000   0.00000  -0.04232
   7        3PX         0.00000   0.00000  -0.96554   0.00000   0.00000
   8        3PY         0.00000   0.00000   0.00000  -0.96554   0.00000
   9        3PZ         0.48436   0.32128   0.00000   0.00000   1.18678
  10 2   H  1S          0.08013   1.36096   0.00000   0.00000   0.43017
  11        2S          1.22132  -0.85459   0.00000   0.00000   0.10523
                          11
                        (SG)--V
     EIGENVALUES --     3.67342
   1 1   F  1S          0.11872
   2        2S         -1.52445
   3        2PX         0.00000
   4        2PY         0.00000
   5        2PZ         0.18164
   6        3S          1.55550
   7        3PX         0.00000
   8        3PY         0.00000
   9        3PZ        -0.41156
  10 2   H  1S         -0.25710
  11        2S         -0.37601
      DENSITY MATRIX.
                           1         2         3         4         5
   1 1   F  1S          2.05826
   2        2S          0.06075   0.13879
   3        2PX         0.00000   0.00000   0.58569
   4        2PY         0.00000   0.00000   0.00000   0.58569
   5        2PZ        -0.03651   0.02773   0.00000   0.00000   0.38848
   6        3S         -0.47915   0.39931   0.00000   0.00000   0.18108
   7        3PX         0.00000   0.00000   0.66799   0.00000   0.00000
   8        3PY         0.00000   0.00000   0.00000   0.66799   0.00000
   9        3PZ        -0.02046   0.02725   0.00000   0.00000   0.41230
  10 2   H  1S         -0.01060   0.01671   0.00000   0.00000  -0.23908
  11        2S          0.02687  -0.01118   0.00000   0.00000  -0.15363
                           6         7         8         9        10
   6        3S          1.37852
   7        3PX         0.00000   0.76186
   8        3PY         0.00000   0.00000   0.76186
   9        3PZ         0.17992   0.00000   0.00000   0.43779
  10 2   H  1S         -0.00064   0.00000   0.00000  -0.25474   0.15665
  11        2S         -0.07618   0.00000   0.00000  -0.16292   0.09419
                          11
  11        2S          0.06083
    Full Mulliken population analysis:
                           1         2         3         4         5
   1 1   F  1S          2.05826
   2        2S          0.01304   0.13879
   3        2PX         0.00000   0.00000   0.58569
   4        2PY         0.00000   0.00000   0.00000   0.58569
   5        2PZ         0.00000   0.00000   0.00000   0.00000   0.38848
   6        3S         -0.08796   0.29237   0.00000   0.00000   0.00000
   7        3PX         0.00000   0.00000   0.32623   0.00000   0.00000
   8        3PY         0.00000   0.00000   0.00000   0.32623   0.00000
   9        3PZ         0.00000   0.00000   0.00000   0.00000   0.20135
  10 2   H  1S         -0.00022   0.00228   0.00000   0.00000   0.03832
  11        2S          0.00139  -0.00288   0.00000   0.00000   0.01343
                           6         7         8         9        10
   6        3S          1.37852
   7        3PX         0.00000   0.76186
   8        3PY         0.00000   0.00000   0.76186
   9        3PZ         0.00000   0.00000   0.00000   0.43779
  10 2   H  1S         -0.00022   0.00000   0.00000   0.13959   0.15665
  11        2S         -0.04240   0.00000   0.00000   0.06141   0.06084
                          11
  11        2S          0.06083
     Gross orbital populations:
                           1
   1 1   F  1S          1.98451
   2        2S          0.44361
   3        2PX         0.91191
   4        2PY         0.91191
   5        2PZ         0.64159
   6        3S          1.54030
   7        3PX         1.08809
   8        3PY         1.08809
   9        3PZ         0.84014
  10 2   H  1S          0.39723
  11        2S          0.15263
          Condensed to atoms (all electrons):
              1          2
     1  F    9.239446   0.210700
     2  H    0.210700   0.339154
 Mulliken atomic charges:
              1
     1  F   -0.450146
     2  H    0.450146
 Sum of Mulliken charges=   0.00000
 Atomic charges with hydrogens summed into heavy atoms:
              1
     1  F    0.000000
     2  H    0.000000
 Sum of Mulliken charges=   0.00000
 Electronic spatial extent (au):  =    12.9538
 Charge=     0.0000 electrons
 Dipole moment (field-independent basis, Debye):
    X=     0.0000    Y=     0.0000    Z=    -2.1735  Tot=     2.1735
 Quadrupole moment (field-independent basis, Debye-Ang):
   XX=    -5.1732   YY=    -5.1732   ZZ=    -3.2778
   XY=     0.0000   XZ=     0.0000   YZ=     0.0000
 Traceless Quadrupole moment (field-independent basis, Debye-Ang):
   XX=    -0.6318   YY=    -0.6318   ZZ=     1.2636
   XY=     0.0000   XZ=     0.0000   YZ=     0.0000
 Octapole moment (field-independent basis, Debye-Ang**2):
  XXX=     0.0000  YYY=     0.0000  ZZZ=    -1.7633  XYY=     0.0000
  XXY=     0.0000  XXZ=    -0.1403  XZZ=     0.0000  YZZ=     0.0000
  YYZ=    -0.1403  XYZ=     0.0000
 Hexadecapole moment (field-independent basis, Debye-Ang**3):
 XXXX=    -2.4380 YYYY=    -2.4380 ZZZZ=    -2.5820 XXXY=     0.0000
 XXXZ=     0.0000 YYYX=     0.0000 YYYZ=     0.0000 ZZZX=     0.0000
 ZZZY=     0.0000 XXYY=    -0.8127 XXZZ=    -1.0705 YYZZ=    -1.0705
 XXYZ=     0.0000 YYXZ=     0.0000 ZZXY=     0.0000
 N-N= 5.080345932729D+00 E-N=-2.492073470239D+02  KE= 9.923754583525D+01
 Symmetry A1   KE= 8.649544227678D+01
 Symmetry A2   KE= 0.000000000000D+00
 Symmetry B1   KE= 6.371051779233D+00
 Symmetry B2   KE= 6.371051779233D+00
 Orbital energies and kinetic energies (alpha):
                           1         2
       1  (SG)--O     -26.11516  36.90235
       2  (SG)--O      -1.54681   3.72491
       3  (SG)--O      -0.69881   2.62047
       4  (PI)--O      -0.59745   3.18553
       5  (PI)--O      -0.59745   3.18553
       6  (SG)--V       0.26229   1.42051
       7  (SG)--V       1.20608   2.91961
       8  (PI)--V       2.23463   6.48842
       9  (PI)--V       2.23463   6.48842
      10  (SG)--V       2.42716   6.56099
      11  (SG)--V       3.67342   8.49076
 Total kinetic energy from orbitals= 9.923754583525D+01
 No NMR shielding tensors so no spin-rotation constants.
 Leave Link  601 at Sun Sep 16 22:15:18 2007, MaxMem=    6291456 cpu:       0.1
 (Enter /usr/local/g03/l9999.exe)
 Final structure in terms of initial Z-matrix:
 F
 H,1,B1
      Variables:
 B1=0.93745484
 1\1\GINC-BUCHNER\FOpt\RHF\3-21G\F1H1\WEBMODEMO\16-Sep-2007\0\\#P HF/3-
 21G OPT GFINPUT POP=FULL 6D 10F\\HF\\0,1\F,0.,0.,-0.0937454838\H,0.,0.
 ,0.8437093544\\Version=x86-Linux-G03RevB.05\State=1-SG\HF=-99.4602189\
 RMSD=5.442e-09\RMSF=4.346e-06\Dipole=0.,0.,0.8551397\PG=C*V [C*(H1F1)]
 \\@


 Statistics are no substitute for judgment.
                            -- Henry Clay
 Job cpu time:  0 days  0 hours  0 minutes  5.3 seconds.
 File lengths (MBytes):  RWF=     12 Int=      0 D2E=      0 Chk=      7 Scr=      1
 Normal termination of Gaussian 03 at Sun Sep 16 22:15:18 2007.

