 Entering Gaussian System, Link 0=/usr/local/g03/g03
 Initial command:
 /usr/local/g03/l1.exe /scratch/webmodemo/webmo-4350/14317/Gau-19348.inp -scrdir=/scratch/webmodemo/webmo-4350/14317/
 Entering Link 1 = /usr/local/g03/l1.exe PID=     19349.
  
 Copyright (c) 1988,1990,1992,1993,1995,1998,2003, Gaussian, Inc.
                  All Rights Reserved.
  
 This is the Gaussian(R) 03 program.  It is based on the
 the Gaussian(R) 98 system (copyright 1998, Gaussian, Inc.),
 the Gaussian(R) 94 system (copyright 1995, Gaussian, Inc.),
 the Gaussian 92(TM) system (copyright 1992, Gaussian, Inc.),
 the Gaussian 90(TM) system (copyright 1990, Gaussian, Inc.),
 the Gaussian 88(TM) system (copyright 1988, Gaussian, Inc.),
 the Gaussian 86(TM) system (copyright 1986, Carnegie Mellon
 University), and the Gaussian 82(TM) system (copyright 1983,
 Carnegie Mellon University). Gaussian is a federally registered
 trademark of Gaussian, Inc.
  
 This software contains proprietary and confidential information,
 including trade secrets, belonging to Gaussian, Inc.
  
 This software is provided under written license and may be
 used, copied, transmitted, or stored only in accord with that
 written license.
  
 The following legend is applicable only to US Government
 contracts under DFARS:
  
                    RESTRICTED RIGHTS LEGEND
  
 Use, duplication or disclosure by the US Government is subject
 to restrictions as set forth in subparagraph (c)(1)(ii) of the
 Rights in Technical Data and Computer Software clause at DFARS
 252.227-7013.
  
 Gaussian, Inc.
 Carnegie Office Park, Building 6, Pittsburgh, PA 15106 USA
  
 The following legend is applicable only to US Government
 contracts under FAR:
  
                    RESTRICTED RIGHTS LEGEND
  
 Use, reproduction and disclosure by the US Government is subject
 to restrictions as set forth in subparagraph (c) of the
 Commercial Computer Software - Restricted Rights clause at FAR
 52.227-19.
  
 Gaussian, Inc.
 Carnegie Office Park, Building 6, Pittsburgh, PA 15106 USA
  
  
 ---------------------------------------------------------------
 Warning -- This program may not be used in any manner that
 competes with the business of Gaussian, Inc. or will provide
 assistance to any competitor of Gaussian, Inc.  The licensee
 of this program is prohibited from giving any competitor of
 Gaussian, Inc. access to this program.  By using this program,
 the user acknowledges that Gaussian, Inc. is engaged in the
 business of creating and licensing software in the field of
 computational chemistry and represents and warrants to the
 licensee that it is not a competitor of Gaussian, Inc. and that
 it will not use this program in any manner prohibited above.
 ---------------------------------------------------------------
  

 Cite this work as:
 Gaussian 03, Revision B.05,
 M. J. Frisch, G. W. Trucks, H. B. Schlegel, G. E. Scuseria, 
 M. A. Robb, J. R. Cheeseman, J. A. Montgomery, Jr., T. Vreven, 
 K. N. Kudin, J. C. Burant, J. M. Millam, S. S. Iyengar, J. Tomasi, 
 V. Barone, B. Mennucci, M. Cossi, G. Scalmani, N. Rega, 
 G. A. Petersson, H. Nakatsuji, M. Hada, M. Ehara, K. Toyota, 
 R. Fukuda, J. Hasegawa, M. Ishida, T. Nakajima, Y. Honda, O. Kitao, 
 H. Nakai, M. Klene, X. Li, J. E. Knox, H. P. Hratchian, J. B. Cross, 
 C. Adamo, J. Jaramillo, R. Gomperts, R. E. Stratmann, O. Yazyev, 
 A. J. Austin, R. Cammi, C. Pomelli, J. W. Ochterski, P. Y. Ayala, 
 K. Morokuma, G. A. Voth, P. Salvador, J. J. Dannenberg, 
 V. G. Zakrzewski, S. Dapprich, A. D. Daniels, M. C. Strain, 
 O. Farkas, D. K. Malick, A. D. Rabuck, K. Raghavachari, 
 J. B. Foresman, J. V. Ortiz, Q. Cui, A. G. Baboul, S. Clifford, 
 J. Cioslowski, B. B. Stefanov, G. Liu, A. Liashenko, P. Piskorz, 
 I. Komaromi, R. L. Martin, D. J. Fox, T. Keith, M. A. Al-Laham, 
 C. Y. Peng, A. Nanayakkara, M. Challacombe, P. M. W. Gill, 
 B. Johnson, W. Chen, M. W. Wong, C. Gonzalez, and J. A. Pople, 
 Gaussian, Inc., Pittsburgh PA, 2003.
 
 **********************************************
 Gaussian 03:  x86-Linux-G03RevB.05 24-Oct-2003
                  16-Sep-2007 
 **********************************************
 -------------------------
 #P HF/STO-3G OPT pop=Full
 -------------------------
 1/18=20,38=1/1,3;
 2/9=110,17=6,18=5,40=1/2;
 3/6=3,11=9,16=1,25=1,30=1/1,2,3;
 4//1;
 5/5=2,38=5/2;
 6/7=3,28=1/1;
 7//1,2,3,16;
 1/18=20/3(1);
 99//99;
 2/9=110/2;
 3/6=3,11=9,16=1,25=1,30=1/1,2,3;
 4/5=5,16=3/1;
 5/5=2,38=5/2;
 7//1,2,3,16;
 1/18=20/3(-5);
 2/9=110/2;
 6/7=3,19=2,28=1/1;
 99/9=1/99;
 Leave Link    1 at Sun Sep 16 22:01:18 2007, MaxMem=          0 cpu:       0.1
 (Enter /usr/local/g03/l101.exe)
 --
 HF
 --
 Symbolic Z-matrix:
 Charge =  0 Multiplicity = 1
 F
 H                    1    B1
       Variables:
  B1                    1.04                     
 
                    Isotopes and Nuclear Properties:

  Atom         1           2
 IAtWgt=          19           1
 AtmWgt=  18.9984033   1.0078250
 IAtSpn=           1           1
 AtZEff=   0.0000000   0.0000000
 AtQMom=   0.0000000   0.0000000
 AtGFac=   2.6288670   2.7928460
 Leave Link  101 at Sun Sep 16 22:01:18 2007, MaxMem=    6291456 cpu:       0.1
 (Enter /usr/local/g03/l103.exe)

 GradGradGradGradGradGradGradGradGradGradGradGradGradGradGradGradGradGrad
 Berny optimization.
 Initialization pass.
                           ----------------------------
                           !    Initial Parameters    !
                           ! (Angstroms and Degrees)  !
 --------------------------                            --------------------------
 ! Name  Definition              Value          Derivative Info.                !
 --------------------------------------------------------------------------------
 ! R1    R(1,2)                  1.04           estimate D2E/DX2                !
 --------------------------------------------------------------------------------
 Trust Radius=3.00D-01 FncErr=1.00D-07 GrdErr=1.00D-07
 Number of steps in this run=  20 maximum allowed number of steps= 100.
 GradGradGradGradGradGradGradGradGradGradGradGradGradGradGradGradGradGrad

 Leave Link  103 at Sun Sep 16 22:01:18 2007, MaxMem=    6291456 cpu:       0.0
 (Enter /usr/local/g03/l202.exe)
                          Input orientation:                          
 ---------------------------------------------------------------------
 Center     Atomic     Atomic              Coordinates (Angstroms)
 Number     Number      Type              X           Y           Z
 ---------------------------------------------------------------------
    1          9             0        0.000000    0.000000    0.000000
    2          1             0        0.000000    0.000000    1.040000
 ---------------------------------------------------------------------
 Stoichiometry    FH
 Framework group  C*V[C*(HF)]
 Deg. of freedom     1
 Full point group                 C*V     NOp   4
 Largest Abelian subgroup         C2V     NOp   4
 Largest concise Abelian subgroup C1      NOp   1
                         Standard orientation:                         
 ---------------------------------------------------------------------
 Center     Atomic     Atomic              Coordinates (Angstroms)
 Number     Number      Type              X           Y           Z
 ---------------------------------------------------------------------
    1          9             0        0.000000    0.000000    0.104000
    2          1             0        0.000000    0.000000   -0.936000
 ---------------------------------------------------------------------
 Rotational constants (GHZ):      0.0000000    488.2176696    488.2176696
 Leave Link  202 at Sun Sep 16 22:01:18 2007, MaxMem=    6291456 cpu:       0.0
 (Enter /usr/local/g03/l301.exe)
 Standard basis: STO-3G (5D, 7F)
 There are     4 symmetry adapted basis functions of A1  symmetry.
 There are     0 symmetry adapted basis functions of A2  symmetry.
 There are     1 symmetry adapted basis functions of B1  symmetry.
 There are     1 symmetry adapted basis functions of B2  symmetry.
 Integral buffers will be    262144 words long.
 Raffenetti 1 integral format.
 Two-electron integral symmetry is turned on.
     6 basis functions,    18 primitive gaussians,     6 cartesian basis functions
     5 alpha electrons        5 beta electrons
       nuclear repulsion energy         4.5794181488 Hartrees.
 IExCor=   0 DFT=F Ex=HF Corr=None ExCW=0 ScaHFX=  1.000000
 ScaDFX=  1.000000  1.000000  1.000000  1.000000
 IRadAn=      0 IRanWt=     -1 IRanGd=            0 ICorTp=0
 NAtoms=    2 NActive=    2 NUniq=    2 SFac= 1.00D+00 NAtFMM=   60 Big=F
 Leave Link  301 at Sun Sep 16 22:01:18 2007, MaxMem=    6291456 cpu:       0.0
 (Enter /usr/local/g03/l302.exe)
 NPDir=0 NMtPBC=     1 NCelOv=     1 NCel=       1 NClECP=     1 NCelD=      1
         NCelK=      1 NCelE2=     1 NClLst=     1 CellRange=     0.0.
 One-electron integrals computed using PRISM.
 NBasis=     6 RedAO= T  NBF=     4     0     1     1
 NBsUse=     6 1.00D-06 NBFU=     4     0     1     1
 Leave Link  302 at Sun Sep 16 22:01:18 2007, MaxMem=    6291456 cpu:       0.1
 (Enter /usr/local/g03/l303.exe)
 DipDrv:  MaxL=1.
 Leave Link  303 at Sun Sep 16 22:01:18 2007, MaxMem=    6291456 cpu:       0.0
 (Enter /usr/local/g03/l401.exe)
 Harris functional with IExCor=  205 diagonalized for initial guess.
 ExpMin= 1.69D-01 ExpMax= 1.67D+02 ExpMxC= 1.67D+02 IAcc=1 IRadAn=         1 AccDes= 1.00D-06
 HarFok:  IExCor= 205 AccDes= 1.00D-06 IRadAn=         1 IDoV=1
 ScaDFX=  1.000000  1.000000  1.000000  1.000000
 Harris En= -98.5345131369259    
 Initial guess orbital symmetries:
       Occupied  (SG) (SG) (SG) (PI) (PI)
       Virtual   (SG)
 The electronic state of the initial guess is 1-SG.
 Leave Link  401 at Sun Sep 16 22:01:19 2007, MaxMem=    6291456 cpu:       0.0
 (Enter /usr/local/g03/l502.exe)
 Closed shell SCF:
 Requested convergence on RMS density matrix=1.00D-08 within 128 cycles.
 Requested convergence on MAX density matrix=1.00D-06.
 Requested convergence on             energy=1.00D-06.
 No special actions if energy rises.
 Using DIIS extrapolation, IDIIS=  1040.
 Integral symmetry usage will be decided dynamically.
 Keep R1 integrals in memory in canonical form, NReq=      419149.
 IEnd=     18757 IEndB=     18757 NGot=   6291456 MDV=   6289557
 LenX=   6289557
 Symmetry not used in FoFDir.
 MinBra= 0 MaxBra= 1 Meth= 1.
 IRaf=       0 NMat=   1 IRICut=       1 DoRegI=T DoRafI=F ISym2E= 0 JSym2E=0.

 Cycle   1  Pass 1  IDiag  1:
 E= -98.5370856710916    
 DIIS: error= 4.14D-02 at cycle   1 NSaved=   1.
 NSaved= 1 IEnMin= 1 EnMin= -98.5370856710916     IErMin= 1 ErrMin= 4.14D-02
 ErrMax= 4.14D-02 EMaxC= 1.00D-01 BMatC= 1.47D-02 BMatP= 1.47D-02
 IDIUse=3 WtCom= 5.86D-01 WtEn= 4.14D-01
 Coeff-Com:  0.100D+01
 Coeff-En:   0.100D+01
 Coeff:      0.100D+01
 Gap=     0.860 Goal=   None    Shift=    0.000
 GapD=    0.860 DampG=2.000 DampE=0.500 DampFc=1.0000 IDamp=-1.
 RMSDP=3.24D-02 MaxDP=1.24D-01              OVMax= 0.00D+00

 Cycle   2  Pass 1  IDiag  1:
 E= -98.5648246596069     Delta-E=       -0.027738988515 Rises=F Damp=F
 DIIS: error= 3.58D-03 at cycle   2 NSaved=   2.
 NSaved= 2 IEnMin= 2 EnMin= -98.5648246596069     IErMin= 2 ErrMin= 3.58D-03
 ErrMax= 3.58D-03 EMaxC= 1.00D-01 BMatC= 7.97D-05 BMatP= 1.47D-02
 IDIUse=3 WtCom= 9.64D-01 WtEn= 3.58D-02
 Coeff-Com: -0.620D-01 0.106D+01
 Coeff-En:   0.000D+00 0.100D+01
 Coeff:     -0.598D-01 0.106D+01
 Gap=     0.973 Goal=   None    Shift=    0.000
 RMSDP=2.60D-03 MaxDP=8.54D-03 DE=-2.77D-02 OVMax= 0.00D+00

 Cycle   3  Pass 1  IDiag  1:
 E= -98.5649650850608     Delta-E=       -0.000140425454 Rises=F Damp=F
 DIIS: error= 5.02D-04 at cycle   3 NSaved=   3.
 NSaved= 3 IEnMin= 3 EnMin= -98.5649650850608     IErMin= 3 ErrMin= 5.02D-04
 ErrMax= 5.02D-04 EMaxC= 1.00D-01 BMatC= 1.46D-06 BMatP= 7.97D-05
 IDIUse=3 WtCom= 9.95D-01 WtEn= 5.02D-03
 Coeff-Com:  0.180D-01-0.300D+00 0.128D+01
 Coeff-En:   0.000D+00 0.000D+00 0.100D+01
 Coeff:      0.179D-01-0.299D+00 0.128D+01
 Gap=     0.973 Goal=   None    Shift=    0.000
 RMSDP=2.96D-04 MaxDP=8.75D-04 DE=-1.40D-04 OVMax= 0.00D+00

 Cycle   4  Pass 1  IDiag  1:
 E= -98.5649670211762     Delta-E=       -0.000001936115 Rises=F Damp=F
 DIIS: error= 7.24D-06 at cycle   4 NSaved=   4.
 NSaved= 4 IEnMin= 4 EnMin= -98.5649670211762     IErMin= 4 ErrMin= 7.24D-06
 ErrMax= 7.24D-06 EMaxC= 1.00D-01 BMatC= 4.21D-10 BMatP= 1.46D-06
 IDIUse=1 WtCom= 1.00D+00 WtEn= 0.00D+00
 Coeff-Com: -0.101D-02 0.142D-01-0.642D-01 0.105D+01
 Coeff:     -0.101D-02 0.142D-01-0.642D-01 0.105D+01
 Gap=     0.973 Goal=   None    Shift=    0.000
 RMSDP=6.78D-06 MaxDP=2.40D-05 DE=-1.94D-06 OVMax= 0.00D+00

 Cycle   5  Pass 1  IDiag  1:
 E= -98.5649670220298     Delta-E=       -0.000000000854 Rises=F Damp=F
 DIIS: error= 4.13D-07 at cycle   5 NSaved=   5.
 NSaved= 5 IEnMin= 5 EnMin= -98.5649670220298     IErMin= 5 ErrMin= 4.13D-07
 ErrMax= 4.13D-07 EMaxC= 1.00D-01 BMatC= 1.21D-12 BMatP= 4.21D-10
 IDIUse=1 WtCom= 1.00D+00 WtEn= 0.00D+00
 Coeff-Com: -0.276D-06 0.726D-04-0.712D-03 0.271D-01 0.974D+00
 Coeff:     -0.276D-06 0.726D-04-0.712D-03 0.271D-01 0.974D+00
 Gap=     0.973 Goal=   None    Shift=    0.000
 RMSDP=2.66D-07 MaxDP=1.08D-06 DE=-8.54D-10 OVMax= 0.00D+00

 Cycle   6  Pass 1  IDiag  1:
 E= -98.5649670220319     Delta-E=       -0.000000000002 Rises=F Damp=F
 DIIS: error= 2.61D-10 at cycle   6 NSaved=   6.
 NSaved= 6 IEnMin= 6 EnMin= -98.5649670220319     IErMin= 6 ErrMin= 2.61D-10
 ErrMax= 2.61D-10 EMaxC= 1.00D-01 BMatC= 4.47D-19 BMatP= 1.21D-12
 IDIUse=1 WtCom= 1.00D+00 WtEn= 0.00D+00
 Coeff-Com:  0.120D-10-0.262D-08 0.175D-06-0.580D-04-0.569D-03 0.100D+01
 Coeff:      0.120D-10-0.262D-08 0.175D-06-0.580D-04-0.569D-03 0.100D+01
 Gap=     0.973 Goal=   None    Shift=    0.000
 RMSDP=2.20D-10 MaxDP=7.16D-10 DE=-2.07D-12 OVMax= 0.00D+00

 SCF Done:  E(RHF) =  -98.5649670220     A.U. after    6 cycles
             Convg  =    0.2197D-09             -V/T =  2.0096
             S**2   =   0.0000
 KE= 9.762874632576D+01 PE=-2.462713997161D+02 EE= 4.549826821951D+01
 Leave Link  502 at Sun Sep 16 22:01:19 2007, MaxMem=    6291456 cpu:       0.0
 (Enter /usr/local/g03/l601.exe)
 Copying SCF densities to generalized density rwf, ISCF=0 IROHF=0.

 **********************************************************************

            Population analysis using the SCF density.

 **********************************************************************

 Orbital symmetries:
       Occupied  (SG) (SG) (SG) (PI) (PI)
       Virtual   (SG)
 The electronic state is 1-SG.
 Alpha  occ. eigenvalues --  -25.91123  -1.44027  -0.54744  -0.46206  -0.46206
 Alpha virt. eigenvalues --    0.51088
     Molecular Orbital Coefficients
                           1         2         3         4         5
                        (SG)--O   (SG)--O   (SG)--O   (PI)--O   (PI)--O
     EIGENVALUES --   -25.91123  -1.44027  -0.54744  -0.46206  -0.46206
   1 1   F  1S          0.99483  -0.25358  -0.06923   0.00000   0.00000
   2        2S          0.02158   0.96639   0.36032   0.00000   0.00000
   3        2PX         0.00000   0.00000   0.00000   1.00000   0.00000
   4        2PY         0.00000   0.00000   0.00000   0.00000   1.00000
   5        2PZ        -0.00214  -0.05688   0.69142   0.00000   0.00000
   6 2   H  1S         -0.00450   0.13307  -0.55704   0.00000   0.00000
                           6
                        (SG)--V
     EIGENVALUES --     0.51088
   1 1   F  1S          0.07153
   2        2S         -0.43338
   3        2PX         0.00000
   4        2PY         0.00000
   5        2PZ         0.79998
   6 2   H  1S          0.98799
      DENSITY MATRIX.
                           1         2         3         4         5
   1 1   F  1S          2.11758
   2        2S         -0.49705   2.12842
   3        2PX         0.00000   0.00000   2.00000
   4        2PY         0.00000   0.00000   0.00000   2.00000
   5        2PZ        -0.07114   0.38823   0.00000   0.00000   0.96259
   6 2   H  1S          0.00068  -0.14441   0.00000   0.00000  -0.78541
                           6
   6 2   H  1S          0.65604
    Full Mulliken population analysis:
                           1         2         3         4         5
   1 1   F  1S          2.11758
   2        2S         -0.11829   2.12842
   3        2PX         0.00000   0.00000   2.00000
   4        2PY         0.00000   0.00000   0.00000   2.00000
   5        2PZ         0.00000   0.00000   0.00000   0.00000   0.96259
   6 2   H  1S          0.00003  -0.05354   0.00000   0.00000   0.23949
                           6
   6 2   H  1S          0.65604
     Gross orbital populations:
                           1
   1 1   F  1S          1.99931
   2        2S          1.95659
   3        2PX         2.00000
   4        2PY         2.00000
   5        2PZ         1.20208
   6 2   H  1S          0.84202
          Condensed to atoms (all electrons):
              1          2
     1  F    8.972005   0.185977
     2  H    0.185977   0.656041
 Mulliken atomic charges:
              1
     1  F   -0.157982
     2  H    0.157982
 Sum of Mulliken charges=   0.00000
 Atomic charges with hydrogens summed into heavy atoms:
              1
     1  F    0.000000
     2  H    0.000000
 Sum of Mulliken charges=   0.00000
 Electronic spatial extent (au):  =    12.9590
 Charge=     0.0000 electrons
 Dipole moment (field-independent basis, Debye):
    X=     0.0000    Y=     0.0000    Z=    -1.1770  Tot=     1.1770
 Quadrupole moment (field-independent basis, Debye-Ang):
   XX=    -4.6716   YY=    -4.6716   ZZ=    -3.4116
   XY=     0.0000   XZ=     0.0000   YZ=     0.0000
 Traceless Quadrupole moment (field-independent basis, Debye-Ang):
   XX=    -0.4200   YY=    -0.4200   ZZ=     0.8400
   XY=     0.0000   XZ=     0.0000   YZ=     0.0000
 Octapole moment (field-independent basis, Debye-Ang**2):
  XXX=     0.0000  YYY=     0.0000  ZZZ=    -0.2249  XYY=     0.0000
  XXY=     0.0000  XXZ=     0.2159  XZZ=     0.0000  YZZ=     0.0000
  YYZ=     0.2159  XYZ=     0.0000
 Hexadecapole moment (field-independent basis, Debye-Ang**3):
 XXXX=    -1.9730 YYYY=    -1.9730 ZZZZ=    -4.3595 XXXY=     0.0000
 XXXZ=     0.0000 YYYX=     0.0000 YYYZ=     0.0000 ZZZX=     0.0000
 ZZZY=     0.0000 XXYY=    -0.6577 XXZZ=    -1.2425 YYZZ=    -1.2425
 XXYZ=     0.0000 YYXZ=     0.0000 ZZXY=     0.0000
 N-N= 4.579418148750D+00 E-N=-2.462713997113D+02  KE= 9.762874632576D+01
 Symmetry A1   KE= 8.463668722680D+01
 Symmetry A2   KE= 0.000000000000D+00
 Symmetry B1   KE= 6.496029549482D+00
 Symmetry B2   KE= 6.496029549482D+00
 Orbital energies and kinetic energies (alpha):
                           1         2
       1  (SG)--O     -25.91123  36.59492
       2  (SG)--O      -1.44027   3.49762
       3  (SG)--O      -0.54744   2.22580
       4  (PI)--O      -0.46206   3.24801
       5  (PI)--O      -0.46206   3.24801
       6  (SG)--V       0.51088   2.85963
 Total kinetic energy from orbitals= 9.762874632576D+01
 No NMR shielding tensors so no spin-rotation constants.
 Leave Link  601 at Sun Sep 16 22:01:19 2007, MaxMem=    6291456 cpu:       0.1
 (Enter /usr/local/g03/l701.exe)
 Compute integral first derivatives.
 ... and contract with generalized density number  0.
 Leave Link  701 at Sun Sep 16 22:01:19 2007, MaxMem=    6291456 cpu:       0.1
 (Enter /usr/local/g03/l702.exe)
 L702 exits ... SP integral derivatives will be done elsewhere.
 Leave Link  702 at Sun Sep 16 22:01:19 2007, MaxMem=    6291456 cpu:       0.0
 (Enter /usr/local/g03/l703.exe)
 Compute integral first derivatives, UseDBF=F.
 Integral derivatives from FoFDir, PRISM(SPDF).
 Petite list used in FoFDir.
 MinBra= 0 MaxBra= 1 Meth= 1.
 IRaf=       0 NMat=   1 IRICut=       1 DoRegI=T DoRafI=F ISym2E= 1 JSym2E=1.
 Leave Link  703 at Sun Sep 16 22:01:19 2007, MaxMem=    6291456 cpu:       0.1
 (Enter /usr/local/g03/l716.exe)
 Dipole        = 0.00000000D+00 0.00000000D+00-4.63061921D-01
 ***** Axes restored to original set *****
 -------------------------------------------------------------------
 Center     Atomic                   Forces (Hartrees/Bohr)
 Number     Number              X              Y              Z
 -------------------------------------------------------------------
    1          9           0.000000000    0.000000000    0.090935608
    2          1           0.000000000    0.000000000   -0.090935608
 -------------------------------------------------------------------
 Cartesian Forces:  Max     0.090935608 RMS     0.052501698
 Leave Link  716 at Sun Sep 16 22:01:19 2007, MaxMem=    6291456 cpu:       0.0
 (Enter /usr/local/g03/l103.exe)

 GradGradGradGradGradGradGradGradGradGradGradGradGradGradGradGradGradGrad
 Berny optimization.
 Internal  Forces:  Max     0.090935608 RMS     0.090935608
 Search for a local minimum.
 Step number   1 out of a maximum of  20
 All quantities printed in internal units (Hartrees-Bohrs-Radians)
 Second derivative matrix not updated -- first step.
 The second derivative matrix:
                          R1
           R1           0.41294
     Eigenvalues ---    0.41294
 RFO step:  Lambda=-1.91382093D-02.
 Linear search not attempted -- first point.
 Iteration  1 RMS(Cart)=  0.14142136 RMS(Int)=  0.01045892
 Iteration  2 RMS(Cart)=  0.00739557 RMS(Int)=  0.00000000
 Iteration  3 RMS(Cart)=  0.00000000 RMS(Int)=  0.00000000
 Variable       Old X    -DE/DX   Delta X   Delta X   Delta X     New X
                                 (Linear)    (Quad)   (Total)
    R1        1.96532  -0.09094   0.00000  -0.21046  -0.21046   1.75486
         Item               Value     Threshold  Converged?
 Maximum Force            0.090936     0.000450     NO 
 RMS     Force            0.090936     0.000300     NO 
 Maximum Displacement     0.105229     0.001800     NO 
 RMS     Displacement     0.148817     0.001200     NO 
 Predicted change in Energy=-9.992949D-03
 GradGradGradGradGradGradGradGradGradGradGradGradGradGradGradGradGradGrad

 Leave Link  103 at Sun Sep 16 22:01:20 2007, MaxMem=    6291456 cpu:       0.0
 (Enter /usr/local/g03/l202.exe)
                          Input orientation:                          
 ---------------------------------------------------------------------
 Center     Atomic     Atomic              Coordinates (Angstroms)
 Number     Number      Type              X           Y           Z
 ---------------------------------------------------------------------
    1          9             0        0.000000    0.000000    0.055685
    2          1             0        0.000000    0.000000    0.984315
 ---------------------------------------------------------------------
 Stoichiometry    FH
 Framework group  C*V[C*(HF)]
 Deg. of freedom     1
 Full point group                 C*V     NOp   4
 Largest Abelian subgroup         C2V     NOp   4
 Largest concise Abelian subgroup C1      NOp   1
                         Standard orientation:                         
 ---------------------------------------------------------------------
 Center     Atomic     Atomic              Coordinates (Angstroms)
 Number     Number      Type              X           Y           Z
 ---------------------------------------------------------------------
    1          9             0        0.000000    0.000000    0.092863
    2          1             0        0.000000    0.000000   -0.835767
 ---------------------------------------------------------------------
 Rotational constants (GHZ):      0.0000000    612.3430736    612.3430736
 Leave Link  202 at Sun Sep 16 22:01:20 2007, MaxMem=    6291456 cpu:       0.0
 (Enter /usr/local/g03/l301.exe)
 Standard basis: STO-3G (5D, 7F)
 There are     4 symmetry adapted basis functions of A1  symmetry.
 There are     0 symmetry adapted basis functions of A2  symmetry.
 There are     1 symmetry adapted basis functions of B1  symmetry.
 There are     1 symmetry adapted basis functions of B2  symmetry.
 Integral buffers will be    262144 words long.
 Raffenetti 1 integral format.
 Two-electron integral symmetry is turned on.
     6 basis functions,    18 primitive gaussians,     6 cartesian basis functions
     5 alpha electrons        5 beta electrons
       nuclear repulsion energy         5.1286251667 Hartrees.
 IExCor=   0 DFT=F Ex=HF Corr=None ExCW=0 ScaHFX=  1.000000
 ScaDFX=  1.000000  1.000000  1.000000  1.000000
 IRadAn=      0 IRanWt=     -1 IRanGd=            0 ICorTp=0
 NAtoms=    2 NActive=    2 NUniq=    2 SFac= 1.00D+00 NAtFMM=   60 Big=F
 Leave Link  301 at Sun Sep 16 22:01:20 2007, MaxMem=    6291456 cpu:       0.0
 (Enter /usr/local/g03/l302.exe)
 NPDir=0 NMtPBC=     1 NCelOv=     1 NCel=       1 NClECP=     1 NCelD=      1
         NCelK=      1 NCelE2=     1 NClLst=     1 CellRange=     0.0.
 One-electron integrals computed using PRISM.
 NBasis=     6 RedAO= T  NBF=     4     0     1     1
 NBsUse=     6 1.00D-06 NBFU=     4     0     1     1
 Leave Link  302 at Sun Sep 16 22:01:20 2007, MaxMem=    6291456 cpu:       0.1
 (Enter /usr/local/g03/l303.exe)
 DipDrv:  MaxL=1.
 Leave Link  303 at Sun Sep 16 22:01:20 2007, MaxMem=    6291456 cpu:       0.0
 (Enter /usr/local/g03/l401.exe)
 Initial guess read from the read-write file:
 Guess basis will be translated and rotated to current coordinates.
 Initial guess orbital symmetries:
       Occupied  (SG) (SG) (SG) (PI) (PI)
       Virtual   (SG)
 The electronic state of the initial guess is 1-SG.
 Generating alternative initial guess.
 Harris functional with IExCor=  205 diagonalized for initial guess.
 ExpMin= 1.69D-01 ExpMax= 1.67D+02 ExpMxC= 1.67D+02 IAcc=1 IRadAn=         1 AccDes= 1.00D-06
 HarFok:  IExCor= 205 AccDes= 1.00D-06 IRadAn=         1 IDoV=1
 ScaDFX=  1.000000  1.000000  1.000000  1.000000
 Harris En= -98.5363722063900    
 Leave Link  401 at Sun Sep 16 22:01:20 2007, MaxMem=    6291456 cpu:       0.0
 (Enter /usr/local/g03/l502.exe)
 Closed shell SCF:
 Requested convergence on RMS density matrix=1.00D-08 within 128 cycles.
 Requested convergence on MAX density matrix=1.00D-06.
 Requested convergence on             energy=1.00D-06.
 No special actions if energy rises.
 Using DIIS extrapolation, IDIIS=  1040.
 Integral symmetry usage will be decided dynamically.
 Keep R1 integrals in memory in canonical form, NReq=      419149.
 IEnd=     18757 IEndB=     18757 NGot=   6291456 MDV=   6289557
 LenX=   6289557
 Symmetry not used in FoFDir.
 MinBra= 0 MaxBra= 1 Meth= 1.
 IRaf=       0 NMat=   1 IRICut=       1 DoRegI=T DoRafI=F ISym2E= 0 JSym2E=0.

 Cycle   1  Pass 1  IDiag  1:
 E= -98.5710853166629    
 DIIS: error= 1.21D-02 at cycle   1 NSaved=   1.
 NSaved= 1 IEnMin= 1 EnMin= -98.5710853166629     IErMin= 1 ErrMin= 1.21D-02
 ErrMax= 1.21D-02 EMaxC= 1.00D-01 BMatC= 1.03D-03 BMatP= 1.03D-03
 IDIUse=3 WtCom= 8.79D-01 WtEn= 1.21D-01
 Coeff-Com:  0.100D+01
 Coeff-En:   0.100D+01
 Coeff:      0.100D+01
 Recover alternate guess density for next cycle.
 RMSDP=4.00D-02 MaxDP=1.44D-01              OVMax= 0.00D+00

 Cycle   2  Pass 1  IDiag  1:
 E= -98.5481639978692     Delta-E=        0.022921318794 Rises=F Damp=F
 Switch densities from cycles 1 and 2 for lowest energy.
 DIIS: error= 4.24D-02 at cycle   2 NSaved=   2.
 NSaved= 2 IEnMin= 1 EnMin= -98.5710853166629     IErMin= 1 ErrMin= 1.21D-02
 ErrMax= 4.24D-02 EMaxC= 1.00D+00 BMatC= 1.42D-02 BMatP= 1.03D-03
 IDIUse=1 WtCom= 1.00D+00 WtEn= 0.00D+00
 Coeff-Com:  0.807D+00 0.193D+00
 Coeff:      0.807D+00 0.193D+00
 Gap=     1.075 Goal=   None    Shift=    0.000
 RMSDP=6.54D-03 MaxDP=2.20D-02 DE= 2.29D-02 OVMax= 0.00D+00

 Cycle   3  Pass 1  IDiag  1:
 E= -98.5718630032697     Delta-E=       -0.023699005401 Rises=F Damp=F
 DIIS: error= 3.65D-04 at cycle   3 NSaved=   3.
 NSaved= 3 IEnMin= 3 EnMin= -98.5718630032697     IErMin= 3 ErrMin= 3.65D-04
 ErrMax= 3.65D-04 EMaxC= 1.00D+00 BMatC= 1.26D-06 BMatP= 1.03D-03
 IDIUse=1 WtCom= 1.00D+00 WtEn= 0.00D+00
 Coeff-Com: -0.465D-01-0.156D-01 0.106D+01
 Coeff:     -0.465D-01-0.156D-01 0.106D+01
 Gap=     1.081 Goal=   None    Shift=    0.000
 RMSDP=1.99D-04 MaxDP=7.51D-04 DE=-2.37D-02 OVMax= 0.00D+00

 Cycle   4  Pass 1  IDiag  1:
 E= -98.5718643548355     Delta-E=       -0.000001351566 Rises=F Damp=F
 DIIS: error= 4.22D-05 at cycle   4 NSaved=   4.
 NSaved= 4 IEnMin= 4 EnMin= -98.5718643548355     IErMin= 4 ErrMin= 4.22D-05
 ErrMax= 4.22D-05 EMaxC= 1.00D+00 BMatC= 1.07D-08 BMatP= 1.26D-06
 IDIUse=1 WtCom= 1.00D+00 WtEn= 0.00D+00
 Coeff-Com:  0.101D-01 0.395D-02-0.269D+00 0.125D+01
 Coeff:      0.101D-01 0.395D-02-0.269D+00 0.125D+01
 Gap=     1.081 Goal=   None    Shift=    0.000
 RMSDP=3.39D-05 MaxDP=9.83D-05 DE=-1.35D-06 OVMax= 0.00D+00

 Cycle   5  Pass 1  IDiag  1:
 E= -98.5718643712988     Delta-E=       -0.000000016463 Rises=F Damp=F
 DIIS: error= 1.92D-06 at cycle   5 NSaved=   5.
 NSaved= 5 IEnMin= 5 EnMin= -98.5718643712988     IErMin= 5 ErrMin= 1.92D-06
 ErrMax= 1.92D-06 EMaxC= 1.00D+00 BMatC= 3.11D-11 BMatP= 1.07D-08
 IDIUse=1 WtCom= 1.00D+00 WtEn= 0.00D+00
 Coeff-Com:  0.407D-04-0.400D-05-0.453D-02 0.161D-01 0.988D+00
 Coeff:      0.407D-04-0.400D-05-0.453D-02 0.161D-01 0.988D+00
 Gap=     1.081 Goal=   None    Shift=    0.000
 RMSDP=1.42D-06 MaxDP=5.44D-06 DE=-1.65D-08 OVMax= 0.00D+00

 Cycle   6  Pass 1  IDiag  1:
 E= -98.5718643713485     Delta-E=       -0.000000000050 Rises=F Damp=F
 DIIS: error= 1.12D-09 at cycle   6 NSaved=   6.
 NSaved= 6 IEnMin= 6 EnMin= -98.5718643713485     IErMin= 6 ErrMin= 1.12D-09
 ErrMax= 1.12D-09 EMaxC= 1.00D+00 BMatC= 9.17D-18 BMatP= 3.11D-11
 IDIUse=1 WtCom= 1.00D+00 WtEn= 0.00D+00
 Coeff-Com: -0.150D-08 0.909D-10-0.150D-05 0.640D-05 0.800D-03 0.999D+00
 Coeff:     -0.150D-08 0.909D-10-0.150D-05 0.640D-05 0.800D-03 0.999D+00
 Gap=     1.081 Goal=   None    Shift=    0.000
 RMSDP=7.86D-10 MaxDP=3.00D-09 DE=-4.97D-11 OVMax= 0.00D+00

 SCF Done:  E(RHF) =  -98.5718643713     A.U. after    6 cycles
             Convg  =    0.7856D-09             -V/T =  2.0083
             S**2   =   0.0000
 KE= 9.776426410143D+01 PE=-2.474092593664D+02 EE= 4.594450572687D+01
 Leave Link  502 at Sun Sep 16 22:01:20 2007, MaxMem=    6291456 cpu:       0.0
 (Enter /usr/local/g03/l701.exe)
 Compute integral first derivatives.
 ... and contract with generalized density number  0.
 Leave Link  701 at Sun Sep 16 22:01:21 2007, MaxMem=    6291456 cpu:       0.1
 (Enter /usr/local/g03/l702.exe)
 L702 exits ... SP integral derivatives will be done elsewhere.
 Leave Link  702 at Sun Sep 16 22:01:21 2007, MaxMem=    6291456 cpu:       0.0
 (Enter /usr/local/g03/l703.exe)
 Compute integral first derivatives, UseDBF=F.
 Integral derivatives from FoFDir, PRISM(SPDF).
 Petite list used in FoFDir.
 MinBra= 0 MaxBra= 1 Meth= 1.
 IRaf=       0 NMat=   1 IRICut=       1 DoRegI=T DoRafI=F ISym2E= 1 JSym2E=1.
 Leave Link  703 at Sun Sep 16 22:01:21 2007, MaxMem=    6291456 cpu:       0.1
 (Enter /usr/local/g03/l716.exe)
 Dipole        = 0.00000000D+00 0.00000000D+00-5.02530001D-01
 ***** Axes restored to original set *****
 -------------------------------------------------------------------
 Center     Atomic                   Forces (Hartrees/Bohr)
 Number     Number              X              Y              Z
 -------------------------------------------------------------------
    1          9           0.000000000    0.000000000   -0.039809147
    2          1           0.000000000    0.000000000    0.039809147
 -------------------------------------------------------------------
 Cartesian Forces:  Max     0.039809147 RMS     0.022983822
 Leave Link  716 at Sun Sep 16 22:01:21 2007, MaxMem=    6291456 cpu:       0.0
 (Enter /usr/local/g03/l103.exe)

 GradGradGradGradGradGradGradGradGradGradGradGradGradGradGradGradGradGrad
 Berny optimization.
 Internal  Forces:  Max     0.039809147 RMS     0.039809147
 Search for a local minimum.
 Step number   2 out of a maximum of  20
 All quantities printed in internal units (Hartrees-Bohrs-Radians)
 Update second derivatives using D2CorX and points  1  2
 Trust test= 6.90D-01 RLast= 2.10D-01 DXMaxT set to 3.00D-01
 The second derivative matrix:
                          R1
           R1           0.62124
     Eigenvalues ---    0.62124
 RFO step:  Lambda= 0.00000000D+00.
 Quartic linear search produced a step of -0.24204.
 Iteration  1 RMS(Cart)=  0.03601950 RMS(Int)=  0.00000000
 Iteration  2 RMS(Cart)=  0.00000000 RMS(Int)=  0.00000000
 Variable       Old X    -DE/DX   Delta X   Delta X   Delta X     New X
                                 (Linear)    (Quad)   (Total)
    R1        1.75486   0.03981   0.05094   0.00000   0.05094   1.80580
         Item               Value     Threshold  Converged?
 Maximum Force            0.039809     0.000450     NO 
 RMS     Force            0.039809     0.000300     NO 
 Maximum Displacement     0.025470     0.001800     NO 
 RMS     Displacement     0.036019     0.001200     NO 
 Predicted change in Energy=-1.221854D-03
 GradGradGradGradGradGradGradGradGradGradGradGradGradGradGradGradGradGrad

 Leave Link  103 at Sun Sep 16 22:01:21 2007, MaxMem=    6291456 cpu:       0.0
 (Enter /usr/local/g03/l202.exe)
                          Input orientation:                          
 ---------------------------------------------------------------------
 Center     Atomic     Atomic              Coordinates (Angstroms)
 Number     Number      Type              X           Y           Z
 ---------------------------------------------------------------------
    1          9             0        0.000000    0.000000    0.042207
    2          1             0        0.000000    0.000000    0.997793
 ---------------------------------------------------------------------
 Stoichiometry    FH
 Framework group  C*V[C*(HF)]
 Deg. of freedom     1
 Full point group                 C*V     NOp   4
 Largest Abelian subgroup         C2V     NOp   4
 Largest concise Abelian subgroup C1      NOp   1
                         Standard orientation:                         
 ---------------------------------------------------------------------
 Center     Atomic     Atomic              Coordinates (Angstroms)
 Number     Number      Type              X           Y           Z
 ---------------------------------------------------------------------
    1          9             0        0.000000    0.000000    0.095559
    2          1             0        0.000000    0.000000   -0.860027
 ---------------------------------------------------------------------
 Rotational constants (GHZ):      0.0000000    578.2834542    578.2834542
 Leave Link  202 at Sun Sep 16 22:01:21 2007, MaxMem=    6291456 cpu:       0.0
 (Enter /usr/local/g03/l301.exe)
 Standard basis: STO-3G (5D, 7F)
 There are     4 symmetry adapted basis functions of A1  symmetry.
 There are     0 symmetry adapted basis functions of A2  symmetry.
 There are     1 symmetry adapted basis functions of B1  symmetry.
 There are     1 symmetry adapted basis functions of B2  symmetry.
 Integral buffers will be    262144 words long.
 Raffenetti 1 integral format.
 Two-electron integral symmetry is turned on.
     6 basis functions,    18 primitive gaussians,     6 cartesian basis functions
     5 alpha electrons        5 beta electrons
       nuclear repulsion energy         4.9839529927 Hartrees.
 IExCor=   0 DFT=F Ex=HF Corr=None ExCW=0 ScaHFX=  1.000000
 ScaDFX=  1.000000  1.000000  1.000000  1.000000
 IRadAn=      0 IRanWt=     -1 IRanGd=            0 ICorTp=0
 NAtoms=    2 NActive=    2 NUniq=    2 SFac= 1.00D+00 NAtFMM=   60 Big=F
 Leave Link  301 at Sun Sep 16 22:01:21 2007, MaxMem=    6291456 cpu:       0.0
 (Enter /usr/local/g03/l302.exe)
 NPDir=0 NMtPBC=     1 NCelOv=     1 NCel=       1 NClECP=     1 NCelD=      1
         NCelK=      1 NCelE2=     1 NClLst=     1 CellRange=     0.0.
 One-electron integrals computed using PRISM.
 NBasis=     6 RedAO= T  NBF=     4     0     1     1
 NBsUse=     6 1.00D-06 NBFU=     4     0     1     1
 Leave Link  302 at Sun Sep 16 22:01:21 2007, MaxMem=    6291456 cpu:       0.1
 (Enter /usr/local/g03/l303.exe)
 DipDrv:  MaxL=1.
 Leave Link  303 at Sun Sep 16 22:01:22 2007, MaxMem=    6291456 cpu:       0.0
 (Enter /usr/local/g03/l401.exe)
 Initial guess read from the read-write file:
 Guess basis will be translated and rotated to current coordinates.
 Initial guess orbital symmetries:
       Occupied  (SG) (SG) (SG) (PI) (PI)
       Virtual   (SG)
 The electronic state of the initial guess is 1-SG.
 Generating alternative initial guess.
 Harris functional with IExCor=  205 diagonalized for initial guess.
 ExpMin= 1.69D-01 ExpMax= 1.67D+02 ExpMxC= 1.67D+02 IAcc=1 IRadAn=         1 AccDes= 1.00D-06
 HarFok:  IExCor= 205 AccDes= 1.00D-06 IRadAn=         1 IDoV=1
 ScaDFX=  1.000000  1.000000  1.000000  1.000000
 Harris En= -98.5382589247534    
 Leave Link  401 at Sun Sep 16 22:01:22 2007, MaxMem=    6291456 cpu:       0.0
 (Enter /usr/local/g03/l502.exe)
 Closed shell SCF:
 Requested convergence on RMS density matrix=1.00D-08 within 128 cycles.
 Requested convergence on MAX density matrix=1.00D-06.
 Requested convergence on             energy=1.00D-06.
 No special actions if energy rises.
 Using DIIS extrapolation, IDIIS=  1040.
 Integral symmetry usage will be decided dynamically.
 Keep R1 integrals in memory in canonical form, NReq=      419149.
 IEnd=     18757 IEndB=     18757 NGot=   6291456 MDV=   6289557
 LenX=   6289557
 Symmetry not used in FoFDir.
 MinBra= 0 MaxBra= 1 Meth= 1.
 IRaf=       0 NMat=   1 IRICut=       1 DoRegI=T DoRafI=F ISym2E= 0 JSym2E=0.

 Cycle   1  Pass 1  IDiag  1:
 E= -98.5727864201170    
 DIIS: error= 3.22D-03 at cycle   1 NSaved=   1.
 NSaved= 1 IEnMin= 1 EnMin= -98.5727864201170     IErMin= 1 ErrMin= 3.22D-03
 ErrMax= 3.22D-03 EMaxC= 1.00D-01 BMatC= 7.83D-05 BMatP= 7.83D-05
 IDIUse=3 WtCom= 9.68D-01 WtEn= 3.22D-02
 Coeff-Com:  0.100D+01
 Coeff-En:   0.100D+01
 Coeff:      0.100D+01
 Gap=     1.049 Goal=   None    Shift=    0.000
 GapD=    1.049 DampG=2.000 DampE=1.000 DampFc=2.0000 IDamp=-1.
 RMSDP=1.52D-03 MaxDP=5.36D-03              OVMax= 0.00D+00

 Cycle   2  Pass 1  IDiag  1:
 E= -98.5728465373408     Delta-E=       -0.000060117224 Rises=F Damp=F
 DIIS: error= 3.49D-04 at cycle   2 NSaved=   2.
 NSaved= 2 IEnMin= 2 EnMin= -98.5728465373408     IErMin= 2 ErrMin= 3.49D-04
 ErrMax= 3.49D-04 EMaxC= 1.00D-01 BMatC= 5.83D-07 BMatP= 7.83D-05
 IDIUse=3 WtCom= 9.97D-01 WtEn= 3.49D-03
 Coeff-Com: -0.706D-01 0.107D+01
 Coeff-En:   0.000D+00 0.100D+01
 Coeff:     -0.704D-01 0.107D+01
 Gap=     1.053 Goal=   None    Shift=    0.000
 RMSDP=2.07D-04 MaxDP=5.90D-04 DE=-6.01D-05 OVMax= 0.00D+00

 Cycle   3  Pass 1  IDiag  1:
 E= -98.5728473823845     Delta-E=       -0.000000845044 Rises=F Damp=F
 DIIS: error= 4.55D-05 at cycle   3 NSaved=   3.
 NSaved= 3 IEnMin= 3 EnMin= -98.5728473823845     IErMin= 3 ErrMin= 4.55D-05
 ErrMax= 4.55D-05 EMaxC= 1.00D-01 BMatC= 1.22D-08 BMatP= 5.83D-07
 IDIUse=1 WtCom= 1.00D+00 WtEn= 0.00D+00
 Coeff-Com:  0.139D-01-0.269D+00 0.126D+01
 Coeff:      0.139D-01-0.269D+00 0.126D+01
 Gap=     1.053 Goal=   None    Shift=    0.000
 RMSDP=3.16D-05 MaxDP=9.36D-05 DE=-8.45D-07 OVMax= 0.00D+00

 Cycle   4  Pass 1  IDiag  1:
 E= -98.5728473996096     Delta-E=       -0.000000017225 Rises=F Damp=F
 DIIS: error= 1.11D-06 at cycle   4 NSaved=   4.
 NSaved= 4 IEnMin= 4 EnMin= -98.5728473996096     IErMin= 4 ErrMin= 1.11D-06
 ErrMax= 1.11D-06 EMaxC= 1.00D-01 BMatC= 8.32D-12 BMatP= 1.22D-08
 IDIUse=1 WtCom= 1.00D+00 WtEn= 0.00D+00
 Coeff-Com: -0.730D-03 0.165D-01-0.880D-01 0.107D+01
 Coeff:     -0.730D-03 0.165D-01-0.880D-01 0.107D+01
 Gap=     1.053 Goal=   None    Shift=    0.000
 RMSDP=5.36D-07 MaxDP=1.87D-06 DE=-1.72D-08 OVMax= 0.00D+00

 Cycle   5  Pass 1  IDiag  1:
 E= -98.5728473996200     Delta-E=       -0.000000000010 Rises=F Damp=F
 DIIS: error= 4.64D-10 at cycle   5 NSaved=   5.
 NSaved= 5 IEnMin= 5 EnMin= -98.5728473996200     IErMin= 5 ErrMin= 4.64D-10
 ErrMax= 4.64D-10 EMaxC= 1.00D-01 BMatC= 1.81D-18 BMatP= 8.32D-12
 IDIUse=1 WtCom= 1.00D+00 WtEn= 0.00D+00
 Coeff-Com:  0.248D-08-0.602D-06 0.123D-04-0.645D-03 0.100D+01
 Coeff:      0.248D-08-0.602D-06 0.123D-04-0.645D-03 0.100D+01
 Gap=     1.053 Goal=   None    Shift=    0.000
 RMSDP=3.50D-10 MaxDP=1.33D-09 DE=-1.04D-11 OVMax= 0.00D+00

 SCF Done:  E(RHF) =  -98.5728473996     A.U. after    5 cycles
             Convg  =    0.3498D-09             -V/T =  2.0087
             S**2   =   0.0000
 KE= 9.772557004805D+01 PE=-2.471127936601D+02 EE= 4.583042321969D+01
 Leave Link  502 at Sun Sep 16 22:01:22 2007, MaxMem=    6291456 cpu:       0.0
 (Enter /usr/local/g03/l701.exe)
 Compute integral first derivatives.
 ... and contract with generalized density number  0.
 Leave Link  701 at Sun Sep 16 22:01:22 2007, MaxMem=    6291456 cpu:       0.1
 (Enter /usr/local/g03/l702.exe)
 L702 exits ... SP integral derivatives will be done elsewhere.
 Leave Link  702 at Sun Sep 16 22:01:22 2007, MaxMem=    6291456 cpu:       0.0
 (Enter /usr/local/g03/l703.exe)
 Compute integral first derivatives, UseDBF=F.
 Integral derivatives from FoFDir, PRISM(SPDF).
 Petite list used in FoFDir.
 MinBra= 0 MaxBra= 1 Meth= 1.
 IRaf=       0 NMat=   1 IRICut=       1 DoRegI=T DoRafI=F ISym2E= 1 JSym2E=1.
 Leave Link  703 at Sun Sep 16 22:01:22 2007, MaxMem=    6291456 cpu:       0.1
 (Enter /usr/local/g03/l716.exe)
 Dipole        = 0.00000000D+00 0.00000000D+00-4.92526407D-01
 ***** Axes restored to original set *****
 -------------------------------------------------------------------
 Center     Atomic                   Forces (Hartrees/Bohr)
 Number     Number              X              Y              Z
 -------------------------------------------------------------------
    1          9           0.000000000    0.000000000    0.000168711
    2          1           0.000000000    0.000000000   -0.000168711
 -------------------------------------------------------------------
 Cartesian Forces:  Max     0.000168711 RMS     0.000097405
 Leave Link  716 at Sun Sep 16 22:01:22 2007, MaxMem=    6291456 cpu:       0.0
 (Enter /usr/local/g03/l103.exe)

 GradGradGradGradGradGradGradGradGradGradGradGradGradGradGradGradGradGrad
 Berny optimization.
 Internal  Forces:  Max     0.000168711 RMS     0.000168711
 Search for a local minimum.
 Step number   3 out of a maximum of  20
 All quantities printed in internal units (Hartrees-Bohrs-Radians)
 Update second derivatives using D2CorX and points  2  3
 Trust test= 8.05D-01 RLast= 5.09D-02 DXMaxT set to 3.00D-01
 The second derivative matrix:
                          R1
           R1           0.78481
     Eigenvalues ---    0.78481
 RFO step:  Lambda= 0.00000000D+00.
 Quartic linear search produced a step of -0.00457.
 Iteration  1 RMS(Cart)=  0.00016469 RMS(Int)=  0.00000000
 Iteration  2 RMS(Cart)=  0.00000000 RMS(Int)=  0.00000000
 Variable       Old X    -DE/DX   Delta X   Delta X   Delta X     New X
                                 (Linear)    (Quad)   (Total)
    R1        1.80580  -0.00017  -0.00023   0.00000  -0.00023   1.80556
         Item               Value     Threshold  Converged?
 Maximum Force            0.000169     0.000450     YES
 RMS     Force            0.000169     0.000300     YES
 Maximum Displacement     0.000116     0.001800     YES
 RMS     Displacement     0.000165     0.001200     YES
 Predicted change in Energy=-1.800762D-08
 Optimization completed.
    -- Stationary point found.
                           ----------------------------
                           !   Optimized Parameters   !
                           ! (Angstroms and Degrees)  !
 --------------------------                            --------------------------
 ! Name  Definition              Value          Derivative Info.                !
 --------------------------------------------------------------------------------
 ! R1    R(1,2)                  0.9556         -DE/DX =   -0.0002              !
 --------------------------------------------------------------------------------
 GradGradGradGradGradGradGradGradGradGradGradGradGradGradGradGradGradGrad

 Largest change from initial coordinates is atom    2       0.076 Angstoms.
 Leave Link  103 at Sun Sep 16 22:01:22 2007, MaxMem=    6291456 cpu:       0.0
 (Enter /usr/local/g03/l202.exe)
                          Input orientation:                          
 ---------------------------------------------------------------------
 Center     Atomic     Atomic              Coordinates (Angstroms)
 Number     Number      Type              X           Y           Z
 ---------------------------------------------------------------------
    1          9             0        0.000000    0.000000    0.042207
    2          1             0        0.000000    0.000000    0.997793
 ---------------------------------------------------------------------
 Stoichiometry    FH
 Framework group  C*V[C*(HF)]
 Deg. of freedom     1
 Full point group                 C*V     NOp   4
 Largest Abelian subgroup         C2V     NOp   4
 Largest concise Abelian subgroup C1      NOp   1
                         Standard orientation:                         
 ---------------------------------------------------------------------
 Center     Atomic     Atomic              Coordinates (Angstroms)
 Number     Number      Type              X           Y           Z
 ---------------------------------------------------------------------
    1          9             0        0.000000    0.000000    0.095559
    2          1             0        0.000000    0.000000   -0.860027
 ---------------------------------------------------------------------
 Rotational constants (GHZ):      0.0000000    578.2834542    578.2834542
 Leave Link  202 at Sun Sep 16 22:01:23 2007, MaxMem=    6291456 cpu:       0.0
 (Enter /usr/local/g03/l601.exe)
 Copying SCF densities to generalized density rwf, ISCF=0 IROHF=0.

 **********************************************************************

            Population analysis using the SCF density.

 **********************************************************************

 Orbital symmetries:
       Occupied  (SG) (SG) (SG) (PI) (PI)
       Virtual   (SG)
 The electronic state is 1-SG.
 Alpha  occ. eigenvalues --  -25.90352  -1.45982  -0.57361  -0.46312  -0.46312
 Alpha virt. eigenvalues --    0.58970
     Molecular Orbital Coefficients
                           1         2         3         4         5
                        (SG)--O   (SG)--O   (SG)--O   (PI)--O   (PI)--O
     EIGENVALUES --   -25.90352  -1.45982  -0.57361  -0.46312  -0.46312
   1 1   F  1S          0.99475  -0.25068  -0.07825   0.00000   0.00000
   2        2S          0.02226   0.94674   0.41082   0.00000   0.00000
   3        2PX         0.00000   0.00000   0.00000   1.00000   0.00000
   4        2PY         0.00000   0.00000   0.00000   0.00000   1.00000
   5        2PZ        -0.00267  -0.07822   0.69805   0.00000   0.00000
   6 2   H  1S         -0.00534   0.15040  -0.53375   0.00000   0.00000
                           6
                        (SG)--V
     EIGENVALUES --     0.58970
   1 1   F  1S          0.08056
   2        2S         -0.51571
   3        2PX         0.00000
   4        2PY         0.00000
   5        2PZ         0.81641
   6 2   H  1S          1.05423
      DENSITY MATRIX.
                           1         2         3         4         5
   1 1   F  1S          2.11697
   2        2S         -0.49468   2.13117
   3        2PX         0.00000   0.00000   2.00000
   4        2PY         0.00000   0.00000   0.00000   2.00000
   5        2PZ        -0.07535   0.42533   0.00000   0.00000   0.98679
   6 2   H  1S         -0.00249  -0.15400   0.00000   0.00000  -0.76866
                           6
   6 2   H  1S          0.61507
    Full Mulliken population analysis:
                           1         2         3         4         5
   1 1   F  1S          2.11697
   2        2S         -0.11773   2.13117
   3        2PX         0.00000   0.00000   2.00000
   4        2PY         0.00000   0.00000   0.00000   2.00000
   5        2PZ         0.00000   0.00000   0.00000   0.00000   0.98679
   6 2   H  1S         -0.00011  -0.06520   0.00000   0.00000   0.25805
                           6
   6 2   H  1S          0.61507
     Gross orbital populations:
                           1
   1 1   F  1S          1.99913
   2        2S          1.94823
   3        2PX         2.00000
   4        2PY         2.00000
   5        2PZ         1.24484
   6 2   H  1S          0.80780
          Condensed to atoms (all electrons):
              1          2
     1  F    8.999472   0.192731
     2  H    0.192731   0.615066
 Mulliken atomic charges:
              1
     1  F   -0.192203
     2  H    0.192203
 Sum of Mulliken charges=   0.00000
 Atomic charges with hydrogens summed into heavy atoms:
              1
     1  F    0.000000
     2  H    0.000000
 Sum of Mulliken charges=   0.00000
 Electronic spatial extent (au):  =    12.4173
 Charge=     0.0000 electrons
 Dipole moment (field-independent basis, Debye):
    X=     0.0000    Y=     0.0000    Z=    -1.2519  Tot=     1.2519
 Quadrupole moment (field-independent basis, Debye-Ang):
   XX=    -4.6405   YY=    -4.6405   ZZ=    -3.4732
   XY=     0.0000   XZ=     0.0000   YZ=     0.0000
 Traceless Quadrupole moment (field-independent basis, Debye-Ang):
   XX=    -0.3891   YY=    -0.3891   ZZ=     0.7782
   XY=     0.0000   XZ=     0.0000   YZ=     0.0000
 Octapole moment (field-independent basis, Debye-Ang**2):
  XXX=     0.0000  YYY=     0.0000  ZZZ=    -0.2229  XYY=     0.0000
  XXY=     0.0000  XXZ=     0.1712  XZZ=     0.0000  YZZ=     0.0000
  YYZ=     0.1712  XYZ=     0.0000
 Hexadecapole moment (field-independent basis, Debye-Ang**3):
 XXXX=    -1.9413 YYYY=    -1.9413 ZZZZ=    -3.8936 XXXY=     0.0000
 XXXZ=     0.0000 YYYX=     0.0000 YYYZ=     0.0000 ZZZX=     0.0000
 ZZZY=     0.0000 XXYY=    -0.6471 XXZZ=    -1.1200 YYZZ=    -1.1200
 XXYZ=     0.0000 YYXZ=     0.0000 ZZXY=     0.0000
 N-N= 4.983952992695D+00 E-N=-2.471127936697D+02  KE= 9.772557004805D+01
 Symmetry A1   KE= 8.473351094908D+01
 Symmetry A2   KE= 0.000000000000D+00
 Symmetry B1   KE= 6.496029549482D+00
 Symmetry B2   KE= 6.496029549482D+00
 Orbital energies and kinetic energies (alpha):
                           1         2
       1  (SG)--O     -25.90352  36.58808
       2  (SG)--O      -1.45982   3.42961
       3  (SG)--O      -0.57361   2.34907
       4  (PI)--O      -0.46312   3.24801
       5  (PI)--O      -0.46312   3.24801
       6  (SG)--V       0.58970   3.00300
 Total kinetic energy from orbitals= 9.772557004805D+01
 No NMR shielding tensors so no spin-rotation constants.
 Leave Link  601 at Sun Sep 16 22:01:23 2007, MaxMem=    6291456 cpu:       0.1
 (Enter /usr/local/g03/l9999.exe)
 Final structure in terms of initial Z-matrix:
 F
 H,1,B1
      Variables:
 B1=0.95558583
 1\1\GINC-BUCHNER\FOpt\RHF\STO-3G\F1H1\WEBMODEMO\16-Sep-2007\0\\#P HF/S
 TO-3G OPT POP=FULL\\HF\\0,1\F,0.,0.,-0.0955585834\H,0.,0.,0.8600272502
 \\Version=x86-Linux-G03RevB.05\State=1-SG\HF=-98.5728474\RMSD=3.498e-1
 0\RMSF=9.741e-05\Dipole=0.,0.,0.4925264\PG=C*V [C*(H1F1)]\\@


 Fatherhood is pretending the present you love most is soap-on-a-rope.
 -- Bill Cosby
 Job cpu time:  0 days  0 hours  0 minutes  5.3 seconds.
 File lengths (MBytes):  RWF=     12 Int=      0 D2E=      0 Chk=      7 Scr=      1
 Normal termination of Gaussian 03 at Sun Sep 16 22:01:23 2007.

