----- GAMESS execution script 'rungms' -----
This job is running on host d12chas542.crc.nd.edu
under operating system Linux at Fri Oct 11 10:34:49 EDT 2019
SGE has assigned the following compute nodes to this run:
Available scratch disk space (Kbyte units) at beginning of the job is
Filesystem      1K-blocks     Used  Available Use% Mounted on
/dev/sda2      1949705068 70033536 1879671532   4% /
GAMESS temporary binary files will be written to /tmp/482161.1.debug
GAMESS supplementary output files will be written to /afs/crc.nd.edu/user/w/wschnei1/scr
Copying input file ircf.inp to your run's scratch directory...
reading your own /afs/crc.nd.edu/user/w/wschnei1/.gmsrc

 Distributed Data Interface kickoff program.
 Initiating 1 compute processes on 1 nodes to run the following command:
 /afs/crc.nd.edu/x86_64_linux/g/gamess/nov-2017/gamess/gamess.00.x ircf 

          ******************************************************
          *         GAMESS VERSION = 11 NOV 2017 (R3)         *
          *             FROM IOWA STATE UNIVERSITY             *
          * M.W.SCHMIDT, K.K.BALDRIDGE, J.A.BOATZ, S.T.ELBERT, *
          *   M.S.GORDON, J.H.JENSEN, S.KOSEKI, N.MATSUNAGA,   *
          *          K.A.NGUYEN, S.J.SU, T.L.WINDUS,           *
          *       TOGETHER WITH M.DUPUIS, J.A.MONTGOMERY       *
          *         J.COMPUT.CHEM.  14, 1347-1363(1993)        *
          **************** 64 BIT INTEL VERSION ****************

  SINCE 1993, STUDENTS AND POSTDOCS WORKING AT IOWA STATE UNIVERSITY
  AND ALSO IN THEIR VARIOUS JOBS AFTER LEAVING ISU HAVE MADE IMPORTANT
  CONTRIBUTIONS TO THE CODE:
     IVANA ADAMOVIC, CHRISTINE AIKENS, YURI ALEXEEV, POOJA ARORA,
     ANDREY ASADCHEV, ROB BELL, PRADIPTA BANDYOPADHYAY, JONATHAN BENTZ,
     BRETT BODE, KURT BRORSEN, CALEB CARLIN, GALINA CHABAN, WEI CHEN,
     CHEOL HO CHOI, PAUL DAY, ALBERT DEFUSCO, NUWAN DESILVA, TIM DUDLEY,
     DMITRI FEDOROV, ALEX FINDLATER, GRAHAM FLETCHER, MARK FREITAG,
     KURT GLAESEMANN, ANASTASIA GUININA,
     DAN KEMP, GRANT MERRILL, NORIYUKI MINEZAWA, JONATHAN MULLIN,
     TAKESHI NAGATA, SEAN NEDD, HEATHER NETZLOFF, BOSILJKA NJEGIC, RYAN OLSON,
     MIKE PAK, BUU PHAM,
     SPENCER PRUITT, LUKE ROSKOP, JIM SHOEMAKER, LYUDMILA SLIPCHENKO,
     TONY SMITH, SAROM SOK LEANG, JIE SONG, TETSUYA TAKETSUGU, SIMON WEBB,
     PENG XU, SOOHAENG YOO, FEDERICO ZAHARIEV

  ADDITIONAL CODE HAS BEEN PROVIDED BY COLLABORATORS IN OTHER GROUPS:
     IOWA STATE UNIVERSITY:
          JOE IVANIC, AARON WEST, LAIMUTIS BYTAUTAS, KLAUS RUEDENBERG
     UNIVERSITY OF TOKYO: KIMIHIKO HIRAO, TAKAHITO NAKAJIMA,
          TAKAO TSUNEDA, MUNEAKI KAMIYA, SUSUMU YANAGISAWA,
          KIYOSHI YAGI, MAHITO CHIBA, SEIKEN TOKURA, NAOAKI KAWAKAMI
     UNIVERSITY OF AARHUS: FRANK JENSEN
     UNIVERSITY OF IOWA: VISVALDAS KAIRYS, HUI LI
     NATIONAL INST. OF STANDARDS AND TECHNOLOGY: WALT STEVENS, DAVID GARMER
     UNIVERSITY OF PISA: BENEDETTA MENNUCCI, JACOPO TOMASI
     UNIVERSITY OF MEMPHIS: HENRY KURTZ, PRAKASHAN KORAMBATH
     UNIVERSITY OF ALBERTA: TOBY ZENG, MARIUSZ KLOBUKOWSKI
     UNIVERSITY OF NEW ENGLAND: MARK SPACKMAN
     MIE UNIVERSITY: HIROAKI UMEDA
     NAT. INST. OF ADVANCED INDUSTRIAL SCIENCE AND TECHNOLOGY: KAZUO KITAURA
     MICHIGAN STATE UNIVERSITY:
          KAROL KOWALSKI, MARTA WLOCH, JEFFREY GOUR, JESSE LUTZ,
          WEI LI, PIOTR PIECUCH
     UNIVERSITY OF SILESIA: MONIKA MUSIAL, STANISLAW KUCHARSKI
     FACULTES UNIVERSITAIRES NOTRE-DAME DE LA PAIX:
          OLIVIER QUINET, BENOIT CHAMPAGNE
     UNIVERSITY OF CALIFORNIA - SANTA BARBARA: BERNARD KIRTMAN
     INSTITUTE FOR MOLECULAR SCIENCE:
          KAZUYA ISHIMURA, MICHIO KATOUDA, AND SHIGERU NAGASE
     UNIVERSITY OF NOTRE DAME: ANNA POMOGAEVA, DAN CHIPMAN
     KYUSHU UNIVERSITY:
          HARUYUKI NAKANO,
          FENG LONG GU, JACEK KORCHOWIEC, MARCIN MAKOWSKI, AND YURIKO AOKI,
          HIROTOSHI MORI AND EISAKU MIYOSHI
     PENNSYLVANIA STATE UNIVERSITY:
          TZVETELIN IORDANOV, CHET SWALINA, JONATHAN SKONE,
          SHARON HAMMES-SCHIFFER
     WASEDA UNIVERSITY:
          MASATO KOBAYASHI, TOMOKO AKAMA, TSUGUKI TOUMA,
          TAKESHI YOSHIKAWA, YASUHIRO IKABATA, JUNJI SEINO,
          YUYA NAKAJIMA, HIROMI NAKAI
     NANJING UNIVERSITY: SHUHUA LI
     UNIVERSITY OF NEBRASKA:
          PEIFENG SU, DEJUN SI, NANDUN THELLAMUREGE, YALI WANG, HUI LI
     UNIVERSITY OF ZURICH: ROBERTO PEVERATI, KIM BALDRIDGE
     N. COPERNICUS UNIVERSITY AND JACKSON STATE UNIVERSITY:
          MARIA BARYSZ
     UNIVERSITY OF COPENHAGEN: Jimmy Kromann, CASPER STEINMANN
     TOKYO INSTITUTE OF TECHNOLOGY: HIROYA NAKATA
     NAGOYA UNIVERSITY: YOSHIO NISHIMOTO, STEPHAN IRLE
     MOSCOW STATE UNIVERSITY: VLADIMIR MIRONOV

 EXECUTION OF GAMESS BEGUN Fri Oct 11 10:34:49 2019

            ECHO OF THE FIRST FEW INPUT CARDS -
 INPUT CARD> $CONTRL SCFTYP=RHF DFTTYP=PBE RUNTYP=IRC COORD=UNIQUE ISPHER=1 $END            
 INPUT CARD> $BASIS GBASIS=PCseg-1 $END                                                     
 INPUT CARD> $IRC PACE=LINEAR STABLZ=.TRUE. NPOINT=10 SADDLE=.T. FORWRD=.T. $END            
 INPUT CARD> $FORCE HESS=READ $END                                                          
 INPUT CARD> $DATA                                                                          
 INPUT CARD>H2ON2                                                                           
 INPUT CARD>C1       1                                                                      
 INPUT CARD> N           7.0   0.9233485039  -0.2399318160   0.0736256617                   
 INPUT CARD> N           7.0  -0.0272197420   0.6088503884  -0.0717581187                   
 INPUT CARD> O           8.0  -1.0933769256  -0.1081391759   0.0571959479                   
 INPUT CARD> H           1.0  -0.1059622027  -1.0519964547   0.2191639975                   
 INPUT CARD> H           1.0   1.8912457716   0.1158820221   0.0085037392                   
 INPUT CARD> $END                                                                           
 INPUT CARD> $HESS                                                                          
 INPUT CARD>ENERGY IS     -185.5854194050 E(NUC) IS       73.0033764178                     
 INPUT CARD> 1  1 8.43287379E-01-4.86363743E-02 1.07610516E-04-3.07227749E-01 1.52208588E-01
 INPUT CARD> 1  2-1.73518217E-07-2.17358214E-01 6.47698005E-02 2.77392926E-06 8.17895263E-03
 INPUT CARD> 1  3-1.86673169E-02-2.51376499E-06-3.26893247E-01-1.49673987E-01-1.06407498E-04
 INPUT CARD> 2  1-4.86363743E-02 3.87862774E-01 3.08026584E-05 1.71630567E-01-2.92530888E-01
 INPUT CARD> 2  2-2.27188287E-05-4.91718622E-02 5.95241001E-02 5.53534034E-06 2.46499489E-02
 INPUT CARD> 2  3-3.09394031E-02 1.18125905E-05-9.84750550E-02-1.23921770E-01-2.59833249E-05
 INPUT CARD> 3  1 1.07610516E-04 3.08026584E-05 4.67125080E-02-1.86580483E-05-2.13631240E-07
 INPUT CARD> 3  2-3.46046208E-02-4.65412000E-06 8.51965572E-06 3.02899045E-02 1.02044406E-05
 INPUT CARD> 3  3 3.79254009E-06-3.46595133E-02-9.44547152E-05-4.29165917E-05-7.73983185E-03
 INPUT CARD> 4  1-3.07227749E-01 1.71630567E-01-1.86580483E-05 5.17848789E-01-3.55175251E-02
 INPUT CARD> 4  2-6.18184247E-06-2.80901045E-01-1.34259041E-01 5.24569444E-06 8.73948084E-02
 INPUT CARD> 4  3-1.28534872E-02 5.01586904E-06-1.71158190E-02 1.09946332E-02 1.17183142E-05
 INPUT CARD> 5  1 1.52208588E-01-2.92530888E-01-2.13631240E-07-3.55175251E-02 6.02706813E-01
 INPUT CARD> 5  2 7.50953590E-06-9.39616477E-02-2.06245599E-01-3.08275589E-06 5.16957378E-03
 INPUT CARD> 5  3-1.13628647E-01 3.45366097E-06-2.79005588E-02 9.69897667E-03-8.35082194E-06
 INPUT CARD> 6  1-1.73518217E-07-2.27188287E-05-3.46046208E-02-6.18184247E-06 7.50953590E-06
 INPUT CARD> 6  2 5.87875348E-02 3.33166826E-06 3.75813132E-06-5.76303885E-02 5.97285443E-06
 INPUT CARD> 6  3 3.64700856E-06 4.64098715E-02-2.91967429E-06 7.78435353E-06-1.29630917E-02
 INPUT CARD> 7  1-2.17358214E-01-4.91718622E-02-4.65412000E-06-2.80901045E-01-9.39616477E-02
 INPUT CARD> 7  2 3.33166826E-06 5.06783088E-01 1.42998490E-01-4.62911524E-06-2.22932675E-03
 INPUT CARD> 7  3 2.34377990E-03 1.72482203E-06-6.28885588E-03-2.20581219E-03 6.19870445E-06
 INPUT CARD> 8  1 6.47698005E-02 5.95241001E-02 8.51965572E-06-1.34259041E-01-2.06245599E-01
 INPUT CARD> 8  2 3.75813132E-06 1.42998490E-01 1.24300539E-01-1.14289730E-06-7.58628510E-02
 INPUT CARD> 8  3 4.28281830E-03-4.36597697E-06 2.35423992E-03 1.81422698E-02-5.77540122E-06
 INPUT CARD> 9  1 2.77392926E-06 5.53534034E-06 3.02899045E-02 5.24569444E-06-3.08275589E-06
 INPUT CARD> 9  2-5.76303885E-02-4.62911524E-06-1.14289730E-06 5.70051819E-02-7.84352823E-07
 INPUT CARD> 9  3 2.25314828E-07-4.44908522E-02-2.64464802E-06-1.51127545E-06 1.48280469E-02
 INPUT CARD>10  1 8.17895263E-03 2.46499489E-02 1.02044406E-05 8.73948084E-02 5.16957378E-03
 INPUT CARD>10  2 5.97285443E-06-2.22932675E-03-7.58628510E-02-7.84352823E-07-8.76189417E-02
 INPUT CARD>10  3 2.40174942E-02-5.65674300E-06-5.72268254E-03 2.20265423E-02-1.08166223E-05
 INPUT CARD>11  1-1.86673169E-02-3.09394031E-02 3.79254009E-06-1.28534872E-02-1.13628647E-01
 INPUT CARD>11  2 3.64700856E-06 2.34377990E-03 4.28281830E-03 2.25314828E-07 2.40174942E-02
 INPUT CARD>11  3 1.35908347E-01-7.49989794E-06 5.16190863E-03 4.37545205E-03-1.95440817E-07
 INPUT CARD>12  1-2.51376499E-06 1.18125905E-05-3.46595133E-02 5.01586904E-06 3.45366097E-06
 INPUT CARD>12  2 4.64098715E-02 1.72482203E-06-4.36597697E-06-4.44908522E-02-5.65674300E-06
    1000000 WORDS OF MEMORY AVAILABLE

     BASIS OPTIONS
     -------------
     GBASIS=PCSEG-1      IGAUSS=       0      POLAR=NONE    
     NDFUNC=       0     NFFUNC=       0     DIFFSP=       F
     NPFUNC=       0      DIFFS=       F     BASNAM=        


     RUN TITLE
     ---------
 H2ON2                                                                           

 THE POINT GROUP OF THE MOLECULE IS C1      
 THE ORDER OF THE PRINCIPAL AXIS IS     1

 ATOM      ATOMIC                      COORDINATES (BOHR)
           CHARGE         X                   Y                   Z
 N           7.0     1.7448756635       -0.4534053880        0.1391323263
 N           7.0    -0.0514378538        1.1505604016       -0.1356031817
 O           8.0    -2.0661827907       -0.2043534110        0.1080846691
 H           1.0    -0.2002395282       -1.9879850394        0.4141599016
 H           1.0     3.5739362838        0.2189852687        0.0160697370

          INTERNUCLEAR DISTANCES (ANGS.)
          ------------------------------

                1 N          2 N          3 O          4 H          5 H     

   1 N       0.0000000    1.2826331 *  2.0210939 *  1.3191326 *  1.0332809 *
   2 N       1.2826331 *  0.0000000    1.2912762 *  1.6879716 *  1.9824151 *
   3 O       2.0210939 *  1.2912762 *  0.0000000    1.3755319 *  2.9934143 *
   4 H       1.3191326 *  1.6879716 *  1.3755319 *  0.0000000    2.3231783 *
   5 H       1.0332809 *  1.9824151 *  2.9934143 *  2.3231783 *  0.0000000  

  * ... LESS THAN  3.000


     ATOMIC BASIS SET
     ----------------
 THE CONTRACTED PRIMITIVE FUNCTIONS HAVE BEEN UNNORMALIZED
 THE CONTRACTED BASIS FUNCTIONS ARE NOW NORMALIZED TO UNITY

  SHELL TYPE  PRIMITIVE        EXPONENT          CONTRACTION COEFFICIENT(S)

 N         

      1   S       1          1726.3200000    0.005526692708
      1   S       2           259.8270000    0.041238777833
      1   S       3            59.0335000    0.182735518857
      1   S       4            16.3509000    0.465933825414
      1   S       5             4.9108400    0.450079961070

      2   S       6             7.7589400   -0.147940502099
      2   S       7             0.7055730    1.051675837690

      3   S       8             0.2092860    1.000000000000

      4   P       9            13.1844000    0.064862763118
      4   P      10             2.8186000    0.339184155940
      4   P      11             0.7655710    0.735827618992

      5   P      12             0.1959490    1.000000000000

      6   D      13             0.9000000    1.000000000000

 N         

      7   S      14          1726.3200000    0.005526692708
      7   S      15           259.8270000    0.041238777833
      7   S      16            59.0335000    0.182735518857
      7   S      17            16.3509000    0.465933825414
      7   S      18             4.9108400    0.450079961070

      8   S      19             7.7589400   -0.147940502099
      8   S      20             0.7055730    1.051675837690

      9   S      21             0.2092860    1.000000000000

     10   P      22            13.1844000    0.064862763118
     10   P      23             2.8186000    0.339184155940
     10   P      24             0.7655710    0.735827618992

     11   P      25             0.1959490    1.000000000000

     12   D      26             0.9000000    1.000000000000

 O         

     13   S      27          2288.6400000    0.005451138222
     13   S      28           344.4160000    0.040718922842
     13   S      29            78.2538000    0.181369420873
     13   S      30            21.7195000    0.465536820246
     13   S      31             6.5590700    0.451211321214

     14   S      32            10.4656000   -0.150211201174
     14   S      33             0.9643510    1.052867983385

     15   S      34             0.2851270    1.000000000000

     16   P      35            17.0590000    0.068749256972
     16   P      36             3.6899900    0.351671941499
     16   P      37             0.9929960    0.724532099722

     17   P      38             0.2449240    1.000000000000

     18   D      39             1.0000000    1.000000000000

 H         

     19   S      40            12.2518000    0.037217389296
     19   S      41             1.8687100    0.253808206955
     19   S      42             0.4182080    0.797386763917

     20   S      43             0.1061000    1.000000000000

     21   P      44             1.0000000    1.000000000000

 H         

     22   S      45            12.2518000    0.037217389296
     22   S      46             1.8687100    0.253808206955
     22   S      47             0.4182080    0.797386763917

     23   S      48             0.1061000    1.000000000000

     24   P      49             1.0000000    1.000000000000

 TOTAL NUMBER OF BASIS SET SHELLS             =   24
 NUMBER OF CARTESIAN GAUSSIAN BASIS FUNCTIONS =   55
 NOTE: THIS RUN WILL RESTRICT THE MO VARIATION SPACE TO SPHERICAL HARMONICS.
 THE NUMBER OF ORBITALS KEPT IN THE VARIATIONAL SPACE WILL BE PRINTED LATER.
 NUMBER OF ELECTRONS                          =   24
 CHARGE OF MOLECULE                           =    0
 SPIN MULTIPLICITY                            =    1
 NUMBER OF OCCUPIED ORBITALS (ALPHA)          =   12
 NUMBER OF OCCUPIED ORBITALS (BETA )          =   12
 TOTAL NUMBER OF ATOMS                        =    5
 THE NUCLEAR REPULSION ENERGY IS       73.0033764178

     LEBEDEV GRID-BASED DFT OPTIONS
     ------------------------------
     DFTTYP=PBE     
     NRAD  =      96     NLEB  =     302
     NRAD0 =      24     NLEB0 =     110
     SWOFF =    5.00E-03 (PURE SCF -> DFT)
     SWITCH=    3.00E-04 (COARSE -> TIGHT GRID)
     THRESH=    0.00E+00 GTHRE=    1.00E+00

 GRIMME'S EMPIRICAL DISPERSION CORRECTION= F

     $CONTRL OPTIONS
     ---------------
 SCFTYP=RHF          RUNTYP=IRC          EXETYP=RUN     
 MPLEVL=       0     CITYP =NONE         CCTYP =NONE         VBTYP =NONE    
 DFTTYP=PBE          TDDFT =NONE    
 MULT  =       1     ICHARG=       0     NZVAR =       0     COORD =UNIQUE  
 PP    =NONE         RELWFN=NONE         LOCAL =NONE         NUMGRD=       F
 ISPHER=       1     NOSYM =       0     MAXIT =      30     UNITS =ANGS    
 PLTORB=       F     MOLPLT=       F     AIMPAC=       F     FRIEND=        
 NPRINT=       7     IREST =       0     GEOM  =INPUT   
 NORMF =       0     NORMP =       0     ITOL  =      20     ICUT  =       9
 INTTYP=BEST         GRDTYP=BEST         QMTTOL= 1.0E-06

     $SYSTEM OPTIONS
     ---------------
  REPLICATED MEMORY=     1000000 WORDS (ON EVERY NODE).
 DISTRIBUTED MEMDDI=           0 MILLION WORDS IN AGGREGATE,
 MEMDDI DISTRIBUTED OVER   1 PROCESSORS IS           0 WORDS/PROCESSOR.
 TOTAL MEMORY REQUESTED ON EACH PROCESSOR=     1000000 WORDS.
 TIMLIM=      525600.00 MINUTES, OR     365.0 DAYS.
 PARALL= F  BALTYP=  DLB     KDIAG=    0  COREFL= F
 MXSEQ2=     300 MXSEQ3=     150  mem10=         0

          ----------------
          PROPERTIES INPUT
          ----------------

     MOMENTS            FIELD           POTENTIAL          DENSITY
 IEMOM =       1   IEFLD =       0   IEPOT =       0   IEDEN =       0
 WHERE =COMASS     WHERE =NUCLEI     WHERE =NUCLEI     WHERE =NUCLEI  
 OUTPUT=BOTH       OUTPUT=BOTH       OUTPUT=BOTH       OUTPUT=BOTH    
 IEMINT=       0   IEFINT=       0                     IEDINT=       0
                                                       MORB  =       0
          EXTRAPOLATION IN EFFECT
          DIIS IN EFFECT
 ORBITAL PRINTING OPTION: NPREO=     1    55     2     1

     -------------------------------
     INTEGRAL TRANSFORMATION OPTIONS
     -------------------------------
     NWORD  =            0
     CUTOFF = 1.0E-09     MPTRAN =       0
     DIRTRF =       F     AOINTS =DUP     

          ----------------------
          INTEGRAL INPUT OPTIONS
          ----------------------
 NOPK  =       1 NORDER=       0 SCHWRZ=       F

     ------------------------------------------
     THE POINT GROUP IS C1 , NAXIS= 1, ORDER= 1
     ------------------------------------------

 -- VARIATIONAL SPACE WILL BE RESTRICTED TO PURE SPHERICAL HARMONICS ONLY --
 AFTER EXCLUDING CONTAMINANT COMBINATIONS FROM THE CARTESIAN GAUSSIAN BASIS
 SET, THE NUMBER OF SPHERICAL HARMONICS KEPT IN THE VARIATION SPACE IS   52

     DIMENSIONS OF THE SYMMETRY SUBSPACES ARE
 A   =   52

 ..... DONE SETTING UP THE RUN .....
 STEP CPU TIME =     0.02 TOTAL CPU TIME =          0.0 (      0.0 MIN)
 TOTAL WALL CLOCK TIME=          0.0 SECONDS, CPU UTILIZATION IS    66.67%

          -----------------------------
          INTRINSIC REACTION COORDINATE
          -----------------------------
          PACE   =LINEAR  
          STRIDE = 0.30000 BOHR*SQRT(AMU)
          NPOINT =      10
          NEXTPT =       0
          STOTAL =  0.0000 BOHR*SQRT(AMU)
          SAB    =  0.0000 BOHR*SQRT(AMU)
          NPRT   =       0
          NPUN   =       0

          SADDLE =       T
          TSENGY =       F
          FORWRD =       T
          EVIB   = 0.00050 HARTREE
          FREQ   =     0.0 CM**-1

          STABLZ =       T
          ELBOW  =  175.00 DEGREES
          DELTA  = 0.02500 BOHR

          READQB =       F
          EB     =        0.0000000000 HARTREES
          GBNORM =        0.0000000000 HARTREES/SQRT(AMU)-BOHR

          GCUT   = 0.0000000 HARTREES/SQRT(AMU)-BOHR
          RCUT   = 0.0000000 BOHR
          ACUT   =    5.00 DEGREES
          MXOPT  =      20
          IHUPD  =       2

 ATOMIC MASSES USED (IN AMU) ARE
     N             14.0031
     N             14.0031
     O             15.9949
     H              1.0078
     H              1.0078

 JUMP AWAY FROM SADDLE POINT WILL BE FOUND FROM THE INPUT HESSIAN MATRIX


 JUMPING OFF SADDLE POINT ALONG THE IMAGINARY NORMAL MODE...

 $HESS GROUP READ FROM CARDS
 ENERGY IS     -185.5854194050 E(NUC) IS       73.0033764178                     
 INITIAL DISPLACEMENT= -0.10 ALONG MODE WITH FREQUENCY=    1635.189 I CM**-1
 THE COMPONENTS OF THE DISPLACEMENT ARE (BOHR) -
   -0.001745  -0.002245  -0.000001
   -0.004138  -0.000591  -0.000000
   -0.000976   0.004101   0.000000
    0.093888  -0.010267   0.000004
    0.003334  -0.015407   0.000010
 DISTANCE FROM THE SADDLE POINT TO THE 1ST IRC POINT IS  0.09941 SQRT(AMU)-BOHR)
1         POINT   1 ON THE REACTION PATH
          ******************************
          AT PATH DISTANCE STOTAL=   0.09941

          THE COORDINATES OF POINT QB ARE
 COORDINATES OF ALL ATOMS ARE (ANGS)
   ATOM   CHARGE       X              Y              Z
 ------------------------------------------------------------
 N           7.0   0.9224251118  -0.2411200552   0.0736253239
 N           7.0  -0.0294094369   0.6085376297  -0.0717583114
 O           8.0  -1.0938932484  -0.1059690814   0.0571959833
 H           1.0  -0.0562790569  -1.0574295479   0.2191659496
 H           1.0   1.8930099592   0.1077290216   0.0085090606

          INTERNUCLEAR DISTANCES (ANGS.)
          ------------------------------

                1 N          2 N          3 O          4 H          5 H     

   1 N       0.0000000    1.2841509 *  2.0209096 *  1.2827335 *  1.0334267 *
   2 N       1.2841509 *  0.0000000    1.2885165 *  1.6913916 *  1.9882023 *
   3 O       2.0209096 *  1.2885165 *  0.0000000    1.4170937 *  2.9949337 *
   4 H       1.2827335 *  1.6913916 *  1.4170937 *  0.0000000    2.2807232 *
   5 H       1.0334267 *  1.9882023 *  2.9949337 *  2.2807232 *  0.0000000  

  * ... LESS THAN  3.000


          ********************
          1 ELECTRON INTEGRALS
          ********************
 ...... END OF ONE-ELECTRON INTEGRALS ......
 STEP CPU TIME =     0.01 TOTAL CPU TIME =          0.0 (      0.0 MIN)
 TOTAL WALL CLOCK TIME=          0.0 SECONDS, CPU UTILIZATION IS   100.00%

          -------------
          GUESS OPTIONS
          -------------
          GUESS =HUCKEL            NORB  =       0          NORDER=       0
          MIX   =       F          PRTMO =       F          PUNMO =       F
          TOLZ  = 1.0E-08          TOLE  = 1.0E-05
          SYMDEN=       F          PURIFY=       F

 INITIAL GUESS ORBITALS GENERATED BY HUCKEL   ROUTINE.
 HUCKEL GUESS REQUIRES     27116 WORDS.

 STATISTICS FOR GENERATION OF SYMMETRY ORBITAL -Q- MATRIX
 NUMBER OF CARTESIAN ATOMIC ORBITALS=         55
 NUMBER OF SPHERICAL CONTAMINANTS DROPPED=     3
 NUMBER OF LINEARLY DEPENDENT MOS DROPPED=     0
 TOTAL NUMBER OF MOS IN VARIATION SPACE=      52

 SYMMETRIES FOR INITIAL GUESS ORBITALS FOLLOW.   BOTH SET(S).
    12 ORBITALS ARE OCCUPIED (    3 CORE ORBITALS).
     4=A        5=A        6=A        7=A        8=A        9=A       10=A   
    11=A       12=A       13=A       14=A       15=A       16=A       17=A   
    18=A       19=A       20=A       21=A       22=A   
 ...... END OF INITIAL ORBITAL SELECTION ......
 STEP CPU TIME =     0.01 TOTAL CPU TIME =          0.0 (      0.0 MIN)
 TOTAL WALL CLOCK TIME=          0.0 SECONDS, CPU UTILIZATION IS   100.00%

                    ----------------------
                    AO INTEGRAL TECHNOLOGY
                    ----------------------
     S,P,L SHELL ROTATED AXIS INTEGRALS, REPROGRAMMED BY
        KAZUYA ISHIMURA (IMS) AND JOSE SIERRA (SYNSTAR).
     S,P,D,L SHELL ROTATED AXIS INTEGRALS PROGRAMMED BY
        KAZUYA ISHIMURA (INSTITUTE FOR MOLECULAR SCIENCE).
     S,P,D,F,G SHELL TO TOTAL QUARTET ANGULAR MOMENTUM SUM 5,
        ERIC PROGRAM BY GRAHAM FLETCHER (ELORET AND NASA ADVANCED
        SUPERCOMPUTING DIVISION, AMES RESEARCH CENTER).
     S,P,D,F,G,L SHELL GENERAL RYS QUADRATURE PROGRAMMED BY
        MICHEL DUPUIS (PACIFIC NORTHWEST NATIONAL LABORATORY).

          --------------------
          2 ELECTRON INTEGRALS
          --------------------

 THE -PK- OPTION IS OFF, THE INTEGRALS ARE NOT IN SUPERMATRIX FORM.
 STORING   15000 INTEGRALS/RECORD ON DISK, USING 12 BYTES/INTEGRAL.
 TWO ELECTRON INTEGRAL EVALUATION REQUIRES   90696 WORDS OF MEMORY.
 II,JST,KST,LST =  1  1  1  1 NREC =         1 INTLOC =    1
 II,JST,KST,LST =  2  1  1  1 NREC =         1 INTLOC =    2
 II,JST,KST,LST =  3  1  1  1 NREC =         1 INTLOC =    7
 II,JST,KST,LST =  4  1  1  1 NREC =         1 INTLOC =   22
 II,JST,KST,LST =  5  1  1  1 NREC =         1 INTLOC =   67
 II,JST,KST,LST =  6  1  1  1 NREC =         1 INTLOC =  214
 II,JST,KST,LST =  7  1  1  1 NREC =         1 INTLOC = 1189
 II,JST,KST,LST =  8  1  1  1 NREC =         1 INTLOC = 3224
 II,JST,KST,LST =  9  1  1  1 NREC =         1 INTLOC = 5689
 II,JST,KST,LST = 10  1  1  1 NREC =         1 INTLOC = 8614
 II,JST,KST,LST = 11  1  1  1 NREC =         2 INTLOC = 5536
 II,JST,KST,LST = 12  1  1  1 NREC =         3 INTLOC = 8224
 II,JST,KST,LST = 13  1  1  1 NREC =         7 INTLOC = 6159
 II,JST,KST,LST = 14  1  1  1 NREC =         8 INTLOC = 4653
 II,JST,KST,LST = 15  1  1  1 NREC =         9 INTLOC = 5887
 II,JST,KST,LST = 16  1  1  1 NREC =        10 INTLOC = 8789
 II,JST,KST,LST = 17  1  1  1 NREC =        14 INTLOC =12247
 II,JST,KST,LST = 18  1  1  1 NREC =        20 INTLOC = 3588
 II,JST,KST,LST = 19  1  1  1 NREC =        35 INTLOC = 2158
 II,JST,KST,LST = 20  1  1  1 NREC =        38 INTLOC = 5729
 II,JST,KST,LST = 21  1  1  1 NREC =        41 INTLOC =12560
 II,JST,KST,LST = 22  1  1  1 NREC =        53 INTLOC = 8467
 II,JST,KST,LST = 23  1  1  1 NREC =        57 INTLOC =13804
 II,JST,KST,LST = 24  1  1  1 NREC =        62 INTLOC = 8862
 TOTAL NUMBER OF NONZERO TWO-ELECTRON INTEGRALS =             1134697
         76 INTEGRAL RECORDS WERE STORED ON DISK FILE  8.
  ...... END OF TWO-ELECTRON INTEGRALS .....
 STEP CPU TIME =     0.16 TOTAL CPU TIME =          0.2 (      0.0 MIN)
 TOTAL WALL CLOCK TIME=          0.2 SECONDS, CPU UTILIZATION IS    95.24%

          --------------------------
               R-PBE SCF CALCULATION
          --------------------------

     NUCLEAR ENERGY =        73.0125314008
     MAXIT =   30     NPUNCH=    2
     EXTRAP=T  DAMP=F  SHIFT=F  RSTRCT=F  DIIS=T  DEM=F  SOSCF=F
         DENSITY MATRIX CONVERGENCE THRESHOLD=  1.00E-05
     COARSE -> FINE DFT GRID SWITCH THRESHOLD=  3.00E-04 (SWITCH IN $DFT)
                   HF -> DFT SWITCH THRESHOLD=  5.00E-03 (SWOFF IN $DFT)
     MEMORY REQUIRED FOR RHF ITERS=    248522 WORDS.

 DFT CODE IS SWITCHING FROM THE FINE GRID NRAD= 96,  NLEB=  302
                      TO THE COARSE GRID NRAD0= 24, NLEB0=  110

     EXCHANGE FUNCTIONAL   =PBE       
     CORRELATION FUNCTIONAL=PBE       
     DFT THRESHOLD         =.276E-07
     GRID CHANGE THRESHOLD =.300E-03
 FOR AN EULER-MACLAURIN QUADRATURE USING  96 RADIAL POINTS:
 SMALLEST GAUSSIAN PRIMITIVE EXPONENT=        0.1061000000 OF TYPE -S-
 ON ATOM NUMBER   4 HAS RADIAL NORMALIZATION=  1.000000
  LARGEST GAUSSIAN PRIMITIVE EXPONENT=     2288.6400000000 OF TYPE -S-
 ON ATOM NUMBER   3 HAS RADIAL NORMALIZATION=  1.000000
 DFT IS SWITCHED OFF, PERFORMING PURE SCF UNTIL SWOFF THRESHOLD IS REACHED.

 ITER EX DEM     TOTAL ENERGY        E CHANGE  DENSITY CHANGE    DIIS ERROR
          * * *   INITIATING DIIS PROCEDURE   * * *
   1  0  0     -184.0339806162  -184.0339806162   0.313947337   0.385669171
   2  1  0     -184.5867539143    -0.5527732981   0.219007877   0.130735965
   3  2  0     -184.6422710353    -0.0555171210   0.103852618   0.094689790
   4  3  0     -184.6948400648    -0.0525690296   0.020978053   0.012774022
   5  4  0     -184.6962410043    -0.0014009395   0.007437413   0.007365887
   6  5  0     -184.6964596425    -0.0002186382   0.004112933   0.002747816
 CONVERGED TO SWOFF, SO DFT CALCULATION IS NOW SWITCHED ON.
          * * *   INITIATING DIIS PROCEDURE   * * *
   7  6  0     -185.5536261946    -0.8571665521   0.207450378   0.076862453
   8  7  0     -185.5558192246    -0.0021930300   0.189198321   0.084699713
   9  8  0     -185.5439610387     0.0118581859   0.140154165   0.095219617
  10  9  0     -185.5771502583    -0.0331892195   0.058055531   0.036180415
  11 10  0     -185.5865708636    -0.0094206053   0.013382804   0.007640843
  12 11  0     -185.5868988480    -0.0003279844   0.001772583   0.002014673
  13 12  0     -185.5869152346    -0.0000163866   0.000658619   0.000629610
  14 13  0     -185.5869172217    -0.0000019871   0.000186752   0.000199753
 DFT CODE IS SWITCHING BACK TO THE FINE GRID
          * * *   INITIATING DIIS PROCEDURE   * * *
  15 14  0     -185.5858961679     0.0010210538   0.001425084   0.001945516
  16 15  0     -185.5859092721    -0.0000131042   0.001113850   0.000646773
  17 16  0     -185.5859082170     0.0000010551   0.001158224   0.000618591
  18 17  0     -185.5859090934    -0.0000008765   0.000649945   0.000540651
  19 18  0     -185.5859104770    -0.0000013835   0.000089850   0.000056703
  20 19  0     -185.5859104887    -0.0000000117   0.000039640   0.000039247
  21 20  0     -185.5859104949    -0.0000000062   0.000003440   0.000002681
  22 21  0     -185.5859104950    -0.0000000001   0.000000699   0.000000823

          -----------------
          DENSITY CONVERGED
          -----------------
     TIME TO FORM FOCK OPERATORS=       4.5 SECONDS (       0.2 SEC/ITER)
     TIME TO SOLVE SCF EQUATIONS=       0.0 SECONDS (       0.0 SEC/ITER)

 FINAL R-PBE ENERGY IS     -185.5859104950 AFTER  22 ITERATIONS
 DFT EXCHANGE + CORRELATION ENERGY =       -22.8018773717
 TOTAL ELECTRON NUMBER             =        23.9999925711

          ------------
          EIGENVECTORS
          ------------

                      1          2          3          4          5
                  -18.7846   -14.1111   -14.0504    -1.0906    -0.8642
                     A          A          A          A          A   
    1  N  1  S   -0.000016   0.000642   0.993174  -0.090518  -0.168607
    2  N  1  S   -0.000390  -0.001280   0.034643   0.185494   0.351679
    3  N  1  S   -0.000713   0.008167  -0.016639   0.077331   0.260306
    4  N  1  X    0.000262   0.000860   0.000269  -0.091455  -0.032741
    5  N  1  Y   -0.000301  -0.000743   0.001484   0.059249   0.113234
    6  N  1  Z    0.000052   0.000127  -0.000263  -0.010067  -0.019764
    7  N  1  X    0.000317  -0.003490   0.002933  -0.008409  -0.029073
    8  N  1  Y    0.001162   0.002768  -0.001670  -0.000634   0.019091
    9  N  1  Z   -0.000204  -0.000472   0.000283   0.000134  -0.003259
   10  N  1 XX    0.000209  -0.000337   0.001382   0.008444   0.001927
   11  N  1 YY    0.000021  -0.000283  -0.000437  -0.000788   0.005728
   12  N  1 ZZ   -0.000230   0.000620  -0.000946  -0.007656  -0.007655
   13  N  1 XY    0.000132   0.001147   0.000402  -0.010744  -0.006089
   14  N  1 XZ   -0.000025  -0.000197  -0.000081   0.001816   0.001027
   15  N  1 YZ   -0.000053   0.000184  -0.000108  -0.001393  -0.002769
   16  N  2  S    0.000080   0.993328  -0.000363  -0.151911  -0.041624
   17  N  2  S   -0.000759   0.034387  -0.001013   0.316178   0.089968
   18  N  2  S    0.008233  -0.020201   0.004304   0.179909   0.069448
   19  N  2  X    0.000031  -0.000076  -0.000773  -0.043019   0.260468
   20  N  2  Y   -0.000118  -0.002911   0.000773  -0.157259  -0.040385
   21  N  2  Z    0.000021   0.000510  -0.000133   0.027683   0.006126
   22  N  2  X   -0.004445  -0.002497   0.002142   0.011511   0.054217
   23  N  2  Y   -0.003359   0.005627  -0.001188  -0.041803  -0.013856
   24  N  2  Z    0.000604  -0.000976   0.000200   0.007272   0.002224
   25  N  2 XX   -0.000367   0.000397  -0.000369   0.007279  -0.001238
   26  N  2 YY    0.000149  -0.000154  -0.000361   0.008233   0.002562
   27  N  2 ZZ    0.000218  -0.000244   0.000730  -0.015513  -0.001324
   28  N  2 XY   -0.000567   0.000119   0.001090   0.008020  -0.031917
   29  N  2 XZ    0.000102  -0.000024  -0.000186  -0.001502   0.005586
   30  N  2 YZ    0.000017  -0.000019   0.000224  -0.004982  -0.000687
   31  O  3  S    0.993210   0.000136  -0.000014  -0.146672   0.146256
   32  O  3  S    0.034808  -0.000162  -0.000278   0.296982  -0.303503
   33  O  3  S   -0.020390   0.002141   0.000611   0.249181  -0.314312
   34  O  3  X    0.001716  -0.000551  -0.000021   0.138683  -0.052283
   35  O  3  Y    0.000532  -0.000492  -0.000236   0.056418  -0.051186
   36  O  3  Z   -0.000100   0.000088   0.000041  -0.010389   0.009157
   37  O  3  X   -0.005691   0.000231   0.000645   0.048798  -0.037323
   38  O  3  Y   -0.002129   0.000007   0.000661   0.016533  -0.014897
   39  O  3  Z    0.000394  -0.000002  -0.000117  -0.003078   0.002749
   40  O  3 XX   -0.000306  -0.000840   0.000233   0.013934  -0.000317
   41  O  3 YY   -0.000018  -0.000115  -0.000111  -0.003817  -0.002741
   42  O  3 ZZ    0.000325   0.000955  -0.000122  -0.010116   0.003058
   43  O  3 XY    0.000018  -0.001138  -0.000153   0.011026  -0.005488
   44  O  3 XZ   -0.000000   0.000207   0.000025  -0.002034   0.000977
   45  O  3 YZ    0.000071   0.000227  -0.000002  -0.001356   0.001229
   46  H  4  S    0.001380  -0.000046   0.000282   0.066113   0.019547
   47  H  4  S    0.001491   0.001062   0.002008  -0.016205  -0.014051
   48  H  4  X   -0.000587  -0.000229  -0.000573   0.000743   0.007296
   49  H  4  Y    0.000492   0.000391  -0.000664   0.013125   0.003185
   50  H  4  Z   -0.000083  -0.000068   0.000117  -0.002290  -0.000582
   51  H  5  S   -0.000206  -0.000504  -0.002143   0.031592   0.131202
   52  H  5  S    0.000245   0.001030   0.002004  -0.006287  -0.002902
   53  H  5  X    0.000029   0.000125   0.002121  -0.006252  -0.016493
   54  H  5  Y    0.000010  -0.000177   0.001003  -0.000283  -0.003995
   55  H  5  Z   -0.000002   0.000031  -0.000185   0.000075   0.000767

                      6          7          8          9         10
                   -0.6067    -0.5374    -0.4449    -0.4337    -0.3083
                     A          A          A          A          A   
    1  N  1  S    0.103029   0.014345   0.036237  -0.000125  -0.032962
    2  N  1  S   -0.215450  -0.035186  -0.073716   0.000274   0.060882
    3  N  1  S   -0.260091  -0.061516  -0.103153   0.000373   0.182632
    4  N  1  X   -0.280409   0.319786  -0.081467   0.001163  -0.088429
    5  N  1  Y    0.116272   0.161275   0.296312   0.051095  -0.325756
    6  N  1  Z   -0.019223  -0.029348  -0.051018   0.295041   0.057422
    7  N  1  X   -0.063864   0.129188  -0.033334   0.000675  -0.064000
    8  N  1  Y    0.042682   0.071038   0.187081   0.030951  -0.193143
    9  N  1  Z   -0.007202  -0.012868  -0.032284   0.178875   0.034090
   10  N  1 XX   -0.002772  -0.009200  -0.014429  -0.000073  -0.011450
   11  N  1 YY    0.005223   0.007976   0.017382   0.004784   0.006586
   12  N  1 ZZ   -0.002451   0.001224  -0.002953  -0.004711   0.004864
   13  N  1 XY   -0.019217   0.000954  -0.010818  -0.002981   0.002790
   14  N  1 XZ    0.003371  -0.000139   0.001909  -0.017467  -0.000414
   15  N  1 YZ   -0.001528  -0.001417  -0.004180   0.015405  -0.000351
   16  N  2  S   -0.135729  -0.078919  -0.000029   0.000054  -0.060005
   17  N  2  S    0.314419   0.174994  -0.008140  -0.000093   0.113957
   18  N  2  S    0.308829   0.201305   0.007888  -0.000224   0.262241
   19  N  2  X    0.050608  -0.120456   0.371754   0.000964   0.011214
   20  N  2  Y   -0.039539   0.199435   0.076523   0.076333   0.405741
   21  N  2  Z    0.006784  -0.034418  -0.013989   0.437546  -0.071009
   22  N  2  X    0.025512  -0.015795   0.101537   0.000646  -0.017393
   23  N  2  Y   -0.031655   0.084097   0.037924   0.039796   0.244226
   24  N  2  Z    0.005464  -0.014644  -0.006628   0.227907  -0.042646
   25  N  2 XX   -0.003691   0.028602   0.006548  -0.000026   0.001486
   26  N  2 YY    0.001896  -0.032679  -0.009521  -0.010380  -0.017075
   27  N  2 ZZ    0.001795   0.004077   0.002973   0.010406   0.015589
   28  N  2 XY   -0.005140   0.008537  -0.019011  -0.000415  -0.013841
   29  N  2 XZ    0.000926  -0.001594   0.003313  -0.001819   0.002489
   30  N  2 YZ   -0.000008   0.007622   0.002613  -0.033269   0.006860
   31  O  3  S    0.103034  -0.001731  -0.093674   0.000130   0.007465
   32  O  3  S   -0.217472   0.007876   0.193000  -0.000267  -0.024635
   33  O  3  S   -0.292899   0.001873   0.295398  -0.000396  -0.036449
   34  O  3  X    0.100752  -0.044694  -0.320533   0.001696  -0.327554
   35  O  3  Y    0.108298   0.242623  -0.235239   0.055591   0.070230
   36  O  3  Z   -0.019291  -0.042233   0.042865   0.315376  -0.011093
   37  O  3  X    0.038076  -0.029204  -0.181074   0.000999  -0.213941
   38  O  3  Y    0.048584   0.125702  -0.129032   0.032498   0.059758
   39  O  3  Z   -0.008628  -0.021858   0.023548   0.184450  -0.009666
   40  O  3 XX    0.007869  -0.011168  -0.011292   0.000178  -0.020908
   41  O  3 YY   -0.002674   0.009945   0.001611   0.002762   0.015508
   42  O  3 ZZ   -0.005195   0.001224   0.009681  -0.002940   0.005400
   43  O  3 XY    0.009785   0.017648  -0.013870   0.004328   0.000196
   44  O  3 XZ   -0.001765  -0.003032   0.002560   0.024403   0.000078
   45  O  3 YZ   -0.000565  -0.001888   0.001754   0.008828  -0.002107
   46  H  4  S   -0.075771  -0.263351  -0.093954   0.000026   0.165177
   47  H  4  S   -0.031998  -0.026628   0.026301  -0.000082   0.138684
   48  H  4  X    0.000932  -0.004388  -0.013261   0.000067   0.019567
   49  H  4  Y   -0.001372  -0.023902  -0.006282   0.002070  -0.005366
   50  H  4  Z    0.000235   0.004178   0.001163   0.011874   0.000874
   51  H  5  S   -0.266806   0.234767  -0.054305   0.000029  -0.177808
   52  H  5  S   -0.032108   0.031472  -0.028245   0.000045  -0.042598
   53  H  5  X    0.017738  -0.017165  -0.001294   0.000043   0.008418
   54  H  5  Y    0.011693  -0.003798   0.007627   0.001437  -0.004918
   55  H  5  Z   -0.002122   0.000740  -0.001316   0.008275   0.000826

                     11         12         13         14         15
                   -0.2627    -0.2596    -0.1038    -0.0087     0.0421
                     A          A          A          A          A   
    1  N  1  S    0.000134  -0.068428   0.000072   0.088718   0.032263
    2  N  1  S   -0.000336   0.170914  -0.000151  -0.191961  -0.057916
    3  N  1  S   -0.000460   0.261880  -0.000373  -0.655263  -0.455894
    4  N  1  X   -0.001484  -0.188706  -0.001425  -0.165718  -0.223403
    5  N  1  Y   -0.078924   0.003017  -0.062425   0.186394  -0.302506
    6  N  1  Z   -0.450772  -0.000498  -0.357805  -0.031521   0.053666
    7  N  1  X   -0.001293  -0.084006  -0.001620  -0.335810  -0.388816
    8  N  1  Y   -0.060950  -0.027068  -0.070741   0.284358  -0.473550
    9  N  1  Z   -0.348223   0.004514  -0.405622  -0.047952   0.084217
   10  N  1 XX    0.000003   0.002107  -0.000099   0.007743   0.017141
   11  N  1 YY   -0.003778  -0.005946   0.004151   0.003859  -0.017854
   12  N  1 ZZ    0.003774   0.003838  -0.004052  -0.011602   0.000713
   13  N  1 XY    0.000306  -0.009433  -0.002726   0.021177  -0.020943
   14  N  1 XZ    0.001945   0.001672  -0.015943  -0.003772   0.003582
   15  N  1 YZ   -0.012085   0.002053   0.013275  -0.003302   0.003945
   16  N  2  S   -0.000093   0.063483   0.000024   0.034413  -0.037509
   17  N  2  S    0.000204  -0.136248  -0.000020  -0.049365   0.076608
   18  N  2  S    0.000290  -0.221117  -0.000380  -0.530983   0.427770
   19  N  2  X   -0.000106   0.022636   0.002030   0.016838   0.028398
   20  N  2  Y   -0.004972  -0.284944   0.097639  -0.057318  -0.077764
   21  N  2  Z   -0.030662   0.049599   0.557953   0.009663   0.013607
   22  N  2  X    0.000033  -0.028573   0.001816  -0.047059  -0.029621
   23  N  2  Y   -0.000390  -0.197559   0.089430   0.080152  -0.143448
   24  N  2  Z   -0.003884   0.034573   0.510557  -0.014205   0.025310
   25  N  2 XX   -0.000244   0.013859   0.000024   0.008556  -0.027171
   26  N  2 YY    0.000371  -0.000881   0.000244  -0.006412   0.019858
   27  N  2 ZZ   -0.000127  -0.012978  -0.000268  -0.002145   0.007314
   28  N  2 XY   -0.006267  -0.019048   0.000261  -0.002430   0.002896
   29  N  2 XZ   -0.035946   0.003174   0.001521   0.000388  -0.000364
   30  N  2 YZ    0.001207  -0.002440   0.000796   0.000890  -0.002630
   31  O  3  S    0.000029  -0.024740   0.000022   0.029501  -0.011548
   32  O  3  S   -0.000075   0.066420  -0.000050  -0.069464   0.027764
   33  O  3  S   -0.000046   0.032328  -0.000097  -0.151704   0.038622
   34  O  3  X    0.002132  -0.298184  -0.001332  -0.091966  -0.076421
   35  O  3  Y    0.086745   0.427702  -0.058564   0.269314  -0.179328
   36  O  3  Z    0.498702  -0.073178  -0.336155  -0.046514   0.031466
   37  O  3  X    0.001547  -0.238162  -0.001230  -0.060981  -0.119027
   38  O  3  Y    0.062196   0.292809  -0.055592   0.271762  -0.227290
   39  O  3  Z    0.357417  -0.049948  -0.319073  -0.047070   0.040029
   40  O  3 XX    0.000105  -0.007395   0.000015  -0.004653   0.008580
   41  O  3 YY    0.001846   0.002473   0.003417   0.006559  -0.010770
   42  O  3 ZZ   -0.001951   0.004923  -0.003432  -0.001906   0.002191
   43  O  3 XY    0.002703   0.011566   0.000630  -0.004883   0.002129
   44  O  3 XZ    0.015392  -0.001953   0.003358   0.000859  -0.000392
   45  O  3 YZ    0.005893   0.000464   0.010898  -0.001746   0.002686
   46  H  4  S    0.000285  -0.176822   0.000396   0.357312  -0.255277
   47  H  4  S    0.000171  -0.150021   0.000429   0.710947  -0.958291
   48  H  4  X   -0.000012   0.019816  -0.000044   0.001301   0.005962
   49  H  4  Y   -0.000279  -0.002677  -0.002485  -0.010139   0.016669
   50  H  4  Z   -0.001622   0.000386  -0.014227   0.001768  -0.002919
   51  H  5  S    0.000247  -0.120061   0.000228   0.216408   0.078083
   52  H  5  S    0.000172  -0.088797   0.000196   0.845395   1.270098
   53  H  5  X   -0.000075   0.000644  -0.000063   0.015934   0.025815
   54  H  5  Y   -0.002999   0.000883  -0.002795   0.018452  -0.005663
   55  H  5  Z   -0.017109  -0.000185  -0.015998  -0.003272   0.000870

                     16         17         18         19         20
                    0.1606     0.1897     0.3288     0.5167     0.5344
                     A          A          A          A          A   
    1  N  1  S    0.037340  -0.063105   0.093630   0.004384  -0.017088
    2  N  1  S   -0.020111   0.083624  -0.243162   0.014368   0.188473
    3  N  1  S   -0.896075   1.444036  -0.795890   0.245402  -0.889748
    4  N  1  X    0.080251  -0.200038   0.107028  -0.548993  -0.206303
    5  N  1  Y   -0.003459   0.165771  -0.117922  -0.344129   0.558932
    6  N  1  Z    0.000314  -0.028228   0.020505   0.062094  -0.098299
    7  N  1  X    0.751019  -0.889845   0.590269   0.323775   0.847577
    8  N  1  Y   -0.163372   0.776531  -0.593494   0.499613  -0.750060
    9  N  1  Z    0.025924  -0.132699   0.101910  -0.088373   0.129353
   10  N  1 XX    0.014317   0.039458   0.080113   0.064049  -0.068956
   11  N  1 YY   -0.023736  -0.027565  -0.005407  -0.028647   0.030684
   12  N  1 ZZ    0.009418  -0.011893  -0.074706  -0.035402   0.038272
   13  N  1 XY   -0.026793   0.047345   0.032237   0.008958   0.019093
   14  N  1 XZ    0.004656  -0.008500  -0.006287  -0.002125  -0.002808
   15  N  1 YZ    0.007009   0.003087  -0.014557  -0.001534   0.001484
   16  N  2  S   -0.110156   0.027749  -0.089904   0.034716  -0.008933
   17  N  2  S    0.245169  -0.038853   0.277245  -0.168172  -0.067084
   18  N  2  S    1.615281  -0.884153   1.157718  -0.036188   1.626406
   19  N  2  X   -0.235920  -0.461332   0.250179   0.404310   0.157043
   20  N  2  Y   -0.321285   0.091815  -0.072138   0.176131   0.626283
   21  N  2  Z    0.057128  -0.014462   0.011608  -0.032437  -0.110963
   22  N  2  X   -0.454277  -1.234654   0.526922  -0.659385  -0.418705
   23  N  2  Y   -0.933087   0.462093  -0.618334   0.016845  -1.309452
   24  N  2  Z    0.165087  -0.076581   0.106363  -0.000555   0.231451
   25  N  2 XX   -0.028307  -0.016861  -0.015247  -0.015239   0.093874
   26  N  2 YY    0.009212   0.013521   0.013003   0.043770  -0.027737
   27  N  2 ZZ    0.019095   0.003340   0.002244  -0.028531  -0.066138
   28  N  2 XY   -0.020030  -0.032577   0.005561   0.013024  -0.050817
   29  N  2 XZ    0.003708   0.005795  -0.000893  -0.002340   0.008204
   30  N  2 YZ    0.002136  -0.001998  -0.002256  -0.015149  -0.007728
   31  O  3  S    0.090558   0.051329   0.007831  -0.015219  -0.007683
   32  O  3  S   -0.146993  -0.150702  -0.067240   0.088011   0.126528
   33  O  3  S   -1.160899  -0.314201   0.113923  -0.389653  -0.803585
   34  O  3  X   -0.273524  -0.182777  -0.225466   0.278602   0.175904
   35  O  3  Y   -0.229949  -0.169158   0.135905   0.032029   0.005567
   36  O  3  Z    0.041253   0.030299  -0.022860  -0.006786  -0.001888
   37  O  3  X   -0.660850  -0.178615  -0.082826  -0.022937  -0.370692
   38  O  3  Y   -0.367319  -0.373185  -0.005902  -0.033276  -0.186869
   39  O  3  Z    0.066738   0.065974   0.001298   0.006077   0.034101
   40  O  3 XX   -0.000577  -0.000259   0.022863  -0.025400  -0.057543
   41  O  3 YY   -0.001877   0.013491  -0.004487  -0.009230   0.030992
   42  O  3 ZZ    0.002454  -0.013232  -0.018376   0.034631   0.026551
   43  O  3 XY    0.021327  -0.004029  -0.020305  -0.030598  -0.042076
   44  O  3 XZ   -0.003713   0.000642   0.003353   0.005639   0.007695
   45  O  3 YZ    0.000818  -0.005555  -0.002798   0.009231  -0.000781
   46  H  4  S   -0.270492   0.294802   0.786476  -0.444890   0.188944
   47  H  4  S    0.745793  -0.686797  -0.817035   0.789466  -0.456163
   48  H  4  X    0.001041  -0.005254   0.003504   0.033849  -0.026132
   49  H  4  Y   -0.003181   0.009639  -0.008766   0.068351  -0.005334
   50  H  4  Z    0.000539  -0.001652   0.001532  -0.011955   0.001041
   51  H  5  S    0.047651   0.265814   0.642279   0.658823  -0.242683
   52  H  5  S   -0.254200   0.090562  -0.632743  -0.770047   0.240761
   53  H  5  X    0.003794   0.014504   0.049731   0.117134  -0.014039
   54  H  5  Y   -0.018101   0.019461  -0.001648   0.017488  -0.024406
   55  H  5  Z    0.003152  -0.003459   0.000139  -0.003577   0.004339

                     21         22         23         24         25
                    0.5427     0.5779     0.5990     0.6340     0.7850
                     A          A          A          A          A   
    1  N  1  S   -0.000072  -0.014169   0.008839  -0.000031   0.000267
    2  N  1  S    0.000416   0.052225   0.106859   0.000054  -0.003422
    3  N  1  S   -0.000856  -1.092288  -0.201682   0.000275   0.004722
    4  N  1  X    0.002554  -0.250207  -0.518784   0.001873   0.002728
    5  N  1  Y    0.135690  -0.241098   0.445569   0.086737   0.020960
    6  N  1  Z    0.772021   0.043048  -0.075771   0.495945   0.118110
    7  N  1  X   -0.001672   0.548376   0.614163  -0.003672  -0.007323
    8  N  1  Y   -0.135119   0.089690  -0.912239  -0.166912  -0.008968
    9  N  1  Z   -0.768342  -0.017516   0.157073  -0.954727  -0.056448
   10  N  1 XX   -0.000265  -0.039559   0.049665   0.000028  -0.000441
   11  N  1 YY    0.009226  -0.011270  -0.013814   0.001604  -0.011014
   12  N  1 ZZ   -0.008961   0.050829  -0.035851  -0.001632   0.011455
   13  N  1 XY   -0.004644   0.094078   0.025774   0.001577  -0.010941
   14  N  1 XZ   -0.027159  -0.016118  -0.004946   0.008972  -0.061870
   15  N  1 YZ    0.029384   0.012575  -0.004717   0.005120  -0.034002
   16  N  2  S   -0.000024  -0.033823   0.018566  -0.000004  -0.000048
   17  N  2  S   -0.000081   0.126948   0.227571   0.000062  -0.001514
   18  N  2  S    0.002205   0.409487  -0.550209  -0.000335  -0.010440
   19  N  2  X    0.002117  -0.567500  -0.300668  -0.002680   0.002107
   20  N  2  Y    0.083231   0.489872  -0.233717  -0.128033   0.026897
   21  N  2  Z    0.468845  -0.083707   0.042062  -0.731522   0.142369
   22  N  2  X   -0.002559   1.303354   1.125889   0.004499  -0.001832
   23  N  2  Y   -0.068912  -0.961394   0.961314   0.223289  -0.095405
   24  N  2  Z   -0.380380   0.163595  -0.172383   1.275426  -0.547725
   25  N  2 XX    0.000238   0.013317   0.012279   0.000130  -0.000868
   26  N  2 YY   -0.014721  -0.014284   0.043561   0.009035  -0.007059
   27  N  2 ZZ    0.014483   0.000967  -0.055840  -0.009165   0.007927
   28  N  2 XY    0.003012  -0.010821  -0.109104   0.003724   0.001043
   29  N  2 XZ    0.018478   0.001844   0.018829   0.020521   0.009466
   30  N  2 YZ   -0.046922   0.003216  -0.020355   0.028912  -0.021293
   31  O  3  S   -0.000025  -0.016712  -0.052707  -0.000005  -0.000398
   32  O  3  S    0.000303   0.075837   0.125373   0.000067   0.001344
   33  O  3  S   -0.001562   0.182387   1.048631  -0.000110   0.001587
   34  O  3  X    0.001104  -0.124464  -0.215176  -0.000282  -0.008101
   35  O  3  Y    0.034513   0.090467  -0.134399  -0.018162  -0.153087
   36  O  3  Z    0.197850  -0.015380   0.024284  -0.103206  -0.852890
   37  O  3  X   -0.000902   0.053756   0.796019  -0.000625   0.013189
   38  O  3  Y   -0.009935   0.146985   0.339803  -0.024023   0.211052
   39  O  3  Z   -0.055288  -0.025926  -0.062324  -0.137654   1.160220
   40  O  3 XX   -0.000069  -0.005572   0.035085  -0.000233  -0.000290
   41  O  3 YY    0.005205   0.011678   0.011647   0.000417  -0.006793
   42  O  3 ZZ   -0.005137  -0.006106  -0.046732  -0.000184   0.007083
   43  O  3 XY    0.000895   0.062081   0.060566  -0.006362  -0.002106
   44  O  3 XZ    0.005169  -0.010864  -0.010944  -0.036436  -0.010142
   45  O  3 YZ    0.016522  -0.003957  -0.012420   0.001363  -0.021018
   46  H  4  S    0.000093  -0.134128  -0.114158  -0.000146  -0.003943
   47  H  4  S   -0.000806   0.392265   0.203147   0.000042   0.002782
   48  H  4  X   -0.000169   0.061202   0.031229  -0.000090   0.000192
   49  H  4  Y   -0.004569   0.006221   0.000187  -0.002634   0.014264
   50  H  4  Z   -0.025961  -0.001297  -0.000077  -0.014941   0.083261
   51  H  5  S   -0.000452   0.105443   0.257356  -0.000173   0.002176
   52  H  5  S    0.000236  -0.370395  -0.564425   0.000057   0.000795
   53  H  5  X    0.000053   0.013021   0.042663   0.000002  -0.000209
   54  H  5  Y    0.000333   0.061199   0.038288  -0.001376  -0.005575
   55  H  5  Z    0.002144  -0.010799  -0.006896  -0.007759  -0.032016

                     26         27         28         29         30
                    0.7875     0.8357     0.9175     1.0152     1.1730
                     A          A          A          A          A   
    1  N  1  S   -0.026911   0.065278   0.026539   0.003360   0.041114
    2  N  1  S    0.350638  -0.929933  -0.506661  -0.304356  -1.384169
    3  N  1  S   -0.514178   0.427540   0.596309   1.567656   4.489267
    4  N  1  X   -0.194368  -0.102808  -0.187074  -0.340012   0.124529
    5  N  1  Y    0.016569   0.144840   0.002765  -0.372049   0.142513
    6  N  1  Z   -0.000984  -0.024897   0.000389   0.066296  -0.025420
    7  N  1  X    0.514119   0.538821   1.315584   1.629144  -2.026479
    8  N  1  Y   -0.217795  -0.550217   0.071966   1.498221   0.716484
    9  N  1  Z    0.035631   0.094250  -0.017987  -0.268245  -0.118438
   10  N  1 XX    0.006736  -0.026613  -0.005992  -0.064268  -0.118442
   11  N  1 YY    0.035519  -0.012544  -0.076635   0.086437   0.038514
   12  N  1 ZZ   -0.042255   0.039157   0.082627  -0.022169   0.079928
   13  N  1 XY    0.003158   0.091744   0.006954  -0.061822  -0.028748
   14  N  1 XZ   -0.001284  -0.015752  -0.000727   0.011644   0.004745
   15  N  1 YZ   -0.016546   0.010459   0.033251  -0.022085   0.008269
   16  N  2  S    0.004533   0.039129   0.048455  -0.027874  -0.024676
   17  N  2  S    0.169724  -0.803790  -0.928023   0.590867   0.947820
   18  N  2  S    1.094459   1.871549   2.141305  -1.450449  -3.503186
   19  N  2  X   -0.181887  -0.229758   0.014595   0.083175   0.091387
   20  N  2  Y   -0.188313  -0.060997  -0.048944  -0.130260   0.049621
   21  N  2  Z    0.035031   0.011574   0.008578   0.022742  -0.009244
   22  N  2  X    0.023928   0.708305  -0.537300  -0.722948  -1.619366
   23  N  2  Y   -0.021350  -0.641339  -0.466117   0.151174   1.346492
   24  N  2  Z   -0.001564   0.109672   0.083595  -0.024565  -0.229524
   25  N  2 XX    0.101992  -0.051556  -0.018206   0.100764   0.073495
   26  N  2 YY    0.030173   0.005079  -0.048032  -0.075899  -0.058165
   27  N  2 ZZ   -0.132165   0.046477   0.066237  -0.024865  -0.015330
   28  N  2 XY    0.063031   0.050603  -0.010265  -0.039556   0.101430
   29  N  2 XZ   -0.011944  -0.008445   0.002150   0.006352  -0.018029
   30  N  2 YZ   -0.034309   0.008476   0.023935   0.011067   0.007978
   31  O  3  S    0.045478   0.035064   0.013128  -0.000725  -0.029670
   32  O  3  S   -0.154285  -0.192574  -0.078106  -0.038653   0.399146
   33  O  3  S   -0.161772  -0.072418  -0.498769   0.155362  -0.312904
   34  O  3  X    0.553596   0.334680  -0.355284  -0.015097   0.057128
   35  O  3  Y    0.428959  -0.363354   0.521780  -0.278809   0.225972
   36  O  3  Z   -0.085138   0.062404  -0.090252   0.047807  -0.039097
   37  O  3  X   -1.020756  -0.801090   0.317139   0.327465  -0.034871
   38  O  3  Y   -0.862928   0.489256  -1.082512   0.348318  -0.628326
   39  O  3  Z    0.165775  -0.082718   0.188628  -0.060293   0.108745
   40  O  3 XX    0.026892   0.034175  -0.069662  -0.034539   0.028492
   41  O  3 YY    0.016911  -0.041924   0.017477   0.085757   0.013330
   42  O  3 ZZ   -0.043803   0.007749   0.052185  -0.051218  -0.041821
   43  O  3 XY    0.025867  -0.046965  -0.019486   0.003376   0.091318
   44  O  3 XZ   -0.004955   0.008091   0.003878  -0.000905  -0.015911
   45  O  3 YZ   -0.012960   0.010561   0.007348  -0.028446  -0.012091
   46  H  4  S    0.357513   0.189695   0.021435   0.743498  -0.589727
   47  H  4  S   -0.350142  -0.327115  -0.451187   0.446569  -0.495780
   48  H  4  X    0.004537  -0.027015  -0.033583  -0.020489   0.015989
   49  H  4  Y    0.021136   0.037895  -0.010319  -0.036126  -0.153428
   50  H  4  Z   -0.002867  -0.006613   0.001738   0.006007   0.027477
   51  H  5  S   -0.123090   0.028705  -0.511766  -1.063280   0.151645
   52  H  5  S   -0.015965  -0.648147  -0.565979  -0.660060   0.135432
   53  H  5  X    0.000372   0.041354   0.060207   0.069735   0.059996
   54  H  5  Y   -0.000700   0.069077  -0.029960   0.039775   0.127125
   55  H  5  Z   -0.000139  -0.012292   0.005034  -0.006770  -0.023560

                     31         32         33         34         35
                    1.3021     1.3708     1.4765     1.5901     1.6511
                     A          A          A          A          A   
    1  N  1  S    0.000096  -0.005428   0.000007   0.017586  -0.000094
    2  N  1  S   -0.002917   0.428066  -0.000267  -0.142107   0.000612
    3  N  1  S    0.009463  -1.623622   0.000971   0.499368  -0.001487
    4  N  1  X    0.000897   0.005950  -0.000397   0.040292   0.000248
    5  N  1  Y    0.004039  -0.067865  -0.020948   0.045497   0.011105
    6  N  1  Z    0.017479   0.011809  -0.120317  -0.007981   0.064703
    7  N  1  X   -0.007040   0.253605  -0.000016  -0.236296  -0.002657
    8  N  1  Y   -0.005065  -0.517419   0.010858  -0.380566   0.007294
    9  N  1  Z   -0.033303   0.089813   0.056414   0.066826   0.047438
   10  N  1 XX    0.003446  -0.281912  -0.000674  -0.074520  -0.000125
   11  N  1 YY    0.043985   0.350275   0.151877   0.318198  -0.099162
   12  N  1 ZZ   -0.047431  -0.068363  -0.151203  -0.243678   0.099287
   13  N  1 XY    0.088656   0.098030  -0.022853   0.117452   0.005360
   14  N  1 XZ    0.502597  -0.015793  -0.140454  -0.021002   0.043318
   15  N  1 YZ    0.142317  -0.087235   0.487175  -0.117469  -0.314392
   16  N  2  S   -0.000040   0.007881   0.000004  -0.007401   0.000040
   17  N  2  S    0.002198  -0.630102   0.000159   0.305299  -0.000530
   18  N  2  S   -0.007757   2.389271  -0.000143  -1.594722   0.000511
   19  N  2  X    0.000556   0.043044  -0.000125   0.104140  -0.000120
   20  N  2  Y    0.016835  -0.169748  -0.004467   0.034721   0.025721
   21  N  2  Z    0.093729   0.029627  -0.025832  -0.006184   0.147284
   22  N  2  X   -0.004233  -0.073145  -0.001547   0.569539   0.001609
   23  N  2  Y   -0.009541  -0.746654  -0.019317   0.655648  -0.008131
   24  N  2  Z   -0.074206   0.130874  -0.110195  -0.116666  -0.047266
   25  N  2 XX   -0.001046   0.223269   0.003441   0.101850   0.002050
   26  N  2 YY    0.081658  -0.391234  -0.022113  -0.037083   0.192313
   27  N  2 ZZ   -0.080612   0.167966   0.018672  -0.064767  -0.194363
   28  N  2 XY   -0.013021  -0.013883   0.104613  -0.074691   0.042771
   29  N  2 XZ   -0.082905   0.002359   0.597922   0.013561   0.232690
   30  N  2 YZ    0.258209   0.116817  -0.072304  -0.004146   0.618424
   31  O  3  S   -0.000163  -0.026509  -0.000093   0.078163  -0.000059
   32  O  3  S    0.002353   0.405251   0.001421  -1.371736   0.001005
   33  O  3  S   -0.002895  -1.109152  -0.002360   2.528670  -0.000793
   34  O  3  X   -0.000250   0.023188   0.000158  -0.137213   0.000785
   35  O  3  Y   -0.020435  -0.069958   0.001675   0.055503   0.016497
   36  O  3  Z   -0.121736   0.012026   0.009287  -0.008889   0.095684
   37  O  3  X   -0.000033  -0.329489  -0.000071   0.919837  -0.000962
   38  O  3  Y    0.042045  -0.391196   0.031916   0.197609   0.004659
   39  O  3  Z    0.250987   0.069883   0.184353  -0.038042   0.021949
   40  O  3 XX   -0.000185  -0.196767  -0.001031  -0.142297  -0.002588
   41  O  3 YY    0.023026   0.049886  -0.055312   0.008221  -0.055780
   42  O  3 ZZ   -0.022841   0.146882   0.056343   0.134075   0.058367
   43  O  3 XY   -0.021242   0.190875  -0.037252  -0.029639  -0.061177
   44  O  3 XZ   -0.124237  -0.032021  -0.209359   0.005598  -0.344739
   45  O  3 YZ    0.075297   0.019433  -0.175882   0.025586  -0.181263
   46  H  4  S   -0.002426   0.146552   0.000305  -0.498315   0.000217
   47  H  4  S   -0.000584  -0.296073   0.000426  -0.219413  -0.000557
   48  H  4  X   -0.000883   0.279968  -0.000306   0.050579  -0.000825
   49  H  4  Y   -0.063444  -0.327821  -0.032357   0.148026   0.030219
   50  H  4  Z   -0.366442   0.055816  -0.185900  -0.025634   0.178033
   51  H  5  S    0.001315   0.371106  -0.000238   0.032679   0.002102
   52  H  5  S    0.001222   0.109336   0.000037   0.024731   0.000413
   53  H  5  X    0.001815  -0.034845   0.000171  -0.142673  -0.000070
   54  H  5  Y    0.075978   0.127002   0.000801   0.359127  -0.041628
   55  H  5  Z    0.432345  -0.021451   0.007677  -0.061950  -0.231246

                     36         37         38         39         40
                    1.6725     1.8051     1.8886     1.9288     2.1620
                     A          A          A          A          A   
    1  N  1  S   -0.020889   0.000010  -0.002729   0.034710  -0.030185
    2  N  1  S   -0.020077  -0.001252   0.169340  -0.466632   0.162110
    3  N  1  S    0.434353   0.003145  -1.124735   0.688036   0.030142
    4  N  1  X    0.019345   0.000254   0.137154   0.126858   0.195478
    5  N  1  Y    0.002688   0.003938  -0.075839  -0.000790   0.048482
    6  N  1  Z   -0.000920   0.022313   0.012587  -0.000185  -0.009169
    7  N  1  X   -1.401296  -0.004111   0.104767  -0.482354   0.031710
    8  N  1  Y   -0.423130  -0.072660  -0.578102   0.437639   0.278080
    9  N  1  Z    0.079586  -0.421273   0.100720  -0.074082  -0.048603
   10  N  1 XX   -0.099937   0.001170  -0.137117   0.197761  -0.312615
   11  N  1 YY   -0.144518   0.031662   0.238103   0.073440   0.424423
   12  N  1 ZZ    0.244455  -0.032832  -0.100986  -0.271201  -0.111808
   13  N  1 XY   -0.291264   0.017598   0.007168   0.050655  -0.270562
   14  N  1 XZ    0.052798   0.100213  -0.001366  -0.011036   0.049464
   15  N  1 YZ    0.083544   0.102711  -0.070160  -0.072160  -0.111393
   16  N  2  S    0.013140   0.000050  -0.006216   0.010712   0.014109
   17  N  2  S    0.163721  -0.000146  -0.399422  -0.145174  -0.414212
   18  N  2  S   -1.740523  -0.003018   2.058317  -0.424367   0.589098
   19  N  2  X   -0.148181  -0.000445  -0.082705  -0.041377  -0.178861
   20  N  2  Y    0.060952  -0.000108  -0.088537   0.047698   0.113631
   21  N  2  Z   -0.010450  -0.002275   0.015650  -0.008197  -0.019144
   22  N  2  X    0.976167   0.000925   0.000200  -0.262780  -0.408826
   23  N  2  Y    0.805156   0.036968  -0.720116   0.077727  -0.332318
   24  N  2  Z   -0.144843   0.205614   0.126191  -0.013081   0.059797
   25  N  2 XX    0.186349   0.001317   0.208783   0.496430   0.185090
   26  N  2 YY   -0.309127   0.004855  -0.167347  -0.197334   0.246748
   27  N  2 ZZ    0.122777  -0.006172  -0.041437  -0.299096  -0.431839
   28  N  2 XY   -0.152461   0.019384  -0.051021   0.050565   0.209223
   29  N  2 XZ    0.025796   0.111329   0.008034  -0.012645  -0.039228
   30  N  2 YZ    0.089036   0.017965   0.025792  -0.021256  -0.142561
   31  O  3  S    0.031604  -0.000002  -0.012427   0.015802   0.023864
   32  O  3  S   -0.742752  -0.000046   0.649915  -0.018015  -0.044611
   33  O  3  S    1.927824   0.000659  -1.591539  -0.236366  -0.541249
   34  O  3  X    0.088479   0.000390  -0.042033  -0.094192  -0.233497
   35  O  3  Y   -0.031345   0.010342   0.012135  -0.089376  -0.068581
   36  O  3  Z    0.004785   0.059775  -0.001988   0.015931   0.012687
   37  O  3  X    0.428958  -0.000577  -0.613728  -0.027587  -0.018426
   38  O  3  Y    0.441357  -0.025751  -0.200080  -0.054819  -0.128677
   39  O  3  Z   -0.078542  -0.149231   0.037327   0.009827   0.022839
   40  O  3 XX   -0.248527   0.001196   0.136719  -0.091470   0.357480
   41  O  3 YY    0.230783  -0.098158   0.366024   0.214914  -0.476143
   42  O  3 ZZ    0.017744   0.096962  -0.502742  -0.123444   0.118663
   43  O  3 XY   -0.016154   0.039436  -0.254748   0.131147  -0.050002
   44  O  3 XZ    0.004378   0.233017   0.041531  -0.023429   0.009891
   45  O  3 YZ   -0.043316  -0.316902  -0.179410  -0.070397   0.120908
   46  H  4  S   -0.329765  -0.000726  -0.070280  -0.156635   0.045281
   47  H  4  S   -0.404151  -0.000100   0.050858   0.165390   0.028051
   48  H  4  X   -0.343690   0.002534  -0.432911   0.279624  -0.040395
   49  H  4  Y   -0.294824   0.126160   0.318859   0.324679  -0.055416
   50  H  4  Z    0.050408   0.724482  -0.054202  -0.058669   0.008550
   51  H  5  S    0.701668   0.000141   0.268412  -0.093267   0.018009
   52  H  5  S    0.178004   0.000224   0.040776   0.102762  -0.127932
   53  H  5  X    0.234606   0.002879   0.010033   0.116888   0.476181
   54  H  5  Y   -0.235843   0.091741   0.305841  -0.595984  -0.044047
   55  H  5  Z    0.041197   0.533442  -0.052920   0.102769   0.004559

                     41         42         43         44         45
                    2.1741     2.2624     2.3219     2.3439     2.5117
                     A          A          A          A          A   
    1  N  1  S   -0.000154   0.021831  -0.000080   0.013407   0.023226
    2  N  1  S    0.000096  -0.642923  -0.000359  -0.002433   0.338575
    3  N  1  S    0.003600   0.774632   0.014624  -1.455299  -1.553239
    4  N  1  X    0.000231   0.104577   0.000593   0.089616   0.674372
    5  N  1  Y   -0.005725  -0.179862   0.014473  -0.192254   0.006480
    6  N  1  Z   -0.035074   0.030988   0.071374   0.034169  -0.003904
    7  N  1  X   -0.001483  -0.548317  -0.003472   0.441387   1.131808
    8  N  1  Y   -0.007971   0.254581   0.059976  -0.682586  -0.246471
    9  N  1  Z   -0.058371  -0.043194   0.298829   0.121396   0.037952
   10  N  1 XX   -0.003279   0.299188  -0.000324   0.194395  -0.064320
   11  N  1 YY    0.041049   0.213132   0.224319  -0.296362  -0.320845
   12  N  1 ZZ   -0.037770  -0.512320  -0.223995   0.101967   0.385165
   13  N  1 XY   -0.055238  -0.420389   0.043833   0.001827   0.136462
   14  N  1 XZ   -0.312781   0.069353   0.240431   0.001803  -0.019960
   15  N  1 YZ    0.124883  -0.151351   0.704885   0.092566   0.144098
   16  N  2  S    0.000071   0.020234   0.000033  -0.003027  -0.031564
   17  N  2  S   -0.000845  -0.265334   0.008170  -0.779861  -0.032706
   18  N  2  S   -0.001650  -0.079603  -0.025613   2.469012   1.599184
   19  N  2  X   -0.000856  -0.297487  -0.002592   0.182159   0.100833
   20  N  2  Y   -0.003339   0.190871  -0.003436   0.073933  -0.233695
   21  N  2  Z   -0.022319  -0.032335  -0.015258  -0.013826   0.040746
   22  N  2  X   -0.002847   0.017905  -0.003595   0.369704   0.691219
   23  N  2  Y   -0.006376  -0.127992  -0.044904  -1.119486  -0.611770
   24  N  2  Z   -0.037527   0.022917  -0.323816   0.190764   0.106139
   25  N  2 XX    0.000351  -0.122690  -0.005696   0.308128   0.000662
   26  N  2 YY    0.020204   0.162488   0.121586   0.373576   0.237831
   27  N  2 ZZ   -0.020555  -0.039798  -0.115889  -0.681704  -0.238493
   28  N  2 XY   -0.002363  -0.578512  -0.043900   0.095796  -0.516237
   29  N  2 XZ   -0.022353   0.102085  -0.240233  -0.023826   0.091500
   30  N  2 YZ    0.061538  -0.040633   0.401880  -0.214857  -0.100370
   31  O  3  S    0.000104  -0.036952  -0.000347   0.020939  -0.014953
   32  O  3  S   -0.000440   0.386455   0.001867  -0.096691   0.156716
   33  O  3  S   -0.001238  -0.390566   0.006017  -0.556387  -0.209681
   34  O  3  X   -0.000807   0.218643   0.002401  -0.156407   0.104512
   35  O  3  Y    0.006489   0.131874  -0.000883  -0.157833   0.041627
   36  O  3  Z    0.038570  -0.023829  -0.018185   0.028019  -0.007570
   37  O  3  X    0.000182  -0.291504   0.002605  -0.251572  -0.187991
   38  O  3  Y   -0.010047  -0.136965   0.016049   0.075267   0.042096
   39  O  3  Z   -0.054645   0.024811   0.097088  -0.011111  -0.007167
   40  O  3 XX   -0.001402  -0.081600   0.002975  -0.173722  -0.287828
   41  O  3 YY    0.211069  -0.034852   0.049322   0.306821   0.176165
   42  O  3 ZZ   -0.209667   0.116451  -0.052297  -0.133099   0.111662
   43  O  3 XY   -0.076097  -0.098054   0.040975   0.334284   0.023636
   44  O  3 XZ   -0.450341   0.017353   0.255146  -0.055397  -0.003672
   45  O  3 YZ    0.684521   0.031751   0.167947  -0.090579  -0.012491
   46  H  4  S   -0.000256  -0.119621   0.000006   0.010658   0.455007
   47  H  4  S   -0.000006  -0.155324   0.003239  -0.273358   0.262764
   48  H  4  X    0.000965   0.020252   0.003543  -0.147494   0.467146
   49  H  4  Y    0.064293  -0.216354   0.050966  -0.372576   0.419510
   50  H  4  Z    0.371457   0.036834   0.267250   0.068953  -0.073591
   51  H  5  S   -0.000186   0.034779  -0.001247   0.125238  -0.374656
   52  H  5  S   -0.000274   0.088403  -0.000932   0.045935  -0.369153
   53  H  5  X    0.003211  -0.198511   0.000949  -0.251274   0.626222
   54  H  5  Y    0.055708   0.028941  -0.109927   0.354961   0.378270
   55  H  5  Z    0.322897  -0.002852  -0.609307  -0.067879  -0.069053

                     46         47         48         49         50
                    2.5844     2.6851     2.7039     2.7914     2.9383
                     A          A          A          A          A   
    1  N  1  S   -0.000105  -0.005872   0.000097   0.064904   0.042657
    2  N  1  S   -0.001373   0.011879   0.000443  -0.165297   0.072733
    3  N  1  S    0.006378  -0.011213  -0.003496  -1.778099  -0.917802
    4  N  1  X   -0.002400   0.011855   0.000670  -0.000533  -0.022660
    5  N  1  Y   -0.005670   0.023090  -0.001590  -0.388727  -0.181163
    6  N  1  Z   -0.032980  -0.004176  -0.006945   0.068202   0.031888
    7  N  1  X   -0.005665   0.212142   0.002418   0.354322   0.406021
    8  N  1  Y   -0.028580   0.221466   0.010318  -0.718235  -0.257205
    9  N  1  Z   -0.167963  -0.039646   0.063984   0.124418   0.043577
   10  N  1 XX    0.005790  -0.323246  -0.002723  -0.497678  -0.174016
   11  N  1 YY   -0.088161   0.362104  -0.045128   0.034317  -0.185333
   12  N  1 ZZ    0.082371  -0.038858   0.047851   0.463361   0.359350
   13  N  1 XY    0.132714   0.254684  -0.066206   0.642574   0.052326
   14  N  1 XZ    0.771218  -0.043418  -0.378803  -0.107168  -0.006836
   15  N  1 YZ   -0.285051  -0.085502  -0.141331   0.087441   0.113231
   16  N  2  S    0.000171  -0.014895  -0.000105  -0.080658   0.030602
   17  N  2  S   -0.000243  -0.038114   0.000398   0.029743  -0.197940
   18  N  2  S   -0.006534   0.085184   0.003766   2.497573  -0.534879
   19  N  2  X   -0.000350  -0.006985  -0.000008   0.033068   0.464674
   20  N  2  Y    0.007266  -0.051348  -0.011552  -0.418859   0.188486
   21  N  2  Z    0.034376   0.009033  -0.061542   0.073334  -0.034651
   22  N  2  X   -0.001891  -0.031548  -0.000144   0.285943   0.884019
   23  N  2  Y    0.028175  -0.258867  -0.055406  -0.861020   0.317246
   24  N  2  Z    0.145943   0.045211  -0.310566   0.150088  -0.058641
   25  N  2 XX    0.004293  -0.435668   0.004032   0.540560   0.112949
   26  N  2 YY   -0.116863   0.519941   0.159640   0.057012  -0.236862
   27  N  2 ZZ    0.112570  -0.084273  -0.163672  -0.597573   0.123913
   28  N  2 XY    0.115999   0.081018   0.086003  -0.423365  -0.738938
   29  N  2 XZ    0.658853  -0.011636   0.486622   0.069159   0.129506
   30  N  2 YZ   -0.369720  -0.126023   0.511258  -0.135678   0.077974
   31  O  3  S    0.000050   0.004760  -0.000024   0.004040  -0.015790
   32  O  3  S   -0.000479  -0.333480   0.000994   0.402533  -0.786812
   33  O  3  S    0.000786   0.465281  -0.001859  -1.238068   2.170679
   34  O  3  X   -0.000307  -0.067507   0.000104  -0.031248   0.083755
   35  O  3  Y    0.000440   0.040186  -0.004818  -0.021991   0.099231
   36  O  3  Z    0.003691  -0.006813  -0.027529   0.003984  -0.017654
   37  O  3  X    0.000707   0.252697   0.000230  -0.593339   1.102719
   38  O  3  Y    0.005548  -0.125411   0.057415  -0.327594   0.258810
   39  O  3  Z    0.031053   0.021293   0.328677   0.059234  -0.049499
   40  O  3 XX    0.001580  -0.131278   0.004586  -0.107565   0.900242
   41  O  3 YY    0.114810   0.514571   0.111267  -0.246759  -0.245296
   42  O  3 ZZ   -0.116390  -0.383293  -0.115853   0.354324  -0.654946
   43  O  3 XY    0.019799  -0.403373   0.132049  -0.411950   0.222575
   44  O  3 XZ    0.101920   0.069957   0.746339   0.073610  -0.045890
   45  O  3 YZ    0.369532  -0.184527   0.357988   0.126624  -0.085983
   46  H  4  S   -0.001803  -0.267185   0.001342  -0.009556  -0.140906
   47  H  4  S   -0.000962  -0.089053   0.000511  -0.140380   0.036020
   48  H  4  X   -0.001057   0.370032  -0.000849  -0.273542   0.439308
   49  H  4  Y    0.038225  -0.497578  -0.041245  -0.073512  -0.188818
   50  H  4  Z    0.227059   0.084988  -0.244163   0.014236   0.031394
   51  H  5  S    0.001659  -0.104953  -0.000368   0.451054   0.167304
   52  H  5  S    0.001408  -0.054806  -0.000445   0.130807  -0.089429
   53  H  5  X   -0.003534   0.145493   0.001344  -0.408983  -0.221692
   54  H  5  Y   -0.058523  -0.313727   0.044931  -0.318891  -0.026794
   55  H  5  Z   -0.328506   0.054583   0.254211   0.057014   0.005709

                     51         52
                    3.1836     3.5511
                     A          A   
    1  N  1  S   -0.002871  -0.084371
    2  N  1  S    0.141921  -0.018530
    3  N  1  S   -0.156172   1.956894
    4  N  1  X   -0.130129   0.467936
    5  N  1  Y    0.076889   0.071875
    6  N  1  Z   -0.012932  -0.014656
    7  N  1  X    0.125981   0.031227
    8  N  1  Y   -0.026560   0.214037
    9  N  1  Z    0.004247  -0.038055
   10  N  1 XX    0.348036   1.018532
   11  N  1 YY   -0.414793  -0.364308
   12  N  1 ZZ    0.066758  -0.654224
   13  N  1 XY   -0.468721   0.912189
   14  N  1 XZ    0.080693  -0.166919
   15  N  1 YZ    0.102073  -0.063897
   16  N  2  S   -0.023763  -0.005114
   17  N  2  S   -0.044849   0.166107
   18  N  2  S    0.970883  -0.831832
   19  N  2  X   -0.345733   0.101234
   20  N  2  Y   -0.027356   0.030357
   21  N  2  Z    0.006028  -0.005652
   22  N  2  X   -0.585962  -0.232812
   23  N  2  Y   -0.184138   0.380297
   24  N  2  Z    0.034391  -0.065760
   25  N  2 XX    0.597963   0.274465
   26  N  2 YY   -0.417940  -0.296522
   27  N  2 ZZ   -0.180024   0.022057
   28  N  2 XY    0.551588  -0.149197
   29  N  2 XZ   -0.099875   0.025140
   30  N  2 YZ    0.047555   0.067146
   31  O  3  S    0.025534  -0.007117
   32  O  3  S    0.068338  -0.073252
   33  O  3  S   -0.863744   0.374168
   34  O  3  X   -0.175151   0.054238
   35  O  3  Y   -0.074204   0.006011
   36  O  3  Z    0.013670  -0.001252
   37  O  3  X   -0.265486   0.198390
   38  O  3  Y   -0.698686  -0.131523
   39  O  3  Z    0.123062   0.022284
   40  O  3 XX   -0.009649   0.210116
   41  O  3 YY   -0.086508  -0.171168
   42  O  3 ZZ    0.096157  -0.038948
   43  O  3 XY   -0.852615  -0.127362
   44  O  3 XZ    0.149460   0.021227
   45  O  3 YZ    0.041676   0.028087
   46  H  4  S   -0.004078  -0.512227
   47  H  4  S   -0.164558  -0.188907
   48  H  4  X    0.570749  -0.363250
   49  H  4  Y   -0.135202  -0.555032
   50  H  4  Z    0.021578   0.097659
   51  H  5  S    0.029156  -1.259891
   52  H  5  S    0.051760  -0.182721
   53  H  5  X   -0.182228   1.081901
   54  H  5  Y    0.320209   0.304860
   55  H  5  Z   -0.055246  -0.058210
 ...... END OF RHF CALCULATION ......
 STEP CPU TIME =     4.57 TOTAL CPU TIME =          4.8 (      0.1 MIN)
 TOTAL WALL CLOCK TIME=          4.8 SECONDS, CPU UTILIZATION IS    99.37%

     ---------------------------------------------------------------------
     PROPERTIES FOR THE PBE      DFT FUNCTIONAL (RHF  TYPE) DENSITY MATRIX
     ---------------------------------------------------------------------

          -----------------
          ENERGY COMPONENTS
          -----------------

         WAVEFUNCTION NORMALIZATION =       1.0000000000

                ONE ELECTRON ENERGY =    -397.3997795842
                TWO ELECTRON ENERGY =     138.8013376884
           NUCLEAR REPULSION ENERGY =      73.0125314008
                                      ------------------
                       TOTAL ENERGY =    -185.5859104950

 ELECTRON-ELECTRON POTENTIAL ENERGY =     138.8013376884
  NUCLEUS-ELECTRON POTENTIAL ENERGY =    -582.4793152073
   NUCLEUS-NUCLEUS POTENTIAL ENERGY =      73.0125314008
                                      ------------------
             TOTAL POTENTIAL ENERGY =    -370.6654461181
               TOTAL KINETIC ENERGY =     185.0795356231
                 VIRIAL RATIO (V/T) =       2.0027359852

          ---------------------------------------
          MULLIKEN AND LOWDIN POPULATION ANALYSES
          ---------------------------------------

     ATOMIC MULLIKEN POPULATION IN EACH MOLECULAR ORBITAL

                      1          2          3          4          5

                  2.000000   2.000000   2.000000   2.000000   2.000000

    1            -0.000025   0.001787   1.999089   0.298356   0.840911
    2             0.001772   1.997951   0.000865   0.836368   0.432378
    3             1.998083   0.000125   0.000035   0.830707   0.620611
    4             0.000168   0.000084   0.000235   0.029060   0.001950
    5             0.000002   0.000053  -0.000225   0.005509   0.104150

                      6          7          8          9         10

                  2.000000   2.000000   2.000000   2.000000   2.000000

    1             0.767229   0.638406   0.524343   0.508986   0.540466
    2             0.422035   0.484255   0.449677   0.954800   0.815909
    3             0.440908   0.352695   0.976110   0.531465   0.385653
    4             0.049696   0.306788   0.033775   0.002932   0.179759
    5             0.320132   0.217857   0.016095   0.001817   0.078214

                     11         12

                  2.000000   2.000000

    1             0.929452   0.139688
    2             0.020578   0.468493
    3             1.043706   1.155781
    4             0.000103   0.169795
    5             0.006162   0.066242

               ----- POPULATIONS IN EACH AO -----
                             MULLIKEN      LOWDIN
              1  N  1  S      1.99435     1.97082
              2  N  1  S      0.87075     0.53667
              3  N  1  S      0.67603     0.38313
              4  N  1  X      0.78337     0.70179
              5  N  1  Y      0.80076     0.74592
              6  N  1  Z      0.85551     0.81637
              7  N  1  X      0.21548     0.39140
              8  N  1  Y      0.39178     0.48823
              9  N  1  Z      0.56831     0.58079
             10  N  1 XX      0.00341     0.20854
             11  N  1 YY      0.00830     0.17535
             12  N  1 ZZ      0.01287     0.15819
             13  N  1 XY      0.00419     0.02741
             14  N  1 XZ      0.00359     0.00716
             15  N  1 YZ      0.00000     0.00485
             16  N  2  S      1.99488     1.97179
             17  N  2  S      0.92440     0.56165
             18  N  2  S      0.78188     0.42281
             19  N  2  X      0.72187     0.65831
             20  N  2  Y      0.94784     0.90615
             21  N  2  Z      0.60671     0.54969
             22  N  2  X      0.12232     0.28231
             23  N  2  Y      0.35075     0.48854
             24  N  2  Z      0.35191     0.40470
             25  N  2 XX      0.00826     0.20673
             26  N  2 YY      0.01665     0.18359
             27  N  2 ZZ      0.02980     0.17438
             28  N  2 XY      0.01815     0.05281
             29  N  2 XZ      0.00966     0.03642
             30  N  2 YZ      0.00000     0.01114
             31  O  3  S      1.99544     1.97166
             32  O  3  S      0.94122     0.68279
             33  O  3  S      0.95402     0.49738
             34  O  3  X      0.94962     0.90788
             35  O  3  Y      0.92409     0.88078
             36  O  3  Z      0.97372     0.93975
             37  O  3  X      0.46922     0.54130
             38  O  3  Y      0.51058     0.57173
             39  O  3  Z      0.59003     0.61986
             40  O  3 XX      0.00332     0.20179
             41  O  3 YY      0.00696     0.19750
             42  O  3 ZZ      0.01048     0.19604
             43  O  3 XY      0.00583     0.01654
             44  O  3 XZ      0.00134     0.00774
             45  O  3 YZ      0.00000     0.00219
             46  H  4  S      0.57124     0.46147
             47  H  4  S      0.16326     0.26812
             48  H  4  X      0.02364     0.07198
             49  H  4  Y      0.01287     0.01958
             50  H  4  Z      0.00334     0.00603
             51  H  5  S      0.71400     0.57465
             52  H  5  S      0.06850     0.18188
             53  H  5  X      0.01940     0.03642
             54  H  5  Y      0.00618     0.01600
             55  H  5  Z      0.00793     0.02126

          ----- MULLIKEN ATOMIC OVERLAP POPULATIONS -----
          (OFF-DIAGONAL ELEMENTS NEED TO BE MULTIPLIED BY 2)

             1           2           3           4           5

    1    6.6448142
    2    0.3238024   6.3831050
    3   -0.2594201   0.2647598   8.1779556
    4    0.1681816  -0.0687714   0.1402541   0.5318411
    5    0.3113101  -0.0178138   0.0123289   0.0028385   0.5073439

          TOTAL MULLIKEN AND LOWDIN ATOMIC POPULATIONS
       ATOM         MULL.POP.    CHARGE          LOW.POP.     CHARGE
    1 N             7.188688   -0.188688         7.196647   -0.196647
    2 N             6.885082    0.114918         6.911024    0.088976
    3 O             8.335878   -0.335878         8.234934   -0.234934
    4 H             0.774344    0.225656         0.827192    0.172808
    5 H             0.816008    0.183992         0.830203    0.169797

          MULLIKEN SPHERICAL HARMONIC POPULATIONS
       ATOM           S       P       D      F      G      H      I    TOTAL
    1 N             3.54    3.62    0.03   0.00   0.00   0.00   0.00    7.19
    2 N             3.70    3.10    0.08   0.00   0.00   0.00   0.00    6.89
    3 O             3.89    4.42    0.03   0.00   0.00   0.00   0.00    8.34
    4 H             0.73    0.04    0.00   0.00   0.00   0.00   0.00    0.77
    5 H             0.78    0.03    0.00   0.00   0.00   0.00   0.00    0.82

          -------------------------------
          BOND ORDER AND VALENCE ANALYSIS     BOND ORDER THRESHOLD=0.050
          -------------------------------

                   BOND                       BOND                       BOND
  ATOM PAIR DIST  ORDER      ATOM PAIR DIST  ORDER      ATOM PAIR DIST  ORDER
    1   2  1.284  1.478        1   3  2.021  0.222        1   4  1.283  0.543
    1   5  1.033  0.894        2   3  1.289  1.379        2   4  1.691  0.066
    3   4  1.417  0.400        3   5  2.995  0.057

                       TOTAL       BONDED        FREE
      ATOM            VALENCE     VALENCE     VALENCE
    1 N                 3.138       3.138      -0.000
    2 N                 2.937       2.937      -0.000
    3 O                 2.059       2.059       0.000
[...]
          XMIN,EMIN=    0.126109  -185.625989364  C0,C1,C2= -185.6146427926   -0.1799491253    0.7134685787
          EXPLICIT LINEAR SEARCH WILL BE PERFORMED



          POINT  3 ON LINEAR SEARCH...STEP=  0.05000 BOHR

          ATOM                X              Y              Z
          -------------------------------------------------------

          N                1.829175      -0.460395       0.139688
          N               -0.143079       1.086660      -0.124231
          O               -2.133813      -0.096998       0.090282
          H                1.414594      -2.293607       0.461705
          H                3.467655       0.187895       0.019327
 ...... END OF ONE-ELECTRON INTEGRALS ......
 STEP CPU TIME =     0.00 TOTAL CPU TIME =        148.2 (      2.5 MIN)
 TOTAL WALL CLOCK TIME=        150.3 SECONDS, CPU UTILIZATION IS    98.60%
 TOTAL NUMBER OF NONZERO TWO-ELECTRON INTEGRALS =             1129905
         76 INTEGRAL RECORDS WERE STORED ON DISK FILE  8.
  ...... END OF TWO-ELECTRON INTEGRALS .....
 STEP CPU TIME =     0.08 TOTAL CPU TIME =        148.3 (      2.5 MIN)
 TOTAL WALL CLOCK TIME=        150.4 SECONDS, CPU UTILIZATION IS    98.60%

          --------------------------
               R-PBE SCF CALCULATION
          --------------------------
         DENSITY MATRIX CONVERGENCE THRESHOLD=  1.00E-05
     COARSE -> FINE DFT GRID SWITCH THRESHOLD=  3.00E-04 (SWITCH IN $DFT)
                   HF -> DFT SWITCH THRESHOLD=  5.00E-03 (SWOFF IN $DFT)

 DFT CODE IS SWITCHING FROM THE FINE GRID NRAD= 96,  NLEB=  302
                      TO THE COARSE GRID NRAD0= 24, NLEB0=  110

 ITER EX DEM     TOTAL ENERGY        E CHANGE  DENSITY CHANGE    DIIS ERROR
          * * *   INITIATING DIIS PROCEDURE   * * *
   1  0  0     -185.6196381488  -185.6196381488   0.010468967   0.004060569
   2  1  0     -185.6197024308    -0.0000642820   0.008110304   0.002288937
   3  2  0     -185.6196824427     0.0000199881   0.005030991   0.002974574
   4  3  0     -185.6197295949    -0.0000471522   0.002294899   0.001592955
   5  4  0     -185.6197369830    -0.0000073882   0.000516570   0.000525068
   6  5  0     -185.6197379523    -0.0000009693   0.000075340   0.000075087
 DFT CODE IS SWITCHING BACK TO THE FINE GRID
          * * *   INITIATING DIIS PROCEDURE   * * *
   7  6  0     -185.6219047306    -0.0021667783   0.001463273   0.001121823
   8  7  0     -185.6219086158    -0.0000038851   0.001477416   0.000734475
   9  8  0     -185.6219084829     0.0000001329   0.001415664   0.000739311
  10  9  0     -185.6219094024    -0.0000009195   0.000516592   0.000585822
  11 10  0     -185.6219104955    -0.0000010931   0.000067061   0.000068045
  12 11  0     -185.6219105045    -0.0000000090   0.000027446   0.000023819
  13 12  0     -185.6219105075    -0.0000000030   0.000001837   0.000002313
  14 13  0     -185.6219105075    -0.0000000000   0.000000357   0.000000302

          -----------------
          DENSITY CONVERGED
          -----------------
     TIME TO FORM FOCK OPERATORS=       3.6 SECONDS (       0.3 SEC/ITER)
     TIME TO SOLVE SCF EQUATIONS=       0.0 SECONDS (       0.0 SEC/ITER)

 FINAL R-PBE ENERGY IS     -185.6219105075 AFTER  14 ITERATIONS
 DFT EXCHANGE + CORRELATION ENERGY =       -22.8969016465
 TOTAL ELECTRON NUMBER             =        23.9999885662
 ...... END OF RHF CALCULATION ......
 STEP CPU TIME =     3.69 TOTAL CPU TIME =        152.0 (      2.5 MIN)
 TOTAL WALL CLOCK TIME=        154.1 SECONDS, CPU UTILIZATION IS    98.59%



          POINT  4 ON LINEAR SEARCH...STEP=  0.10000 BOHR

          ATOM                X              Y              Z
          -------------------------------------------------------

          N                1.811563      -0.461186       0.139896
          N               -0.138903       1.091443      -0.125087
          O               -2.131016      -0.101776       0.091111
          H                1.410303      -2.301863       0.463158
          H                3.510883       0.200302       0.016984
 ...... END OF ONE-ELECTRON INTEGRALS ......
 STEP CPU TIME =     0.00 TOTAL CPU TIME =        152.0 (      2.5 MIN)
 TOTAL WALL CLOCK TIME=        154.1 SECONDS, CPU UTILIZATION IS    98.59%
 TOTAL NUMBER OF NONZERO TWO-ELECTRON INTEGRALS =             1129061
         76 INTEGRAL RECORDS WERE STORED ON DISK FILE  8.
  ...... END OF TWO-ELECTRON INTEGRALS .....
 STEP CPU TIME =     0.10 TOTAL CPU TIME =        152.1 (      2.5 MIN)
 TOTAL WALL CLOCK TIME=        154.2 SECONDS, CPU UTILIZATION IS    98.59%

          --------------------------
               R-PBE SCF CALCULATION
          --------------------------
         DENSITY MATRIX CONVERGENCE THRESHOLD=  1.00E-05
     COARSE -> FINE DFT GRID SWITCH THRESHOLD=  3.00E-04 (SWITCH IN $DFT)
                   HF -> DFT SWITCH THRESHOLD=  5.00E-03 (SWOFF IN $DFT)

 DFT CODE IS SWITCHING FROM THE FINE GRID NRAD= 96,  NLEB=  302
                      TO THE COARSE GRID NRAD0= 24, NLEB0=  110

 ITER EX DEM     TOTAL ENERGY        E CHANGE  DENSITY CHANGE    DIIS ERROR
          * * *   INITIATING DIIS PROCEDURE   * * *
   1  0  0     -185.6235368112  -185.6235368112   0.020793330   0.006977374
   2  1  0     -185.6237756058    -0.0002387946   0.015441288   0.004300906
   3  2  0     -185.6236758118     0.0000997940   0.009650921   0.006215260
   4  3  0     -185.6238677209    -0.0001919092   0.004179529   0.003014247
   5  4  0     -185.6238947381    -0.0000270172   0.000851094   0.000909551
   6  5  0     -185.6238974394    -0.0000027013   0.000122453   0.000125789
 DFT CODE IS SWITCHING BACK TO THE FINE GRID
          * * *   INITIATING DIIS PROCEDURE   * * *
   7  6  0     -185.6261168235    -0.0022193841   0.001417027   0.001100900
   8  7  0     -185.6261207367    -0.0000039133   0.001334788   0.000741319
   9  8  0     -185.6261208136    -0.0000000768   0.001337896   0.000650908
  10  9  0     -185.6261214410    -0.0000006275   0.000521521   0.000596942
  11 10  0     -185.6261225138    -0.0000010728   0.000071991   0.000070540
  12 11  0     -185.6261225242    -0.0000000104   0.000028445   0.000026293
  13 12  0     -185.6261225274    -0.0000000032   0.000001903   0.000002415
  14 13  0     -185.6261225275    -0.0000000000   0.000000362   0.000000249

          -----------------
          DENSITY CONVERGED
          -----------------
     TIME TO FORM FOCK OPERATORS=       3.7 SECONDS (       0.3 SEC/ITER)
     TIME TO SOLVE SCF EQUATIONS=       0.0 SECONDS (       0.0 SEC/ITER)

 FINAL R-PBE ENERGY IS     -185.6261225275 AFTER  14 ITERATIONS
 DFT EXCHANGE + CORRELATION ENERGY =       -22.8834530976
 TOTAL ELECTRON NUMBER             =        23.9999925163
 ...... END OF RHF CALCULATION ......
 STEP CPU TIME =     3.69 TOTAL CPU TIME =        155.8 (      2.6 MIN)
 TOTAL WALL CLOCK TIME=        158.0 SECONDS, CPU UTILIZATION IS    98.58%



          POINT  5 ON LINEAR SEARCH...STEP=  0.20000 BOHR

          ATOM                X              Y              Z
          -------------------------------------------------------

          N                1.776340      -0.462766       0.140312
          N               -0.130551       1.101009      -0.126798
          O               -2.125422      -0.111331       0.092769
          H                1.401723      -2.318376       0.466065
          H                3.597340       0.225116       0.012299
 ...... END OF ONE-ELECTRON INTEGRALS ......
 STEP CPU TIME =     0.00 TOTAL CPU TIME =        155.8 (      2.6 MIN)
 TOTAL WALL CLOCK TIME=        158.0 SECONDS, CPU UTILIZATION IS    98.58%
 TOTAL NUMBER OF NONZERO TWO-ELECTRON INTEGRALS =             1127003
         76 INTEGRAL RECORDS WERE STORED ON DISK FILE  8.
  ...... END OF TWO-ELECTRON INTEGRALS .....
 STEP CPU TIME =     0.08 TOTAL CPU TIME =        155.8 (      2.6 MIN)
 TOTAL WALL CLOCK TIME=        158.1 SECONDS, CPU UTILIZATION IS    98.58%

          --------------------------
               R-PBE SCF CALCULATION
          --------------------------
         DENSITY MATRIX CONVERGENCE THRESHOLD=  1.00E-05
     COARSE -> FINE DFT GRID SWITCH THRESHOLD=  3.00E-04 (SWITCH IN $DFT)
                   HF -> DFT SWITCH THRESHOLD=  5.00E-03 (SWOFF IN $DFT)

 DFT CODE IS SWITCHING FROM THE FINE GRID NRAD= 96,  NLEB=  302
                      TO THE COARSE GRID NRAD0= 24, NLEB0=  110

 ITER EX DEM     TOTAL ENERGY        E CHANGE  DENSITY CHANGE    DIIS ERROR
          * * *   INITIATING DIIS PROCEDURE   * * *
   1  0  0     -185.6243068516  -185.6243068516   0.038480167   0.012866839
   2  1  0     -185.6252269264    -0.0009200748   0.028562298   0.008011319
   3  2  0     -185.6248175376     0.0004093888   0.018201238   0.012536589
   4  3  0     -185.6255143491    -0.0006968115   0.007738940   0.005788992
   5  4  0     -185.6256124515    -0.0000981024   0.001394488   0.001579508
   6  5  0     -185.6256208135    -0.0000083619   0.000189652   0.000179111
 DFT CODE IS SWITCHING BACK TO THE FINE GRID
          * * *   INITIATING DIIS PROCEDURE   * * *
   7  6  0     -185.6274071579    -0.0017863444   0.001472104   0.000890219
   8  7  0     -185.6274108707    -0.0000037128   0.001099152   0.000666824
   9  8  0     -185.6274109121    -0.0000000414   0.001166573   0.000549524
  10  9  0     -185.6274113576    -0.0000004455   0.000480918   0.000552953
  11 10  0     -185.6274122174    -0.0000008598   0.000071334   0.000066431
  12 11  0     -185.6274122253    -0.0000000079   0.000030894   0.000028155
  13 12  0     -185.6274122292    -0.0000000039   0.000002075   0.000002643
  14 13  0     -185.6274122292    -0.0000000000   0.000000387   0.000000352

          -----------------
          DENSITY CONVERGED
          -----------------
     TIME TO FORM FOCK OPERATORS=       3.6 SECONDS (       0.3 SEC/ITER)
     TIME TO SOLVE SCF EQUATIONS=       0.0 SECONDS (       0.0 SEC/ITER)

 FINAL R-PBE ENERGY IS     -185.6274122292 AFTER  14 ITERATIONS
 DFT EXCHANGE + CORRELATION ENERGY =       -22.8591051934
 TOTAL ELECTRON NUMBER             =        24.0000011784
 ...... END OF RHF CALCULATION ......
 STEP CPU TIME =     3.69 TOTAL CPU TIME =        159.5 (      2.7 MIN)
 TOTAL WALL CLOCK TIME=        161.8 SECONDS, CPU UTILIZATION IS    98.57%



          POINT  6 ON LINEAR SEARCH...STEP=  0.40000 BOHR

          ATOM                X              Y              Z
          -------------------------------------------------------

          N                1.705895      -0.465927       0.141144
          N               -0.113846       1.120141      -0.130221
          O               -2.114235      -0.130443       0.096086
          H                1.384562      -2.351401       0.471879
          H                3.770252       0.274745       0.002927
 ...... END OF ONE-ELECTRON INTEGRALS ......
 STEP CPU TIME =     0.00 TOTAL CPU TIME =        159.5 (      2.7 MIN)
 TOTAL WALL CLOCK TIME=        161.8 SECONDS, CPU UTILIZATION IS    98.57%
 TOTAL NUMBER OF NONZERO TWO-ELECTRON INTEGRALS =             1122300
         75 INTEGRAL RECORDS WERE STORED ON DISK FILE  8.
  ...... END OF TWO-ELECTRON INTEGRALS .....
 STEP CPU TIME =     0.16 TOTAL CPU TIME =        159.7 (      2.7 MIN)
 TOTAL WALL CLOCK TIME=        162.3 SECONDS, CPU UTILIZATION IS    98.39%

          --------------------------
               R-PBE SCF CALCULATION
          --------------------------
         DENSITY MATRIX CONVERGENCE THRESHOLD=  1.00E-05
     COARSE -> FINE DFT GRID SWITCH THRESHOLD=  3.00E-04 (SWITCH IN $DFT)
                   HF -> DFT SWITCH THRESHOLD=  5.00E-03 (SWOFF IN $DFT)

 DFT CODE IS SWITCHING FROM THE FINE GRID NRAD= 96,  NLEB=  302
                      TO THE COARSE GRID NRAD0= 24, NLEB0=  110

 ITER EX DEM     TOTAL ENERGY        E CHANGE  DENSITY CHANGE    DIIS ERROR
          * * *   INITIATING DIIS PROCEDURE   * * *
   1  0  0     -185.6054559368  -185.6054559368   0.060555710   0.027336004
   2  1  0     -185.6090815093    -0.0036255725   0.051080592   0.015295081
   3  2  0     -185.6076538519     0.0014276574   0.033657240   0.021525277
   4  3  0     -185.6098480468    -0.0021941949   0.014654876   0.011660651
   5  4  0     -185.6102295865    -0.0003815396   0.002352940   0.002885729
   6  5  0     -185.6102541280    -0.0000245415   0.000327236   0.000336180
   7  6  0     -185.6102544949    -0.0000003669   0.000094268   0.000087591
 DFT CODE IS SWITCHING BACK TO THE FINE GRID
          * * *   INITIATING DIIS PROCEDURE   * * *
   8  7  0     -185.6115607864    -0.0013062914   0.001686828   0.000893686
   9  8  0     -185.6115639061    -0.0000031197   0.001144788   0.000738836
  10  9  0     -185.6115639759    -0.0000000699   0.001275869   0.000611728
  11 10  0     -185.6115644800    -0.0000005040   0.000544954   0.000651554
  12 11  0     -185.6115656257    -0.0000011457   0.000066199   0.000067299
  13 12  0     -185.6115656327    -0.0000000071   0.000032406   0.000028793
  14 13  0     -185.6115656368    -0.0000000040   0.000002756   0.000003568
  15 14  0     -185.6115656368    -0.0000000000   0.000000492   0.000000430

          -----------------
          DENSITY CONVERGED
          -----------------
     TIME TO FORM FOCK OPERATORS=       3.7 SECONDS (       0.2 SEC/ITER)
     TIME TO SOLVE SCF EQUATIONS=       0.0 SECONDS (       0.0 SEC/ITER)

 FINAL R-PBE ENERGY IS     -185.6115656368 AFTER  15 ITERATIONS
 DFT EXCHANGE + CORRELATION ENERGY =       -22.8189108257
 TOTAL ELECTRON NUMBER             =        24.0000156823
 ...... END OF RHF CALCULATION ......
 STEP CPU TIME =     3.73 TOTAL CPU TIME =        163.4 (      2.7 MIN)
 TOTAL WALL CLOCK TIME=        166.1 SECONDS, CPU UTILIZATION IS    98.38%

 THE PARABOLIC FIT IS -
 -185.618690827 +   -0.105026997 * STEP +   0.307099932 * STEP**2 = E(STEP)
 THE MINIMUM OF THE FIT IS AT STEP=    0.170998
 WITH A PREDICTED ENERGY OF     -185.6276705345
 STABILIZED POINT QC' ON THE IRC HAS BEEN FOUND
 THE DISTANCE FROM QB TO QC (OR QC') IS   0.13232 SQRT(AMU)-BOHR)
  TOTAL PATH DISTANCE TO QC (OR QC') IS   2.10394 SQRT(AMU)-BOHR)
 ......NEXT POINT ON IRC FOUND......RENAMING QC(QC')-->QB-->QA.

 THE NUCLEAR REPULSION AT THE IRC POINT IS       72.4659375025

 * * * IRC RESTART INFORMATION * * *
 COORDINATES FOR $DATA AND ENTIRE $IRC GROUP FOLLOW

 COORDINATES OF SYMMETRY UNIQUE ATOMS (ANGS)
   ATOM   CHARGE       X              Y              Z
 ------------------------------------------------------------
 N           7.0   0.9454046787  -0.2446426998   0.0741859045
 N           7.0  -0.0703663857   0.5811608311  -0.0668359978
 O           8.0  -1.1255836240  -0.0574474322   0.0488368906
 H           1.0   0.7430768047  -1.2242974772   0.2461849357
 H           1.0   1.8903616828   0.1153180133   0.0072273397
 $IRC   PACE=LINEAR     STRIDE= 0.30000   NPOINT=??
        STOTAL=  2.103944   NEXTPT=   9
        NPRT= 0   NPUN= 0   SADDLE=.FALSE.
        STABLZ=.T.   DELTA= 0.02500   ELBOW= 175.000
 $END   
1         POINT   9 ON THE REACTION PATH
          ******************************
          AT PATH DISTANCE STOTAL=   2.10394

          THE COORDINATES OF POINT QB ARE
 COORDINATES OF ALL ATOMS ARE (ANGS)
   ATOM   CHARGE       X              Y              Z
 ------------------------------------------------------------
 N           7.0   0.9454046787  -0.2446426998   0.0741859045
 N           7.0  -0.0703663857   0.5811608311  -0.0668359978
 O           8.0  -1.1255836240  -0.0574474322   0.0488368906
 H           1.0   0.7430768047  -1.2242974772   0.2461849357
 H           1.0   1.8903616828   0.1153180133   0.0072273397

          INTERNUCLEAR DISTANCES (ANGS.)
          ------------------------------

                1 N          2 N          3 O          4 H          5 H     

   1 N       0.0000000    1.3166737 *  2.0795858 *  1.0150092 *  1.0134095 *
   2 N       1.3166737 *  0.0000000    1.2388237 *  2.0048321 *  2.0166679 *
   3 O       2.0795858 *  1.2388237 *  0.0000000    2.2118718 *  3.0211762  
   4 H       1.0150092 *  2.0048321 *  2.2118718 *  0.0000000    1.7798688 *
   5 H       1.0134095 *  2.0166679 *  3.0211762    1.7798688 *  0.0000000  

  * ... LESS THAN  3.000

 ...... END OF ONE-ELECTRON INTEGRALS ......
 STEP CPU TIME =     0.00 TOTAL CPU TIME =        163.4 (      2.7 MIN)
 TOTAL WALL CLOCK TIME=        166.1 SECONDS, CPU UTILIZATION IS    98.37%
 TOTAL NUMBER OF NONZERO TWO-ELECTRON INTEGRALS =             1127610
         76 INTEGRAL RECORDS WERE STORED ON DISK FILE  8.
  ...... END OF TWO-ELECTRON INTEGRALS .....
 STEP CPU TIME =     0.09 TOTAL CPU TIME =        163.5 (      2.7 MIN)
 TOTAL WALL CLOCK TIME=        166.2 SECONDS, CPU UTILIZATION IS    98.38%

          --------------------------
               R-PBE SCF CALCULATION
          --------------------------
         DENSITY MATRIX CONVERGENCE THRESHOLD=  1.00E-05
     COARSE -> FINE DFT GRID SWITCH THRESHOLD=  3.00E-04 (SWITCH IN $DFT)
                   HF -> DFT SWITCH THRESHOLD=  5.00E-03 (SWOFF IN $DFT)

 DFT CODE IS SWITCHING FROM THE FINE GRID NRAD= 96,  NLEB=  302
                      TO THE COARSE GRID NRAD0= 24, NLEB0=  110

 ITER EX DEM     TOTAL ENERGY        E CHANGE  DENSITY CHANGE    DIIS ERROR
          * * *   INITIATING DIIS PROCEDURE   * * *
   1  0  0     -185.6195791155  -185.6195791155   0.067183773   0.024437086
   2  1  0     -185.6234369427    -0.0038578272   0.070832386   0.019345515
   3  2  0     -185.6207207528     0.0027161899   0.044915736   0.037578814
   4  3  0     -185.6253150752    -0.0045943224   0.016579513   0.012790847
   5  4  0     -185.6258821929    -0.0005671177   0.002959669   0.003349070
   6  5  0     -185.6259102223    -0.0000280293   0.000425310   0.000445790
   7  6  0     -185.6259110944    -0.0000008721   0.000096977   0.000096791
 DFT CODE IS SWITCHING BACK TO THE FINE GRID
          * * *   INITIATING DIIS PROCEDURE   * * *
   8  7  0     -185.6278676995    -0.0019566051   0.001429545   0.000997745
   9  8  0     -185.6278712284    -0.0000035289   0.001537415   0.000741698
  10  9  0     -185.6278707729     0.0000004555   0.001460856   0.000836600
  11 10  0     -185.6278719622    -0.0000011893   0.000518878   0.000603735
  12 11  0     -185.6278730623    -0.0000011001   0.000064705   0.000063497
  13 12  0     -185.6278730686    -0.0000000063   0.000029545   0.000023391
  14 13  0     -185.6278730719    -0.0000000033   0.000002116   0.000002491
  15 14  0     -185.6278730719    -0.0000000000   0.000000374   0.000000318

          -----------------
          DENSITY CONVERGED
          -----------------
     TIME TO FORM FOCK OPERATORS=       3.7 SECONDS (       0.2 SEC/ITER)
     TIME TO SOLVE SCF EQUATIONS=       0.0 SECONDS (       0.0 SEC/ITER)

 FINAL R-PBE ENERGY IS     -185.6278730719 AFTER  15 ITERATIONS
 DFT EXCHANGE + CORRELATION ENERGY =       -22.8658378170
 TOTAL ELECTRON NUMBER             =        23.9999986344
 ...... END OF RHF CALCULATION ......
 STEP CPU TIME =     3.78 TOTAL CPU TIME =        167.3 (      2.8 MIN)
 TOTAL WALL CLOCK TIME=        170.0 SECONDS, CPU UTILIZATION IS    98.37%
 CURRENT ENERGY=     -185.6278730719, IS HIGHER THAN THE
    LAST ENERGY=     -185.6284538684
 YOU ARE NO LONGER ON A STEEPEST DESCENT PATH!
 THIS IRC SHOULD BE RUN WITH SMALLER STEPS AND/OR A BETTER INTEGRATION METHOD.
 EXECUTION OF GAMESS TERMINATED -ABNORMALLY- AT Fri Oct 11 10:37:39 2019
                991402  WORDS OF DYNAMIC MEMORY USED
 STEP CPU TIME =     0.00 TOTAL CPU TIME =        167.3 (      2.8 MIN)
 TOTAL WALL CLOCK TIME=        170.1 SECONDS, CPU UTILIZATION IS    98.37%
 ddikick.x: application process 0 quit unexpectedly.
 ddikick.x: Sending kill signal to DDI processes.
 ddikick.x: Execution terminated due to error(s).
----- accounting info -----
Files used on the master node d12chas542.crc.nd.edu were:
-rw-r--r-- 1 wschnei1 campus 141402 Oct 11 10:37 /scratch365/wschnei1/ircf.F07
Fri Oct 11 10:37:41 EDT 2019
0.469u 0.417s 2:52.98 0.5%	0+0k 0+320io 0pf+0w
