----- GAMESS execution script 'rungms' -----
This job is running on host d12chas532.crc.nd.edu
under operating system Linux at Wed Oct 9 12:20:42 EDT 2019
SGE has assigned the following compute nodes to this run:
Available scratch disk space (Kbyte units) at beginning of the job is
Filesystem      1K-blocks     Used  Available Use% Mounted on
/dev/sda2      1949705068 68634712 1881070356   4% /
GAMESS temporary binary files will be written to /tmp/478909.1.debug
GAMESS supplementary output files will be written to /afs/crc.nd.edu/user/w/wschnei1/scr
Copying input file ircf.inp to your run's scratch directory...
reading your own /afs/crc.nd.edu/user/w/wschnei1/.gmsrc

 Distributed Data Interface kickoff program.
 Initiating 1 compute processes on 1 nodes to run the following command:
 /afs/crc.nd.edu/x86_64_linux/g/gamess/nov-2017/gamess/gamess.00.x ircf 

          ******************************************************
          *         GAMESS VERSION = 11 NOV 2017 (R3)         *
          *             FROM IOWA STATE UNIVERSITY             *
          * M.W.SCHMIDT, K.K.BALDRIDGE, J.A.BOATZ, S.T.ELBERT, *
          *   M.S.GORDON, J.H.JENSEN, S.KOSEKI, N.MATSUNAGA,   *
          *          K.A.NGUYEN, S.J.SU, T.L.WINDUS,           *
          *       TOGETHER WITH M.DUPUIS, J.A.MONTGOMERY       *
          *         J.COMPUT.CHEM.  14, 1347-1363(1993)        *
          **************** 64 BIT INTEL VERSION ****************

  SINCE 1993, STUDENTS AND POSTDOCS WORKING AT IOWA STATE UNIVERSITY
  AND ALSO IN THEIR VARIOUS JOBS AFTER LEAVING ISU HAVE MADE IMPORTANT
  CONTRIBUTIONS TO THE CODE:
     IVANA ADAMOVIC, CHRISTINE AIKENS, YURI ALEXEEV, POOJA ARORA,
     ANDREY ASADCHEV, ROB BELL, PRADIPTA BANDYOPADHYAY, JONATHAN BENTZ,
     BRETT BODE, KURT BRORSEN, CALEB CARLIN, GALINA CHABAN, WEI CHEN,
     CHEOL HO CHOI, PAUL DAY, ALBERT DEFUSCO, NUWAN DESILVA, TIM DUDLEY,
     DMITRI FEDOROV, ALEX FINDLATER, GRAHAM FLETCHER, MARK FREITAG,
     KURT GLAESEMANN, ANASTASIA GUININA,
     DAN KEMP, GRANT MERRILL, NORIYUKI MINEZAWA, JONATHAN MULLIN,
     TAKESHI NAGATA, SEAN NEDD, HEATHER NETZLOFF, BOSILJKA NJEGIC, RYAN OLSON,
     MIKE PAK, BUU PHAM,
     SPENCER PRUITT, LUKE ROSKOP, JIM SHOEMAKER, LYUDMILA SLIPCHENKO,
     TONY SMITH, SAROM SOK LEANG, JIE SONG, TETSUYA TAKETSUGU, SIMON WEBB,
     PENG XU, SOOHAENG YOO, FEDERICO ZAHARIEV

  ADDITIONAL CODE HAS BEEN PROVIDED BY COLLABORATORS IN OTHER GROUPS:
     IOWA STATE UNIVERSITY:
          JOE IVANIC, AARON WEST, LAIMUTIS BYTAUTAS, KLAUS RUEDENBERG
     UNIVERSITY OF TOKYO: KIMIHIKO HIRAO, TAKAHITO NAKAJIMA,
          TAKAO TSUNEDA, MUNEAKI KAMIYA, SUSUMU YANAGISAWA,
          KIYOSHI YAGI, MAHITO CHIBA, SEIKEN TOKURA, NAOAKI KAWAKAMI
     UNIVERSITY OF AARHUS: FRANK JENSEN
     UNIVERSITY OF IOWA: VISVALDAS KAIRYS, HUI LI
     NATIONAL INST. OF STANDARDS AND TECHNOLOGY: WALT STEVENS, DAVID GARMER
     UNIVERSITY OF PISA: BENEDETTA MENNUCCI, JACOPO TOMASI
     UNIVERSITY OF MEMPHIS: HENRY KURTZ, PRAKASHAN KORAMBATH
     UNIVERSITY OF ALBERTA: TOBY ZENG, MARIUSZ KLOBUKOWSKI
     UNIVERSITY OF NEW ENGLAND: MARK SPACKMAN
     MIE UNIVERSITY: HIROAKI UMEDA
     NAT. INST. OF ADVANCED INDUSTRIAL SCIENCE AND TECHNOLOGY: KAZUO KITAURA
     MICHIGAN STATE UNIVERSITY:
          KAROL KOWALSKI, MARTA WLOCH, JEFFREY GOUR, JESSE LUTZ,
          WEI LI, PIOTR PIECUCH
     UNIVERSITY OF SILESIA: MONIKA MUSIAL, STANISLAW KUCHARSKI
     FACULTES UNIVERSITAIRES NOTRE-DAME DE LA PAIX:
          OLIVIER QUINET, BENOIT CHAMPAGNE
     UNIVERSITY OF CALIFORNIA - SANTA BARBARA: BERNARD KIRTMAN
     INSTITUTE FOR MOLECULAR SCIENCE:
          KAZUYA ISHIMURA, MICHIO KATOUDA, AND SHIGERU NAGASE
     UNIVERSITY OF NOTRE DAME: ANNA POMOGAEVA, DAN CHIPMAN
     KYUSHU UNIVERSITY:
          HARUYUKI NAKANO,
          FENG LONG GU, JACEK KORCHOWIEC, MARCIN MAKOWSKI, AND YURIKO AOKI,
          HIROTOSHI MORI AND EISAKU MIYOSHI
     PENNSYLVANIA STATE UNIVERSITY:
          TZVETELIN IORDANOV, CHET SWALINA, JONATHAN SKONE,
          SHARON HAMMES-SCHIFFER
     WASEDA UNIVERSITY:
          MASATO KOBAYASHI, TOMOKO AKAMA, TSUGUKI TOUMA,
          TAKESHI YOSHIKAWA, YASUHIRO IKABATA, JUNJI SEINO,
          YUYA NAKAJIMA, HIROMI NAKAI
     NANJING UNIVERSITY: SHUHUA LI
     UNIVERSITY OF NEBRASKA:
          PEIFENG SU, DEJUN SI, NANDUN THELLAMUREGE, YALI WANG, HUI LI
     UNIVERSITY OF ZURICH: ROBERTO PEVERATI, KIM BALDRIDGE
     N. COPERNICUS UNIVERSITY AND JACKSON STATE UNIVERSITY:
          MARIA BARYSZ
     UNIVERSITY OF COPENHAGEN: Jimmy Kromann, CASPER STEINMANN
     TOKYO INSTITUTE OF TECHNOLOGY: HIROYA NAKATA
     NAGOYA UNIVERSITY: YOSHIO NISHIMOTO, STEPHAN IRLE
     MOSCOW STATE UNIVERSITY: VLADIMIR MIRONOV

 EXECUTION OF GAMESS BEGUN Wed Oct  9 12:20:43 2019

            ECHO OF THE FIRST FEW INPUT CARDS -
 INPUT CARD> $CONTRL SCFTYP=RHF DFTTYP=PBE RUNTYP=IRC COORD=CART ISPHER=1 $END              
 INPUT CARD> $BASIS GBASIS=PCseg-1 $END                                                     
 INPUT CARD> $IRC NPOINT=10 FORWRD=.TRUE. $END                                              
 INPUT CARD> $FORCE HESS=READ $END                                                          
 INPUT CARD> $DATA                                                                          
 INPUT CARD>H2ON2                                                                           
 INPUT CARD>C1       1                                                                      
 INPUT CARD> N           7.0   0.9233485039  -0.2399318160   0.0736256617                   
 INPUT CARD> N           7.0  -0.0272197420   0.6088503884  -0.0717581187                   
 INPUT CARD> O           8.0  -1.0933769256  -0.1081391759   0.0571959479                   
 INPUT CARD> H           1.0  -0.1059622027  -1.0519964547   0.2191639975                   
 INPUT CARD> H           1.0   1.8912457716   0.1158820221   0.0085037392                   
 INPUT CARD> $END                                                                           
 INPUT CARD> $HESS                                                                          
 INPUT CARD>ENERGY IS     -185.5854194050 E(NUC) IS       73.0033764178                     
 INPUT CARD> 1  1 8.43287379E-01-4.86363743E-02 1.07610516E-04-3.07227749E-01 1.52208588E-01
 INPUT CARD> 1  2-1.73518217E-07-2.17358214E-01 6.47698005E-02 2.77392926E-06 8.17895263E-03
 INPUT CARD> 1  3-1.86673169E-02-2.51376499E-06-3.26893247E-01-1.49673987E-01-1.06407498E-04
 INPUT CARD> 2  1-4.86363743E-02 3.87862774E-01 3.08026584E-05 1.71630567E-01-2.92530888E-01
 INPUT CARD> 2  2-2.27188287E-05-4.91718622E-02 5.95241001E-02 5.53534034E-06 2.46499489E-02
 INPUT CARD> 2  3-3.09394031E-02 1.18125905E-05-9.84750550E-02-1.23921770E-01-2.59833249E-05
 INPUT CARD> 3  1 1.07610516E-04 3.08026584E-05 4.67125080E-02-1.86580483E-05-2.13631240E-07
 INPUT CARD> 3  2-3.46046208E-02-4.65412000E-06 8.51965572E-06 3.02899045E-02 1.02044406E-05
 INPUT CARD> 3  3 3.79254009E-06-3.46595133E-02-9.44547152E-05-4.29165917E-05-7.73983185E-03
 INPUT CARD> 4  1-3.07227749E-01 1.71630567E-01-1.86580483E-05 5.17848789E-01-3.55175251E-02
 INPUT CARD> 4  2-6.18184247E-06-2.80901045E-01-1.34259041E-01 5.24569444E-06 8.73948084E-02
 INPUT CARD> 4  3-1.28534872E-02 5.01586904E-06-1.71158190E-02 1.09946332E-02 1.17183142E-05
 INPUT CARD> 5  1 1.52208588E-01-2.92530888E-01-2.13631240E-07-3.55175251E-02 6.02706813E-01
 INPUT CARD> 5  2 7.50953590E-06-9.39616477E-02-2.06245599E-01-3.08275589E-06 5.16957378E-03
 INPUT CARD> 5  3-1.13628647E-01 3.45366097E-06-2.79005588E-02 9.69897667E-03-8.35082194E-06
 INPUT CARD> 6  1-1.73518217E-07-2.27188287E-05-3.46046208E-02-6.18184247E-06 7.50953590E-06
 INPUT CARD> 6  2 5.87875348E-02 3.33166826E-06 3.75813132E-06-5.76303885E-02 5.97285443E-06
 INPUT CARD> 6  3 3.64700856E-06 4.64098715E-02-2.91967429E-06 7.78435353E-06-1.29630917E-02
 INPUT CARD> 7  1-2.17358214E-01-4.91718622E-02-4.65412000E-06-2.80901045E-01-9.39616477E-02
 INPUT CARD> 7  2 3.33166826E-06 5.06783088E-01 1.42998490E-01-4.62911524E-06-2.22932675E-03
 INPUT CARD> 7  3 2.34377990E-03 1.72482203E-06-6.28885588E-03-2.20581219E-03 6.19870445E-06
 INPUT CARD> 8  1 6.47698005E-02 5.95241001E-02 8.51965572E-06-1.34259041E-01-2.06245599E-01
 INPUT CARD> 8  2 3.75813132E-06 1.42998490E-01 1.24300539E-01-1.14289730E-06-7.58628510E-02
 INPUT CARD> 8  3 4.28281830E-03-4.36597697E-06 2.35423992E-03 1.81422698E-02-5.77540122E-06
 INPUT CARD> 9  1 2.77392926E-06 5.53534034E-06 3.02899045E-02 5.24569444E-06-3.08275589E-06
 INPUT CARD> 9  2-5.76303885E-02-4.62911524E-06-1.14289730E-06 5.70051819E-02-7.84352823E-07
 INPUT CARD> 9  3 2.25314828E-07-4.44908522E-02-2.64464802E-06-1.51127545E-06 1.48280469E-02
 INPUT CARD>10  1 8.17895263E-03 2.46499489E-02 1.02044406E-05 8.73948084E-02 5.16957378E-03
 INPUT CARD>10  2 5.97285443E-06-2.22932675E-03-7.58628510E-02-7.84352823E-07-8.76189417E-02
 INPUT CARD>10  3 2.40174942E-02-5.65674300E-06-5.72268254E-03 2.20265423E-02-1.08166223E-05
 INPUT CARD>11  1-1.86673169E-02-3.09394031E-02 3.79254009E-06-1.28534872E-02-1.13628647E-01
 INPUT CARD>11  2 3.64700856E-06 2.34377990E-03 4.28281830E-03 2.25314828E-07 2.40174942E-02
 INPUT CARD>11  3 1.35908347E-01-7.49989794E-06 5.16190863E-03 4.37545205E-03-1.95440817E-07
 INPUT CARD>12  1-2.51376499E-06 1.18125905E-05-3.46595133E-02 5.01586904E-06 3.45366097E-06
 INPUT CARD>12  2 4.64098715E-02 1.72482203E-06-4.36597697E-06-4.44908522E-02-5.65674300E-06
    1000000 WORDS OF MEMORY AVAILABLE


                    * * * WARNING * * *
 OLD KEYWORD COORD=CART SELECTED, AUTOMATICALLY CHANGED TO COORD=PRINAXIS.
 YOUR MOLECULE'S COORDINATES WILL BE CHANGED TO PRINCIPAL AXES BY
   A) TRANSLATION TO THE CENTER OF MASS, THEN
   B) ROTATION TO HAVE A DIAGONAL MOMENT OF INERTIA TENSOR.

 HOWEVER, NOTHING ELSE IN YOUR INPUT WILL BE ROTATED IN THE SAME WAY,
 SO IF YOU HAVE A $VEC, $VIB, $GRAD, $HESS, EFP PARTICLE COORDINATES,
 OR ANYTHING ELSE THAT DEPENDS ON THE INITIAL ORIENTATION, THAT DATA
 WILL NOT BE USED CORRECTLY IN THIS RUN.

 THE PURPOSE OF COORD=PRINAXIS IS TO BE USED ONCE, ONLY AT THE VERY
 BEGINNING OF A SERIES OF COMPUTATIONS, PERHAPS TO FIND THE SYMMETRY
 UNIQUE ATOMS FROM AN ARBITRARY INITIAL ORIENTATION.

 AFTER THE FIRST RUN, YOU SHOULD USE ONLY COORD=UNIQUE, TO ENSURE THAT
 THE COORDINATES WHICH YOU READ IN ARE THE COORDINATES THAT ARE USED.


     BASIS OPTIONS
     -------------
     GBASIS=PCSEG-1      IGAUSS=       0      POLAR=NONE    
     NDFUNC=       0     NFFUNC=       0     DIFFSP=       F
     NPFUNC=       0      DIFFS=       F     BASNAM=        


     RUN TITLE
     ---------
 H2ON2                                                                           

 THE POINT GROUP OF THE MOLECULE IS C1      
 THE ORDER OF THE PRINCIPAL AXIS IS     1

 THE MOMENTS OF INERTIA ARE (AMU-ANGSTROM**2)
 IXX=     7.364   IYY=    34.505   IZZ=    41.869

 ATOM      ATOMIC                      COORDINATES (BOHR)
           CHARGE         X                   Y                   Z
 N           7.0     1.8921521445       -0.4982543092       -0.0000518591
 N           7.0     0.0408232461        1.0661974845       -0.0000110285
 O           8.0    -1.9253007707       -0.3790459962        0.0000165224
 H           1.0     0.0019007230       -2.1233689273        0.0001045230
 H           1.0     3.6965815005        0.2479030036        0.0005070367

          INTERNUCLEAR DISTANCES (ANGS.)
          ------------------------------

                1 N          2 N          3 O          4 H          5 H     

   1 N       0.0000000    1.2826331 *  2.0210939 *  1.3191326 *  1.0332809 *
   2 N       1.2826331 *  0.0000000    1.2912762 *  1.6879716 *  1.9824151 *
   3 O       2.0210939 *  1.2912762 *  0.0000000    1.3755319 *  2.9934143 *
   4 H       1.3191326 *  1.6879716 *  1.3755319 *  0.0000000    2.3231783 *
   5 H       1.0332809 *  1.9824151 *  2.9934143 *  2.3231783 *  0.0000000  

  * ... LESS THAN  3.000


     ATOMIC BASIS SET
     ----------------
 THE CONTRACTED PRIMITIVE FUNCTIONS HAVE BEEN UNNORMALIZED
 THE CONTRACTED BASIS FUNCTIONS ARE NOW NORMALIZED TO UNITY

  SHELL TYPE  PRIMITIVE        EXPONENT          CONTRACTION COEFFICIENT(S)

 N         

      1   S       1          1726.3200000    0.005526692708
      1   S       2           259.8270000    0.041238777833
      1   S       3            59.0335000    0.182735518857
      1   S       4            16.3509000    0.465933825414
      1   S       5             4.9108400    0.450079961070

      2   S       6             7.7589400   -0.147940502099
      2   S       7             0.7055730    1.051675837690

      3   S       8             0.2092860    1.000000000000

      4   P       9            13.1844000    0.064862763118
      4   P      10             2.8186000    0.339184155940
      4   P      11             0.7655710    0.735827618992

      5   P      12             0.1959490    1.000000000000

      6   D      13             0.9000000    1.000000000000

 N         

      7   S      14          1726.3200000    0.005526692708
      7   S      15           259.8270000    0.041238777833
      7   S      16            59.0335000    0.182735518857
      7   S      17            16.3509000    0.465933825414
      7   S      18             4.9108400    0.450079961070

      8   S      19             7.7589400   -0.147940502099
      8   S      20             0.7055730    1.051675837690

      9   S      21             0.2092860    1.000000000000

     10   P      22            13.1844000    0.064862763118
     10   P      23             2.8186000    0.339184155940
     10   P      24             0.7655710    0.735827618992

     11   P      25             0.1959490    1.000000000000

     12   D      26             0.9000000    1.000000000000

 O         

     13   S      27          2288.6400000    0.005451138222
     13   S      28           344.4160000    0.040718922842
     13   S      29            78.2538000    0.181369420873
     13   S      30            21.7195000    0.465536820246
     13   S      31             6.5590700    0.451211321214

     14   S      32            10.4656000   -0.150211201174
     14   S      33             0.9643510    1.052867983385

     15   S      34             0.2851270    1.000000000000

     16   P      35            17.0590000    0.068749256972
     16   P      36             3.6899900    0.351671941499
     16   P      37             0.9929960    0.724532099722

     17   P      38             0.2449240    1.000000000000

     18   D      39             1.0000000    1.000000000000

 H         

     19   S      40            12.2518000    0.037217389296
     19   S      41             1.8687100    0.253808206955
     19   S      42             0.4182080    0.797386763917

     20   S      43             0.1061000    1.000000000000

     21   P      44             1.0000000    1.000000000000

 H         

     22   S      45            12.2518000    0.037217389296
     22   S      46             1.8687100    0.253808206955
     22   S      47             0.4182080    0.797386763917

     23   S      48             0.1061000    1.000000000000

     24   P      49             1.0000000    1.000000000000

 TOTAL NUMBER OF BASIS SET SHELLS             =   24
 NUMBER OF CARTESIAN GAUSSIAN BASIS FUNCTIONS =   55
 NOTE: THIS RUN WILL RESTRICT THE MO VARIATION SPACE TO SPHERICAL HARMONICS.
 THE NUMBER OF ORBITALS KEPT IN THE VARIATIONAL SPACE WILL BE PRINTED LATER.
 NUMBER OF ELECTRONS                          =   24
 CHARGE OF MOLECULE                           =    0
 SPIN MULTIPLICITY                            =    1
 NUMBER OF OCCUPIED ORBITALS (ALPHA)          =   12
 NUMBER OF OCCUPIED ORBITALS (BETA )          =   12
 TOTAL NUMBER OF ATOMS                        =    5
 THE NUCLEAR REPULSION ENERGY IS       73.0033764178

     LEBEDEV GRID-BASED DFT OPTIONS
     ------------------------------
     DFTTYP=PBE     
     NRAD  =      96     NLEB  =     302
     NRAD0 =      24     NLEB0 =     110
     SWOFF =    5.00E-03 (PURE SCF -> DFT)
     SWITCH=    3.00E-04 (COARSE -> TIGHT GRID)
     THRESH=    0.00E+00 GTHRE=    1.00E+00

 GRIMME'S EMPIRICAL DISPERSION CORRECTION= F

     $CONTRL OPTIONS
     ---------------
 SCFTYP=RHF          RUNTYP=IRC          EXETYP=RUN     
 MPLEVL=       0     CITYP =NONE         CCTYP =NONE         VBTYP =NONE    
 DFTTYP=PBE          TDDFT =NONE    
 MULT  =       1     ICHARG=       0     NZVAR =       0     COORD =PRINAXIS
 PP    =NONE         RELWFN=NONE         LOCAL =NONE         NUMGRD=       F
 ISPHER=       1     NOSYM =       0     MAXIT =      30     UNITS =ANGS    
 PLTORB=       F     MOLPLT=       F     AIMPAC=       F     FRIEND=        
 NPRINT=       7     IREST =       0     GEOM  =INPUT   
 NORMF =       0     NORMP =       0     ITOL  =      20     ICUT  =       9
 INTTYP=BEST         GRDTYP=BEST         QMTTOL= 1.0E-06

     $SYSTEM OPTIONS
     ---------------
  REPLICATED MEMORY=     1000000 WORDS (ON EVERY NODE).
 DISTRIBUTED MEMDDI=           0 MILLION WORDS IN AGGREGATE,
 MEMDDI DISTRIBUTED OVER   1 PROCESSORS IS           0 WORDS/PROCESSOR.
 TOTAL MEMORY REQUESTED ON EACH PROCESSOR=     1000000 WORDS.
 TIMLIM=      525600.00 MINUTES, OR     365.0 DAYS.
 PARALL= F  BALTYP=  DLB     KDIAG=    0  COREFL= F
 MXSEQ2=     300 MXSEQ3=     150  mem10=         0

          ----------------
          PROPERTIES INPUT
          ----------------

     MOMENTS            FIELD           POTENTIAL          DENSITY
 IEMOM =       1   IEFLD =       0   IEPOT =       0   IEDEN =       0
 WHERE =COMASS     WHERE =NUCLEI     WHERE =NUCLEI     WHERE =NUCLEI  
 OUTPUT=BOTH       OUTPUT=BOTH       OUTPUT=BOTH       OUTPUT=BOTH    
 IEMINT=       0   IEFINT=       0                     IEDINT=       0
                                                       MORB  =       0
          EXTRAPOLATION IN EFFECT
          DIIS IN EFFECT
 ORBITAL PRINTING OPTION: NPREO=     1    55     2     1

     -------------------------------
     INTEGRAL TRANSFORMATION OPTIONS
     -------------------------------
     NWORD  =            0
     CUTOFF = 1.0E-09     MPTRAN =       0
     DIRTRF =       F     AOINTS =DUP     

          ----------------------
          INTEGRAL INPUT OPTIONS
          ----------------------
 NOPK  =       1 NORDER=       0 SCHWRZ=       F

     ------------------------------------------
     THE POINT GROUP IS C1 , NAXIS= 1, ORDER= 1
     ------------------------------------------

 -- VARIATIONAL SPACE WILL BE RESTRICTED TO PURE SPHERICAL HARMONICS ONLY --
 AFTER EXCLUDING CONTAMINANT COMBINATIONS FROM THE CARTESIAN GAUSSIAN BASIS
 SET, THE NUMBER OF SPHERICAL HARMONICS KEPT IN THE VARIATION SPACE IS   52

     DIMENSIONS OF THE SYMMETRY SUBSPACES ARE
 A   =   52

 ..... DONE SETTING UP THE RUN .....
 STEP CPU TIME =     0.03 TOTAL CPU TIME =          0.0 (      0.0 MIN)
 TOTAL WALL CLOCK TIME=          0.5 SECONDS, CPU UTILIZATION IS     6.12%

          -----------------------------
          INTRINSIC REACTION COORDINATE
          -----------------------------
          PACE   =GS2     
          STRIDE = 0.30000 BOHR*SQRT(AMU)
          NPOINT =      10
          NEXTPT =       0
          STOTAL =  0.0000 BOHR*SQRT(AMU)
          SAB    =  0.0000 BOHR*SQRT(AMU)
          NPRT   =       0
          NPUN   =       0

          SADDLE =       F
          TSENGY =       F
          FORWRD =       T
          EVIB   = 0.00050 HARTREE
          FREQ   =     0.0 CM**-1

          STABLZ =       F
          ELBOW  =  175.00 DEGREES
          DELTA  = 0.02500 BOHR

          READQB =       F
          EB     =        0.0000000000 HARTREES
          GBNORM =        0.0000000000 HARTREES/SQRT(AMU)-BOHR

          GCUT   = 0.0001000 HARTREES/SQRT(AMU)-BOHR
          RCUT   = 0.0010000 BOHR
          ACUT   =    5.00 DEGREES
          MXOPT  =      20
          IHUPD  =       2

 ATOMIC MASSES USED (IN AMU) ARE
     N             14.0031
     N             14.0031
     O             15.9949
     H              1.0078
     H              1.0078
 WARNING! GRADIENTS FROM PREVIOUS IRC POINT NOT FOUND IN $IRC GROUP. GENERATING NEW GRADIENTS AT CURRENT POINT

1         POINT   0 ON THE REACTION PATH
          ******************************
          AT PATH DISTANCE STOTAL =   0.00000     SQRT(AMU)-BOHR
          TOTAL ENERGY            =     0.0000000 HARTREE
 COORDINATES OF SYMMETRY UNIQUE ATOMS (ANGS)
   ATOM   CHARGE       X              Y              Z
 ------------------------------------------------------------
 N           7.0   1.0012838670  -0.2636648447  -0.0000274427
 N           7.0   0.0216027331   0.5642074520  -0.0000058360
 O           8.0  -1.0188253658  -0.2005825176   0.0000087433
 H           1.0   0.0010058194  -1.1236385281   0.0000553112
 H           1.0   1.9561468300   0.1311846295   0.0002683123

          INTERNUCLEAR DISTANCES (ANGS.)
          ------------------------------

                1 N          2 N          3 O          4 H          5 H     

   1 N       0.0000000    1.2826331 *  2.0210939 *  1.3191326 *  1.0332809 *
   2 N       1.2826331 *  0.0000000    1.2912762 *  1.6879716 *  1.9824151 *
   3 O       2.0210939 *  1.2912762 *  0.0000000    1.3755319 *  2.9934143 *
   4 H       1.3191326 *  1.6879716 *  1.3755319 *  0.0000000    2.3231783 *
   5 H       1.0332809 *  1.9824151 *  2.9934143 *  2.3231783 *  0.0000000  

  * ... LESS THAN  3.000


          ********************
          1 ELECTRON INTEGRALS
          ********************
 ...... END OF ONE-ELECTRON INTEGRALS ......
 STEP CPU TIME =     0.01 TOTAL CPU TIME =          0.0 (      0.0 MIN)
 TOTAL WALL CLOCK TIME=          0.5 SECONDS, CPU UTILIZATION IS     7.84%

          -------------
          GUESS OPTIONS
          -------------
          GUESS =HUCKEL            NORB  =       0          NORDER=       0
          MIX   =       F          PRTMO =       F          PUNMO =       F
          TOLZ  = 1.0E-08          TOLE  = 1.0E-05
          SYMDEN=       F          PURIFY=       F

 INITIAL GUESS ORBITALS GENERATED BY HUCKEL   ROUTINE.
 HUCKEL GUESS REQUIRES     27116 WORDS.

 STATISTICS FOR GENERATION OF SYMMETRY ORBITAL -Q- MATRIX
 NUMBER OF CARTESIAN ATOMIC ORBITALS=         55
 NUMBER OF SPHERICAL CONTAMINANTS DROPPED=     3
 NUMBER OF LINEARLY DEPENDENT MOS DROPPED=     0
 TOTAL NUMBER OF MOS IN VARIATION SPACE=      52

 SYMMETRIES FOR INITIAL GUESS ORBITALS FOLLOW.   BOTH SET(S).
    12 ORBITALS ARE OCCUPIED (    3 CORE ORBITALS).
     4=A        5=A        6=A        7=A        8=A        9=A       10=A   
    11=A       12=A       13=A       14=A       15=A       16=A       17=A   
    18=A       19=A       20=A       21=A       22=A   
 ...... END OF INITIAL ORBITAL SELECTION ......
 STEP CPU TIME =     0.01 TOTAL CPU TIME =          0.0 (      0.0 MIN)
 TOTAL WALL CLOCK TIME=          0.6 SECONDS, CPU UTILIZATION IS     8.62%

                    ----------------------
                    AO INTEGRAL TECHNOLOGY
                    ----------------------
     S,P,L SHELL ROTATED AXIS INTEGRALS, REPROGRAMMED BY
        KAZUYA ISHIMURA (IMS) AND JOSE SIERRA (SYNSTAR).
     S,P,D,L SHELL ROTATED AXIS INTEGRALS PROGRAMMED BY
        KAZUYA ISHIMURA (INSTITUTE FOR MOLECULAR SCIENCE).
     S,P,D,F,G SHELL TO TOTAL QUARTET ANGULAR MOMENTUM SUM 5,
        ERIC PROGRAM BY GRAHAM FLETCHER (ELORET AND NASA ADVANCED
        SUPERCOMPUTING DIVISION, AMES RESEARCH CENTER).
     S,P,D,F,G,L SHELL GENERAL RYS QUADRATURE PROGRAMMED BY
        MICHEL DUPUIS (PACIFIC NORTHWEST NATIONAL LABORATORY).

          --------------------
          2 ELECTRON INTEGRALS
          --------------------

 THE -PK- OPTION IS OFF, THE INTEGRALS ARE NOT IN SUPERMATRIX FORM.
 STORING   15000 INTEGRALS/RECORD ON DISK, USING 12 BYTES/INTEGRAL.
 TWO ELECTRON INTEGRAL EVALUATION REQUIRES   90696 WORDS OF MEMORY.
 II,JST,KST,LST =  1  1  1  1 NREC =         1 INTLOC =    1
 II,JST,KST,LST =  2  1  1  1 NREC =         1 INTLOC =    2
 II,JST,KST,LST =  3  1  1  1 NREC =         1 INTLOC =    7
 II,JST,KST,LST =  4  1  1  1 NREC =         1 INTLOC =   22
 II,JST,KST,LST =  5  1  1  1 NREC =         1 INTLOC =   67
 II,JST,KST,LST =  6  1  1  1 NREC =         1 INTLOC =  214
 II,JST,KST,LST =  7  1  1  1 NREC =         1 INTLOC = 1189
 II,JST,KST,LST =  8  1  1  1 NREC =         1 INTLOC = 3165
 II,JST,KST,LST =  9  1  1  1 NREC =         1 INTLOC = 5616
 II,JST,KST,LST = 10  1  1  1 NREC =         1 INTLOC = 8517
 II,JST,KST,LST = 11  1  1  1 NREC =         2 INTLOC = 5379
 II,JST,KST,LST = 12  1  1  1 NREC =         3 INTLOC = 7847
 II,JST,KST,LST = 13  1  1  1 NREC =         7 INTLOC = 5394
 II,JST,KST,LST = 14  1  1  1 NREC =         8 INTLOC = 1294
 II,JST,KST,LST = 15  1  1  1 NREC =         9 INTLOC = 1405
 II,JST,KST,LST = 16  1  1  1 NREC =        10 INTLOC = 3874
 II,JST,KST,LST = 17  1  1  1 NREC =        14 INTLOC = 1966
 II,JST,KST,LST = 18  1  1  1 NREC =        19 INTLOC = 5362
 II,JST,KST,LST = 19  1  1  1 NREC =        33 INTLOC = 1459
 II,JST,KST,LST = 20  1  1  1 NREC =        36 INTLOC = 3707
 II,JST,KST,LST = 21  1  1  1 NREC =        39 INTLOC = 9111
 II,JST,KST,LST = 22  1  1  1 NREC =        50 INTLOC =13594
 II,JST,KST,LST = 23  1  1  1 NREC =        54 INTLOC =12820
 II,JST,KST,LST = 24  1  1  1 NREC =        59 INTLOC = 5934
 TOTAL NUMBER OF NONZERO TWO-ELECTRON INTEGRALS =             1064565
         71 INTEGRAL RECORDS WERE STORED ON DISK FILE  8.
  ...... END OF TWO-ELECTRON INTEGRALS .....
 STEP CPU TIME =     0.17 TOTAL CPU TIME =          0.2 (      0.0 MIN)
 TOTAL WALL CLOCK TIME=          0.8 SECONDS, CPU UTILIZATION IS    28.21%

          --------------------------
               R-PBE SCF CALCULATION
          --------------------------

     NUCLEAR ENERGY =        73.0033764178
     MAXIT =   30     NPUNCH=    2
     EXTRAP=T  DAMP=F  SHIFT=F  RSTRCT=F  DIIS=T  DEM=F  SOSCF=F
         DENSITY MATRIX CONVERGENCE THRESHOLD=  1.00E-05
     COARSE -> FINE DFT GRID SWITCH THRESHOLD=  3.00E-04 (SWITCH IN $DFT)
                   HF -> DFT SWITCH THRESHOLD=  5.00E-03 (SWOFF IN $DFT)
     MEMORY REQUIRED FOR RHF ITERS=    248522 WORDS.

 DFT CODE IS SWITCHING FROM THE FINE GRID NRAD= 96,  NLEB=  302
                      TO THE COARSE GRID NRAD0= 24, NLEB0=  110

     EXCHANGE FUNCTIONAL   =PBE       
     CORRELATION FUNCTIONAL=PBE       
     DFT THRESHOLD         =.276E-07
     GRID CHANGE THRESHOLD =.300E-03
 FOR AN EULER-MACLAURIN QUADRATURE USING  96 RADIAL POINTS:
 SMALLEST GAUSSIAN PRIMITIVE EXPONENT=        0.1061000000 OF TYPE -S-
 ON ATOM NUMBER   4 HAS RADIAL NORMALIZATION=  1.000000
  LARGEST GAUSSIAN PRIMITIVE EXPONENT=     2288.6400000000 OF TYPE -S-
 ON ATOM NUMBER   3 HAS RADIAL NORMALIZATION=  1.000000
 DFT IS SWITCHED OFF, PERFORMING PURE SCF UNTIL SWOFF THRESHOLD IS REACHED.

 ITER EX DEM     TOTAL ENERGY        E CHANGE  DENSITY CHANGE    DIIS ERROR
          * * *   INITIATING DIIS PROCEDURE   * * *
   1  0  0     -184.0428415462  -184.0428415462   0.282171757   0.379308328
   2  1  0     -184.6072625009    -0.5644209547   0.191934100   0.120315173
   3  2  0     -184.6509023354    -0.0436398345   0.093845800   0.085216518
   4  3  0     -184.6935291842    -0.0426268487   0.020861900   0.011260428
   5  4  0     -184.6949384248    -0.0014092406   0.007275354   0.008304591
   6  5  0     -184.6951658239    -0.0002273991   0.004194108   0.002423032
 CONVERGED TO SWOFF, SO DFT CALCULATION IS NOW SWITCHED ON.
          * * *   INITIATING DIIS PROCEDURE   * * *
   7  6  0     -185.5534339279    -0.8582681040   0.207777287   0.079421358
   8  7  0     -185.5576559714    -0.0042220435   0.182883993   0.081962306
   9  8  0     -185.5450491980     0.0126067733   0.137743592   0.094827426
  10  9  0     -185.5770092508    -0.0319600527   0.058898840   0.036374847
  11 10  0     -185.5861358544    -0.0091266037   0.013718721   0.007809278
  12 11  0     -185.5864848575    -0.0003490031   0.001804813   0.001984142
  13 12  0     -185.5865006363    -0.0000157788   0.000691649   0.000636171
  14 13  0     -185.5865023786    -0.0000017423   0.000187174   0.000203970
 DFT CODE IS SWITCHING BACK TO THE FINE GRID
          * * *   INITIATING DIIS PROCEDURE   * * *
  15 14  0     -185.5854077845     0.0010945942   0.001381393   0.001709157
  16 15  0     -185.5854180612    -0.0000102768   0.000973309   0.000717508
  17 16  0     -185.5854163979     0.0000016633   0.001251939   0.000796903
  18 17  0     -185.5854181683    -0.0000017704   0.000625291   0.000509584
  19 18  0     -185.5854193512    -0.0000011829   0.000155727   0.000120001
  20 19  0     -185.5854193973    -0.0000000461   0.000051299   0.000038496
  21 20  0     -185.5854194050    -0.0000000077   0.000003913   0.000002523
  22 21  0     -185.5854194050    -0.0000000000   0.000001214   0.000000921

          -----------------
          DENSITY CONVERGED
          -----------------
     TIME TO FORM FOCK OPERATORS=       4.5 SECONDS (       0.2 SEC/ITER)
     TIME TO SOLVE SCF EQUATIONS=       0.1 SECONDS (       0.0 SEC/ITER)

 FINAL R-PBE ENERGY IS     -185.5854194050 AFTER  22 ITERATIONS
 DFT EXCHANGE + CORRELATION ENERGY =       -22.8001323616
 TOTAL ELECTRON NUMBER             =        23.9999958062

          ------------
          EIGENVECTORS
          ------------

                      1          2          3          4          5
                  -18.7890   -14.1113   -14.0480    -1.0922    -0.8645
                     A          A          A          A          A   
    1  N  1  S   -0.000016   0.000643   0.993185  -0.088881  -0.168148
    2  N  1  S   -0.000378  -0.001273   0.034651   0.182134   0.350265
    3  N  1  S   -0.000766   0.008138  -0.016834   0.074877   0.258497
    4  N  1  X    0.000270   0.000888   0.000234  -0.092494  -0.038118
    5  N  1  Y   -0.000299  -0.000728   0.001638   0.057174   0.118319
    6  N  1  Z    0.000000   0.000000   0.000001   0.000007   0.000021
    7  N  1  X    0.000331  -0.003517   0.003061  -0.008143  -0.031133
    8  N  1  Y    0.001173   0.002700  -0.001683  -0.000968   0.019316
    9  N  1  Z   -0.000000   0.000000  -0.000000   0.000001   0.000004
   10  N  1 XX    0.000218  -0.000406   0.001307   0.008952   0.002374
   11  N  1 YY    0.000022  -0.000252  -0.000401  -0.001203   0.005778
   12  N  1 ZZ   -0.000239   0.000657  -0.000907  -0.007749  -0.008152
   13  N  1 XY    0.000145   0.001149   0.000402  -0.010484  -0.006661
   14  N  1 XZ    0.000000   0.000000   0.000001  -0.000001   0.000000
   15  N  1 YZ    0.000000   0.000000   0.000000   0.000001   0.000001
   16  N  2  S    0.000077   0.993328  -0.000363  -0.151124  -0.045368
   17  N  2  S   -0.000773   0.034383  -0.001025   0.314451   0.098074
   18  N  2  S    0.008283  -0.020179   0.004418   0.179122   0.074196
   19  N  2  X    0.000024   0.000026  -0.000814  -0.038498   0.260922
   20  N  2  Y   -0.000125  -0.002957   0.000758  -0.160550  -0.034133
   21  N  2  Z    0.000000  -0.000000   0.000000   0.000000  -0.000001
   22  N  2  X   -0.004269  -0.002678   0.002261   0.012648   0.054600
   23  N  2  Y   -0.003618   0.005601  -0.001155  -0.041866  -0.012724
   24  N  2  Z    0.000000   0.000000  -0.000000   0.000001   0.000002
   25  N  2 XX   -0.000326   0.000384  -0.000449   0.006743   0.000931
   26  N  2 YY    0.000116  -0.000139  -0.000323   0.009540   0.000635
   27  N  2 ZZ    0.000210  -0.000245   0.000772  -0.016283  -0.001565
   28  N  2 XY   -0.000585   0.000133   0.001111   0.008378  -0.032335
   29  N  2 XZ    0.000000  -0.000000   0.000000  -0.000000   0.000001
   30  N  2 YZ    0.000000  -0.000000  -0.000000  -0.000000   0.000000
   31  O  3  S    0.993212   0.000137  -0.000014  -0.148240   0.145899
   32  O  3  S    0.034834  -0.000150  -0.000261   0.300528  -0.303264
   33  O  3  S   -0.020469   0.002112   0.000572   0.252323  -0.314517
   34  O  3  X    0.001692  -0.000529  -0.000013   0.137542  -0.048859
   35  O  3  Y    0.000564  -0.000507  -0.000243   0.060705  -0.049882
   36  O  3  Z   -0.000000   0.000000   0.000000  -0.000002   0.000001
   37  O  3  X   -0.005649   0.000239   0.000617   0.048382  -0.036005
   38  O  3  Y   -0.002269   0.000036   0.000742   0.018257  -0.015387
   39  O  3  Z    0.000000  -0.000000  -0.000000  -0.000001   0.000000
   40  O  3 XX   -0.000313  -0.000768   0.000241   0.013302   0.000187
   41  O  3 YY   -0.000038  -0.000223  -0.000123  -0.002791  -0.003478
   42  O  3 ZZ    0.000351   0.000991  -0.000118  -0.010511   0.003290
   43  O  3 XY    0.000024  -0.001173  -0.000133   0.011725  -0.004951
   44  O  3 XZ   -0.000000   0.000000  -0.000000  -0.000001   0.000000
   45  O  3 YZ    0.000000   0.000000   0.000000  -0.000000   0.000000
   46  H  4  S    0.001493   0.000010   0.000396   0.067247   0.010769
   47  H  4  S    0.001506   0.001074   0.002005  -0.016142  -0.013947
   48  H  4  X   -0.000531  -0.000189  -0.000433  -0.000249   0.007167
   49  H  4  Y    0.000453   0.000406  -0.000547   0.013758   0.002227
   50  H  4  Z   -0.000000   0.000000   0.000000  -0.000001   0.000000
   51  H  5  S   -0.000225  -0.000525  -0.002095   0.031004   0.130826
   52  H  5  S    0.000243   0.001023   0.002020  -0.006333  -0.002792
   53  H  5  X    0.000033   0.000125   0.002044  -0.006145  -0.016295
   54  H  5  Y    0.000021  -0.000164   0.001110  -0.000526  -0.004666
   55  H  5  Z    0.000000  -0.000000   0.000001  -0.000001  -0.000005

                      6          7          8          9         10
                   -0.6062    -0.5362    -0.4442    -0.4341    -0.3034
                     A          A          A          A          A   
    1  N  1  S    0.103739   0.011022   0.039636   0.000033  -0.038113
    2  N  1  S   -0.217068  -0.027973  -0.081099  -0.000071   0.071136
    3  N  1  S   -0.261863  -0.053374  -0.113750  -0.000094   0.206439
    4  N  1  X   -0.278146   0.316256  -0.088122  -0.000073  -0.082321
    5  N  1  Y    0.099208   0.153280   0.297160   0.000100  -0.350739
    6  N  1  Z   -0.000055   0.000047  -0.000111   0.295062  -0.000110
    7  N  1  X   -0.062585   0.128648  -0.034655  -0.000032  -0.064910
    8  N  1  Y    0.036874   0.067395   0.187689   0.000065  -0.213795
    9  N  1  Z   -0.000017   0.000015  -0.000064   0.178109  -0.000072
   10  N  1 XX   -0.001628  -0.009081  -0.014858  -0.000006  -0.010076
   11  N  1 YY    0.004326   0.007784   0.018541   0.000004   0.004736
   12  N  1 ZZ   -0.002699   0.001297  -0.003683   0.000002   0.005340
   13  N  1 XY   -0.019694   0.001492  -0.012625  -0.000005   0.002014
   14  N  1 XZ   -0.000003   0.000002   0.000004  -0.018167  -0.000003
   15  N  1 YZ   -0.000001   0.000003  -0.000003   0.016043  -0.000006
   16  N  2  S   -0.136948  -0.076051  -0.008153  -0.000007  -0.057299
   17  N  2  S    0.317129   0.168179   0.010190   0.000014   0.108186
   18  N  2  S    0.312411   0.195985   0.033653   0.000024   0.251335
   19  N  2  X    0.037512  -0.144720   0.363900   0.000133  -0.011786
   20  N  2  Y   -0.036848   0.199220   0.110519   0.000015   0.398841
   21  N  2  Z   -0.000022   0.000026  -0.000144   0.443692   0.000022
   22  N  2  X    0.022879  -0.024709   0.100496   0.000042  -0.030861
   23  N  2  Y   -0.030664   0.085256   0.051298   0.000005   0.242590
   24  N  2  Z   -0.000009   0.000013  -0.000071   0.231461   0.000016
   25  N  2 XX   -0.003078   0.028185   0.008735  -0.000000   0.001088
   26  N  2 YY    0.001274  -0.033267  -0.013055  -0.000001  -0.017460
   27  N  2 ZZ    0.001804   0.005082   0.004320   0.000001   0.016372
   28  N  2 XY   -0.004342   0.011854  -0.018627  -0.000007  -0.013593
   29  N  2 XZ   -0.000002   0.000001  -0.000001  -0.000928  -0.000009
   30  N  2 YZ    0.000003  -0.000002   0.000012  -0.035430  -0.000001
   31  O  3  S    0.102940  -0.002504  -0.090806  -0.000021   0.009909
   32  O  3  S   -0.217492   0.009392   0.187276   0.000043  -0.030103
   33  O  3  S   -0.293164   0.004798   0.286731   0.000066  -0.047920
   34  O  3  X    0.100228  -0.055044  -0.321484  -0.000073  -0.324825
   35  O  3  Y    0.126825   0.261306  -0.236357  -0.000096   0.062177
   36  O  3  Z   -0.000010   0.000008  -0.000091   0.325102   0.000128
   37  O  3  X    0.038391  -0.033686  -0.183040  -0.000044  -0.213400
   38  O  3  Y    0.056684   0.134768  -0.129799  -0.000053   0.055721
   39  O  3  Z   -0.000004   0.000003  -0.000053   0.190857   0.000088
   40  O  3 XX    0.007308  -0.012396  -0.011705  -0.000001  -0.020251
   41  O  3 YY   -0.002043   0.011526   0.001852  -0.000001   0.015548
   42  O  3 ZZ   -0.005265   0.000870   0.009853   0.000002   0.004702
   43  O  3 XY    0.011285   0.017707  -0.013565  -0.000005  -0.001265
   44  O  3 XZ   -0.000001   0.000001  -0.000007   0.024722   0.000005
   45  O  3 YZ   -0.000000   0.000000  -0.000003   0.010049   0.000002
   46  H  4  S   -0.079579  -0.256793  -0.091625  -0.000001   0.154888
   47  H  4  S   -0.032702  -0.026326   0.026085   0.000012   0.139891
   48  H  4  X    0.002571  -0.002588  -0.012996  -0.000005   0.019584
   49  H  4  Y   -0.001830  -0.024321  -0.007751   0.000002  -0.005515
   50  H  4  Z   -0.000001   0.000003  -0.000003   0.012207  -0.000000
   51  H  5  S   -0.263846   0.235060  -0.055535  -0.000018  -0.183394
   52  H  5  S   -0.031627   0.031830  -0.029074  -0.000016  -0.042720
   53  H  5  X    0.017074  -0.016842  -0.001714  -0.000004   0.009108
   54  H  5  Y    0.012349  -0.005050   0.007816   0.000002  -0.005038
   55  H  5  Z    0.000006  -0.000006  -0.000003   0.008243   0.000000

                     11         12         13         14         15
                   -0.2676    -0.2634    -0.1041    -0.0082     0.0415
                     A          A          A          A          A   
    1  N  1  S   -0.068546   0.000092  -0.000019   0.085556   0.036760
    2  N  1  S    0.170565  -0.000226   0.000043  -0.185344  -0.067375
    3  N  1  S    0.254957  -0.000365   0.000096  -0.620144  -0.501203
    4  N  1  X   -0.192561   0.000367   0.000070  -0.166220  -0.216193
    5  N  1  Y   -0.006851   0.000102   0.000000   0.185712  -0.304993
    6  N  1  Z   -0.000667  -0.454118  -0.371072  -0.000117  -0.000051
    7  N  1  X   -0.085854   0.000208   0.000081  -0.335876  -0.378966
    8  N  1  Y   -0.031058   0.000113  -0.000004   0.276325  -0.469596
    9  N  1  Z   -0.000502  -0.348499  -0.418469  -0.000157  -0.000096
   10  N  1 XX    0.003212  -0.000001  -0.000002   0.005798   0.018249
   11  N  1 YY   -0.007190   0.000012   0.000003   0.006105  -0.019274
   12  N  1 ZZ    0.003978  -0.000011  -0.000001  -0.011904   0.001025
   13  N  1 XY   -0.009399   0.000015  -0.000001   0.021394  -0.018841
   14  N  1 XZ    0.000001   0.002706  -0.016645   0.000001   0.000003
   15  N  1 YZ   -0.000020  -0.013854   0.012567   0.000003  -0.000001
   16  N  2  S    0.065648  -0.000080   0.000001   0.035639  -0.036352
   17  N  2  S   -0.141208   0.000173  -0.000008  -0.052044   0.074824
   18  N  2  S   -0.227775   0.000274   0.000033  -0.543849   0.407689
   19  N  2  X    0.036952  -0.000069   0.000001   0.017967   0.029373
   20  N  2  Y   -0.298708   0.000357   0.000010  -0.055719  -0.080339
   21  N  2  Z   -0.000032  -0.044756   0.565822   0.000060   0.000004
   22  N  2  X   -0.019576   0.000033   0.000024  -0.046620  -0.030441
   23  N  2  Y   -0.205665   0.000246  -0.000002   0.084532  -0.145217
   24  N  2  Z    0.000002  -0.014120   0.517894   0.000074   0.000015
   25  N  2 XX    0.013705  -0.000019   0.000001   0.009359  -0.027299
   26  N  2 YY   -0.000204   0.000002  -0.000001  -0.007334   0.020342
   27  N  2 ZZ   -0.013501   0.000017   0.000000  -0.002025   0.006957
   28  N  2 XY   -0.018320   0.000032   0.000003  -0.002384   0.001624
   29  N  2 XZ   -0.000055  -0.036447   0.000447  -0.000003  -0.000001
   30  N  2 YZ   -0.000000   0.000482   0.000898   0.000003   0.000003
   31  O  3  S   -0.027477   0.000035  -0.000006   0.031953  -0.011742
   32  O  3  S    0.071361  -0.000092   0.000015  -0.075177   0.028112
   33  O  3  S    0.044184  -0.000039   0.000038  -0.168572   0.042119
   34  O  3  X   -0.307484   0.000558   0.000045  -0.105331  -0.068844
   35  O  3  Y    0.410510  -0.000619  -0.000042   0.284360  -0.184039
   36  O  3  Z    0.000762   0.509077  -0.332571  -0.000032   0.000014
   37  O  3  X   -0.241115   0.000432   0.000039  -0.072277  -0.110476
   38  O  3  Y    0.276116  -0.000422  -0.000035   0.291953  -0.235854
   39  O  3  Z    0.000546   0.366024  -0.316405  -0.000038   0.000012
   40  O  3 XX   -0.007104   0.000015   0.000001  -0.004701   0.008427
   41  O  3 YY    0.001939  -0.000006  -0.000001   0.007070  -0.011179
   42  O  3 ZZ    0.005165  -0.000009   0.000000  -0.002369   0.002752
   43  O  3 XY    0.011280  -0.000016   0.000001  -0.005704   0.003131
   44  O  3 XZ    0.000024   0.015316   0.003156   0.000001  -0.000001
   45  O  3 YZ    0.000010   0.006103   0.012211   0.000001   0.000001
   46  H  4  S   -0.193101   0.000232  -0.000059   0.365418  -0.249753
   47  H  4  S   -0.145730   0.000185  -0.000050   0.739563  -0.907192
   48  H  4  X    0.020343  -0.000036  -0.000002   0.003343   0.004824
   49  H  4  Y   -0.003105   0.000005  -0.000001  -0.011117   0.016368
   50  H  4  Z    0.000001  -0.000119  -0.014336  -0.000003  -0.000003
   51  H  5  S   -0.120571   0.000178  -0.000080   0.209408   0.084590
   52  H  5  S   -0.085473   0.000121  -0.000073   0.804766   1.295376
   53  H  5  X    0.000864   0.000003   0.000002   0.014249   0.026221
   54  H  5  Y    0.000816   0.000002   0.000002   0.019061  -0.003800
   55  H  5  Z   -0.000023  -0.017186  -0.016516   0.000000   0.000009

                     16         17         18         19         20
                    0.1578     0.1918     0.3312     0.5147     0.5333
                     A          A          A          A          A   
    1  N  1  S    0.031822  -0.067201   0.091774   0.007839  -0.016766
    2  N  1  S   -0.013622   0.086865  -0.239613  -0.011965   0.186217
    3  N  1  S   -0.761234   1.536651  -0.787217   0.296653  -0.818454
    4  N  1  X    0.065750  -0.214511   0.115467  -0.515759  -0.258620
    5  N  1  Y    0.015789   0.158479  -0.115321  -0.419877   0.519131
    6  N  1  Z   -0.000014  -0.000039  -0.000061  -0.000100  -0.000065
    7  N  1  X    0.677059  -0.997865   0.596103   0.234702   0.869586
    8  N  1  Y   -0.068112   0.764679  -0.601405   0.561763  -0.645942
    9  N  1  Z   -0.000007  -0.000040  -0.000064   0.000054   0.000095
   10  N  1 XX    0.018932   0.034462   0.077356   0.070364  -0.063888
   11  N  1 YY   -0.027677  -0.022500  -0.002212  -0.027762   0.028639
   12  N  1 ZZ    0.008745  -0.011962  -0.075144  -0.042602   0.035250
   13  N  1 XY   -0.019523   0.051030   0.034136   0.019502   0.010686
   14  N  1 XZ    0.000004   0.000008   0.000019   0.000056  -0.000010
   15  N  1 YZ    0.000001   0.000006   0.000008   0.000027  -0.000009
   16  N  2  S   -0.107264   0.038030  -0.090493   0.032141  -0.004472
   17  N  2  S    0.242810  -0.061111   0.278260  -0.144178  -0.095074
   18  N  2  S    1.515139  -1.045944   1.173213  -0.170068   1.615991
   19  N  2  X   -0.270876  -0.441649   0.250159   0.367964   0.196482
   20  N  2  Y   -0.329035   0.102519  -0.063042   0.144822   0.639245
   21  N  2  Z    0.000015   0.000021   0.000041   0.000076  -0.000032
   22  N  2  X   -0.515596  -1.214674   0.535839  -0.568272  -0.522472
   23  N  2  Y   -0.914614   0.520578  -0.617304   0.091230  -1.328851
   24  N  2  Z    0.000005   0.000056   0.000008  -0.000050  -0.000006
   25  N  2 XX   -0.028009  -0.012314  -0.015596  -0.025257   0.093532
   26  N  2 YY    0.008453   0.011196   0.013409   0.049679  -0.025156
   27  N  2 ZZ    0.019556   0.001118   0.002187  -0.024422  -0.068377
   28  N  2 XY   -0.024044  -0.032699   0.003785   0.014546  -0.043333
   29  N  2 XZ   -0.000000  -0.000002  -0.000004  -0.000010  -0.000005
   30  N  2 YZ    0.000001   0.000003   0.000003   0.000009   0.000002
   31  O  3  S    0.094043   0.042817   0.009711  -0.015409  -0.006075
   32  O  3  S   -0.158999  -0.137738  -0.073363   0.080056   0.127666
   33  O  3  S   -1.169402  -0.196522   0.106819  -0.301597  -0.878918
   34  O  3  X   -0.276743  -0.157782  -0.241731   0.256379   0.211119
   35  O  3  Y   -0.261954  -0.154370   0.136021   0.036473   0.013542
   36  O  3  Z    0.000001   0.000004   0.000004   0.000031  -0.000031
   37  O  3  X   -0.646922  -0.109737  -0.096969   0.014907  -0.397474
   38  O  3  Y   -0.427962  -0.343844  -0.008670  -0.012682  -0.220224
   39  O  3  Z    0.000004  -0.000006  -0.000009  -0.000025   0.000028
   40  O  3 XX   -0.001837   0.000214   0.024219  -0.017297  -0.057592
   41  O  3 YY    0.000484   0.014504  -0.004134  -0.016222   0.026535
   42  O  3 ZZ    0.001353  -0.014718  -0.020086   0.033519   0.031057
   43  O  3 XY    0.022626  -0.007087  -0.021793  -0.023534  -0.052701
   44  O  3 XZ    0.000000  -0.000000   0.000001   0.000000   0.000003
   45  O  3 YZ    0.000000   0.000001   0.000001   0.000007  -0.000002
   46  H  4  S   -0.242158   0.319100   0.795786  -0.455272   0.153723
   47  H  4  S    0.677086  -0.766292  -0.849579   0.809507  -0.381721
   48  H  4  X   -0.001137  -0.002293   0.010143   0.034209  -0.025781
   49  H  4  Y   -0.002879   0.009158  -0.009536   0.068584   0.002042
   50  H  4  Z   -0.000000  -0.000005  -0.000009  -0.000024   0.000008
   51  H  5  S    0.072097   0.254887   0.623161   0.703731  -0.198558
   52  H  5  S   -0.248082   0.122065  -0.605276  -0.804011   0.196960
   53  H  5  X    0.005406   0.013099   0.048788   0.118816  -0.003759
   54  H  5  Y   -0.015815   0.021206  -0.001511   0.027653  -0.026169
   55  H  5  Z   -0.000001   0.000003  -0.000003   0.000042  -0.000005

                     21         22         23         24         25
                    0.5435     0.5766     0.5999     0.6346     0.7823
                     A          A          A          A          A   
    1  N  1  S    0.000009  -0.014487   0.010137   0.000009  -0.000030
    2  N  1  S   -0.000004   0.055411   0.105507  -0.000005   0.000341
    3  N  1  S   -0.000309  -1.116842  -0.197701  -0.000098  -0.000405
    4  N  1  X   -0.000179  -0.244939  -0.525507  -0.000117  -0.000386
    5  N  1  Y    0.000070  -0.200912   0.458079  -0.000027  -0.000105
    6  N  1  Z    0.776657  -0.000075  -0.000151   0.512814   0.124335
    7  N  1  X    0.000288   0.544468   0.635846   0.000176   0.001248
    8  N  1  Y   -0.000162   0.024471  -0.931981  -0.000010   0.000074
    9  N  1  Z   -0.767507   0.000064   0.000174  -0.979299  -0.060410
   10  N  1 XX   -0.000009  -0.047362   0.047107   0.000015   0.000020
   11  N  1 YY   -0.000001  -0.004811  -0.009094  -0.000003   0.000034
   12  N  1 ZZ    0.000010   0.052174  -0.038013  -0.000011  -0.000053
   13  N  1 XY    0.000018   0.097887   0.028191   0.000006   0.000006
   14  N  1 XZ   -0.028497   0.000014   0.000025   0.009148  -0.060819
   15  N  1 YZ    0.030708   0.000002   0.000006   0.006068  -0.037149
   16  N  2  S    0.000004  -0.034218   0.019237   0.000003   0.000011
   17  N  2  S   -0.000026   0.135560   0.224435  -0.000024   0.000135
   18  N  2  S    0.000251   0.432449  -0.529718   0.000131   0.001525
   19  N  2  X   -0.000077  -0.593086  -0.269560   0.000029  -0.000210
   20  N  2  Y    0.000057   0.498655  -0.244498  -0.000006  -0.000285
   21  N  2  Z    0.484700  -0.000047  -0.000018  -0.737004   0.145802
   22  N  2  X    0.000204   1.366427   1.047784  -0.000005  -0.000104
   23  N  2  Y   -0.000109  -0.940431   1.014431  -0.000009  -0.000110
   24  N  2  Z   -0.400379   0.000037  -0.000017   1.290424  -0.555279
   25  N  2 XX    0.000010   0.019036   0.021785  -0.000003   0.000115
   26  N  2 YY    0.000007  -0.017062   0.038667   0.000012   0.000053
   27  N  2 ZZ   -0.000017  -0.001974  -0.060452  -0.000010  -0.000168
   28  N  2 XY   -0.000024  -0.015153  -0.112055  -0.000008   0.000071
   29  N  2 XZ    0.020373  -0.000002  -0.000009   0.019930   0.010177
   30  N  2 YZ   -0.049455   0.000007   0.000012   0.030946  -0.023015
   31  O  3  S   -0.000005  -0.018913  -0.052718  -0.000001   0.000058
   32  O  3  S    0.000011   0.081589   0.126324  -0.000003  -0.000214
   33  O  3  S    0.000059   0.200773   1.023622  -0.000007  -0.000222
   34  O  3  X   -0.000019  -0.135876  -0.206595   0.000003   0.000604
   35  O  3  Y   -0.000001   0.085686  -0.139959   0.000007   0.000561
   36  O  3  Z    0.205756  -0.000019  -0.000016  -0.101581  -0.866186
   37  O  3  X    0.000056   0.070440   0.784756   0.000028  -0.001113
   38  O  3  Y    0.000021   0.151415   0.361402  -0.000011  -0.001155
   39  O  3  Z   -0.058409   0.000001  -0.000002  -0.140078   1.177603
   40  O  3 XX   -0.000002  -0.009544   0.029766  -0.000001   0.000027
   41  O  3 YY    0.000006   0.017263   0.017617  -0.000000   0.000034
   42  O  3 ZZ   -0.000005  -0.007720  -0.047384   0.000001  -0.000060
   43  O  3 XY    0.000005   0.061741   0.059260  -0.000004   0.000026
   44  O  3 XZ    0.004589  -0.000001  -0.000001  -0.036957  -0.009409
   45  O  3 YZ    0.017956  -0.000002  -0.000001   0.000944  -0.023260
   46  H  4  S    0.000030  -0.130481  -0.112746   0.000019   0.000612
   47  H  4  S    0.000018   0.338712   0.190110   0.000050  -0.000396
   48  H  4  X    0.000014   0.058318   0.031495   0.000011   0.000014
   49  H  4  Y    0.000011   0.001260  -0.001437   0.000014   0.000042
   50  H  4  Z   -0.028660  -0.000000  -0.000005  -0.017671   0.082189
   51  H  5  S    0.000030   0.104934   0.258874   0.000103  -0.000409
   52  H  5  S    0.000025  -0.345141  -0.544261  -0.000082  -0.000247
   53  H  5  X   -0.000015   0.008213   0.039045  -0.000006   0.000040
   54  H  5  Y   -0.000000   0.062136   0.038702   0.000012  -0.000002
   55  H  5  Z    0.002234   0.000020   0.000015  -0.007233  -0.031930

                     26         27         28         29         30
                    0.7868     0.8335     0.9159     1.0090     1.1715
                     A          A          A          A          A   
    1  N  1  S   -0.029883   0.064336   0.027520  -0.000967   0.043562
    2  N  1  S    0.374579  -0.897409  -0.535432  -0.245093  -1.398226
    3  N  1  S   -0.504720   0.348507   0.657611   1.412193   4.526471
    4  N  1  X   -0.204155  -0.102009  -0.214447  -0.332205   0.114217
    5  N  1  Y   -0.005178   0.151920  -0.030589  -0.397862   0.138421
    6  N  1  Z   -0.000170  -0.000048  -0.000070  -0.000041   0.000037
    7  N  1  X    0.525885   0.518172   1.418853   1.521184  -1.938715
    8  N  1  Y   -0.177266  -0.573137   0.209379   1.502422   0.745690
    9  N  1  Z    0.000128   0.000086   0.000267   0.000330  -0.000047
   10  N  1 XX    0.009675  -0.029145  -0.013307  -0.050105  -0.124071
   11  N  1 YY    0.034872  -0.007616  -0.076901   0.073717   0.049188
   12  N  1 ZZ   -0.044547   0.036761   0.090208  -0.023612   0.074883
   13  N  1 XY   -0.000397   0.092749   0.007865  -0.070819  -0.036762
   14  N  1 XZ    0.000057   0.000018  -0.000056  -0.000203   0.000210
   15  N  1 YZ    0.000036   0.000007  -0.000035  -0.000096   0.000102
   16  N  2  S    0.003276   0.037889   0.048892  -0.028493  -0.025857
   17  N  2  S    0.193624  -0.776260  -0.936825   0.607042   0.959067
   18  N  2  S    1.031605   1.863092   2.139495  -1.507342  -3.513739
   19  N  2  X   -0.176233  -0.239510   0.017217   0.061097   0.100472
   20  N  2  Y   -0.194909  -0.074162  -0.056980  -0.120707   0.042200
   21  N  2  Z   -0.000182  -0.000020  -0.000046  -0.000071   0.000039
   22  N  2  X    0.013307   0.774439  -0.543313  -0.548042  -1.722394
   23  N  2  Y   -0.001411  -0.610890  -0.517129   0.134998   1.292615
   24  N  2  Z    0.000673   0.000030   0.000043   0.000062  -0.000000
   25  N  2 XX    0.098292  -0.052849  -0.016105   0.094612   0.077280
   26  N  2 YY    0.040492   0.012526  -0.057497  -0.068503  -0.062880
   27  N  2 ZZ   -0.138785   0.040322   0.073602  -0.026110  -0.014399
   28  N  2 XY    0.063594   0.050468  -0.010533  -0.037379   0.108077
   29  N  2 XZ   -0.000015   0.000001   0.000010   0.000029  -0.000025
   30  N  2 YZ    0.000022  -0.000001  -0.000028  -0.000088   0.000090
   31  O  3  S    0.044454   0.037171   0.012557   0.000032  -0.029319
   32  O  3  S   -0.151719  -0.197695  -0.078956  -0.049645   0.386838
   33  O  3  S   -0.142289  -0.058713  -0.498152   0.230329  -0.304298
   34  O  3  X    0.521772   0.366377  -0.362461   0.010485   0.053304
   35  O  3  Y    0.467982  -0.349692   0.481508  -0.331402   0.219187
   36  O  3  Z    0.001072   0.000039   0.000154   0.000231  -0.000098
   37  O  3  X   -0.959889  -0.863550   0.352793   0.296822  -0.001818
   38  O  3  Y   -0.919213   0.475475  -1.050650   0.527422  -0.652113
   39  O  3  Z   -0.001460  -0.000059  -0.000228  -0.000383   0.000190
   40  O  3 XX    0.025007   0.041714  -0.071077  -0.028067   0.019006
   41  O  3 YY    0.023564  -0.047125   0.017431   0.091015   0.025298
   42  O  3 ZZ   -0.048571   0.005411   0.053646  -0.062948  -0.044304
   43  O  3 XY    0.027644  -0.043690  -0.022850  -0.009276   0.094620
   44  O  3 XZ    0.000015   0.000003   0.000022   0.000053  -0.000058
   45  O  3 YZ    0.000025  -0.000000  -0.000009  -0.000031   0.000032
   46  H  4  S    0.360234   0.205820   0.051244   0.733839  -0.532060
   47  H  4  S   -0.352901  -0.317069  -0.419804   0.500049  -0.479333
   48  H  4  X    0.004817  -0.025647  -0.021954  -0.035570   0.018419
   49  H  4  Y    0.019364   0.053456  -0.022849  -0.029473  -0.149496
   50  H  4  Z   -0.000099   0.000001   0.000050   0.000127  -0.000131
   51  H  5  S   -0.135279   0.055764  -0.561538  -1.011729   0.087926
   52  H  5  S   -0.010930  -0.628653  -0.624862  -0.640056   0.099659
   53  H  5  X    0.001751   0.034330   0.065882   0.067296   0.053330
   54  H  5  Y   -0.002195   0.072446  -0.022808   0.039859   0.134282
   55  H  5  Z    0.000027   0.000041  -0.000012  -0.000119   0.000266

                     31         32         33         34         35
                    1.3075     1.3886     1.4808     1.5878     1.6533
                     A          A          A          A          A   
    1  N  1  S   -0.000028  -0.006424   0.000001   0.018121   0.000052
    2  N  1  S    0.000702   0.434000   0.000010  -0.144978  -0.000068
    3  N  1  S   -0.002235  -1.633341   0.000004   0.531969  -0.000536
    4  N  1  X   -0.000226   0.001651  -0.000009   0.031308  -0.000055
    5  N  1  Y   -0.000288  -0.081582  -0.000011   0.040785  -0.000027
    6  N  1  Z    0.017209  -0.000011  -0.122620   0.000008   0.070920
    7  N  1  X    0.001629   0.259900   0.000176  -0.113233   0.003242
    8  N  1  Y   -0.000126  -0.563128  -0.000100  -0.296580   0.001392
    9  N  1  Z   -0.035578  -0.000077   0.047323   0.000109   0.059216
   10  N  1 XX   -0.000223  -0.292690   0.000014  -0.058963   0.000253
   11  N  1 YY    0.000147   0.384631   0.000015   0.330840   0.000510
   12  N  1 ZZ    0.000076  -0.091941  -0.000029  -0.271876  -0.000763
   13  N  1 XY   -0.000146   0.070914   0.000011   0.112917   0.000772
   14  N  1 XZ    0.507232  -0.000271  -0.145681   0.000052   0.051868
   15  N  1 YZ    0.155138   0.000006   0.509371  -0.000060  -0.353459
   16  N  2  S    0.000012   0.007025  -0.000004  -0.007544  -0.000027
   17  N  2  S   -0.000595  -0.604857   0.000082   0.317392  -0.000368
   18  N  2  S    0.002153   2.293921  -0.000281  -1.600524   0.003782
   19  N  2  X   -0.000068   0.045666   0.000023   0.112595   0.000372
   20  N  2  Y   -0.000170  -0.171527   0.000018   0.044100  -0.000119
   21  N  2  Z    0.098171  -0.000051  -0.021102  -0.000001   0.148614
   22  N  2  X    0.000838   0.047243   0.000211   0.479278  -0.002472
   23  N  2  Y   -0.000836  -0.721537   0.000105   0.666510  -0.001918
   24  N  2  Z   -0.073984   0.000029  -0.107804  -0.000067  -0.048522
   25  N  2 XX    0.000223   0.245243  -0.000001   0.091790  -0.000371
   26  N  2 YY   -0.000357  -0.433373   0.000052  -0.008409   0.000728
   27  N  2 ZZ    0.000134   0.188130  -0.000051  -0.083382  -0.000357
   28  N  2 XY   -0.000106   0.003667  -0.000036  -0.065874   0.000355
   29  N  2 XZ   -0.104032   0.000117   0.615889  -0.000238   0.194077
   30  N  2 YZ    0.280130  -0.000161  -0.031194  -0.000054   0.662946
   31  O  3  S    0.000022  -0.022205   0.000024   0.078412  -0.000077
   32  O  3  S   -0.000313   0.320049  -0.000370  -1.373891   0.001750
   33  O  3  S    0.000261  -0.916247   0.000659   2.505713  -0.004562
   34  O  3  X   -0.000022   0.041020  -0.000048  -0.147908  -0.000212
   35  O  3  Y   -0.000214  -0.093556   0.000023   0.056076   0.000038
   36  O  3  Z   -0.120324   0.000044   0.011022  -0.000043   0.094427
   37  O  3  X    0.000110  -0.287917   0.000235   0.926657  -0.000922
   38  O  3  Y    0.000323  -0.344786   0.000116   0.206736  -0.001175
   39  O  3  Z    0.253735  -0.000069   0.190017   0.000008   0.017147
   40  O  3 XX   -0.000222  -0.217976  -0.000006  -0.126499   0.000556
   41  O  3 YY    0.000179   0.075643   0.000009  -0.016135  -0.000601
   42  O  3 ZZ    0.000044   0.142332  -0.000003   0.142634   0.000045
   43  O  3 XY   -0.000009   0.174512  -0.000063  -0.035790   0.000170
   44  O  3 XZ   -0.134381   0.000057  -0.220472   0.000077  -0.334613
   45  O  3 YZ    0.084615  -0.000060  -0.197542   0.000133  -0.203629
   46  H  4  S    0.000653   0.143885  -0.000070  -0.475179   0.000741
   47  H  4  S    0.000037  -0.322528   0.000002  -0.178249   0.000965
   48  H  4  X   -0.000128   0.247285  -0.000098   0.058133   0.001064
   49  H  4  Y   -0.000254  -0.334599   0.000071   0.172372   0.000725
   50  H  4  Z   -0.366872   0.000179  -0.175989  -0.000086   0.169118
   51  H  5  S   -0.000245   0.386144  -0.000084  -0.047386  -0.001830
   52  H  5  S   -0.000299   0.103851  -0.000059  -0.000495  -0.000427
   53  H  5  X   -0.000095  -0.040050  -0.000070  -0.162320  -0.000466
   54  H  5  Y   -0.000124   0.138503   0.000158   0.348539   0.000460
   55  H  5  Z    0.438512  -0.000268   0.023614  -0.000051  -0.257718

                     36         37         38         39         40
                    1.6686     1.7799     1.8735     1.9232     2.1639
                     A          A          A          A          A   
    1  N  1  S   -0.018394   0.000007  -0.006030  -0.030614  -0.030675
    2  N  1  S   -0.048750   0.000340   0.220702   0.407179   0.188308
    3  N  1  S    0.474112  -0.001144  -1.201851  -0.493877  -0.012126
    4  N  1  X    0.029281  -0.000050   0.118163  -0.141601   0.196800
    5  N  1  Y    0.027954  -0.000038  -0.064433   0.019030   0.067225
    6  N  1  Z    0.000234   0.034495   0.000049   0.000020   0.000032
    7  N  1  X   -1.435028   0.001180   0.192491   0.475344   0.031487
    8  N  1  Y   -0.522698  -0.000027  -0.623240  -0.328157   0.258434
    9  N  1  Z   -0.000256  -0.409810   0.000029   0.000156  -0.000137
   10  N  1 XX   -0.081897  -0.000099  -0.160626  -0.170672  -0.311531
   11  N  1 YY   -0.186321   0.000158   0.233876  -0.114652   0.410141
   12  N  1 ZZ    0.268219  -0.000059  -0.073250   0.285324  -0.098610
   13  N  1 XY   -0.293847   0.000151  -0.010895  -0.043366  -0.303825
   14  N  1 XZ   -0.000055   0.120728   0.000002  -0.000097  -0.000285
   15  N  1 YZ   -0.000944   0.109090  -0.000075  -0.000078  -0.000121
   16  N  2  S    0.011866  -0.000016  -0.008706  -0.010534   0.013795
   17  N  2  S    0.194503  -0.000103  -0.362832   0.204834  -0.404536
   18  N  2  S   -1.842347   0.001569   2.072978   0.137860   0.588649
   19  N  2  X   -0.143123   0.000138  -0.070787   0.059929  -0.175086
   20  N  2  Y    0.063896  -0.000086  -0.097672  -0.033868   0.101536
   21  N  2  Z    0.000329   0.003130   0.000029   0.000019  -0.000020
   22  N  2  X    0.972791  -0.000311   0.042454   0.216034  -0.374450
   23  N  2  Y    0.895934  -0.000658  -0.733487   0.020877  -0.337475
   24  N  2  Z    0.000099   0.202668  -0.000055  -0.000115   0.000088
   25  N  2 XX    0.161227  -0.000169   0.116585  -0.530529   0.175101
   26  N  2 YY   -0.297073   0.000239  -0.118069   0.232677   0.266301
   27  N  2 ZZ    0.135846  -0.000070   0.001484   0.297852  -0.441401
   28  N  2 XY   -0.135580   0.000061  -0.044952  -0.062156   0.216415
   29  N  2 XZ    0.000600   0.096673  -0.000084  -0.000108   0.000053
   30  N  2 YZ    0.001535   0.046491   0.000127   0.000112  -0.000045
   31  O  3  S    0.034858  -0.000010  -0.011701  -0.015289   0.024339
   32  O  3  S   -0.802036   0.000307   0.638677  -0.048081  -0.053496
   33  O  3  S    2.050215  -0.000960  -1.555536   0.397371  -0.512810
   34  O  3  X    0.084167  -0.000077  -0.046608   0.095476  -0.230886
   35  O  3  Y   -0.011355   0.000019   0.046057   0.086921  -0.079424
   36  O  3  Z    0.000295   0.060419  -0.000001  -0.000005   0.000036
   37  O  3  X    0.450442  -0.000183  -0.590632   0.095118  -0.005291
   38  O  3  Y    0.474235  -0.000221  -0.219876   0.084876  -0.121659
   39  O  3  Z   -0.000138  -0.160695   0.000015   0.000029  -0.000063
   40  O  3 XX   -0.244195   0.000170   0.158345   0.082530   0.363891
   41  O  3 YY    0.230632  -0.000207   0.329236  -0.299867  -0.496000
   42  O  3 ZZ    0.013563   0.000037  -0.487581   0.217337   0.132109
   43  O  3 XY   -0.051150  -0.000005  -0.280762  -0.074015  -0.015678
   44  O  3 XZ   -0.000643   0.257245  -0.000022  -0.000131  -0.000356
   45  O  3 YZ   -0.000736  -0.340228  -0.000005   0.000167   0.000379
   46  H  4  S   -0.367845   0.000312  -0.038860   0.169006   0.055212
   47  H  4  S   -0.415699   0.000213   0.042534  -0.161223   0.028025
   48  H  4  X   -0.380223   0.000143  -0.478371  -0.187571  -0.036103
   49  H  4  Y   -0.294946   0.000210   0.281310  -0.368478  -0.042868
   50  H  4  Z    0.001058   0.734601  -0.000001  -0.000116   0.000129
   51  H  5  S    0.723763  -0.000258   0.276876   0.046298   0.028760
   52  H  5  S    0.184841  -0.000097   0.031961  -0.101630  -0.131426
   53  H  5  X    0.221515  -0.000376  -0.041901  -0.161963   0.490384
   54  H  5  Y   -0.194782   0.000304   0.396890   0.550289  -0.017580
   55  H  5  Z   -0.000588   0.504302  -0.000205  -0.000156   0.000482

                     41         42         43         44         45
                    2.1908     2.2661     2.3176     2.3385     2.5029
                     A          A          A          A          A   
    1  N  1  S    0.000023   0.021113   0.000011   0.015348   0.019577
    2  N  1  S    0.000156  -0.638193   0.000195  -0.055305   0.378686
    3  N  1  S   -0.000851   0.827919  -0.004095  -1.382475  -1.572105
    4  N  1  X   -0.000021   0.126383  -0.000050   0.105289   0.643704
    5  N  1  Y   -0.000013  -0.164981  -0.000454  -0.188288   0.015299
    6  N  1  Z   -0.029865   0.000044   0.072415  -0.000254   0.000164
    7  N  1  X    0.000326  -0.567938   0.001399   0.402996   1.136114
    8  N  1  Y   -0.000375   0.277017  -0.001975  -0.652356  -0.256004
    9  N  1  Z   -0.066096   0.000273   0.317367  -0.001055   0.000427
   10  N  1 XX    0.000152   0.306323   0.000305   0.203579  -0.048147
   11  N  1 YY   -0.000357   0.228172  -0.001011  -0.283447  -0.367831
   12  N  1 ZZ    0.000205  -0.534494   0.000706   0.079868   0.415978
   13  N  1 XY    0.000292  -0.434476   0.000225  -0.008092   0.132015
   14  N  1 XZ   -0.337009   0.000221   0.231250  -0.000761  -0.000657
   15  N  1 YZ    0.107071   0.000800   0.750694  -0.002534   0.000652
   16  N  2  S   -0.000016   0.019757  -0.000005  -0.001171  -0.029020
   17  N  2  S    0.000172  -0.235980  -0.002395  -0.797684  -0.036246
   18  N  2  S    0.000326  -0.168974   0.007193   2.429266   1.581741
   19  N  2  X    0.000205  -0.317012   0.000726   0.161922   0.120885
   20  N  2  Y   -0.000128   0.176097   0.000279   0.098978  -0.222639
   21  N  2  Z   -0.021808  -0.000006  -0.014885   0.000064  -0.000062
   22  N  2  X    0.000439   0.002500   0.000650   0.389202   0.733686
   23  N  2  Y   -0.000007  -0.087132  -0.003299  -1.124478  -0.563204
   24  N  2  Z   -0.034885  -0.000310  -0.328088   0.001075  -0.000452
   25  N  2 XX    0.000009  -0.089930   0.001133   0.283669   0.061045
   26  N  2 YY   -0.000185   0.116136   0.001250   0.433312   0.169484
   27  N  2 ZZ    0.000176  -0.026206  -0.002384  -0.716980  -0.230528
   28  N  2 XY   -0.000064  -0.604429   0.001207   0.076390  -0.519280
   29  N  2 XZ   -0.026914  -0.000241  -0.250897   0.000743  -0.000736
   30  N  2 YZ    0.082571   0.000374   0.403647  -0.001360   0.000810
   31  O  3  S   -0.000005  -0.038146   0.000115   0.018746  -0.014633
   32  O  3  S   -0.000035   0.396119  -0.000708  -0.077148   0.141981
   33  O  3  S    0.000269  -0.379774  -0.001602  -0.572625  -0.169929
   34  O  3  X    0.000085   0.220195  -0.000798  -0.139688   0.102962
   35  O  3  Y    0.000001   0.143022  -0.000740  -0.162810   0.040703
   36  O  3  Z    0.043135  -0.000013  -0.019586   0.000063  -0.000032
   37  O  3  X    0.000004  -0.281360  -0.000510  -0.265623  -0.172776
   38  O  3  Y    0.000112  -0.152902   0.000298   0.063267   0.047464
   39  O  3  Z   -0.067453   0.000074   0.098369  -0.000330   0.000142
   40  O  3 XX   -0.000255  -0.062657  -0.000299  -0.182150  -0.276525
   41  O  3 YY    0.000435  -0.080835   0.000875   0.337873   0.174996
   42  O  3 ZZ   -0.000180   0.143492  -0.000576  -0.155724   0.101529
   43  O  3 XY    0.000047  -0.112031   0.001139   0.303913   0.037131
   44  O  3 XZ   -0.471918   0.000126   0.238232  -0.000813   0.000347
   45  O  3 YZ    0.700306   0.000373   0.207086  -0.000748  -0.000341
   46  H  4  S    0.000066  -0.104661   0.000011  -0.002414   0.434476
   47  H  4  S    0.000080  -0.138194  -0.000877  -0.281597   0.257651
   48  H  4  X    0.000139   0.027307  -0.000701  -0.141107   0.463434
   49  H  4  Y    0.000208  -0.189485  -0.001281  -0.401593   0.440020
   50  H  4  Z    0.409926   0.000434   0.248499  -0.000816  -0.000367
   51  H  5  S    0.000063   0.026520   0.000310   0.138208  -0.357961
   52  H  5  S    0.000020   0.075417   0.000214   0.056165  -0.364376
   53  H  5  X   -0.000272  -0.162506  -0.000681  -0.276898   0.586221
   54  H  5  Y    0.000025   0.009056   0.000864   0.337443   0.453862
   55  H  5  Z    0.341157  -0.000597  -0.642915   0.002029   0.000258

                     46         47         48         49         50
                    2.5835     2.6989     2.7194     2.7840     2.9369
                     A          A          A          A          A   
    1  N  1  S    0.000037  -0.000036  -0.002801   0.065861   0.043151
    2  N  1  S    0.000438  -0.000098  -0.013961  -0.165949   0.057743
    3  N  1  S   -0.002288   0.001139  -0.096404  -1.800050  -0.933534
    4  N  1  X    0.000717  -0.000153   0.078934   0.038524  -0.025787
    5  N  1  Y   -0.000074   0.000145   0.007935  -0.385410  -0.205941
    6  N  1  Z   -0.034537  -0.007178   0.000026  -0.000077  -0.000045
    7  N  1  X    0.001614  -0.000566   0.251946   0.385848   0.406988
    8  N  1  Y   -0.000403   0.000332   0.193833  -0.725569  -0.262150
    9  N  1  Z   -0.173678   0.064031   0.000044  -0.000014   0.000011
   10  N  1 XX   -0.000351   0.000141  -0.390835  -0.487342  -0.245291
   11  N  1 YY   -0.000329   0.000319   0.436707   0.005021  -0.130966
   12  N  1 ZZ    0.000680  -0.000460  -0.045872   0.482321   0.376258
   13  N  1 XY    0.000319  -0.000075   0.331762   0.601924   0.104350
   14  N  1 XZ    0.778568  -0.379704   0.000099  -0.000478  -0.000083
   15  N  1 YZ   -0.296388  -0.153968   0.000266  -0.000099  -0.000012
   16  N  2  S   -0.000056   0.000028  -0.026043  -0.080013   0.026920
   17  N  2  S   -0.000016  -0.000067   0.000428   0.028419  -0.183975
   18  N  2  S    0.002461  -0.001192   0.348689   2.545292  -0.508345
   19  N  2  X    0.000196  -0.000081  -0.021153   0.046697   0.459454
   20  N  2  Y   -0.000382   0.000198  -0.126240  -0.424891   0.186192
   21  N  2  Z    0.036161  -0.061525   0.000007  -0.000040  -0.000014
   22  N  2  X    0.000880  -0.000320  -0.015397   0.310900   0.887631
   23  N  2  Y   -0.000926   0.000286  -0.370061  -0.869979   0.329144
   24  N  2  Z    0.152260  -0.317066   0.000103  -0.000146  -0.000043
   25  N  2 XX    0.000107  -0.000425  -0.425613   0.603588   0.119404
   26  N  2 YY    0.000352   0.000224   0.596374   0.017329  -0.237045
   27  N  2 ZZ   -0.000460   0.000201  -0.170761  -0.620916   0.117642
   28  N  2 XY   -0.000675   0.000322  -0.005605  -0.403567  -0.751470
   29  N  2 XZ    0.690546   0.467417  -0.000351   0.000012  -0.000008
   30  N  2 YZ   -0.370723   0.565540  -0.000171   0.000306   0.000058
   31  O  3  S   -0.000013   0.000002   0.000852   0.004501  -0.017632
   32  O  3  S    0.000185  -0.000286  -0.208270   0.459342  -0.813650
   33  O  3  S   -0.000405   0.000597   0.213554  -1.352831   2.228351
   34  O  3  X    0.000082  -0.000033  -0.046103  -0.027603   0.083319
   35  O  3  Y    0.000044   0.000005   0.026279  -0.025564   0.098661
   36  O  3  Z    0.003998  -0.029431   0.000015  -0.000009  -0.000003
   37  O  3  X   -0.000265   0.000292   0.115303  -0.641593   1.116805
   38  O  3  Y   -0.000018   0.000038  -0.155247  -0.334490   0.279112
   39  O  3  Z    0.028862   0.336575  -0.000153   0.000126   0.000014
   40  O  3 XX   -0.000316  -0.000010  -0.211195  -0.099109   0.868249
   41  O  3 YY    0.000185   0.000359   0.508726  -0.339243  -0.161256
   42  O  3 ZZ    0.000131  -0.000348  -0.297531   0.438352  -0.706993
   43  O  3 XY   -0.000063  -0.000076  -0.461622  -0.352890   0.211580
   44  O  3 XZ    0.084740   0.751354  -0.000324   0.000249   0.000031
   45  O  3 YZ    0.405071   0.392970  -0.000242   0.000086  -0.000024
   46  H  4  S    0.000549  -0.000387  -0.259120   0.065283  -0.228735
   47  H  4  S    0.000266  -0.000139  -0.085296  -0.120051   0.015947
   48  H  4  X    0.000504   0.000033   0.312469  -0.305137   0.443082
   49  H  4  Y    0.000463  -0.000450  -0.460512  -0.004671  -0.254352
   50  H  4  Z    0.222559  -0.247772   0.000149  -0.000158  -0.000023
   51  H  5  S   -0.000444  -0.000009  -0.132759   0.437409   0.189923
   52  H  5  S   -0.000403   0.000080  -0.064205   0.127499  -0.082823
   53  H  5  X    0.000651  -0.000007   0.215513  -0.385062  -0.227815
   54  H  5  Y    0.000491  -0.000181  -0.333808  -0.297726  -0.089361
   55  H  5  Z   -0.316166   0.258039  -0.000097   0.000036  -0.000090

                     51         52
                    3.1914     3.5308
                     A          A   
    1  N  1  S   -0.002893  -0.080204
    2  N  1  S    0.137310  -0.022796
    3  N  1  S   -0.159034   1.890405
    4  N  1  X   -0.156028   0.483547
    5  N  1  Y    0.053850   0.113657
    6  N  1  Z   -0.000016   0.000172
    7  N  1  X    0.094266   0.057164
    8  N  1  Y   -0.045164   0.231297
    9  N  1  Z   -0.000026   0.000165
   10  N  1 XX    0.324915   0.962263
   11  N  1 YY   -0.409944  -0.318782
   12  N  1 ZZ    0.085029  -0.643481
   13  N  1 XY   -0.423556   0.946810
   14  N  1 XZ    0.000014   0.000351
   15  N  1 YZ   -0.000062   0.000132
   16  N  2  S   -0.024786  -0.004871
   17  N  2  S   -0.047990   0.157730
   18  N  2  S    0.946223  -0.798362
   19  N  2  X   -0.335815   0.098215
   20  N  2  Y   -0.041483   0.035719
   21  N  2  Z    0.000015   0.000005
   22  N  2  X   -0.567629  -0.235354
   23  N  2  Y   -0.200988   0.366043
   24  N  2  Z    0.000005   0.000010
   25  N  2 XX    0.540477   0.292940
   26  N  2 YY   -0.362793  -0.323824
   27  N  2 ZZ   -0.177684   0.030884
   28  N  2 XY    0.591241  -0.126573
   29  N  2 XZ    0.000029  -0.000009
   30  N  2 YZ   -0.000026  -0.000070
   31  O  3  S    0.023285  -0.007476
   32  O  3  S    0.028476  -0.070207
   33  O  3  S   -0.754587   0.371424
   34  O  3  X   -0.164067   0.055814
   35  O  3  Y   -0.082943   0.003496
   36  O  3  Z   -0.000002   0.000002
   37  O  3  X   -0.196045   0.205116
   38  O  3  Y   -0.745109  -0.121197
   39  O  3  Z    0.000031  -0.000029
   40  O  3 XX    0.046166   0.232620
   41  O  3 YY   -0.104713  -0.197849
   42  O  3 ZZ    0.058547  -0.034772
   43  O  3 XY   -0.903204  -0.117862
   44  O  3 XZ    0.000036  -0.000037
   45  O  3 YZ   -0.000004   0.000000
   46  H  4  S   -0.099968  -0.458527
   47  H  4  S   -0.191812  -0.173091
   48  H  4  X    0.591429  -0.341899
   49  H  4  Y   -0.191258  -0.534315
   50  H  4  Z   -0.000011   0.000112
   51  H  5  S    0.070377  -1.258388
   52  H  5  S    0.064041  -0.191659
   53  H  5  X   -0.219689   1.062115
   54  H  5  Y    0.282790   0.372474
   55  H  5  Z   -0.000031   0.000419
 ...... END OF RHF CALCULATION ......
 STEP CPU TIME =     4.65 TOTAL CPU TIME =          4.9 (      0.1 MIN)
 TOTAL WALL CLOCK TIME=          5.5 SECONDS, CPU UTILIZATION IS    88.71%

     ---------------------------------------------------------------------
     PROPERTIES FOR THE PBE      DFT FUNCTIONAL (RHF  TYPE) DENSITY MATRIX
     ---------------------------------------------------------------------

          -----------------
          ENERGY COMPONENTS
          -----------------

         WAVEFUNCTION NORMALIZATION =       1.0000000000

                ONE ELECTRON ENERGY =    -397.3696273406
                TWO ELECTRON ENERGY =     138.7808315177
           NUCLEAR REPULSION ENERGY =      73.0033764178
                                      ------------------
                       TOTAL ENERGY =    -185.5854194050

 ELECTRON-ELECTRON POTENTIAL ENERGY =     138.7808315177
  NUCLEUS-ELECTRON POTENTIAL ENERGY =    -582.4513255653
   NUCLEUS-NUCLEUS POTENTIAL ENERGY =      73.0033764178
                                      ------------------
             TOTAL POTENTIAL ENERGY =    -370.6671176297
               TOTAL KINETIC ENERGY =     185.0816982247
                 VIRIAL RATIO (V/T) =       2.0027216153

          ---------------------------------------
          MULLIKEN AND LOWDIN POPULATION ANALYSES
          ---------------------------------------

     ATOMIC MULLIKEN POPULATION IN EACH MOLECULAR ORBITAL

                      1          2          3          4          5

                  2.000000   2.000000   2.000000   2.000000   2.000000

    1            -0.000029   0.001777   1.999045   0.288970   0.840874
    2             0.001770   1.997956   0.000895   0.829880   0.439559
    3             1.998073   0.000128   0.000034   0.845134   0.615233
    4             0.000185   0.000085   0.000240   0.030797   0.000524
    5             0.000002   0.000053  -0.000213   0.005219   0.103810

                      6          7          8          9         10

                  2.000000   2.000000   2.000000   2.000000   2.000000

    1             0.747181   0.605804   0.536836   0.495764   0.617826
    2             0.425060   0.489110   0.461434   0.953578   0.756677
    3             0.460590   0.393025   0.952510   0.545930   0.367112
    4             0.052897   0.292338   0.032600   0.002966   0.174775
    5             0.314272   0.219723   0.016620   0.001761   0.083611

                     11         12

                  2.000000   2.000000

    1             0.147649   0.917674
    2             0.505409   0.024456
    3             1.096970   1.051817
    4             0.183703   0.000004
    5             0.066269   0.006050

               ----- POPULATIONS IN EACH AO -----
                             MULLIKEN      LOWDIN
              1  N  1  S      1.99440     1.97091
              2  N  1  S      0.87260     0.53910
              3  N  1  S      0.68945     0.38807
              4  N  1  X      0.77922     0.69998
              5  N  1  Y      0.80949     0.75538
              6  N  1  Z      0.84227     0.80363
              7  N  1  X      0.21189     0.38717
              8  N  1  Y      0.40398     0.49958
              9  N  1  Z      0.56348     0.57544
             10  N  1 XX      0.00341     0.20866
             11  N  1 YY      0.00783     0.17598
             12  N  1 ZZ      0.01367     0.15995
             13  N  1 XY      0.00413     0.02879
             14  N  1 XZ      0.00356     0.00684
             15  N  1 YZ      0.00000     0.00438
             16  N  2  S      1.99488     1.97180
             17  N  2  S      0.92437     0.56168
             18  N  2  S      0.78162     0.42301
             19  N  2  X      0.72274     0.65900
             20  N  2  Y      0.95655     0.91585
             21  N  2  Z      0.59748     0.53991
             22  N  2  X      0.12270     0.28284
             23  N  2  Y      0.35009     0.49054
             24  N  2  Z      0.35316     0.40292
             25  N  2 XX      0.00807     0.20660
             26  N  2 YY      0.01673     0.18410
             27  N  2 ZZ      0.03000     0.17416
             28  N  2 XY      0.01771     0.05288
             29  N  2 XZ      0.00968     0.03574
             30  N  2 YZ      0.00000     0.01085
             31  O  3  S      1.99544     1.97164
             32  O  3  S      0.94248     0.68345
             33  O  3  S      0.94970     0.49515
             34  O  3  X      0.95933     0.91679
             35  O  3  Y      0.89883     0.85278
             36  O  3  Z      0.99035     0.95690
             37  O  3  X      0.47576     0.54631
             38  O  3  Y      0.48604     0.55397
             39  O  3  Z      0.60055     0.62798
             40  O  3 XX      0.00338     0.20071
             41  O  3 YY      0.00682     0.19791
             42  O  3 ZZ      0.01103     0.19546
             43  O  3 XY      0.00546     0.01747
             44  O  3 XZ      0.00138     0.00713
             45  O  3 YZ      0.00000     0.00212
             46  H  4  S      0.56680     0.45870
             47  H  4  S      0.16408     0.26900
             48  H  4  X      0.02385     0.07324
             49  H  4  Y      0.01342     0.02023
             50  H  4  Z      0.00297     0.00522
             51  H  5  S      0.71587     0.57713
             52  H  5  S      0.06793     0.18169
             53  H  5  X      0.01883     0.03539
             54  H  5  Y      0.00674     0.01697
             55  H  5  Z      0.00781     0.02093

          ----- MULLIKEN ATOMIC OVERLAP POPULATIONS -----
          (OFF-DIAGONAL ELEMENTS NEED TO BE MULTIPLIED BY 2)

             1           2           3           4           5

    1    6.6635536
    2    0.3281150   6.3855418
    3   -0.2618348   0.2603736   8.1631690
    4    0.1556099  -0.0698387   0.1529008   0.5300902
    5    0.3139270  -0.0184075   0.0119478   0.0023526   0.5073541

          TOTAL MULLIKEN AND LOWDIN ATOMIC POPULATIONS
       ATOM         MULL.POP.    CHARGE          LOW.POP.     CHARGE
    1 N             7.199371   -0.199371         7.203858   -0.203858
    2 N             6.885784    0.114216         6.911885    0.088115
    3 O             8.326556   -0.326556         8.225774   -0.225774
    4 H             0.771115    0.228885         0.826375    0.173625
    5 H             0.817174    0.182826         0.832107    0.167893

          MULLIKEN SPHERICAL HARMONIC POPULATIONS
       ATOM           S       P       D      F      G      H      I    TOTAL
    1 N             3.56    3.61    0.03   0.00   0.00   0.00   0.00    7.20
    2 N             3.70    3.10    0.08   0.00   0.00   0.00   0.00    6.89
    3 O             3.89    4.41    0.03   0.00   0.00   0.00   0.00    8.33
    4 H             0.73    0.04    0.00   0.00   0.00   0.00   0.00    0.77
    5 H             0.78    0.03    0.00   0.00   0.00   0.00   0.00    0.82

          -------------------------------
          BOND ORDER AND VALENCE ANALYSIS     BOND ORDER THRESHOLD=0.050
          -------------------------------

                   BOND                       BOND                       BOND
[...]
 N           7.0   1.0775386964  -0.2260663045   0.0021249453
 N           7.0   0.0768504310   0.5213012848  -0.0015784032
 O           8.0  -1.0811406145  -0.2115476749   0.0014099165
 H           1.0  -0.7792473638  -1.1552167411  -0.0215467303
 H           1.0   1.8982462657   0.4105338102  -0.0084235083
 ...... END OF ONE-ELECTRON INTEGRALS ......
 STEP CPU TIME =     0.00 TOTAL CPU TIME =        232.3 (      3.9 MIN)
 TOTAL WALL CLOCK TIME=        240.4 SECONDS, CPU UTILIZATION IS    96.62%
 TOTAL NUMBER OF NONZERO TWO-ELECTRON INTEGRALS =             1091156
         73 INTEGRAL RECORDS WERE STORED ON DISK FILE  8.
  ...... END OF TWO-ELECTRON INTEGRALS .....
 STEP CPU TIME =     0.09 TOTAL CPU TIME =        232.4 (      3.9 MIN)
 TOTAL WALL CLOCK TIME=        240.5 SECONDS, CPU UTILIZATION IS    96.62%

          --------------------------
               R-PBE SCF CALCULATION
          --------------------------
         DENSITY MATRIX CONVERGENCE THRESHOLD=  1.00E-05
     COARSE -> FINE DFT GRID SWITCH THRESHOLD=  3.00E-04 (SWITCH IN $DFT)
                   HF -> DFT SWITCH THRESHOLD=  5.00E-03 (SWOFF IN $DFT)

 DFT CODE IS SWITCHING FROM THE FINE GRID NRAD= 96,  NLEB=  302
                      TO THE COARSE GRID NRAD0= 24, NLEB0=  110

 ITER EX DEM     TOTAL ENERGY        E CHANGE  DENSITY CHANGE    DIIS ERROR
          * * *   INITIATING DIIS PROCEDURE   * * *
   1  0  0     -185.6258154862  -185.6258154862   0.024743793   0.011522706
   2  1  0     -185.6269755096    -0.0011600234   0.002591122   0.001705826
   3  2  0     -185.6269781990    -0.0000026893   0.002183639   0.001805211
   4  3  0     -185.6269871382    -0.0000089393   0.001290792   0.001547863
   5  4  0     -185.6269925444    -0.0000054061   0.000314637   0.000168240
   6  5  0     -185.6269925644    -0.0000000200   0.000150698   0.000189154
 DFT CODE IS SWITCHING BACK TO THE FINE GRID
          * * *   INITIATING DIIS PROCEDURE   * * *
   7  6  0     -185.6253520716     0.0016404927   0.001248925   0.001077662
   8  7  0     -185.6253553822    -0.0000033105   0.001206802   0.000608500
   9  8  0     -185.6253543296     0.0000010526   0.001072950   0.000909232
  10  9  0     -185.6253574675    -0.0000031379   0.000340450   0.000271806
  11 10  0     -185.6253576535    -0.0000001860   0.000176718   0.000156969
  12 11  0     -185.6253577184    -0.0000000650   0.000026580   0.000016481
  13 12  0     -185.6253577209    -0.0000000025   0.000001245   0.000001530
  14 13  0     -185.6253577209    -0.0000000000   0.000000334   0.000000283

          -----------------
          DENSITY CONVERGED
          -----------------
     TIME TO FORM FOCK OPERATORS=       4.1 SECONDS (       0.3 SEC/ITER)
     TIME TO SOLVE SCF EQUATIONS=       0.0 SECONDS (       0.0 SEC/ITER)

 FINAL R-PBE ENERGY IS     -185.6253577209 AFTER  14 ITERATIONS
 DFT EXCHANGE + CORRELATION ENERGY =       -22.8278940479
 TOTAL ELECTRON NUMBER             =        23.9999989840
 ...... END OF RHF CALCULATION ......
 STEP CPU TIME =     4.13 TOTAL CPU TIME =        236.5 (      3.9 MIN)
 TOTAL WALL CLOCK TIME=        244.8 SECONDS, CPU UTILIZATION IS    96.62%
 ..... END OF 1-ELECTRON GRADIENT ......
 STEP CPU TIME =     0.02 TOTAL CPU TIME =        236.5 (      3.9 MIN)
 TOTAL WALL CLOCK TIME=        244.8 SECONDS, CPU UTILIZATION IS    96.62%
 MEMORY FOR GRID POINT CONTRIBUTIONS TO THE DFT GRADIENT=    210017 WORDS.
 STEP CPU TIME =     0.70 TOTAL CPU TIME =        237.2 (      4.0 MIN)
 TOTAL WALL CLOCK TIME=        245.5 SECONDS, CPU UTILIZATION IS    96.62%
 ...... END OF 2-ELECTRON GRADIENT ......
 STEP CPU TIME =     0.22 TOTAL CPU TIME =        237.5 (      4.0 MIN)
 TOTAL WALL CLOCK TIME=        245.8 SECONDS, CPU UTILIZATION IS    96.63%

 UNITS ARE HARTREE/BOHR    E'X               E'Y               E'Z 
    1 N               -0.001079886      -0.001713341       0.000969300
    2 N               -0.001306116       0.001948718      -0.000627376
    3 O                0.002895966      -0.007507464       0.000625741
    4 H               -0.001170107       0.007339347      -0.000575403
    5 H                0.000660142      -0.000067261      -0.000392262

 ANGLE TO PREVIOUS OPTIMIZATION POINT IS 158.874
 LINEAR INTERPOLATION GIVES ANGLE         -7.784

 INTERPOLATION TOO FAR FROM END POINTS. ACUT =   5.000
 SKIPPING INTERPOLATION THIS STEP

 CURRENT OPTIMIZATION POINT :
 ENERGY                                 =  -185.6253577 HARTREE
 MASS WEIGHTED TANGENT GRADIENT NORM    =     0.0074675 HARTREE/BOHR-SQRT(AMU)
 NEXT GEOMETRY STEP HAS PREDICTED ANGLE =        12.533 DEGREES
 AND CARTESIAN RMS DISPLACEMENT         =     0.0294900 BOHR

 CONSTRAINED OPTIMIZATION POINT   3 FOR PATH POINT   9
 COORDINATES OF SYMMETRY UNIQUE ATOMS (ANGS)
   ATOM   CHARGE       X              Y              Z
 ------------------------------------------------------------
 N           7.0   1.0764676029  -0.2258860231   0.0010697658
 N           7.0   0.0767168904   0.5211260189  -0.0013316959
 O           8.0  -1.0801417867  -0.2108678938   0.0010690154
 H           1.0  -0.7772234169  -1.1649280329  -0.0133491943
 H           1.0   1.8971078045   0.4093867979   0.0000224953
 ...... END OF ONE-ELECTRON INTEGRALS ......
 STEP CPU TIME =     0.00 TOTAL CPU TIME =        237.5 (      4.0 MIN)
 TOTAL WALL CLOCK TIME=        245.8 SECONDS, CPU UTILIZATION IS    96.62%
 TOTAL NUMBER OF NONZERO TWO-ELECTRON INTEGRALS =             1056500
         71 INTEGRAL RECORDS WERE STORED ON DISK FILE  8.
  ...... END OF TWO-ELECTRON INTEGRALS .....
 STEP CPU TIME =     0.10 TOTAL CPU TIME =        237.6 (      4.0 MIN)
 TOTAL WALL CLOCK TIME=        245.9 SECONDS, CPU UTILIZATION IS    96.62%

          --------------------------
               R-PBE SCF CALCULATION
          --------------------------
         DENSITY MATRIX CONVERGENCE THRESHOLD=  1.00E-05
     COARSE -> FINE DFT GRID SWITCH THRESHOLD=  3.00E-04 (SWITCH IN $DFT)
                   HF -> DFT SWITCH THRESHOLD=  5.00E-03 (SWOFF IN $DFT)

 DFT CODE IS SWITCHING FROM THE FINE GRID NRAD= 96,  NLEB=  302
                      TO THE COARSE GRID NRAD0= 24, NLEB0=  110

 ITER EX DEM     TOTAL ENERGY        E CHANGE  DENSITY CHANGE    DIIS ERROR
          * * *   INITIATING DIIS PROCEDURE   * * *
   1  0  0     -185.6270866119  -185.6270866119   0.006501231   0.002263289
   2  1  0     -185.6271365139    -0.0000499020   0.004410422   0.001319790
   3  2  0     -185.6271074751     0.0000290388   0.003264365   0.003727452
   4  3  0     -185.6271427399    -0.0000352648   0.000703196   0.000476418
   5  4  0     -185.6271434271    -0.0000006871   0.000264116   0.000301788
 DFT CODE IS SWITCHING BACK TO THE FINE GRID
          * * *   INITIATING DIIS PROCEDURE   * * *
   6  5  0     -185.6254293787     0.0017140483   0.001267186   0.000920046
   7  6  0     -185.6254324499    -0.0000030712   0.001256290   0.000632654
   8  7  0     -185.6254317832     0.0000006667   0.001057851   0.000862689
   9  8  0     -185.6254348320    -0.0000030488   0.000331540   0.000265868
  10  9  0     -185.6254350036    -0.0000001716   0.000182713   0.000155421
  11 10  0     -185.6254350714    -0.0000000678   0.000028415   0.000018540
  12 11  0     -185.6254350741    -0.0000000027   0.000001523   0.000001596
  13 12  0     -185.6254350741    -0.0000000000   0.000000388   0.000000346

          -----------------
          DENSITY CONVERGED
          -----------------
     TIME TO FORM FOCK OPERATORS=       4.0 SECONDS (       0.3 SEC/ITER)
     TIME TO SOLVE SCF EQUATIONS=       0.0 SECONDS (       0.0 SEC/ITER)

 FINAL R-PBE ENERGY IS     -185.6254350741 AFTER  13 ITERATIONS
 DFT EXCHANGE + CORRELATION ENERGY =       -22.8253343804
 TOTAL ELECTRON NUMBER             =        23.9999992002
 ...... END OF RHF CALCULATION ......
 STEP CPU TIME =     4.06 TOTAL CPU TIME =        241.6 (      4.0 MIN)
 TOTAL WALL CLOCK TIME=        250.1 SECONDS, CPU UTILIZATION IS    96.63%
 ..... END OF 1-ELECTRON GRADIENT ......
 STEP CPU TIME =     0.01 TOTAL CPU TIME =        241.6 (      4.0 MIN)
 TOTAL WALL CLOCK TIME=        250.1 SECONDS, CPU UTILIZATION IS    96.63%
 MEMORY FOR GRID POINT CONTRIBUTIONS TO THE DFT GRADIENT=    210017 WORDS.
 STEP CPU TIME =     0.75 TOTAL CPU TIME =        242.4 (      4.0 MIN)
 TOTAL WALL CLOCK TIME=        250.8 SECONDS, CPU UTILIZATION IS    96.64%
 ...... END OF 2-ELECTRON GRADIENT ......
 STEP CPU TIME =     0.22 TOTAL CPU TIME =        242.6 (      4.0 MIN)
 TOTAL WALL CLOCK TIME=        251.1 SECONDS, CPU UTILIZATION IS    96.63%

 UNITS ARE HARTREE/BOHR    E'X               E'Y               E'Z 
    1 N               -0.001969494      -0.000806750       0.000343012
    2 N               -0.000346622       0.001828470      -0.000671754
    3 O                0.001444066      -0.000387016       0.000752931
    4 H                0.000813271      -0.000205897      -0.000482117
    5 H                0.000058778      -0.000428807       0.000057928

 ANGLE TO PREVIOUS OPTIMIZATION POINT IS  12.533
 LINEAR INTERPOLATION GIVES ANGLE         12.489

 CURRENT OPTIMIZATION POINT :
 ENERGY                                 =  -185.6254351 HARTREE
 MASS WEIGHTED TANGENT GRADIENT NORM    =     0.0005340 HARTREE/BOHR-SQRT(AMU)
 NEXT GEOMETRY STEP HAS PREDICTED ANGLE =        11.483 DEGREES
 AND CARTESIAN RMS DISPLACEMENT         =     0.0261578 BOHR

 CONSTRAINED OPTIMIZATION POINT   4 FOR PATH POINT   9
 COORDINATES OF SYMMETRY UNIQUE ATOMS (ANGS)
   ATOM   CHARGE       X              Y              Z
 ------------------------------------------------------------
 N           7.0   1.0760313988  -0.2259163203   0.0002225704
 N           7.0   0.0765978358   0.5211653470  -0.0001043084
 O           8.0  -1.0795724152  -0.2108530275  -0.0001539650
 H           1.0  -0.7781239014  -1.1652383893   0.0002562050
 H           1.0   1.8966869087   0.4093357368   0.0005441567
 ...... END OF ONE-ELECTRON INTEGRALS ......
 STEP CPU TIME =     0.00 TOTAL CPU TIME =        242.6 (      4.0 MIN)
 TOTAL WALL CLOCK TIME=        251.1 SECONDS, CPU UTILIZATION IS    96.63%
 TOTAL NUMBER OF NONZERO TWO-ELECTRON INTEGRALS =             1063309
         71 INTEGRAL RECORDS WERE STORED ON DISK FILE  8.
  ...... END OF TWO-ELECTRON INTEGRALS .....
 STEP CPU TIME =     0.10 TOTAL CPU TIME =        242.7 (      4.0 MIN)
 TOTAL WALL CLOCK TIME=        251.2 SECONDS, CPU UTILIZATION IS    96.63%

          --------------------------
               R-PBE SCF CALCULATION
          --------------------------
         DENSITY MATRIX CONVERGENCE THRESHOLD=  1.00E-05
     COARSE -> FINE DFT GRID SWITCH THRESHOLD=  3.00E-04 (SWITCH IN $DFT)
                   HF -> DFT SWITCH THRESHOLD=  5.00E-03 (SWOFF IN $DFT)

 DFT CODE IS SWITCHING FROM THE FINE GRID NRAD= 96,  NLEB=  302
                      TO THE COARSE GRID NRAD0= 24, NLEB0=  110

 ITER EX DEM     TOTAL ENERGY        E CHANGE  DENSITY CHANGE    DIIS ERROR
          * * *   INITIATING DIIS PROCEDURE   * * *
   1  0  0     -185.6270958864  -185.6270958864   0.007804571   0.002540336
   2  1  0     -185.6271289277    -0.0000330413   0.001814623   0.000597488
   3  2  0     -185.6271216501     0.0000072776   0.001733205   0.001675970
   4  3  0     -185.6271307850    -0.0000091348   0.000540455   0.000427027
   5  4  0     -185.6271311535    -0.0000003685   0.000241771   0.000265686
 DFT CODE IS SWITCHING BACK TO THE FINE GRID
          * * *   INITIATING DIIS PROCEDURE   * * *
   6  5  0     -185.6254345914     0.0016965621   0.001214586   0.001032777
   7  6  0     -185.6254378563    -0.0000032649   0.001251809   0.000624488
   8  7  0     -185.6254366593     0.0000011970   0.001117744   0.001018430
   9  8  0     -185.6254399007    -0.0000032415   0.000371383   0.000293049
  10  9  0     -185.6254401496    -0.0000002488   0.000166915   0.000159396
  11 10  0     -185.6254402101    -0.0000000606   0.000024964   0.000016580
  12 11  0     -185.6254402125    -0.0000000024   0.000001387   0.000001560
  13 12  0     -185.6254402125    -0.0000000000   0.000000376   0.000000329

          -----------------
          DENSITY CONVERGED
          -----------------
     TIME TO FORM FOCK OPERATORS=       4.0 SECONDS (       0.3 SEC/ITER)
     TIME TO SOLVE SCF EQUATIONS=       0.0 SECONDS (       0.0 SEC/ITER)

 FINAL R-PBE ENERGY IS     -185.6254402125 AFTER  13 ITERATIONS
 DFT EXCHANGE + CORRELATION ENERGY =       -22.8259314547
 TOTAL ELECTRON NUMBER             =        23.9999991277
 ...... END OF RHF CALCULATION ......
 STEP CPU TIME =     4.08 TOTAL CPU TIME =        246.8 (      4.1 MIN)
 TOTAL WALL CLOCK TIME=        255.4 SECONDS, CPU UTILIZATION IS    96.62%
 ..... END OF 1-ELECTRON GRADIENT ......
 STEP CPU TIME =     0.01 TOTAL CPU TIME =        246.8 (      4.1 MIN)
 TOTAL WALL CLOCK TIME=        255.4 SECONDS, CPU UTILIZATION IS    96.62%
 MEMORY FOR GRID POINT CONTRIBUTIONS TO THE DFT GRADIENT=    210017 WORDS.
 STEP CPU TIME =     0.72 TOTAL CPU TIME =        247.5 (      4.1 MIN)
 TOTAL WALL CLOCK TIME=        256.2 SECONDS, CPU UTILIZATION IS    96.62%
 ...... END OF 2-ELECTRON GRADIENT ......
 STEP CPU TIME =     0.21 TOTAL CPU TIME =        247.7 (      4.1 MIN)
 TOTAL WALL CLOCK TIME=        256.4 SECONDS, CPU UTILIZATION IS    96.62%

 UNITS ARE HARTREE/BOHR    E'X               E'Y               E'Z 
    1 N               -0.002434758      -0.000760261      -0.000018026
    2 N               -0.000281872       0.001861239      -0.000008494
    3 O                0.002111420      -0.000590112       0.000006350
    4 H                0.000584427      -0.000109482       0.000004498
    5 H                0.000020783      -0.000401384       0.000015672

 ANGLE TO PREVIOUS OPTIMIZATION POINT IS  11.483
 LINEAR INTERPOLATION GIVES ANGLE         11.386

 CURRENT OPTIMIZATION POINT :
 ENERGY                                 =  -185.6254402 HARTREE
 MASS WEIGHTED TANGENT GRADIENT NORM    =     0.0001923 HARTREE/BOHR-SQRT(AMU)
 NEXT GEOMETRY STEP HAS PREDICTED ANGLE =         0.295 DEGREES
 AND CARTESIAN RMS DISPLACEMENT         =     0.0007381 BOHR

 CONSTRAINED OPTIMIZATION POINT   5 FOR PATH POINT   9
 COORDINATES OF SYMMETRY UNIQUE ATOMS (ANGS)
   ATOM   CHARGE       X              Y              Z
 ------------------------------------------------------------
 N           7.0   1.0760401915  -0.2259248352   0.0002549074
 N           7.0   0.0765866241   0.5211646362  -0.0001078927
 O           8.0  -1.0795749170  -0.2108623847  -0.0001468708
 H           1.0  -0.7781141804  -1.1649981213   0.0000270394
 H           1.0   1.8967505033   0.4093721607   0.0002612321
 ...... END OF ONE-ELECTRON INTEGRALS ......
 STEP CPU TIME =     0.00 TOTAL CPU TIME =        247.7 (      4.1 MIN)
 TOTAL WALL CLOCK TIME=        256.4 SECONDS, CPU UTILIZATION IS    96.62%
 TOTAL NUMBER OF NONZERO TWO-ELECTRON INTEGRALS =             1061575
         71 INTEGRAL RECORDS WERE STORED ON DISK FILE  8.
  ...... END OF TWO-ELECTRON INTEGRALS .....
 STEP CPU TIME =     0.10 TOTAL CPU TIME =        247.8 (      4.1 MIN)
 TOTAL WALL CLOCK TIME=        256.5 SECONDS, CPU UTILIZATION IS    96.62%

          --------------------------
               R-PBE SCF CALCULATION
          --------------------------
         DENSITY MATRIX CONVERGENCE THRESHOLD=  1.00E-05
     COARSE -> FINE DFT GRID SWITCH THRESHOLD=  3.00E-04 (SWITCH IN $DFT)
                   HF -> DFT SWITCH THRESHOLD=  5.00E-03 (SWOFF IN $DFT)

 DFT CODE IS SWITCHING FROM THE FINE GRID NRAD= 96,  NLEB=  302
                      TO THE COARSE GRID NRAD0= 24, NLEB0=  110

 ITER EX DEM     TOTAL ENERGY        E CHANGE  DENSITY CHANGE    DIIS ERROR
          * * *   INITIATING DIIS PROCEDURE   * * *
   1  0  0     -185.6271246956  -185.6271246956   0.001280423   0.001045204
   2  1  0     -185.6271278984    -0.0000032028   0.001312093   0.000626544
   3  2  0     -185.6271267271     0.0000011713   0.001122767   0.001003425
   4  3  0     -185.6271300517    -0.0000033246   0.000365760   0.000285893
   5  4  0     -185.6271302793    -0.0000002276   0.000165859   0.000153678
 DFT CODE IS SWITCHING BACK TO THE FINE GRID
          * * *   INITIATING DIIS PROCEDURE   * * *
   6  5  0     -185.6254346615     0.0016956178   0.001226069   0.001035065
   7  6  0     -185.6254379089    -0.0000032474   0.001255008   0.000621254
   8  7  0     -185.6254367323     0.0000011765   0.001112095   0.001002811
   9  8  0     -185.6254399618    -0.0000032294   0.000364836   0.000288847
  10  9  0     -185.6254401992    -0.0000002374   0.000167228   0.000157593
  11 10  0     -185.6254402594    -0.0000000602   0.000024793   0.000016375
  12 11  0     -185.6254402618    -0.0000000023   0.000001367   0.000001556
  13 12  0     -185.6254402618    -0.0000000000   0.000000373   0.000000325

          -----------------
          DENSITY CONVERGED
          -----------------
     TIME TO FORM FOCK OPERATORS=       4.0 SECONDS (       0.3 SEC/ITER)
     TIME TO SOLVE SCF EQUATIONS=       0.0 SECONDS (       0.0 SEC/ITER)

 FINAL R-PBE ENERGY IS     -185.6254402618 AFTER  13 ITERATIONS
 DFT EXCHANGE + CORRELATION ENERGY =       -22.8259920817
 TOTAL ELECTRON NUMBER             =        23.9999991284
 ...... END OF RHF CALCULATION ......
 STEP CPU TIME =     4.15 TOTAL CPU TIME =        252.0 (      4.2 MIN)
 TOTAL WALL CLOCK TIME=        260.8 SECONDS, CPU UTILIZATION IS    96.62%
 ..... END OF 1-ELECTRON GRADIENT ......
 STEP CPU TIME =     0.00 TOTAL CPU TIME =        252.0 (      4.2 MIN)
 TOTAL WALL CLOCK TIME=        260.8 SECONDS, CPU UTILIZATION IS    96.61%
 MEMORY FOR GRID POINT CONTRIBUTIONS TO THE DFT GRADIENT=    210017 WORDS.
 STEP CPU TIME =     0.71 TOTAL CPU TIME =        252.7 (      4.2 MIN)
 TOTAL WALL CLOCK TIME=        261.5 SECONDS, CPU UTILIZATION IS    96.62%
 ...... END OF 2-ELECTRON GRADIENT ......
 STEP CPU TIME =     0.22 TOTAL CPU TIME =        252.9 (      4.2 MIN)
 TOTAL WALL CLOCK TIME=        261.8 SECONDS, CPU UTILIZATION IS    96.62%

 UNITS ARE HARTREE/BOHR    E'X               E'Y               E'Z 
    1 N               -0.002450525      -0.000798953       0.000001862
    2 N               -0.000315932       0.001848465      -0.000004597
    3 O                0.002156793      -0.000742297       0.000005168
    4 H                0.000543803       0.000064635      -0.000002866
    5 H                0.000065861      -0.000371850       0.000000433

 ANGLE TO PREVIOUS OPTIMIZATION POINT IS   0.295
 LINEAR INTERPOLATION GIVES ANGLE          0.301

 CURRENT OPTIMIZATION POINT :
 ENERGY                                 =  -185.6254403 HARTREE
 MASS WEIGHTED TANGENT GRADIENT NORM    =     0.0000077 HARTREE/BOHR-SQRT(AMU)
 NEXT GEOMETRY STEP HAS PREDICTED ANGLE =         0.053 DEGREES
 AND CARTESIAN RMS DISPLACEMENT         =     0.0001252 BOHR

 *******************************************
 ***** END OF CONSTRAINED OPTIMIZATION *****
 *******************************************

 ANGLE BETWEEN GRADIENTS AT CURRENT AND PREVIOUS IRC POINT = 179.779
 ENERGY WAS LOWERED BY      0.0003323419 HARTREE DURING OPTIMIZATION

 CURRENT ENERGY=     -185.6254402618, IS HIGHER THAN THE
    LAST ENERGY=     -185.6254402621
 YOU ARE NO LONGER ON A STEEPEST DESCENT PATH!
 YOU MAY JUST HAVE PASSED THROUGH A MINIMUM
 EXECUTION OF GAMESS TERMINATED -ABNORMALLY- AT Wed Oct  9 12:25:04 2019
                992227  WORDS OF DYNAMIC MEMORY USED
 STEP CPU TIME =     0.00 TOTAL CPU TIME =        252.9 (      4.2 MIN)
 TOTAL WALL CLOCK TIME=        261.8 SECONDS, CPU UTILIZATION IS    96.61%
 ddikick.x: application process 0 quit unexpectedly.
 ddikick.x: Sending kill signal to DDI processes.
 ddikick.x: Execution terminated due to error(s).
----- accounting info -----
Files used on the master node d12chas532.crc.nd.edu were:
-rw-r--r-- 1 wschnei1 campus 489412 Oct  9 12:24 /scratch365/wschnei1/ircf.F07
Wed Oct  9 12:25:07 EDT 2019
0.414u 0.366s 4:24.83 0.2%	0+0k 392+1000io 2pf+0w
