----- GAMESS execution script 'rungms' -----
This job is running on host d12chas534.crc.nd.edu
under operating system Linux at Fri Oct 11 10:46:09 EDT 2019
SGE has assigned the following compute nodes to this run:
Available scratch disk space (Kbyte units) at beginning of the job is
Filesystem      1K-blocks     Used  Available Use% Mounted on
/dev/sda2      1949705068 69813348 1879891720   4% /
GAMESS temporary binary files will be written to /tmp/482175.1.debug
GAMESS supplementary output files will be written to /afs/crc.nd.edu/user/w/wschnei1/scr
Copying input file ircr.inp to your run's scratch directory...
reading your own /afs/crc.nd.edu/user/w/wschnei1/.gmsrc

 Distributed Data Interface kickoff program.
 Initiating 1 compute processes on 1 nodes to run the following command:
 /afs/crc.nd.edu/x86_64_linux/g/gamess/nov-2017/gamess/gamess.00.x ircr 

          ******************************************************
          *         GAMESS VERSION = 11 NOV 2017 (R3)         *
          *             FROM IOWA STATE UNIVERSITY             *
          * M.W.SCHMIDT, K.K.BALDRIDGE, J.A.BOATZ, S.T.ELBERT, *
          *   M.S.GORDON, J.H.JENSEN, S.KOSEKI, N.MATSUNAGA,   *
          *          K.A.NGUYEN, S.J.SU, T.L.WINDUS,           *
          *       TOGETHER WITH M.DUPUIS, J.A.MONTGOMERY       *
          *         J.COMPUT.CHEM.  14, 1347-1363(1993)        *
          **************** 64 BIT INTEL VERSION ****************

  SINCE 1993, STUDENTS AND POSTDOCS WORKING AT IOWA STATE UNIVERSITY
  AND ALSO IN THEIR VARIOUS JOBS AFTER LEAVING ISU HAVE MADE IMPORTANT
  CONTRIBUTIONS TO THE CODE:
     IVANA ADAMOVIC, CHRISTINE AIKENS, YURI ALEXEEV, POOJA ARORA,
     ANDREY ASADCHEV, ROB BELL, PRADIPTA BANDYOPADHYAY, JONATHAN BENTZ,
     BRETT BODE, KURT BRORSEN, CALEB CARLIN, GALINA CHABAN, WEI CHEN,
     CHEOL HO CHOI, PAUL DAY, ALBERT DEFUSCO, NUWAN DESILVA, TIM DUDLEY,
     DMITRI FEDOROV, ALEX FINDLATER, GRAHAM FLETCHER, MARK FREITAG,
     KURT GLAESEMANN, ANASTASIA GUININA,
     DAN KEMP, GRANT MERRILL, NORIYUKI MINEZAWA, JONATHAN MULLIN,
     TAKESHI NAGATA, SEAN NEDD, HEATHER NETZLOFF, BOSILJKA NJEGIC, RYAN OLSON,
     MIKE PAK, BUU PHAM,
     SPENCER PRUITT, LUKE ROSKOP, JIM SHOEMAKER, LYUDMILA SLIPCHENKO,
     TONY SMITH, SAROM SOK LEANG, JIE SONG, TETSUYA TAKETSUGU, SIMON WEBB,
     PENG XU, SOOHAENG YOO, FEDERICO ZAHARIEV

  ADDITIONAL CODE HAS BEEN PROVIDED BY COLLABORATORS IN OTHER GROUPS:
     IOWA STATE UNIVERSITY:
          JOE IVANIC, AARON WEST, LAIMUTIS BYTAUTAS, KLAUS RUEDENBERG
     UNIVERSITY OF TOKYO: KIMIHIKO HIRAO, TAKAHITO NAKAJIMA,
          TAKAO TSUNEDA, MUNEAKI KAMIYA, SUSUMU YANAGISAWA,
          KIYOSHI YAGI, MAHITO CHIBA, SEIKEN TOKURA, NAOAKI KAWAKAMI
     UNIVERSITY OF AARHUS: FRANK JENSEN
     UNIVERSITY OF IOWA: VISVALDAS KAIRYS, HUI LI
     NATIONAL INST. OF STANDARDS AND TECHNOLOGY: WALT STEVENS, DAVID GARMER
     UNIVERSITY OF PISA: BENEDETTA MENNUCCI, JACOPO TOMASI
     UNIVERSITY OF MEMPHIS: HENRY KURTZ, PRAKASHAN KORAMBATH
     UNIVERSITY OF ALBERTA: TOBY ZENG, MARIUSZ KLOBUKOWSKI
     UNIVERSITY OF NEW ENGLAND: MARK SPACKMAN
     MIE UNIVERSITY: HIROAKI UMEDA
     NAT. INST. OF ADVANCED INDUSTRIAL SCIENCE AND TECHNOLOGY: KAZUO KITAURA
     MICHIGAN STATE UNIVERSITY:
          KAROL KOWALSKI, MARTA WLOCH, JEFFREY GOUR, JESSE LUTZ,
          WEI LI, PIOTR PIECUCH
     UNIVERSITY OF SILESIA: MONIKA MUSIAL, STANISLAW KUCHARSKI
     FACULTES UNIVERSITAIRES NOTRE-DAME DE LA PAIX:
          OLIVIER QUINET, BENOIT CHAMPAGNE
     UNIVERSITY OF CALIFORNIA - SANTA BARBARA: BERNARD KIRTMAN
     INSTITUTE FOR MOLECULAR SCIENCE:
          KAZUYA ISHIMURA, MICHIO KATOUDA, AND SHIGERU NAGASE
     UNIVERSITY OF NOTRE DAME: ANNA POMOGAEVA, DAN CHIPMAN
     KYUSHU UNIVERSITY:
          HARUYUKI NAKANO,
          FENG LONG GU, JACEK KORCHOWIEC, MARCIN MAKOWSKI, AND YURIKO AOKI,
          HIROTOSHI MORI AND EISAKU MIYOSHI
     PENNSYLVANIA STATE UNIVERSITY:
          TZVETELIN IORDANOV, CHET SWALINA, JONATHAN SKONE,
          SHARON HAMMES-SCHIFFER
     WASEDA UNIVERSITY:
          MASATO KOBAYASHI, TOMOKO AKAMA, TSUGUKI TOUMA,
          TAKESHI YOSHIKAWA, YASUHIRO IKABATA, JUNJI SEINO,
          YUYA NAKAJIMA, HIROMI NAKAI
     NANJING UNIVERSITY: SHUHUA LI
     UNIVERSITY OF NEBRASKA:
          PEIFENG SU, DEJUN SI, NANDUN THELLAMUREGE, YALI WANG, HUI LI
     UNIVERSITY OF ZURICH: ROBERTO PEVERATI, KIM BALDRIDGE
     N. COPERNICUS UNIVERSITY AND JACKSON STATE UNIVERSITY:
          MARIA BARYSZ
     UNIVERSITY OF COPENHAGEN: Jimmy Kromann, CASPER STEINMANN
     TOKYO INSTITUTE OF TECHNOLOGY: HIROYA NAKATA
     NAGOYA UNIVERSITY: YOSHIO NISHIMOTO, STEPHAN IRLE
     MOSCOW STATE UNIVERSITY: VLADIMIR MIRONOV

 EXECUTION OF GAMESS BEGUN Fri Oct 11 10:46:09 2019

            ECHO OF THE FIRST FEW INPUT CARDS -
 INPUT CARD> $CONTRL SCFTYP=RHF DFTTYP=PBE RUNTYP=IRC COORD=UNIQUE ISPHER=1 $END            
 INPUT CARD> $BASIS GBASIS=PCseg-1 $END                                                     
 INPUT CARD> $IRC PACE=LINEAR STABLZ=.TRUE. NPOINT=10 SADDLE=.T. FORWRD=.F. $END            
 INPUT CARD> $FORCE HESS=READ $END                                                          
 INPUT CARD> $DATA                                                                          
 INPUT CARD>H2ON2                                                                           
 INPUT CARD>C1       1                                                                      
 INPUT CARD> N           7.0   0.9233485039  -0.2399318160   0.0736256617                   
 INPUT CARD> N           7.0  -0.0272197420   0.6088503884  -0.0717581187                   
 INPUT CARD> O           8.0  -1.0933769256  -0.1081391759   0.0571959479                   
 INPUT CARD> H           1.0  -0.1059622027  -1.0519964547   0.2191639975                   
 INPUT CARD> H           1.0   1.8912457716   0.1158820221   0.0085037392                   
 INPUT CARD> $END                                                                           
 INPUT CARD> $HESS                                                                          
 INPUT CARD>ENERGY IS     -185.5854194050 E(NUC) IS       73.0033764178                     
 INPUT CARD> 1  1 8.43287379E-01-4.86363743E-02 1.07610516E-04-3.07227749E-01 1.52208588E-01
 INPUT CARD> 1  2-1.73518217E-07-2.17358214E-01 6.47698005E-02 2.77392926E-06 8.17895263E-03
 INPUT CARD> 1  3-1.86673169E-02-2.51376499E-06-3.26893247E-01-1.49673987E-01-1.06407498E-04
 INPUT CARD> 2  1-4.86363743E-02 3.87862774E-01 3.08026584E-05 1.71630567E-01-2.92530888E-01
 INPUT CARD> 2  2-2.27188287E-05-4.91718622E-02 5.95241001E-02 5.53534034E-06 2.46499489E-02
 INPUT CARD> 2  3-3.09394031E-02 1.18125905E-05-9.84750550E-02-1.23921770E-01-2.59833249E-05
 INPUT CARD> 3  1 1.07610516E-04 3.08026584E-05 4.67125080E-02-1.86580483E-05-2.13631240E-07
 INPUT CARD> 3  2-3.46046208E-02-4.65412000E-06 8.51965572E-06 3.02899045E-02 1.02044406E-05
 INPUT CARD> 3  3 3.79254009E-06-3.46595133E-02-9.44547152E-05-4.29165917E-05-7.73983185E-03
 INPUT CARD> 4  1-3.07227749E-01 1.71630567E-01-1.86580483E-05 5.17848789E-01-3.55175251E-02
 INPUT CARD> 4  2-6.18184247E-06-2.80901045E-01-1.34259041E-01 5.24569444E-06 8.73948084E-02
 INPUT CARD> 4  3-1.28534872E-02 5.01586904E-06-1.71158190E-02 1.09946332E-02 1.17183142E-05
 INPUT CARD> 5  1 1.52208588E-01-2.92530888E-01-2.13631240E-07-3.55175251E-02 6.02706813E-01
 INPUT CARD> 5  2 7.50953590E-06-9.39616477E-02-2.06245599E-01-3.08275589E-06 5.16957378E-03
 INPUT CARD> 5  3-1.13628647E-01 3.45366097E-06-2.79005588E-02 9.69897667E-03-8.35082194E-06
 INPUT CARD> 6  1-1.73518217E-07-2.27188287E-05-3.46046208E-02-6.18184247E-06 7.50953590E-06
 INPUT CARD> 6  2 5.87875348E-02 3.33166826E-06 3.75813132E-06-5.76303885E-02 5.97285443E-06
 INPUT CARD> 6  3 3.64700856E-06 4.64098715E-02-2.91967429E-06 7.78435353E-06-1.29630917E-02
 INPUT CARD> 7  1-2.17358214E-01-4.91718622E-02-4.65412000E-06-2.80901045E-01-9.39616477E-02
 INPUT CARD> 7  2 3.33166826E-06 5.06783088E-01 1.42998490E-01-4.62911524E-06-2.22932675E-03
 INPUT CARD> 7  3 2.34377990E-03 1.72482203E-06-6.28885588E-03-2.20581219E-03 6.19870445E-06
 INPUT CARD> 8  1 6.47698005E-02 5.95241001E-02 8.51965572E-06-1.34259041E-01-2.06245599E-01
 INPUT CARD> 8  2 3.75813132E-06 1.42998490E-01 1.24300539E-01-1.14289730E-06-7.58628510E-02
 INPUT CARD> 8  3 4.28281830E-03-4.36597697E-06 2.35423992E-03 1.81422698E-02-5.77540122E-06
 INPUT CARD> 9  1 2.77392926E-06 5.53534034E-06 3.02899045E-02 5.24569444E-06-3.08275589E-06
 INPUT CARD> 9  2-5.76303885E-02-4.62911524E-06-1.14289730E-06 5.70051819E-02-7.84352823E-07
 INPUT CARD> 9  3 2.25314828E-07-4.44908522E-02-2.64464802E-06-1.51127545E-06 1.48280469E-02
 INPUT CARD>10  1 8.17895263E-03 2.46499489E-02 1.02044406E-05 8.73948084E-02 5.16957378E-03
 INPUT CARD>10  2 5.97285443E-06-2.22932675E-03-7.58628510E-02-7.84352823E-07-8.76189417E-02
 INPUT CARD>10  3 2.40174942E-02-5.65674300E-06-5.72268254E-03 2.20265423E-02-1.08166223E-05
 INPUT CARD>11  1-1.86673169E-02-3.09394031E-02 3.79254009E-06-1.28534872E-02-1.13628647E-01
 INPUT CARD>11  2 3.64700856E-06 2.34377990E-03 4.28281830E-03 2.25314828E-07 2.40174942E-02
 INPUT CARD>11  3 1.35908347E-01-7.49989794E-06 5.16190863E-03 4.37545205E-03-1.95440817E-07
 INPUT CARD>12  1-2.51376499E-06 1.18125905E-05-3.46595133E-02 5.01586904E-06 3.45366097E-06
 INPUT CARD>12  2 4.64098715E-02 1.72482203E-06-4.36597697E-06-4.44908522E-02-5.65674300E-06
    1000000 WORDS OF MEMORY AVAILABLE

     BASIS OPTIONS
     -------------
     GBASIS=PCSEG-1      IGAUSS=       0      POLAR=NONE    
     NDFUNC=       0     NFFUNC=       0     DIFFSP=       F
     NPFUNC=       0      DIFFS=       F     BASNAM=        


     RUN TITLE
     ---------
 H2ON2                                                                           

 THE POINT GROUP OF THE MOLECULE IS C1      
 THE ORDER OF THE PRINCIPAL AXIS IS     1

 ATOM      ATOMIC                      COORDINATES (BOHR)
           CHARGE         X                   Y                   Z
 N           7.0     1.7448756635       -0.4534053880        0.1391323263
 N           7.0    -0.0514378538        1.1505604016       -0.1356031817
 O           8.0    -2.0661827907       -0.2043534110        0.1080846691
 H           1.0    -0.2002395282       -1.9879850394        0.4141599016
 H           1.0     3.5739362838        0.2189852687        0.0160697370

          INTERNUCLEAR DISTANCES (ANGS.)
          ------------------------------

                1 N          2 N          3 O          4 H          5 H     

   1 N       0.0000000    1.2826331 *  2.0210939 *  1.3191326 *  1.0332809 *
   2 N       1.2826331 *  0.0000000    1.2912762 *  1.6879716 *  1.9824151 *
   3 O       2.0210939 *  1.2912762 *  0.0000000    1.3755319 *  2.9934143 *
   4 H       1.3191326 *  1.6879716 *  1.3755319 *  0.0000000    2.3231783 *
   5 H       1.0332809 *  1.9824151 *  2.9934143 *  2.3231783 *  0.0000000  

  * ... LESS THAN  3.000


     ATOMIC BASIS SET
     ----------------
 THE CONTRACTED PRIMITIVE FUNCTIONS HAVE BEEN UNNORMALIZED
 THE CONTRACTED BASIS FUNCTIONS ARE NOW NORMALIZED TO UNITY

  SHELL TYPE  PRIMITIVE        EXPONENT          CONTRACTION COEFFICIENT(S)

 N         

      1   S       1          1726.3200000    0.005526692708
      1   S       2           259.8270000    0.041238777833
      1   S       3            59.0335000    0.182735518857
      1   S       4            16.3509000    0.465933825414
      1   S       5             4.9108400    0.450079961070

      2   S       6             7.7589400   -0.147940502099
      2   S       7             0.7055730    1.051675837690

      3   S       8             0.2092860    1.000000000000

      4   P       9            13.1844000    0.064862763118
      4   P      10             2.8186000    0.339184155940
      4   P      11             0.7655710    0.735827618992

      5   P      12             0.1959490    1.000000000000

      6   D      13             0.9000000    1.000000000000

 N         

      7   S      14          1726.3200000    0.005526692708
      7   S      15           259.8270000    0.041238777833
      7   S      16            59.0335000    0.182735518857
      7   S      17            16.3509000    0.465933825414
      7   S      18             4.9108400    0.450079961070

      8   S      19             7.7589400   -0.147940502099
      8   S      20             0.7055730    1.051675837690

      9   S      21             0.2092860    1.000000000000

     10   P      22            13.1844000    0.064862763118
     10   P      23             2.8186000    0.339184155940
     10   P      24             0.7655710    0.735827618992

     11   P      25             0.1959490    1.000000000000

     12   D      26             0.9000000    1.000000000000

 O         

     13   S      27          2288.6400000    0.005451138222
     13   S      28           344.4160000    0.040718922842
     13   S      29            78.2538000    0.181369420873
     13   S      30            21.7195000    0.465536820246
     13   S      31             6.5590700    0.451211321214

     14   S      32            10.4656000   -0.150211201174
     14   S      33             0.9643510    1.052867983385

     15   S      34             0.2851270    1.000000000000

     16   P      35            17.0590000    0.068749256972
     16   P      36             3.6899900    0.351671941499
     16   P      37             0.9929960    0.724532099722

     17   P      38             0.2449240    1.000000000000

     18   D      39             1.0000000    1.000000000000

 H         

     19   S      40            12.2518000    0.037217389296
     19   S      41             1.8687100    0.253808206955
     19   S      42             0.4182080    0.797386763917

     20   S      43             0.1061000    1.000000000000

     21   P      44             1.0000000    1.000000000000

 H         

     22   S      45            12.2518000    0.037217389296
     22   S      46             1.8687100    0.253808206955
     22   S      47             0.4182080    0.797386763917

     23   S      48             0.1061000    1.000000000000

     24   P      49             1.0000000    1.000000000000

 TOTAL NUMBER OF BASIS SET SHELLS             =   24
 NUMBER OF CARTESIAN GAUSSIAN BASIS FUNCTIONS =   55
 NOTE: THIS RUN WILL RESTRICT THE MO VARIATION SPACE TO SPHERICAL HARMONICS.
 THE NUMBER OF ORBITALS KEPT IN THE VARIATIONAL SPACE WILL BE PRINTED LATER.
 NUMBER OF ELECTRONS                          =   24
 CHARGE OF MOLECULE                           =    0
 SPIN MULTIPLICITY                            =    1
 NUMBER OF OCCUPIED ORBITALS (ALPHA)          =   12
 NUMBER OF OCCUPIED ORBITALS (BETA )          =   12
 TOTAL NUMBER OF ATOMS                        =    5
 THE NUCLEAR REPULSION ENERGY IS       73.0033764178

     LEBEDEV GRID-BASED DFT OPTIONS
     ------------------------------
     DFTTYP=PBE     
     NRAD  =      96     NLEB  =     302
     NRAD0 =      24     NLEB0 =     110
     SWOFF =    5.00E-03 (PURE SCF -> DFT)
     SWITCH=    3.00E-04 (COARSE -> TIGHT GRID)
     THRESH=    0.00E+00 GTHRE=    1.00E+00

 GRIMME'S EMPIRICAL DISPERSION CORRECTION= F

     $CONTRL OPTIONS
     ---------------
 SCFTYP=RHF          RUNTYP=IRC          EXETYP=RUN     
 MPLEVL=       0     CITYP =NONE         CCTYP =NONE         VBTYP =NONE    
 DFTTYP=PBE          TDDFT =NONE    
 MULT  =       1     ICHARG=       0     NZVAR =       0     COORD =UNIQUE  
 PP    =NONE         RELWFN=NONE         LOCAL =NONE         NUMGRD=       F
 ISPHER=       1     NOSYM =       0     MAXIT =      30     UNITS =ANGS    
 PLTORB=       F     MOLPLT=       F     AIMPAC=       F     FRIEND=        
 NPRINT=       7     IREST =       0     GEOM  =INPUT   
 NORMF =       0     NORMP =       0     ITOL  =      20     ICUT  =       9
 INTTYP=BEST         GRDTYP=BEST         QMTTOL= 1.0E-06

     $SYSTEM OPTIONS
     ---------------
  REPLICATED MEMORY=     1000000 WORDS (ON EVERY NODE).
 DISTRIBUTED MEMDDI=           0 MILLION WORDS IN AGGREGATE,
 MEMDDI DISTRIBUTED OVER   1 PROCESSORS IS           0 WORDS/PROCESSOR.
 TOTAL MEMORY REQUESTED ON EACH PROCESSOR=     1000000 WORDS.
 TIMLIM=      525600.00 MINUTES, OR     365.0 DAYS.
 PARALL= F  BALTYP=  DLB     KDIAG=    0  COREFL= F
 MXSEQ2=     300 MXSEQ3=     150  mem10=         0

          ----------------
          PROPERTIES INPUT
          ----------------

     MOMENTS            FIELD           POTENTIAL          DENSITY
 IEMOM =       1   IEFLD =       0   IEPOT =       0   IEDEN =       0
 WHERE =COMASS     WHERE =NUCLEI     WHERE =NUCLEI     WHERE =NUCLEI  
 OUTPUT=BOTH       OUTPUT=BOTH       OUTPUT=BOTH       OUTPUT=BOTH    
 IEMINT=       0   IEFINT=       0                     IEDINT=       0
                                                       MORB  =       0
          EXTRAPOLATION IN EFFECT
          DIIS IN EFFECT
 ORBITAL PRINTING OPTION: NPREO=     1    55     2     1

     -------------------------------
     INTEGRAL TRANSFORMATION OPTIONS
     -------------------------------
     NWORD  =            0
     CUTOFF = 1.0E-09     MPTRAN =       0
     DIRTRF =       F     AOINTS =DUP     

          ----------------------
          INTEGRAL INPUT OPTIONS
          ----------------------
 NOPK  =       1 NORDER=       0 SCHWRZ=       F

     ------------------------------------------
     THE POINT GROUP IS C1 , NAXIS= 1, ORDER= 1
     ------------------------------------------

 -- VARIATIONAL SPACE WILL BE RESTRICTED TO PURE SPHERICAL HARMONICS ONLY --
 AFTER EXCLUDING CONTAMINANT COMBINATIONS FROM THE CARTESIAN GAUSSIAN BASIS
 SET, THE NUMBER OF SPHERICAL HARMONICS KEPT IN THE VARIATION SPACE IS   52

     DIMENSIONS OF THE SYMMETRY SUBSPACES ARE
 A   =   52

 ..... DONE SETTING UP THE RUN .....
 STEP CPU TIME =     0.01 TOTAL CPU TIME =          0.0 (      0.0 MIN)
 TOTAL WALL CLOCK TIME=          0.0 SECONDS, CPU UTILIZATION IS    33.33%

          -----------------------------
          INTRINSIC REACTION COORDINATE
          -----------------------------
          PACE   =LINEAR  
          STRIDE = 0.30000 BOHR*SQRT(AMU)
          NPOINT =      10
          NEXTPT =       0
          STOTAL =  0.0000 BOHR*SQRT(AMU)
          SAB    =  0.0000 BOHR*SQRT(AMU)
          NPRT   =       0
          NPUN   =       0

          SADDLE =       T
          TSENGY =       F
          FORWRD =       F
          EVIB   = 0.00050 HARTREE
          FREQ   =     0.0 CM**-1

          STABLZ =       T
          ELBOW  =  175.00 DEGREES
          DELTA  = 0.02500 BOHR

          READQB =       F
          EB     =        0.0000000000 HARTREES
          GBNORM =        0.0000000000 HARTREES/SQRT(AMU)-BOHR

          GCUT   = 0.0000000 HARTREES/SQRT(AMU)-BOHR
          RCUT   = 0.0000000 BOHR
          ACUT   =    5.00 DEGREES
          MXOPT  =      20
          IHUPD  =       2

 ATOMIC MASSES USED (IN AMU) ARE
     N             14.0031
     N             14.0031
     O             15.9949
     H              1.0078
     H              1.0078

 JUMP AWAY FROM SADDLE POINT WILL BE FOUND FROM THE INPUT HESSIAN MATRIX


 JUMPING OFF SADDLE POINT ALONG THE IMAGINARY NORMAL MODE...

 $HESS GROUP READ FROM CARDS
 ENERGY IS     -185.5854194050 E(NUC) IS       73.0033764178                     
 INITIAL DISPLACEMENT=  0.10 ALONG MODE WITH FREQUENCY=    1635.189 I CM**-1
 THE COMPONENTS OF THE DISPLACEMENT ARE (BOHR) -
    0.001745   0.002245   0.000001
    0.004138   0.000591   0.000000
    0.000976  -0.004101  -0.000000
   -0.093888   0.010267  -0.000004
   -0.003334   0.015407  -0.000010
 DISTANCE FROM THE SADDLE POINT TO THE 1ST IRC POINT IS  0.09941 SQRT(AMU)-BOHR)
1         POINT   1 ON THE REACTION PATH
          ******************************
          AT PATH DISTANCE STOTAL=   0.09941

          THE COORDINATES OF POINT QB ARE
 COORDINATES OF ALL ATOMS ARE (ANGS)
   ATOM   CHARGE       X              Y              Z
 ------------------------------------------------------------
 N           7.0   0.9242718960  -0.2387435768   0.0736259995
 N           7.0  -0.0250300471   0.6091631471  -0.0717579260
 O           8.0  -1.0928606028  -0.1103092704   0.0571959125
 H           1.0  -0.1556453485  -1.0465633615   0.2191620454
 H           1.0   1.8894815840   0.1240350226   0.0084984178

          INTERNUCLEAR DISTANCES (ANGS.)
          ------------------------------

                1 N          2 N          3 O          4 H          5 H     

   1 N       0.0000000    1.2811153 *  2.0212840 *  1.3564567 *  1.0331891 *
   2 N       1.2811153 *  0.0000000    1.2940370 *  1.6861569 *  1.9766500 *
   3 O       2.0212840 *  1.2940370 *  0.0000000    1.3346075 *  2.9919314 *
   4 H       1.3564567 *  1.6861569 *  1.3346075 *  0.0000000    2.3658453 *
   5 H       1.0331891 *  1.9766500 *  2.9919314 *  2.3658453 *  0.0000000  

  * ... LESS THAN  3.000


          ********************
          1 ELECTRON INTEGRALS
          ********************
 ...... END OF ONE-ELECTRON INTEGRALS ......
 STEP CPU TIME =     0.02 TOTAL CPU TIME =          0.0 (      0.0 MIN)
 TOTAL WALL CLOCK TIME=          0.1 SECONDS, CPU UTILIZATION IS    50.00%

          -------------
          GUESS OPTIONS
          -------------
          GUESS =HUCKEL            NORB  =       0          NORDER=       0
          MIX   =       F          PRTMO =       F          PUNMO =       F
          TOLZ  = 1.0E-08          TOLE  = 1.0E-05
          SYMDEN=       F          PURIFY=       F

 INITIAL GUESS ORBITALS GENERATED BY HUCKEL   ROUTINE.
 HUCKEL GUESS REQUIRES     27116 WORDS.

 STATISTICS FOR GENERATION OF SYMMETRY ORBITAL -Q- MATRIX
 NUMBER OF CARTESIAN ATOMIC ORBITALS=         55
 NUMBER OF SPHERICAL CONTAMINANTS DROPPED=     3
 NUMBER OF LINEARLY DEPENDENT MOS DROPPED=     0
 TOTAL NUMBER OF MOS IN VARIATION SPACE=      52

 SYMMETRIES FOR INITIAL GUESS ORBITALS FOLLOW.   BOTH SET(S).
    12 ORBITALS ARE OCCUPIED (    3 CORE ORBITALS).
     4=A        5=A        6=A        7=A        8=A        9=A       10=A   
    11=A       12=A       13=A       14=A       15=A       16=A       17=A   
    18=A       19=A       20=A       21=A       22=A   
 ...... END OF INITIAL ORBITAL SELECTION ......
 STEP CPU TIME =     0.00 TOTAL CPU TIME =          0.0 (      0.0 MIN)
 TOTAL WALL CLOCK TIME=          0.1 SECONDS, CPU UTILIZATION IS    42.86%

                    ----------------------
                    AO INTEGRAL TECHNOLOGY
                    ----------------------
     S,P,L SHELL ROTATED AXIS INTEGRALS, REPROGRAMMED BY
        KAZUYA ISHIMURA (IMS) AND JOSE SIERRA (SYNSTAR).
     S,P,D,L SHELL ROTATED AXIS INTEGRALS PROGRAMMED BY
        KAZUYA ISHIMURA (INSTITUTE FOR MOLECULAR SCIENCE).
     S,P,D,F,G SHELL TO TOTAL QUARTET ANGULAR MOMENTUM SUM 5,
        ERIC PROGRAM BY GRAHAM FLETCHER (ELORET AND NASA ADVANCED
        SUPERCOMPUTING DIVISION, AMES RESEARCH CENTER).
     S,P,D,F,G,L SHELL GENERAL RYS QUADRATURE PROGRAMMED BY
        MICHEL DUPUIS (PACIFIC NORTHWEST NATIONAL LABORATORY).

          --------------------
          2 ELECTRON INTEGRALS
          --------------------

 THE -PK- OPTION IS OFF, THE INTEGRALS ARE NOT IN SUPERMATRIX FORM.
 STORING   15000 INTEGRALS/RECORD ON DISK, USING 12 BYTES/INTEGRAL.
 TWO ELECTRON INTEGRAL EVALUATION REQUIRES   90696 WORDS OF MEMORY.
 II,JST,KST,LST =  1  1  1  1 NREC =         1 INTLOC =    1
 II,JST,KST,LST =  2  1  1  1 NREC =         1 INTLOC =    2
 II,JST,KST,LST =  3  1  1  1 NREC =         1 INTLOC =    7
 II,JST,KST,LST =  4  1  1  1 NREC =         1 INTLOC =   22
 II,JST,KST,LST =  5  1  1  1 NREC =         1 INTLOC =   67
 II,JST,KST,LST =  6  1  1  1 NREC =         1 INTLOC =  214
 II,JST,KST,LST =  7  1  1  1 NREC =         1 INTLOC = 1189
 II,JST,KST,LST =  8  1  1  1 NREC =         1 INTLOC = 3224
 II,JST,KST,LST =  9  1  1  1 NREC =         1 INTLOC = 5689
 II,JST,KST,LST = 10  1  1  1 NREC =         1 INTLOC = 8614
 II,JST,KST,LST = 11  1  1  1 NREC =         2 INTLOC = 5536
 II,JST,KST,LST = 12  1  1  1 NREC =         3 INTLOC = 8224
 II,JST,KST,LST = 13  1  1  1 NREC =         7 INTLOC = 6159
 II,JST,KST,LST = 14  1  1  1 NREC =         8 INTLOC = 4627
 II,JST,KST,LST = 15  1  1  1 NREC =         9 INTLOC = 5861
 II,JST,KST,LST = 16  1  1  1 NREC =        10 INTLOC = 8763
 II,JST,KST,LST = 17  1  1  1 NREC =        14 INTLOC =12215
 II,JST,KST,LST = 18  1  1  1 NREC =        20 INTLOC = 3554
 II,JST,KST,LST = 19  1  1  1 NREC =        35 INTLOC = 2079
 II,JST,KST,LST = 20  1  1  1 NREC =        38 INTLOC = 5641
 II,JST,KST,LST = 21  1  1  1 NREC =        41 INTLOC =12469
 II,JST,KST,LST = 22  1  1  1 NREC =        53 INTLOC = 8413
 II,JST,KST,LST = 23  1  1  1 NREC =        57 INTLOC =13773
 II,JST,KST,LST = 24  1  1  1 NREC =        62 INTLOC = 8831
 TOTAL NUMBER OF NONZERO TWO-ELECTRON INTEGRALS =             1135010
         76 INTEGRAL RECORDS WERE STORED ON DISK FILE  8.
  ...... END OF TWO-ELECTRON INTEGRALS .....
 STEP CPU TIME =     0.15 TOTAL CPU TIME =          0.2 (      0.0 MIN)
 TOTAL WALL CLOCK TIME=          0.2 SECONDS, CPU UTILIZATION IS    72.00%

          --------------------------
               R-PBE SCF CALCULATION
          --------------------------

     NUCLEAR ENERGY =        72.9988171079
     MAXIT =   30     NPUNCH=    2
     EXTRAP=T  DAMP=F  SHIFT=F  RSTRCT=F  DIIS=T  DEM=F  SOSCF=F
         DENSITY MATRIX CONVERGENCE THRESHOLD=  1.00E-05
     COARSE -> FINE DFT GRID SWITCH THRESHOLD=  3.00E-04 (SWITCH IN $DFT)
                   HF -> DFT SWITCH THRESHOLD=  5.00E-03 (SWOFF IN $DFT)
     MEMORY REQUIRED FOR RHF ITERS=    248522 WORDS.

 DFT CODE IS SWITCHING FROM THE FINE GRID NRAD= 96,  NLEB=  302
                      TO THE COARSE GRID NRAD0= 24, NLEB0=  110

     EXCHANGE FUNCTIONAL   =PBE       
     CORRELATION FUNCTIONAL=PBE       
     DFT THRESHOLD         =.276E-07
     GRID CHANGE THRESHOLD =.300E-03
 FOR AN EULER-MACLAURIN QUADRATURE USING  96 RADIAL POINTS:
 SMALLEST GAUSSIAN PRIMITIVE EXPONENT=        0.1061000000 OF TYPE -S-
 ON ATOM NUMBER   4 HAS RADIAL NORMALIZATION=  1.000000
  LARGEST GAUSSIAN PRIMITIVE EXPONENT=     2288.6400000000 OF TYPE -S-
 ON ATOM NUMBER   3 HAS RADIAL NORMALIZATION=  1.000000
 DFT IS SWITCHED OFF, PERFORMING PURE SCF UNTIL SWOFF THRESHOLD IS REACHED.

 ITER EX DEM     TOTAL ENERGY        E CHANGE  DENSITY CHANGE    DIIS ERROR
          * * *   INITIATING DIIS PROCEDURE   * * *
   1  0  0     -184.0525758206  -184.0525758206   0.244278713   0.366332313
   2  1  0     -184.6279075116    -0.5753316909   0.156098747   0.104395561
   3  2  0     -184.6636369142    -0.0357294026   0.080342140   0.076663662
   4  3  0     -184.6943545351    -0.0307176210   0.019888692   0.010175324
   5  4  0     -184.6957716146    -0.0014170794   0.006947491   0.007525870
   6  5  0     -184.6959959031    -0.0002242885   0.003830205   0.002151541
 CONVERGED TO SWOFF, SO DFT CALCULATION IS NOW SWITCHED ON.
          * * *   INITIATING DIIS PROCEDURE   * * *
   7  6  0     -185.5538943701    -0.8578984670   0.195021562   0.082690536
   8  7  0     -185.5606604384    -0.0067660683   0.169984457   0.077974367
   9  8  0     -185.5473161600     0.0133442784   0.131043424   0.091690376
  10  9  0     -185.5778966126    -0.0305804526   0.056516797   0.035786572
  11 10  0     -185.5863029375    -0.0084063249   0.013718085   0.008107848
  12 11  0     -185.5866778037    -0.0003748662   0.001846118   0.001953235
  13 12  0     -185.5866930252    -0.0000152215   0.000695396   0.000620723
  14 13  0     -185.5866944798    -0.0000014546   0.000179242   0.000191979
 DFT CODE IS SWITCHING BACK TO THE FINE GRID
          * * *   INITIATING DIIS PROCEDURE   * * *
  15 14  0     -185.5859086849     0.0007857949   0.001377531   0.001462867
  16 15  0     -185.5859165225    -0.0000078376   0.001149185   0.000627786
  17 16  0     -185.5859136730     0.0000028494   0.001323458   0.000960381
  18 17  0     -185.5859167028    -0.0000030297   0.000490046   0.000420545
  19 18  0     -185.5859175992    -0.0000008965   0.000126038   0.000097136
  20 19  0     -185.5859176398    -0.0000000405   0.000029439   0.000024612
  21 20  0     -185.5859176430    -0.0000000033   0.000004435   0.000002481
  22 21  0     -185.5859176431    -0.0000000000   0.000000871   0.000000710

          -----------------
          DENSITY CONVERGED
          -----------------
     TIME TO FORM FOCK OPERATORS=       4.3 SECONDS (       0.2 SEC/ITER)
     TIME TO SOLVE SCF EQUATIONS=       0.0 SECONDS (       0.0 SEC/ITER)

 FINAL R-PBE ENERGY IS     -185.5859176431 AFTER  22 ITERATIONS
 DFT EXCHANGE + CORRELATION ENERGY =       -22.7997980077
 TOTAL ELECTRON NUMBER             =        23.9999998243

          ------------
          EIGENVECTORS
          ------------

                      1          2          3          4          5
                  -18.7933   -14.1114   -14.0454    -1.0937    -0.8650
                     A          A          A          A          A   
    1  N  1  S   -0.000017   0.000647   0.993195  -0.087214  -0.167720
    2  N  1  S   -0.000369  -0.001266   0.034665   0.178705   0.348903
    3  N  1  S   -0.000808   0.008120  -0.016997   0.072270   0.256427
    4  N  1  X    0.000256   0.000864   0.000303  -0.089418  -0.035449
    5  N  1  Y   -0.000307  -0.000753   0.001714   0.059546   0.121995
    6  N  1  Z    0.000053   0.000129  -0.000298  -0.010117  -0.021135
    7  N  1  X    0.000414  -0.003361   0.003056  -0.007793  -0.031587
    8  N  1  Y    0.001121   0.002787  -0.001856  -0.000695   0.021069
    9  N  1  Z   -0.000198  -0.000478   0.000314   0.000154  -0.003565
   10  N  1 XX    0.000241  -0.000338   0.001278   0.008182   0.002013
   11  N  1 YY   -0.000008  -0.000299  -0.000432  -0.000756   0.005775
   12  N  1 ZZ   -0.000233   0.000637  -0.000846  -0.007426  -0.007788
   13  N  1 XY    0.000137   0.001128   0.000266  -0.010667  -0.006779
   14  N  1 XZ   -0.000025  -0.000193  -0.000052   0.001808   0.001148
   15  N  1 YZ   -0.000047   0.000191  -0.000086  -0.001353  -0.002799
   16  N  2  S    0.000073   0.993328  -0.000364  -0.150227  -0.049201
   17  N  2  S   -0.000789   0.034380  -0.001031   0.312465   0.106348
   18  N  2  S    0.008315  -0.020165   0.004510   0.178344   0.079122
   19  N  2  X    0.000011  -0.000076  -0.000801  -0.045039   0.258336
   20  N  2  Y   -0.000128  -0.002912   0.000776  -0.156090  -0.044890
   21  N  2  Z    0.000022   0.000510  -0.000133   0.027432   0.007091
   22  N  2  X   -0.004332  -0.002468   0.002291   0.010879   0.053949
   23  N  2  Y   -0.003461   0.005592  -0.001229  -0.041555  -0.015018
   24  N  2  Z    0.000618  -0.000970   0.000208   0.007241   0.002477
   25  N  2 XX   -0.000353   0.000387  -0.000395   0.007213  -0.000750
   26  N  2 YY    0.000157  -0.000146  -0.000354   0.008316   0.002383
   27  N  2 ZZ    0.000196  -0.000241   0.000748  -0.015528  -0.001634
   28  N  2 XY   -0.000550   0.000100   0.001103   0.008646  -0.031628
   29  N  2 XZ    0.000098  -0.000020  -0.000189  -0.001592   0.005530
   30  N  2 YZ    0.000010  -0.000020   0.000226  -0.004995  -0.000738
   31  O  3  S    0.993213   0.000138  -0.000014  -0.149911   0.145439
   32  O  3  S    0.034845  -0.000143  -0.000247   0.304336  -0.302871
   33  O  3  S   -0.020516   0.002094   0.000541   0.255428  -0.314271
   34  O  3  X    0.001705  -0.000543  -0.000023   0.140468  -0.048799
   35  O  3  Y    0.000459  -0.000470  -0.000240   0.053367  -0.043153
   36  O  3  Z   -0.000085   0.000084   0.000042  -0.009734   0.007681
   37  O  3  X   -0.005735   0.000254   0.000645   0.049056  -0.035524
   38  O  3  Y   -0.001951   0.000044   0.000749   0.016084  -0.012822
   39  O  3  Z    0.000357  -0.000009  -0.000134  -0.002949   0.002340
   40  O  3 XX   -0.000310  -0.000834   0.000232   0.014016   0.000118
   41  O  3 YY   -0.000037  -0.000122  -0.000117  -0.003568  -0.003214
   42  O  3 ZZ    0.000347   0.000956  -0.000115  -0.010448   0.003096
   43  O  3 XY    0.000044  -0.001123  -0.000139   0.010734  -0.004528
   44  O  3 XZ   -0.000006   0.000202   0.000023  -0.001959   0.000801
   45  O  3 YZ    0.000080   0.000228   0.000001  -0.001467   0.001330
   46  H  4  S    0.001590   0.000053   0.000481   0.068903   0.001949
   47  H  4  S    0.001514   0.001083   0.002001  -0.016087  -0.013772
   48  H  4  X   -0.000423  -0.000117  -0.000329  -0.000322   0.007251
   49  H  4  Y    0.000415   0.000415  -0.000397   0.014041   0.000669
   50  H  4  Z   -0.000072  -0.000072   0.000071  -0.002467  -0.000138
   51  H  5  S   -0.000240  -0.000547  -0.002049   0.030375   0.130304
   52  H  5  S    0.000243   0.001017   0.002036  -0.006396  -0.002739
   53  H  5  X    0.000037   0.000114   0.002045  -0.006063  -0.016405
   54  H  5  Y    0.000028  -0.000155   0.001040  -0.000329  -0.004076
   55  H  5  Z   -0.000005   0.000027  -0.000185   0.000070   0.000743

                      6          7          8          9         10
                   -0.6061    -0.5355    -0.4434    -0.4344    -0.2984
                     A          A          A          A          A   
    1  N  1  S    0.104280   0.006706   0.042713   0.000217  -0.044580
    2  N  1  S   -0.218365  -0.018601  -0.087783  -0.000471   0.084659
    3  N  1  S   -0.262938  -0.042057  -0.122915  -0.000642   0.234148
    4  N  1  X   -0.266529   0.324358  -0.074688   0.000609  -0.104124
    5  N  1  Y    0.098784   0.118973   0.293276   0.050895  -0.358262
    6  N  1  Z   -0.016718  -0.021679  -0.051927   0.286155   0.062550
    7  N  1  X   -0.058212   0.132260  -0.023792   0.000447  -0.081714
    8  N  1  Y    0.034501   0.052824   0.183847   0.030635  -0.223047
    9  N  1  Z   -0.005933  -0.009619  -0.032598   0.171986   0.038977
   10  N  1 XX   -0.002779  -0.008613  -0.016610  -0.000146  -0.008368
   11  N  1 YY    0.005280   0.006838   0.019667   0.005032   0.002459
   12  N  1 ZZ   -0.002500   0.001775  -0.003057  -0.004886   0.005909
   13  N  1 XY   -0.018934   0.003436  -0.011318  -0.002993   0.002011
   14  N  1 XZ    0.003300  -0.000547   0.002067  -0.017217  -0.000317
   15  N  1 YZ   -0.001565  -0.001055  -0.004732   0.015942   0.000677
   16  N  2  S   -0.138360  -0.071521  -0.015854  -0.000108  -0.053172
   17  N  2  S    0.320259   0.157580   0.027599   0.000212   0.099270
   18  N  2  S    0.315743   0.185763   0.057999   0.000389   0.236044
   19  N  2  X    0.020500  -0.154027   0.362154   0.002241  -0.005933
   20  N  2  Y   -0.034936   0.201282   0.114849   0.076705   0.373338
   21  N  2  Z    0.005958  -0.034756  -0.022327   0.436258  -0.065279
   22  N  2  X    0.017719  -0.027652   0.102311   0.000961  -0.027917
   23  N  2  Y   -0.029780   0.085128   0.055789   0.040027   0.230632
   24  N  2  Z    0.005122  -0.014802  -0.010652   0.227897  -0.040256
   25  N  2 XX   -0.002768   0.028970   0.008556   0.000007  -0.000780
   26  N  2 YY    0.000995  -0.032680  -0.013179  -0.010432  -0.014093
   27  N  2 ZZ    0.001773   0.003710   0.004622   0.010425   0.014874
   28  N  2 XY   -0.002957   0.009881  -0.019283  -0.000570  -0.014648
   29  N  2 XZ    0.000527  -0.001803   0.003364  -0.002379   0.002588
   30  N  2 YZ    0.000184   0.007554   0.003870  -0.033258   0.006082
   31  O  3  S    0.102507  -0.004436  -0.087825  -0.000180   0.011382
   32  O  3  S   -0.216869   0.013326   0.181297   0.000369  -0.033288
   33  O  3  S   -0.292060   0.011509   0.277682   0.000558  -0.057310
   34  O  3  X    0.107901  -0.048545  -0.337980   0.000129  -0.322943
   35  O  3  Y    0.136776   0.273668  -0.207618   0.056325   0.081222
   36  O  3  Z   -0.024299  -0.047800   0.036462   0.325397  -0.012871
   37  O  3  X    0.042619  -0.029193  -0.193573   0.000073  -0.212899
   38  O  3  Y    0.061338   0.140884  -0.113706   0.033223   0.068800
   39  O  3  Z   -0.010881  -0.024596   0.019961   0.191753  -0.011151
   40  O  3 XX    0.008061  -0.011415  -0.013674   0.000090  -0.019735
   41  O  3 YY   -0.002886   0.010239   0.004103   0.002630   0.014976
   42  O  3 ZZ   -0.005175   0.001176   0.009571  -0.002720   0.004759
   43  O  3 XY    0.011735   0.018850  -0.011663   0.004360   0.000341
   44  O  3 XZ   -0.002102  -0.003260   0.002051   0.024951   0.000034
   45  O  3 YZ   -0.000512  -0.001945   0.001149   0.008374  -0.002125
   46  H  4  S   -0.086462  -0.250965  -0.088781  -0.000024   0.138727
   47  H  4  S   -0.033362  -0.025394   0.025907   0.000127   0.138182
   48  H  4  X    0.004059  -0.002501  -0.013330  -0.000003   0.019410
   49  H  4  Y   -0.002706  -0.023741  -0.008033   0.002141  -0.006875
   50  H  4  Z    0.000464   0.004187   0.001418   0.012195   0.001145
   51  H  5  S   -0.259148   0.237379  -0.056890  -0.000080  -0.191454
   52  H  5  S   -0.030867   0.032544  -0.029753  -0.000090  -0.044630
   53  H  5  X    0.017151  -0.016948  -0.001559   0.000003   0.009417
   54  H  5  Y    0.011394  -0.005050   0.007853   0.001411  -0.005607
   55  H  5  Z   -0.002020   0.000908  -0.001391   0.007961   0.000955

                     11         12         13         14         15
                   -0.2757    -0.2641    -0.1042    -0.0068     0.0414
                     A          A          A          A          A   
    1  N  1  S   -0.067439   0.000012  -0.000102   0.082498   0.040353
    2  N  1  S    0.167788  -0.000008   0.000226  -0.178728  -0.075013
    3  N  1  S    0.242218  -0.000190   0.000469  -0.590738  -0.536207
    4  N  1  X   -0.194400  -0.000833  -0.000811  -0.156109  -0.228047
    5  N  1  Y    0.005367  -0.077292  -0.065443   0.186582  -0.284161
    6  N  1  Z   -0.000673  -0.443792  -0.373132  -0.032906   0.050327
    7  N  1  X   -0.087680  -0.000557  -0.000892  -0.319224  -0.398721
    8  N  1  Y   -0.022199  -0.058891  -0.073476   0.277652  -0.427777
    9  N  1  Z    0.003943  -0.338251  -0.418714  -0.048525   0.075812
   10  N  1 XX    0.003377   0.000022  -0.000087   0.006467   0.017052
   11  N  1 YY   -0.006689  -0.004393   0.003580   0.004581  -0.017225
   12  N  1 ZZ    0.003312   0.004370  -0.003493  -0.011048   0.000173
   13  N  1 XY   -0.009817   0.000397  -0.002776   0.020538  -0.019102
   14  N  1 XZ    0.001702   0.002460  -0.015994  -0.003669   0.003309
   15  N  1 YZ    0.002110  -0.014109   0.011454  -0.003321   0.003687
   16  N  2  S    0.069131  -0.000000  -0.000022   0.036329  -0.035333
   17  N  2  S   -0.148636   0.000002   0.000004  -0.053610   0.073138
   18  N  2  S   -0.240695   0.000033   0.000441  -0.551645   0.390679
   19  N  2  X    0.031356  -0.000255   0.001621   0.015430   0.024510
   20  N  2  Y   -0.313271  -0.010109   0.097389  -0.054641  -0.081408
   21  N  2  Z    0.054914  -0.057745   0.556546   0.009930   0.014083
   22  N  2  X   -0.023980  -0.000034   0.001590  -0.040074  -0.040978
   23  N  2  Y   -0.210424  -0.004252   0.089076   0.087744  -0.140049
   24  N  2  Z    0.037027  -0.024097   0.509689  -0.014746   0.024575
   25  N  2 XX    0.011364  -0.000183  -0.000015   0.009516  -0.027141
   26  N  2 YY    0.002154   0.000670   0.000271  -0.007416   0.019763
   27  N  2 ZZ   -0.013518  -0.000487  -0.000256  -0.002100   0.007378
   28  N  2 XY   -0.017787  -0.006213  -0.000085  -0.003562   0.004046
   29  N  2 XZ    0.002991  -0.035753  -0.000586   0.000574  -0.000595
   30  N  2 YZ   -0.003219   0.002156   0.000857   0.001134  -0.002581
   31  O  3  S   -0.030727   0.000015  -0.000041   0.034458  -0.012178
   32  O  3  S    0.077454  -0.000038   0.000088  -0.080910   0.028854
   33  O  3  S    0.058932   0.000018   0.000224  -0.187999   0.048180
   34  O  3  X   -0.281682   0.002044  -0.000705  -0.098834  -0.073695
   35  O  3  Y    0.399694   0.087776  -0.056158   0.295035  -0.179608
   36  O  3  Z   -0.068560   0.504073  -0.318851  -0.051703   0.031868
   37  O  3  X   -0.220004   0.001494  -0.000708  -0.063981  -0.117493
   38  O  3  Y    0.265544   0.063308  -0.053546   0.305965  -0.231303
   39  O  3  Z   -0.045429   0.363543  -0.304127  -0.053713   0.041019
   40  O  3 XX   -0.005024   0.000095   0.000028  -0.005317   0.008639
   41  O  3 YY   -0.000044   0.001392   0.003696   0.007552  -0.011094
   42  O  3 ZZ    0.005068  -0.001487  -0.003724  -0.002235   0.002455
   43  O  3 XY    0.011216   0.002660   0.000681  -0.005379   0.002477
   44  O  3 XZ   -0.001909   0.015176   0.003678   0.000958  -0.000461
   45  O  3 YZ    0.001049   0.004487   0.011859  -0.002022   0.002829
   46  H  4  S   -0.210963   0.000025  -0.000507   0.367716  -0.244923
   47  H  4  S   -0.143513   0.000053  -0.000526   0.766382  -0.868370
   48  H  4  X    0.020037  -0.000051  -0.000054   0.004608   0.004848
   49  H  4  Y   -0.004643   0.000258  -0.002463  -0.012061   0.015394
   50  H  4  Z    0.000769   0.001405  -0.014054   0.002097  -0.002732
   51  H  5  S   -0.116692   0.000074  -0.000368   0.201913   0.089884
   52  H  5  S   -0.081189   0.000014  -0.000306   0.775451   1.312388
   53  H  5  X    0.000955  -0.000034  -0.000039   0.014095   0.026182
   54  H  5  Y    0.000842  -0.002917  -0.002892   0.017970  -0.003749
   55  H  5  Z   -0.000153  -0.016741  -0.016533  -0.003200   0.000624

                     16         17         18         19         20
                    0.1546     0.1947     0.3347     0.5127     0.5326
                     A          A          A          A          A   
    1  N  1  S    0.027482  -0.070389   0.089667  -0.011074  -0.016115
    2  N  1  S   -0.008725   0.089797  -0.236154   0.037133   0.181469
    3  N  1  S   -0.654329   1.604471  -0.771537  -0.336611  -0.747915
    4  N  1  X    0.056617  -0.216462   0.113226   0.507997  -0.270334
    5  N  1  Y    0.024956   0.161431  -0.115734   0.437750   0.477798
    6  N  1  Z   -0.004576  -0.027746   0.019540  -0.077907  -0.082199
    7  N  1  X    0.613634  -1.033913   0.553115  -0.188536   0.840695
    8  N  1  Y   -0.037747   0.795791  -0.625046  -0.573422  -0.581980
    9  N  1  Z    0.004737  -0.136225   0.107464   0.100977   0.098889
   10  N  1 XX    0.020169   0.035323   0.078576  -0.077876  -0.057130
   11  N  1 YY   -0.026400  -0.023088  -0.007040   0.029744   0.025838
   12  N  1 ZZ    0.006231  -0.012235  -0.071536   0.048132   0.031292
   13  N  1 XY   -0.016607   0.047518   0.028816  -0.021766   0.010318
   14  N  1 XZ    0.002885  -0.008457  -0.005531   0.003973  -0.001562
   15  N  1 YZ    0.006857   0.002128  -0.013529   0.003758   0.001109
   16  N  2  S   -0.104716   0.046138  -0.090572  -0.029199  -0.000767
   17  N  2  S    0.240641  -0.078878   0.278821   0.119653  -0.117920
   18  N  2  S    1.430512  -1.173059   1.175682   0.287490   1.594305
   19  N  2  X   -0.315863  -0.418016   0.244497  -0.338551   0.271521
   20  N  2  Y   -0.309209   0.133319  -0.068303  -0.090787   0.613290
   21  N  2  Z    0.055017  -0.021989   0.011425   0.016589  -0.107599
   22  N  2  X   -0.608850  -1.167870   0.496001   0.462350  -0.696918
   23  N  2  Y   -0.839049   0.625729  -0.628599  -0.188903  -1.264565
   24  N  2  Z    0.148462  -0.105741   0.108467   0.031764   0.222681
   25  N  2 XX   -0.030045  -0.012087  -0.015237   0.032329   0.086916
   26  N  2 YY    0.010841   0.012102   0.012484  -0.048747  -0.019719
   27  N  2 ZZ    0.019204  -0.000015   0.002752   0.016418  -0.067196
   28  N  2 XY   -0.023479  -0.030299   0.003952  -0.020818  -0.043634
   29  N  2 XZ    0.004270   0.005327  -0.000646   0.003622   0.007105
   30  N  2 YZ    0.001822  -0.002422  -0.002043   0.013592  -0.009797
   31  O  3  S    0.095813   0.036417   0.011718   0.015947  -0.004448
   32  O  3  S   -0.166742  -0.127950  -0.080376  -0.073057   0.128301
   33  O  3  S   -1.163176  -0.108137   0.099972   0.212955  -0.942307
   34  O  3  X   -0.293141  -0.148247  -0.248468  -0.234435   0.243016
   35  O  3  Y   -0.262141  -0.127418   0.149658  -0.022235   0.004768
   36  O  3  Z    0.046691   0.022700  -0.025578   0.004327  -0.001414
   37  O  3  X   -0.655279  -0.080050  -0.110234  -0.053154  -0.436006
   38  O  3  Y   -0.421257  -0.301887  -0.003385  -0.005508  -0.214867
   39  O  3  Z    0.075557   0.053027   0.000925   0.001336   0.038854
   40  O  3 XX   -0.000348  -0.000299   0.022767   0.012202  -0.062808
   41  O  3 YY   -0.000054   0.014663  -0.001713   0.017266   0.027877
   42  O  3 ZZ    0.000403  -0.014363  -0.021054  -0.029467   0.034930
   43  O  3 XY    0.023301  -0.008532  -0.025158   0.015584  -0.053176
   44  O  3 XZ   -0.004080   0.001449   0.004287  -0.002840   0.009652
   45  O  3 YZ    0.000027  -0.006021  -0.003977  -0.009839   0.001641
   46  H  4  S   -0.219846   0.333725   0.807251   0.463342   0.122079
   47  H  4  S    0.614065  -0.814833  -0.879032  -0.815791  -0.311115
   48  H  4  X   -0.003145   0.001467   0.016300  -0.038707  -0.025413
   49  H  4  Y   -0.002564   0.008126  -0.011593  -0.063809   0.010816
   50  H  4  Z    0.000468  -0.001454   0.001962   0.011449  -0.001833
   51  H  5  S    0.089525   0.242909   0.606850  -0.742184  -0.154150
   52  H  5  S   -0.242156   0.148340  -0.577444   0.830847   0.153732
   53  H  5  X    0.005575   0.013087   0.047919  -0.121207   0.004310
   54  H  5  Y   -0.013975   0.020931  -0.004403  -0.028361  -0.026119
   55  H  5  Z    0.002428  -0.003693   0.000596   0.005137   0.004548

                     21         22         23         24         25
                    0.5443     0.5755     0.6011     0.6354     0.7797
                     A          A          A          A          A   
    1  N  1  S    0.000078  -0.014922   0.011222   0.000049  -0.000222
    2  N  1  S   -0.000313   0.057917   0.104293  -0.000085   0.002477
    3  N  1  S   -0.000338  -1.137328  -0.200469  -0.000464  -0.002477
    4  N  1  X    0.001991  -0.248964  -0.503719   0.001253  -0.001825
    5  N  1  Y    0.132604  -0.143447   0.487314   0.089931   0.021334
    6  N  1  Z    0.757872   0.025707  -0.084391   0.514271   0.126466
    7  N  1  X   -0.002221   0.536843   0.598349  -0.002471   0.006659
    8  N  1  Y   -0.130451  -0.064156  -0.960963  -0.170630  -0.010139
    9  N  1  Z   -0.743576   0.009654   0.166977  -0.974430  -0.062211
   10  N  1 XX   -0.000101  -0.043745   0.047736   0.000099  -0.000213
   11  N  1 YY    0.009404  -0.006896  -0.009754   0.001756  -0.009718
   12  N  1 ZZ   -0.009304   0.050641  -0.037981  -0.001856   0.009931
   13  N  1 XY   -0.004567   0.100555   0.025805   0.001686  -0.010667
   14  N  1 XZ   -0.027022  -0.017206  -0.004681   0.009384  -0.060082
   15  N  1 YZ    0.030186   0.011680  -0.005935   0.005637  -0.031609
   16  N  2  S    0.000024  -0.034482   0.019778   0.000008   0.000032
   17  N  2  S    0.000040   0.139458   0.221067  -0.000142   0.001144
   18  N  2  S   -0.000743   0.462766  -0.506783   0.000651   0.006496
   19  N  2  X    0.000878  -0.577508  -0.259648  -0.001984  -0.000624
   20  N  2  Y    0.084358   0.534645  -0.225335  -0.125963   0.023940
   21  N  2  Z    0.485882  -0.091895   0.039955  -0.720354   0.144934
   22  N  2  X    0.000328   1.341804   1.047555   0.003706  -0.002183
   23  N  2  Y   -0.070097  -0.993718   0.956291   0.221340  -0.095863
   24  N  2  Z   -0.408163   0.169903  -0.170134   1.266521  -0.546589
   25  N  2 XX    0.000054   0.022642   0.017790   0.000096   0.000649
   26  N  2 YY   -0.014780  -0.017363   0.041080   0.008752  -0.006708
   27  N  2 ZZ    0.014726  -0.005280  -0.058870  -0.008849   0.006059
   28  N  2 XY    0.003013  -0.020532  -0.109791   0.003698   0.001782
   29  N  2 XZ    0.018351   0.003491   0.018886   0.020787   0.009084
   30  N  2 YZ   -0.047454   0.002603  -0.020405   0.027898  -0.022415
   31  O  3  S    0.000006  -0.020404  -0.052820   0.000008   0.000241
   32  O  3  S   -0.000202   0.085690   0.127703  -0.000092  -0.000855
   33  O  3  S    0.001314   0.204127   0.999597  -0.000008  -0.000863
   34  O  3  X    0.000235  -0.137602  -0.207761  -0.000354   0.000461
   35  O  3  Y    0.036400   0.089200  -0.126104  -0.016834  -0.146676
   36  O  3  Z    0.207332  -0.015234   0.022642  -0.097003  -0.853470
   37  O  3  X    0.000499   0.087297   0.797568  -0.000309  -0.001743
   38  O  3  Y   -0.010226   0.140640   0.317873  -0.024277   0.197457
   39  O  3  Z   -0.059614  -0.024832  -0.057987  -0.138031   1.159575
   40  O  3 XX    0.000092  -0.006706   0.031385  -0.000186   0.000067
   41  O  3 YY    0.005276   0.014074   0.012894   0.000900  -0.006642
   42  O  3 ZZ   -0.005368  -0.007368  -0.044280  -0.000714   0.006575
   43  O  3 XY    0.001010   0.060051   0.055236  -0.006360  -0.001664
   44  O  3 XZ    0.005111  -0.010517  -0.009937  -0.036253  -0.010114
   45  O  3 YZ    0.016879  -0.004648  -0.012069   0.002897  -0.021944
   46  H  4  S    0.000098  -0.126880  -0.116132   0.000141   0.003093
   47  H  4  S    0.000446   0.288248   0.185219  -0.000001  -0.001608
   48  H  4  X    0.000003   0.054494   0.031509   0.000004   0.000360
   49  H  4  Y   -0.005241  -0.006716  -0.004948  -0.003424   0.013806
   50  H  4  Z   -0.030060   0.001014   0.000695  -0.019732   0.077823
   51  H  5  S    0.000340   0.101440   0.261780   0.000432  -0.002449
   52  H  5  S    0.000004  -0.315554  -0.529968  -0.000131  -0.001165
   53  H  5  X   -0.000083   0.007401   0.038584  -0.000069   0.000110
   54  H  5  Y    0.000416   0.059936   0.035812  -0.001104  -0.005443
   55  H  5  Z    0.002209  -0.010429  -0.006313  -0.006520  -0.030836

                     26         27         28         29         30
                    0.7859     0.8311     0.9136     1.0013     1.1711
                     A          A          A          A          A   
    1  N  1  S   -0.033323   0.062859   0.028757   0.004918   0.045543
    2  N  1  S    0.402182  -0.858393  -0.568108   0.187258  -1.410961
    3  N  1  S   -0.490394   0.266547   0.712481  -1.247947   4.571584
    4  N  1  X   -0.215984  -0.090513  -0.242202   0.348240   0.112377
    5  N  1  Y   -0.015758   0.161270  -0.045070   0.384807   0.121353
    6  N  1  Z    0.002487  -0.028103   0.008259  -0.068361  -0.021504
    7  N  1  X    0.527200   0.449943   1.519819  -1.502312  -1.806092
    8  N  1  Y   -0.157455  -0.615623   0.225003  -1.344942   0.884361
    9  N  1  Z    0.026591   0.106571  -0.042601   0.239024  -0.149051
   10  N  1 XX    0.012168  -0.020323  -0.018903   0.045952  -0.130366
   11  N  1 YY    0.029734  -0.010044  -0.069181  -0.064554   0.061089
   12  N  1 ZZ   -0.041902   0.030368   0.088085   0.018602   0.069276
   13  N  1 XY   -0.003032   0.092554   0.004739   0.067085  -0.030647
   14  N  1 XZ    0.000612  -0.016001  -0.000688  -0.010912   0.007183
   15  N  1 YZ   -0.014752   0.008121   0.032595   0.017507   0.002302
   16  N  2  S    0.001834   0.036213   0.049570   0.028955  -0.027080
   17  N  2  S    0.221527  -0.739610  -0.949071  -0.615410   0.978001
   18  N  2  S    0.953853   1.846169   2.140269   1.545047  -3.552379
   19  N  2  X   -0.181446  -0.255035   0.011988  -0.031745   0.109635
   20  N  2  Y   -0.182935  -0.069640  -0.062889   0.111844   0.029160
   21  N  2  Z    0.031531   0.012841   0.010758  -0.019081  -0.005188
   22  N  2  X   -0.006289   0.795839  -0.561772   0.367267  -1.722126
   23  N  2  Y    0.020834  -0.610454  -0.514598  -0.148920   1.326092
   24  N  2  Z   -0.000121   0.104465   0.091819   0.024071  -0.227143
   25  N  2 XX    0.102498  -0.046772  -0.016583  -0.083520   0.091370
   26  N  2 YY    0.031992   0.015795  -0.056606   0.055505  -0.072933
   27  N  2 ZZ   -0.134490   0.030977   0.073190   0.028015  -0.018437
   28  N  2 XY    0.056500   0.054270  -0.013255   0.046670   0.099843
   29  N  2 XZ   -0.010760  -0.009225   0.002672  -0.007903  -0.017942
   30  N  2 YZ   -0.034726   0.002953   0.026947  -0.005468   0.011624
   31  O  3  S    0.042953   0.039543   0.012276  -0.000422  -0.028715
   32  O  3  S   -0.147168  -0.202334  -0.083136   0.053621   0.372170
   33  O  3  S   -0.123522  -0.047074  -0.487116  -0.286383  -0.282915
   34  O  3  X    0.518209   0.377641  -0.332544  -0.008044   0.064640
   35  O  3  Y    0.457148  -0.347288   0.447018   0.369424   0.200628
   36  O  3  Z   -0.076089   0.059553  -0.076522  -0.066065  -0.035953
   37  O  3  X   -0.951831  -0.900666   0.309473  -0.305048  -0.012387
   38  O  3  Y   -0.882060   0.502453  -0.996227  -0.661826  -0.642700
   39  O  3  Z    0.149639  -0.085206   0.172300   0.119290   0.113901
   40  O  3 XX    0.025488   0.044273  -0.073781   0.024114   0.023134
   41  O  3 YY    0.023425  -0.043876   0.021617  -0.087654   0.021892
   42  O  3 ZZ   -0.048913  -0.000397   0.052164   0.063540  -0.045027
   43  O  3 XY    0.028654  -0.044860  -0.019783   0.010460   0.092725
   44  O  3 XZ   -0.005168   0.007732   0.003998  -0.001997  -0.016872
   45  O  3 YZ   -0.015042   0.009171   0.006357   0.031683  -0.013937
   46  H  4  S    0.361388   0.225724   0.075589  -0.721048  -0.480552
   47  H  4  S   -0.352373  -0.310580  -0.390443  -0.550162  -0.456226
   48  H  4  X    0.006772  -0.018789  -0.014837   0.051698   0.008010
   49  H  4  Y    0.014066   0.068679  -0.031856   0.020178  -0.138096
   50  H  4  Z   -0.003028  -0.011918   0.005937  -0.004181   0.023419
   51  H  5  S   -0.150117   0.084672  -0.601262   0.950256   0.024422
   52  H  5  S   -0.005197  -0.603160  -0.682322   0.615117   0.065170
   53  H  5  X    0.003304   0.032038   0.069676  -0.066722   0.056595
   54  H  5  Y   -0.003972   0.071110  -0.019071  -0.034751   0.132354
   55  H  5  Z    0.000817  -0.012405   0.003095   0.006833  -0.022035

                     31         32         33         34         35
                    1.3135     1.4062     1.4847     1.5869     1.6553
                     A          A          A          A          A   
    1  N  1  S   -0.000144  -0.007024  -0.000012   0.018282   0.000238
    2  N  1  S    0.003505   0.426356   0.000086  -0.146959   0.000230
    3  N  1  S   -0.011656  -1.609660  -0.000215   0.574957  -0.003696
    4  N  1  X   -0.001025  -0.002477  -0.000416   0.022302  -0.000362
    5  N  1  Y    0.001732  -0.086088  -0.021145   0.031395   0.012498
    6  N  1  Z    0.017175   0.015032  -0.120536  -0.005733   0.074250
    7  N  1  X    0.006855   0.169783   0.000232  -0.001036   0.019481
    8  N  1  Y   -0.008340  -0.623784   0.005463  -0.185493   0.019408
    9  N  1  Z   -0.036930   0.108329   0.036319   0.033516   0.068327
   10  N  1 XX    0.001739  -0.296051  -0.000545  -0.026741   0.001777
   11  N  1 YY    0.036846   0.378245   0.149940   0.291590  -0.107168
   12  N  1 ZZ   -0.038586  -0.082194  -0.149395  -0.264850   0.105391
   13  N  1 XY    0.088255   0.089893  -0.018218   0.135056   0.009311
   14  N  1 XZ    0.505708  -0.016315  -0.112323  -0.024584   0.034354
   15  N  1 YZ    0.115439  -0.096248   0.479879  -0.116508  -0.352520
   16  N  2  S    0.000062   0.006213  -0.000008  -0.007489  -0.000134
   17  N  2  S   -0.002942  -0.572821   0.000282   0.329847  -0.002289
   18  N  2  S    0.009750   2.155074  -0.001660  -1.611317   0.021741
   19  N  2  X   -0.000180   0.034347  -0.000065   0.124049   0.002443
   20  N  2  Y    0.016772  -0.168164  -0.002663   0.045326   0.024610
   21  N  2  Z    0.099414   0.029088  -0.015905  -0.008436   0.145365
   22  N  2  X    0.005326   0.118727   0.001418   0.428502  -0.014051
   23  N  2  Y   -0.016535  -0.655499  -0.017181   0.624193  -0.018799
   24  N  2  Z   -0.071317   0.114402  -0.101856  -0.110924  -0.046825
   25  N  2 XX    0.000372   0.265364   0.003154   0.072493  -0.000638
   26  N  2 YY    0.084218  -0.437802  -0.008606   0.026189   0.195187
   27  N  2 ZZ   -0.084590   0.172438   0.005453  -0.098682  -0.194549
   28  N  2 XY   -0.017956  -0.032027   0.106545  -0.061824   0.038107
   29  N  2 XZ   -0.103627   0.005847   0.611282   0.009005   0.194689
   30  N  2 YZ    0.274830   0.126534  -0.028043  -0.026715   0.612589
   31  O  3  S    0.000179  -0.017430   0.000141   0.078178  -0.000442
   32  O  3  S   -0.002608   0.231239  -0.002157  -1.373182   0.009609
   33  O  3  S    0.003404  -0.709521   0.003990   2.479758  -0.025098
   34  O  3  X   -0.000444   0.049823  -0.000164  -0.153831  -0.000838
   35  O  3  Y   -0.021139  -0.109553   0.002304   0.063125   0.015722
   36  O  3  Z   -0.114429   0.019256   0.012653  -0.010969   0.090034
   37  O  3  X    0.001611  -0.266210   0.001802   0.947570  -0.005193
   38  O  3  Y    0.045899  -0.271726   0.033852   0.144570  -0.003988
   39  O  3  Z    0.247828   0.048015   0.188714  -0.027645   0.013822
   40  O  3 XX   -0.001696  -0.219712  -0.001372  -0.112774   0.001456
   41  O  3 YY    0.029982   0.088171  -0.056370  -0.031890  -0.059285
   42  O  3 ZZ   -0.028286   0.131542   0.057742   0.144664   0.057829
   43  O  3 XY   -0.023351   0.172803  -0.042260  -0.029396  -0.057147
   44  O  3 XZ   -0.133986  -0.028869  -0.236456   0.006407  -0.328748
   45  O  3 YZ    0.092986   0.008246  -0.181163   0.037904  -0.177929
   46  H  4  S    0.002718   0.120208  -0.000479  -0.452038   0.004554
   47  H  4  S    0.000053  -0.358155  -0.000236  -0.134904   0.005187
   48  H  4  X   -0.002070   0.178296  -0.001339   0.089116   0.007169
   49  H  4  Y   -0.063698  -0.345418  -0.027812   0.182852   0.030182
   50  H  4  Z   -0.355774   0.060844  -0.159385  -0.033325   0.153089
   51  H  5  S   -0.000579   0.425249   0.000058  -0.135885  -0.010495
   52  H  5  S   -0.001256   0.108638  -0.000161  -0.027952  -0.002524
   53  H  5  X    0.000879  -0.035686  -0.000106  -0.156457  -0.003260
   54  H  5  Y    0.074989   0.152135   0.007455   0.335098  -0.045847
   55  H  5  Z    0.431731  -0.027778   0.039221  -0.058623  -0.276318

                     36         37         38         39         40
                    1.6688     1.7542     1.8620     1.9214     2.1659
                     A          A          A          A          A   
    1  N  1  S   -0.014758   0.000038  -0.006104   0.027125  -0.031264
    2  N  1  S   -0.088376   0.001509   0.229588  -0.365003   0.217710
    3  N  1  S    0.551816  -0.004635  -1.204153   0.380956  -0.059805
    4  N  1  X    0.042967  -0.000171   0.106105   0.143595   0.204216
    5  N  1  Y    0.052271   0.007617  -0.057329  -0.038186   0.069763
    6  N  1  Z   -0.007810   0.044725   0.010008   0.006186  -0.012652
    7  N  1  X   -1.491226   0.005061   0.197365  -0.449287   0.049980
    8  N  1  Y   -0.476293  -0.067637  -0.626638   0.282194   0.226348
    9  N  1  Z    0.086996  -0.386238   0.109403  -0.048834  -0.040149
   10  N  1 XX   -0.091713   0.000244  -0.166570   0.159464  -0.346221
   11  N  1 YY   -0.174705   0.029843   0.212437   0.112061   0.398762
   12  N  1 ZZ    0.266418  -0.030087  -0.045867  -0.271524  -0.052541
   13  N  1 XY   -0.293280   0.026391   0.005480   0.031334  -0.272204
   14  N  1 XZ    0.052408   0.143165  -0.000420  -0.006566   0.047336
   15  N  1 YZ    0.086765   0.091316  -0.054690  -0.079910  -0.093360
   16  N  2  S    0.010577  -0.000083  -0.010494   0.010512   0.013457
   17  N  2  S    0.237882  -0.000276  -0.326944  -0.235550  -0.392774
   18  N  2  S   -1.998641   0.007348   2.008093   0.007759   0.586922
   19  N  2  X   -0.130054   0.000832  -0.065958  -0.069241  -0.165371
   20  N  2  Y    0.077929   0.000967  -0.093159   0.029854   0.097815
   21  N  2  Z   -0.011355   0.008352   0.016708  -0.005018  -0.016704
   22  N  2  X    1.017173  -0.001942   0.023785  -0.178582  -0.356766
   23  N  2  Y    0.906540   0.031095  -0.704451  -0.056681  -0.304424
   24  N  2  Z   -0.161070   0.195083   0.122779   0.010912   0.054489
   25  N  2 XX    0.114166  -0.000324   0.050228   0.548918   0.188116
   26  N  2 YY   -0.230059   0.020409  -0.063638  -0.256922   0.217312
   27  N  2 ZZ    0.115893  -0.020086   0.013410  -0.291996  -0.405428
   28  N  2 XY   -0.148915   0.014903  -0.054346   0.017347   0.217123
   29  N  2 XZ    0.028914   0.081020   0.008988  -0.005338  -0.039909
   30  N  2 YZ    0.081586   0.060653   0.017188  -0.007554  -0.130420
   31  O  3  S    0.038798  -0.000043  -0.008700   0.016296   0.024578
   32  O  3  S   -0.874462   0.001525   0.602281   0.066976  -0.062054
   33  O  3  S    2.197491  -0.005038  -1.489163  -0.453732  -0.479479
   34  O  3  X    0.076271  -0.000338  -0.056113  -0.104240  -0.231591
   35  O  3  Y    0.006431   0.010266   0.078401  -0.071305  -0.069532
   36  O  3  Z    0.000188   0.058039  -0.013588   0.012795   0.012990
   37  O  3  X    0.519565  -0.001309  -0.566105  -0.125420   0.000352
   38  O  3  Y    0.461938  -0.030762  -0.188079  -0.094997  -0.110700
   39  O  3  Z   -0.083107  -0.167451   0.034542   0.016862   0.019072
   40  O  3 XX   -0.244414   0.002113   0.138736  -0.073100   0.366283
   41  O  3 YY    0.217219  -0.106868   0.290968   0.313003  -0.472214
   42  O  3 ZZ    0.027196   0.104755  -0.429704  -0.239904   0.105931
   43  O  3 XY   -0.045248   0.042667  -0.274240   0.063026  -0.052554
   44  O  3 XZ    0.005505   0.248482   0.046087  -0.011125   0.006804
   45  O  3 YZ   -0.043687  -0.337048  -0.149899  -0.116425   0.122664
   46  H  4  S   -0.404800   0.001564  -0.024507  -0.176035   0.064629
   47  H  4  S   -0.413407   0.001057   0.046898   0.155029   0.029156
   48  H  4  X   -0.426760   0.003219  -0.482764   0.150255  -0.032026
   49  H  4  Y   -0.248947   0.127711   0.295405   0.370512  -0.025649
   50  H  4  Z    0.051084   0.721195  -0.050640  -0.064588   0.005174
   51  H  5  S    0.725244  -0.001752   0.273547  -0.019632   0.040877
   52  H  5  S    0.187008  -0.000556   0.029694   0.098890  -0.136310
   53  H  5  X    0.194864  -0.000500  -0.060238   0.159596   0.504909
   54  H  5  Y   -0.173835   0.082803   0.434615  -0.515489  -0.020873
   55  H  5  Z    0.026091   0.461203  -0.077238   0.090558   0.003910

                     41         42         43         44         45
                    2.2109     2.2692     2.3147     2.3329     2.4944
                     A          A          A          A          A   
    1  N  1  S    0.000129   0.019891   0.000236   0.017464  -0.016381
    2  N  1  S    0.000525  -0.622997  -0.001634  -0.121374  -0.414039
    3  N  1  S   -0.005447   0.893585  -0.025294  -1.278648   1.599446
    4  N  1  X    0.000191   0.133896   0.000539   0.113112  -0.606868
    5  N  1  Y   -0.004531  -0.150734   0.008848  -0.188096   0.020829
    6  N  1  Z   -0.023477   0.026202   0.071023   0.030918  -0.002538
    7  N  1  X    0.001708  -0.565113   0.007338   0.303809  -1.119110
    8  N  1  Y   -0.014359   0.337457   0.043735  -0.615637   0.339648
    9  N  1  Z   -0.068105  -0.056033   0.325357   0.099485  -0.057995
   10  N  1 XX   -0.000770   0.256503   0.004901   0.213761   0.017133
   11  N  1 YY    0.029962   0.248951   0.210429  -0.239156   0.384979
   12  N  1 ZZ   -0.029191  -0.505454  -0.215329   0.025395  -0.402111
   13  N  1 XY   -0.059338  -0.436655   0.048357  -0.066607  -0.102531
   14  N  1 XZ   -0.344831   0.075096   0.264302   0.005447   0.018456
   15  N  1 YZ    0.101452  -0.152366   0.691641   0.037703  -0.167423
   16  N  2  S   -0.000064   0.019018   0.000031   0.001141   0.026653
   17  N  2  S   -0.000064  -0.186420  -0.017082  -0.817983   0.042204
   18  N  2  S    0.004305  -0.302528   0.048501   2.372968  -1.570217
   19  N  2  X    0.000612  -0.324751   0.003853   0.138970  -0.128790
   20  N  2  Y   -0.004156   0.172843  -0.000102   0.113610   0.212606
   21  N  2  Z   -0.020969  -0.029294  -0.014585  -0.019882  -0.036545
   22  N  2  X    0.002661  -0.017398   0.003044   0.324122  -0.736876
   23  N  2  Y   -0.007174  -0.019993  -0.079404  -1.117983   0.551953
   24  N  2  Z   -0.033285   0.002277  -0.319701   0.202002  -0.092049
   25  N  2 XX   -0.000115  -0.134314   0.005817   0.266046  -0.058601
   26  N  2 YY    0.029985   0.120200   0.125633   0.416824  -0.141893
   27  N  2 ZZ   -0.029870   0.014114  -0.131450  -0.682870   0.200494
   28  N  2 XY   -0.005713  -0.596444  -0.032955   0.053171   0.492370
   29  N  2 XZ   -0.027690   0.103856  -0.226675  -0.007771  -0.082292
   30  N  2 YZ    0.097363  -0.018742   0.371136  -0.239125   0.065543
   31  O  3  S   -0.000063  -0.039696   0.000574   0.015517   0.014021
   32  O  3  S    0.000328   0.404962  -0.002769  -0.045105  -0.119174
   33  O  3  S    0.000280  -0.349569  -0.012510  -0.601620   0.120406
   34  O  3  X    0.000703   0.234888  -0.004381  -0.128369  -0.101693
   35  O  3  Y    0.008080   0.138294  -0.007806  -0.151300  -0.030635
   36  O  3  Z    0.045580  -0.024962  -0.020239   0.027279   0.005837
   37  O  3  X   -0.000749  -0.273705  -0.004565  -0.282155   0.149319
   38  O  3  Y   -0.013356  -0.144924   0.018639   0.064555  -0.060832
   39  O  3  Z   -0.078191   0.026550   0.096934  -0.012684   0.009334
   40  O  3 XX   -0.003276  -0.056662  -0.000847  -0.152277   0.260918
   41  O  3 YY    0.210465  -0.101804   0.069128   0.292063  -0.174600
   42  O  3 ZZ   -0.207188   0.158466  -0.068281  -0.139786  -0.086318
   43  O  3 XY   -0.073298  -0.129777   0.048172   0.300446  -0.082590
   44  O  3 XZ   -0.430466   0.024394   0.229649  -0.057801   0.011195
   45  O  3 YZ    0.665150   0.055649   0.201409  -0.096467   0.020272
   46  H  4  S    0.000420  -0.087683  -0.000455  -0.015341  -0.407814
   47  H  4  S    0.000175  -0.114144  -0.006501  -0.290876  -0.248787
   48  H  4  X    0.001935   0.031159  -0.004457  -0.166438  -0.495165
   49  H  4  Y    0.077099  -0.149301   0.030049  -0.412064  -0.407425
   50  H  4  Z    0.435291   0.027510   0.224778   0.067505   0.074878
   51  H  5  S    0.000443   0.014084   0.002787   0.149055   0.334972
   52  H  5  S   -0.000014   0.059301   0.001961   0.066633   0.355703
   53  H  5  X   -0.000372  -0.118429  -0.007804  -0.274808  -0.565014
   54  H  5  Y    0.061237  -0.002937  -0.108664   0.326381  -0.469179
   55  H  5  Z    0.344777  -0.002060  -0.654692  -0.042258   0.083436

                     46         47         48         49         50
                    2.5830     2.6941     2.7431     2.7818     2.9388
                     A          A          A          A          A   
    1  N  1  S    0.000131  -0.000132   0.012003   0.066328   0.042430
    2  N  1  S    0.002102  -0.000824  -0.062934  -0.149781   0.040310
    3  N  1  S   -0.009264   0.005430  -0.514195  -1.775624  -0.908684
    4  N  1  X    0.002628  -0.000928   0.151089   0.007097  -0.028688
    5  N  1  Y   -0.006567  -0.000611  -0.076636  -0.370271  -0.211386
    6  N  1  Z   -0.035198  -0.006886   0.013040   0.064392   0.036885
    7  N  1  X    0.006212  -0.003416   0.369661   0.303959   0.390979
    8  N  1  Y   -0.032381   0.012109   0.006643  -0.758228  -0.264675
    9  N  1  Z   -0.174149   0.062584  -0.001985   0.131595   0.045211
   10  N  1 XX    0.002599  -0.000906  -0.462515  -0.323985  -0.301044
   11  N  1 YY   -0.102296  -0.037524   0.400404  -0.154770  -0.048467
   12  N  1 ZZ    0.099697   0.038430   0.062111   0.478756   0.349510
   13  N  1 XY    0.129830  -0.067870   0.549333   0.469365   0.168498
   14  N  1 XZ    0.740534  -0.379918  -0.094876  -0.081130  -0.027648
   15  N  1 YZ   -0.322391  -0.123004  -0.071371   0.129774   0.082514
   16  N  2  S   -0.000212   0.000158  -0.050634  -0.069250   0.023955
   17  N  2  S    0.000176  -0.000430   0.041256   0.008353  -0.165074
   18  N  2  S    0.009343  -0.005557   1.092690   2.397834  -0.524108
   19  N  2  X    0.000940  -0.000599  -0.040070   0.049462   0.466939
   20  N  2  Y    0.004811  -0.009313  -0.267567  -0.363866   0.147448
   21  N  2  Z    0.036658  -0.059687   0.046766   0.063350  -0.027238
   22  N  2  X    0.004011  -0.002518   0.013211   0.295574   0.909023
   23  N  2  Y    0.023340  -0.053231  -0.622741  -0.752355   0.276666
   24  N  2  Z    0.153157  -0.314450   0.108627   0.130182  -0.051296
   25  N  2 XX    0.003774   0.001430  -0.277017   0.687891   0.009825
   26  N  2 YY   -0.114744   0.162944   0.595944  -0.140711  -0.109494
   27  N  2 ZZ    0.110970  -0.164374  -0.318927  -0.547181   0.099668
   28  N  2 XY    0.114362   0.085454  -0.072379  -0.417870  -0.764474
   29  N  2 XZ    0.676565   0.470148   0.011853   0.069071   0.133945
   30  N  2 YZ   -0.371481   0.521284  -0.189780  -0.082268   0.046321
   31  O  3  S   -0.000063   0.000022  -0.000915   0.005958  -0.020657
   32  O  3  S    0.000674  -0.000735   0.031727   0.481981  -0.836709
   33  O  3  S   -0.001130   0.001579  -0.359086  -1.348853   2.300449
   34  O  3  X    0.000427  -0.000247  -0.031854  -0.024473   0.095923
   35  O  3  Y    0.000888  -0.005359   0.008213  -0.023333   0.086552
   36  O  3  Z    0.004013  -0.030249  -0.001326   0.004106  -0.015428
   37  O  3  X   -0.000772   0.001760  -0.185976  -0.646396   1.151362
   38  O  3  Y    0.004617   0.058801  -0.231329  -0.243004   0.223144
   39  O  3  Z    0.026426   0.334555   0.041136   0.044730  -0.042040
   40  O  3 XX   -0.000601   0.003994  -0.366320  -0.027836   0.844060
   41  O  3 YY    0.121964   0.103202   0.421021  -0.437012  -0.115942
   42  O  3 ZZ   -0.121363  -0.107196  -0.054702   0.464848  -0.728118
   43  O  3 XY    0.017453   0.134239  -0.477348  -0.215575   0.122325
   44  O  3 XZ    0.093838   0.759304   0.084884   0.040089  -0.026094
   45  O  3 YZ    0.387874   0.328328  -0.098066   0.189148  -0.128424
   46  H  4  S    0.002314  -0.001522  -0.190265   0.171461  -0.316625
   47  H  4  S    0.001183  -0.000641  -0.091954  -0.087535   0.002380
   48  H  4  X    0.003019  -0.001620   0.151812  -0.348508   0.425594
   49  H  4  Y    0.039503  -0.044531  -0.382889   0.145728  -0.340409
   50  H  4  Z    0.213693  -0.246251   0.066936  -0.025301   0.058452
   51  H  5  S   -0.001889   0.000600  -0.086035   0.463836   0.189038
   52  H  5  S   -0.001720   0.000727  -0.048551   0.137586  -0.083421
   53  H  5  X    0.001802   0.000018   0.186726  -0.445016  -0.212792
   54  H  5  Y   -0.049242   0.044016  -0.381163  -0.169706  -0.135518
   55  H  5  Z   -0.293496   0.254232   0.066251   0.031175   0.023983

                     51         52
                    3.2029     3.5074
                     A          A   
    1  N  1  S    0.002596  -0.076215
    2  N  1  S   -0.129840  -0.021352
    3  N  1  S    0.160568   1.820841
    4  N  1  X    0.173575   0.502690
    5  N  1  Y   -0.042620   0.114622
    6  N  1  Z    0.007036  -0.020829
    7  N  1  X   -0.062518   0.100114
    8  N  1  Y    0.064071   0.234936
    9  N  1  Z   -0.010934  -0.040602
   10  N  1 XX   -0.246490   1.013284
   11  N  1 YY    0.321704  -0.399366
   12  N  1 ZZ   -0.075215  -0.613918
   13  N  1 XY    0.419330   0.846735
   14  N  1 XZ   -0.072905  -0.152581
   15  N  1 YZ   -0.083928  -0.047086
   16  N  2  S    0.025548  -0.004704
   17  N  2  S    0.050132   0.151134
   18  N  2  S   -0.906938  -0.764077
   19  N  2  X    0.324814   0.097059
   20  N  2  Y    0.030554   0.032510
   21  N  2  Z   -0.006320  -0.005985
   22  N  2  X    0.557480  -0.212332
   23  N  2  Y    0.168414   0.358364
   24  N  2  Z   -0.031023  -0.061992
   25  N  2 XX   -0.544002   0.297094
   26  N  2 YY    0.359263  -0.316525
   27  N  2 ZZ    0.184739   0.019431
   28  N  2 XY   -0.533150  -0.147801
   29  N  2 XZ    0.095534   0.024903
   30  N  2 YZ   -0.034635   0.070134
   31  O  3  S   -0.019970  -0.007789
   32  O  3  S    0.015555  -0.067151
   33  O  3  S    0.618790   0.368395
   34  O  3  X    0.153495   0.057404
   35  O  3  Y    0.081095  -0.002723
   36  O  3  Z   -0.014597   0.000322
   37  O  3  X    0.167548   0.204067
   38  O  3  Y    0.755029  -0.123179
   39  O  3  Z   -0.132925   0.020890
   40  O  3 XX    0.006443   0.240953
   41  O  3 YY   -0.001059  -0.200871
   42  O  3 ZZ   -0.005384  -0.040083
   43  O  3 XY    0.933290  -0.141788
   44  O  3 XZ   -0.163773   0.023835
   45  O  3 YZ   -0.003309   0.033947
   46  H  4  S    0.203586  -0.410544
   47  H  4  S    0.217799  -0.156505
   48  H  4  X   -0.602171  -0.352401
   49  H  4  Y    0.286429  -0.476232
   50  H  4  Z   -0.048518   0.085259
   51  H  5  S   -0.108128  -1.254446
   52  H  5  S   -0.074134  -0.200430
   53  H  5  X    0.232730   1.064898
   54  H  5  Y   -0.248122   0.355379
   55  H  5  Z    0.042958  -0.063519
 ...... END OF RHF CALCULATION ......
 STEP CPU TIME =     4.40 TOTAL CPU TIME =          4.6 (      0.1 MIN)
 TOTAL WALL CLOCK TIME=          4.7 SECONDS, CPU UTILIZATION IS    97.86%

     ---------------------------------------------------------------------
     PROPERTIES FOR THE PBE      DFT FUNCTIONAL (RHF  TYPE) DENSITY MATRIX
     ---------------------------------------------------------------------

          -----------------
          ENERGY COMPONENTS
          -----------------

         WAVEFUNCTION NORMALIZATION =       1.0000000000

                ONE ELECTRON ENERGY =    -397.3495159367
                TWO ELECTRON ENERGY =     138.7647811857
           NUCLEAR REPULSION ENERGY =      72.9988171079
                                      ------------------
                       TOTAL ENERGY =    -185.5859176431

 ELECTRON-ELECTRON POTENTIAL ENERGY =     138.7647811857
  NUCLEUS-ELECTRON POTENTIAL ENERGY =    -582.4356518836
   NUCLEUS-NUCLEUS POTENTIAL ENERGY =      72.9988171079
                                      ------------------
             TOTAL POTENTIAL ENERGY =    -370.6720535900
               TOTAL KINETIC ENERGY =     185.0861359469
                 VIRIAL RATIO (V/T) =       2.0027002654

          ---------------------------------------
          MULLIKEN AND LOWDIN POPULATION ANALYSES
          ---------------------------------------

     ATOMIC MULLIKEN POPULATION IN EACH MOLECULAR ORBITAL

                      1          2          3          4          5

                  2.000000   2.000000   2.000000   2.000000   2.000000

    1            -0.000033   0.001768   1.999012   0.279158   0.840864
    2             0.001763   1.997960   0.000919   0.822688   0.446809
    3             1.998065   0.000133   0.000034   0.860170   0.608932
    4             0.000203   0.000087   0.000238   0.033073   0.000133
    5             0.000002   0.000053  -0.000203   0.004911   0.103262

                      6          7          8          9         10

                  2.000000   2.000000   2.000000   2.000000   2.000000

    1             0.722615   0.581396   0.544315   0.482580   0.704566
    2             0.431262   0.484746   0.477273   0.951322   0.673881
    3             0.482750   0.429871   0.930157   0.561367   0.368266
    4             0.058787   0.278319   0.031085   0.003026   0.161405
    5             0.304586   0.225667   0.017170   0.001705   0.091881

                     11         12

                  2.000000   2.000000

    1             0.146956   0.905539
    2             0.569096   0.029890
    3             1.017725   1.058633
    4             0.202868   0.000004
    5             0.063355   0.005934

               ----- POPULATIONS IN EACH AO -----
                             MULLIKEN      LOWDIN
              1  N  1  S      1.99444     1.97100
              2  N  1  S      0.87422     0.54111
              3  N  1  S      0.70178     0.39287
              4  N  1  X      0.78034     0.70176
              5  N  1  Y      0.81585     0.76475
              6  N  1  Z      0.82684     0.78786
              7  N  1  X      0.22139     0.39100
              8  N  1  Y      0.41219     0.50742
              9  N  1  Z      0.54886     0.56533
             10  N  1 XX      0.00354     0.20876
             11  N  1 YY      0.00801     0.17648
             12  N  1 ZZ      0.01306     0.16231
             13  N  1 XY      0.00417     0.02726
             14  N  1 XZ      0.00403     0.00713
             15  N  1 YZ      0.00000     0.00520
             16  N  2  S      1.99488     1.97181
             17  N  2  S      0.92438     0.56174
             18  N  2  S      0.78207     0.42335
             19  N  2  X      0.72014     0.65706
             20  N  2  Y      0.94687     0.90524
             21  N  2  Z      0.61001     0.55301
             22  N  2  X      0.12216     0.28198
             23  N  2  Y      0.35081     0.48859
             24  N  2  Z      0.35443     0.40657
             25  N  2 XX      0.00826     0.20657
             26  N  2 YY      0.01642     0.18352
             27  N  2 ZZ      0.02954     0.17446
             28  N  2 XY      0.01797     0.05217
             29  N  2 XZ      0.00967     0.03601
             30  N  2 YZ      0.00000     0.01110
             31  O  3  S      1.99544     1.97163
             32  O  3  S      0.94363     0.68386
             33  O  3  S      0.94442     0.49273
             34  O  3  X      0.95113     0.90700
             35  O  3  Y      0.89752     0.84979
             36  O  3  Z      1.00166     0.96801
             37  O  3  X      0.46303     0.53957
             38  O  3  Y      0.48669     0.55178
             39  O  3  Z      0.60435     0.63163
             40  O  3 XX      0.00335     0.20092
             41  O  3 YY      0.00704     0.19724
             42  O  3 ZZ      0.01085     0.19470
             43  O  3 XY      0.00578     0.01711
             44  O  3 XZ      0.00120     0.00768
             45  O  3 YZ      0.00000     0.00209
             46  H  4  S      0.56499     0.45811
             47  H  4  S      0.16345     0.26866
             48  H  4  X      0.02384     0.07297
             49  H  4  Y      0.01359     0.02091
             50  H  4  Z      0.00335     0.00569
             51  H  5  S      0.71777     0.57999
             52  H  5  S      0.06730     0.18148
             53  H  5  X      0.01909     0.03579
             54  H  5  Y      0.00655     0.01684
             55  H  5  Z      0.00761     0.02035

          ----- MULLIKEN ATOMIC OVERLAP POPULATIONS -----
          (OFF-DIAGONAL ELEMENTS NEED TO BE MULTIPLIED BY 2)

             1           2           3           4           5

    1    6.6790997
    2    0.3320129   6.3882920
    3   -0.2626302   0.2558976   8.1455155
    4    0.1436903  -0.0696638   0.1657689   0.5276975
    5    0.3165646  -0.0189302   0.0115514   0.0017350   0.5074025

          TOTAL MULLIKEN AND LOWDIN ATOMIC POPULATIONS
       ATOM         MULL.POP.    CHARGE          LOW.POP.     CHARGE
    1 N             7.208737   -0.208737         7.210244   -0.210244
    2 N             6.887609    0.112391         6.913207    0.086793
    3 O             8.316103   -0.316103         8.215752   -0.215752
    4 H             0.769228    0.230772         0.826338    0.173662
    5 H             0.818323    0.181677         0.834458    0.165542

          MULLIKEN SPHERICAL HARMONIC POPULATIONS
       ATOM           S       P       D      F      G      H      I    TOTAL
    1 N             3.57    3.61    0.03   0.00   0.00   0.00   0.00    7.21
    2 N             3.70    3.10    0.08   0.00   0.00   0.00   0.00    6.89
    3 O             3.88    4.40    0.03   0.00   0.00   0.00   0.00    8.32
    4 H             0.73    0.04    0.00   0.00   0.00   0.00   0.00    0.77
    5 H             0.79    0.03    0.00   0.00   0.00   0.00   0.00    0.82

          -------------------------------
          BOND ORDER AND VALENCE ANALYSIS     BOND ORDER THRESHOLD=0.050
          -------------------------------

                   BOND                       BOND                       BOND
  ATOM PAIR DIST  ORDER      ATOM PAIR DIST  ORDER      ATOM PAIR DIST  ORDER
    1   2  1.281  1.531        1   3  2.021  0.216        1   4  1.356  0.445
    1   5  1.033  0.901        2   3  1.294  1.323        2   4  1.686  0.065
    3   4  1.335  0.501        3   5  2.992  0.052

                       TOTAL       BONDED        FREE
      ATOM            VALENCE     VALENCE     VALENCE
    1 N                 3.093       3.093       0.000
    2 N                 2.933       2.933       0.000
    3 O                 2.091       2.091      -0.000
[...]
          PARABOLIC FIT TO 2 ENERGIES AND 1 GRADIENT REJECTED DUE TO LARGE XMIN.
          XMIN,EMIN=    0.120222  -185.621360329  C0,C1,C2= -185.6121881446   -0.1525879669    0.6346112761
          EXPLICIT LINEAR SEARCH WILL BE PERFORMED



          POINT  3 ON LINEAR SEARCH...STEP=  0.05000 BOHR

          ATOM                X              Y              Z
          -------------------------------------------------------

          N                1.839781      -0.396797       0.129397
          N                0.043856       1.112836      -0.129053
          O               -2.146870      -0.196002       0.106027
          H               -1.581578      -1.930152       0.407459
          H                3.353336       0.574683      -0.044708
 ...... END OF ONE-ELECTRON INTEGRALS ......
 STEP CPU TIME =     0.00 TOTAL CPU TIME =        151.4 (      2.5 MIN)
 TOTAL WALL CLOCK TIME=        153.3 SECONDS, CPU UTILIZATION IS    98.80%
 TOTAL NUMBER OF NONZERO TWO-ELECTRON INTEGRALS =             1131580
         76 INTEGRAL RECORDS WERE STORED ON DISK FILE  8.
  ...... END OF TWO-ELECTRON INTEGRALS .....
 STEP CPU TIME =     0.10 TOTAL CPU TIME =        151.6 (      2.5 MIN)
 TOTAL WALL CLOCK TIME=        153.4 SECONDS, CPU UTILIZATION IS    98.80%

          --------------------------
               R-PBE SCF CALCULATION
          --------------------------
         DENSITY MATRIX CONVERGENCE THRESHOLD=  1.00E-05
     COARSE -> FINE DFT GRID SWITCH THRESHOLD=  3.00E-04 (SWITCH IN $DFT)
                   HF -> DFT SWITCH THRESHOLD=  5.00E-03 (SWOFF IN $DFT)

 DFT CODE IS SWITCHING FROM THE FINE GRID NRAD= 96,  NLEB=  302
                      TO THE COARSE GRID NRAD0= 24, NLEB0=  110

 ITER EX DEM     TOTAL ENERGY        E CHANGE  DENSITY CHANGE    DIIS ERROR
          * * *   INITIATING DIIS PROCEDURE   * * *
   1  0  0     -185.6191143380  -185.6191143380   0.010639111   0.004637329
   2  1  0     -185.6191730862    -0.0000587482   0.009586608   0.002956537
   3  2  0     -185.6191101708     0.0000629154   0.006009653   0.005766037
   4  3  0     -185.6192100631    -0.0000998923   0.000685237   0.000557852
   5  4  0     -185.6192114109    -0.0000013478   0.000176799   0.000210536
 DFT CODE IS SWITCHING BACK TO THE FINE GRID
          * * *   INITIATING DIIS PROCEDURE   * * *
   6  5  0     -185.6182739551     0.0009374559   0.001364460   0.001279033
   7  6  0     -185.6182770747    -0.0000031196   0.001501914   0.000701023
   8  7  0     -185.6182762219     0.0000008528   0.001263771   0.001099529
   9  8  0     -185.6182801503    -0.0000039284   0.000423799   0.000351999
  10  9  0     -185.6182805008    -0.0000003506   0.000192676   0.000183541
  11 10  0     -185.6182805814    -0.0000000805   0.000027525   0.000020020
  12 11  0     -185.6182805837    -0.0000000023   0.000001315   0.000001310
  13 12  0     -185.6182805837    -0.0000000000   0.000000201   0.000000175

          -----------------
          DENSITY CONVERGED
          -----------------
     TIME TO FORM FOCK OPERATORS=       3.8 SECONDS (       0.3 SEC/ITER)
     TIME TO SOLVE SCF EQUATIONS=       0.0 SECONDS (       0.0 SEC/ITER)

 FINAL R-PBE ENERGY IS     -185.6182805837 AFTER  13 ITERATIONS
 DFT EXCHANGE + CORRELATION ENERGY =       -22.8794170860
 TOTAL ELECTRON NUMBER             =        24.0000072797
 ...... END OF RHF CALCULATION ......
 STEP CPU TIME =     3.83 TOTAL CPU TIME =        155.4 (      2.6 MIN)
 TOTAL WALL CLOCK TIME=        157.3 SECONDS, CPU UTILIZATION IS    98.79%



          POINT  4 ON LINEAR SEARCH...STEP=  0.10000 BOHR

          ATOM                X              Y              Z
          -------------------------------------------------------

          N                1.825703      -0.407560       0.131315
          N                0.039573       1.119288      -0.130166
          O               -2.140019      -0.195143       0.105855
          H               -1.578066      -1.940335       0.409236
          H                3.390970       0.597512      -0.048800
 ...... END OF ONE-ELECTRON INTEGRALS ......
 STEP CPU TIME =     0.00 TOTAL CPU TIME =        155.4 (      2.6 MIN)
 TOTAL WALL CLOCK TIME=        157.3 SECONDS, CPU UTILIZATION IS    98.79%
 TOTAL NUMBER OF NONZERO TWO-ELECTRON INTEGRALS =             1131064
         76 INTEGRAL RECORDS WERE STORED ON DISK FILE  8.
  ...... END OF TWO-ELECTRON INTEGRALS .....
 STEP CPU TIME =     0.10 TOTAL CPU TIME =        155.5 (      2.6 MIN)
 TOTAL WALL CLOCK TIME=        157.4 SECONDS, CPU UTILIZATION IS    98.79%

          --------------------------
               R-PBE SCF CALCULATION
          --------------------------
         DENSITY MATRIX CONVERGENCE THRESHOLD=  1.00E-05
     COARSE -> FINE DFT GRID SWITCH THRESHOLD=  3.00E-04 (SWITCH IN $DFT)
                   HF -> DFT SWITCH THRESHOLD=  5.00E-03 (SWOFF IN $DFT)

 DFT CODE IS SWITCHING FROM THE FINE GRID NRAD= 96,  NLEB=  302
                      TO THE COARSE GRID NRAD0= 24, NLEB0=  110

 ITER EX DEM     TOTAL ENERGY        E CHANGE  DENSITY CHANGE    DIIS ERROR
          * * *   INITIATING DIIS PROCEDURE   * * *
   1  0  0     -185.6222513427  -185.6222513427   0.021341263   0.008352062
   2  1  0     -185.6224717559    -0.0002204132   0.017805654   0.005291154
   3  2  0     -185.6222473291     0.0002244269   0.011350749   0.010495728
   4  3  0     -185.6225934807    -0.0003461516   0.001576768   0.001139324
   5  4  0     -185.6225980349    -0.0000045542   0.000453585   0.000571082
   6  5  0     -185.6225987496    -0.0000007148   0.000138512   0.000167003
 DFT CODE IS SWITCHING BACK TO THE FINE GRID
          * * *   INITIATING DIIS PROCEDURE   * * *
   7  6  0     -185.6216626239     0.0009361257   0.001211549   0.001234359
   8  7  0     -185.6216669041    -0.0000042802   0.001200764   0.000536763
   9  8  0     -185.6216650649     0.0000018392   0.001122298   0.001047202
  10  9  0     -185.6216684409    -0.0000033761   0.000362390   0.000316344
  11 10  0     -185.6216687026    -0.0000002617   0.000159495   0.000163485
  12 11  0     -185.6216687613    -0.0000000587   0.000026724   0.000017021
  13 12  0     -185.6216687636    -0.0000000023   0.000001284   0.000001457
  14 13  0     -185.6216687636    -0.0000000000   0.000000199   0.000000167

          -----------------
          DENSITY CONVERGED
          -----------------
     TIME TO FORM FOCK OPERATORS=       3.7 SECONDS (       0.3 SEC/ITER)
     TIME TO SOLVE SCF EQUATIONS=       0.0 SECONDS (       0.0 SEC/ITER)

 FINAL R-PBE ENERGY IS     -185.6216687636 AFTER  14 ITERATIONS
 DFT EXCHANGE + CORRELATION ENERGY =       -22.8644323741
 TOTAL ELECTRON NUMBER             =        24.0000067257
 ...... END OF RHF CALCULATION ......
 STEP CPU TIME =     3.80 TOTAL CPU TIME =        159.3 (      2.7 MIN)
 TOTAL WALL CLOCK TIME=        161.2 SECONDS, CPU UTILIZATION IS    98.79%



          POINT  5 ON LINEAR SEARCH...STEP=  0.20000 BOHR

          ATOM                X              Y              Z
          -------------------------------------------------------

          N                1.797548      -0.429085       0.135152
          N                0.031008       1.132192      -0.132393
          O               -2.126317      -0.193425       0.105511
          H               -1.571041      -1.960702       0.412790
          H                3.466237       0.643170      -0.056983
 ...... END OF ONE-ELECTRON INTEGRALS ......
 STEP CPU TIME =     0.00 TOTAL CPU TIME =        159.3 (      2.7 MIN)
 TOTAL WALL CLOCK TIME=        161.2 SECONDS, CPU UTILIZATION IS    98.78%
 TOTAL NUMBER OF NONZERO TWO-ELECTRON INTEGRALS =             1129727
         76 INTEGRAL RECORDS WERE STORED ON DISK FILE  8.
  ...... END OF TWO-ELECTRON INTEGRALS .....
 STEP CPU TIME =     0.09 TOTAL CPU TIME =        159.4 (      2.7 MIN)
 TOTAL WALL CLOCK TIME=        161.3 SECONDS, CPU UTILIZATION IS    98.79%

          --------------------------
               R-PBE SCF CALCULATION
          --------------------------
         DENSITY MATRIX CONVERGENCE THRESHOLD=  1.00E-05
     COARSE -> FINE DFT GRID SWITCH THRESHOLD=  3.00E-04 (SWITCH IN $DFT)
                   HF -> DFT SWITCH THRESHOLD=  5.00E-03 (SWOFF IN $DFT)

 DFT CODE IS SWITCHING FROM THE FINE GRID NRAD= 96,  NLEB=  302
                      TO THE COARSE GRID NRAD0= 24, NLEB0=  110

 ITER EX DEM     TOTAL ENERGY        E CHANGE  DENSITY CHANGE    DIIS ERROR
          * * *   INITIATING DIIS PROCEDURE   * * *
   1  0  0     -185.6221697157  -185.6221697157   0.041786781   0.016625635
   2  1  0     -185.6230248839    -0.0008551682   0.032875441   0.009307364
   3  2  0     -185.6221951490     0.0008297349   0.021715503   0.019378139
   4  3  0     -185.6234037807    -0.0012086317   0.003315815   0.002537083
   5  4  0     -185.6234235077    -0.0000197271   0.000877020   0.001109700
   6  5  0     -185.6234265044    -0.0000029967   0.000228325   0.000271864
 DFT CODE IS SWITCHING BACK TO THE FINE GRID
          * * *   INITIATING DIIS PROCEDURE   * * *
   7  6  0     -185.6221686506     0.0012578539   0.001043879   0.001199388
   8  7  0     -185.6221727623    -0.0000041117   0.001259419   0.000479833
   9  8  0     -185.6221706185     0.0000021438   0.001097083   0.001071739
  10  9  0     -185.6221739920    -0.0000033735   0.000351978   0.000284716
  11 10  0     -185.6221742213    -0.0000002293   0.000131854   0.000137566
  12 11  0     -185.6221742633    -0.0000000420   0.000017534   0.000015717
  13 12  0     -185.6221742649    -0.0000000017   0.000001104   0.000001405
  14 13  0     -185.6221742649    -0.0000000000   0.000000160   0.000000214

          -----------------
          DENSITY CONVERGED
          -----------------
     TIME TO FORM FOCK OPERATORS=       3.7 SECONDS (       0.3 SEC/ITER)
     TIME TO SOLVE SCF EQUATIONS=       0.0 SECONDS (       0.0 SEC/ITER)

 FINAL R-PBE ENERGY IS     -185.6221742649 AFTER  14 ITERATIONS
 DFT EXCHANGE + CORRELATION ENERGY =       -22.8366644719
 TOTAL ELECTRON NUMBER             =        24.0000051216
 ...... END OF RHF CALCULATION ......
 STEP CPU TIME =     3.76 TOTAL CPU TIME =        163.1 (      2.7 MIN)
 TOTAL WALL CLOCK TIME=        165.2 SECONDS, CPU UTILIZATION IS    98.78%



          POINT  6 ON LINEAR SEARCH...STEP=  0.40000 BOHR

          ATOM                X              Y              Z
          -------------------------------------------------------

          N                1.741236      -0.472136       0.142824
          N                0.013878       1.158000      -0.136846
          O               -2.098914      -0.189988       0.104823
          H               -1.556993      -2.001434       0.419898
          H                3.616772       0.734485      -0.073350
 ...... END OF ONE-ELECTRON INTEGRALS ......
 STEP CPU TIME =     0.00 TOTAL CPU TIME =        163.1 (      2.7 MIN)
 TOTAL WALL CLOCK TIME=        165.2 SECONDS, CPU UTILIZATION IS    98.77%
 TOTAL NUMBER OF NONZERO TWO-ELECTRON INTEGRALS =             1124916
         75 INTEGRAL RECORDS WERE STORED ON DISK FILE  8.
  ...... END OF TWO-ELECTRON INTEGRALS .....
 STEP CPU TIME =     0.09 TOTAL CPU TIME =        163.2 (      2.7 MIN)
 TOTAL WALL CLOCK TIME=        165.2 SECONDS, CPU UTILIZATION IS    98.77%

          --------------------------
               R-PBE SCF CALCULATION
          --------------------------
         DENSITY MATRIX CONVERGENCE THRESHOLD=  1.00E-05
     COARSE -> FINE DFT GRID SWITCH THRESHOLD=  3.00E-04 (SWITCH IN $DFT)
                   HF -> DFT SWITCH THRESHOLD=  5.00E-03 (SWOFF IN $DFT)

 DFT CODE IS SWITCHING FROM THE FINE GRID NRAD= 96,  NLEB=  302
                      TO THE COARSE GRID NRAD0= 24, NLEB0=  110

 ITER EX DEM     TOTAL ENERGY        E CHANGE  DENSITY CHANGE    DIIS ERROR
          * * *   INITIATING DIIS PROCEDURE   * * *
   1  0  0     -185.6033602515  -185.6033602515   0.075317834   0.033719286
   2  1  0     -185.6065805613    -0.0032203097   0.059541694   0.016482896
   3  2  0     -185.6036213321     0.0029592292   0.041812941   0.034436261
   4  3  0     -185.6076841782    -0.0040628461   0.007024781   0.006105764
   5  4  0     -185.6078048670    -0.0001206887   0.001597380   0.001785655
   6  5  0     -185.6078123091    -0.0000074421   0.000412231   0.000518113
   7  6  0     -185.6078138685    -0.0000015594   0.000067992   0.000066080
 DFT CODE IS SWITCHING BACK TO THE FINE GRID
          * * *   INITIATING DIIS PROCEDURE   * * *
   8  7  0     -185.6070315652     0.0007823033   0.000891677   0.001114877
   9  8  0     -185.6070360209    -0.0000044558   0.000943699   0.000480491
  10  9  0     -185.6070345674     0.0000014535   0.000938850   0.000843738
  11 10  0     -185.6070369627    -0.0000023952   0.000335931   0.000308564
  12 11  0     -185.6070372081    -0.0000002455   0.000125455   0.000123884
  13 12  0     -185.6070372432    -0.0000000351   0.000023409   0.000021509
  14 13  0     -185.6070372459    -0.0000000027   0.000002256   0.000001744
  15 14  0     -185.6070372459    -0.0000000000   0.000000597   0.000000535

          -----------------
          DENSITY CONVERGED
          -----------------
     TIME TO FORM FOCK OPERATORS=       3.8 SECONDS (       0.3 SEC/ITER)
     TIME TO SOLVE SCF EQUATIONS=       0.0 SECONDS (       0.0 SEC/ITER)

 FINAL R-PBE ENERGY IS     -185.6070372459 AFTER  15 ITERATIONS
 DFT EXCHANGE + CORRELATION ENERGY =       -22.7884708574
 TOTAL ELECTRON NUMBER             =        24.0000046150
 ...... END OF RHF CALCULATION ......
 STEP CPU TIME =     3.81 TOTAL CPU TIME =        167.0 (      2.8 MIN)
 TOTAL WALL CLOCK TIME=        169.1 SECONDS, CPU UTILIZATION IS    98.76%

 THE PARABOLIC FIT IS -
 -185.615780588 +   -0.085795121 * STEP +   0.269133693 * STEP**2 = E(STEP)
 THE MINIMUM OF THE FIT IS AT STEP=    0.159391
 WITH A PREDICTED ENERGY OF     -185.6226180850
 STABILIZED POINT QC' ON THE IRC HAS BEEN FOUND
 THE DISTANCE FROM QB TO QC (OR QC') IS   0.11893 SQRT(AMU)-BOHR)
  TOTAL PATH DISTANCE TO QC (OR QC') IS   1.87735 SQRT(AMU)-BOHR)
 ......NEXT POINT ON IRC FOUND......RENAMING QC(QC')-->QB-->QA.

 THE NUCLEAR REPULSION AT THE IRC POINT IS       72.2282545866

 * * * IRC RESTART INFORMATION * * *
 COORDINATES FOR $DATA AND ENTIRE $IRC GROUP FOLLOW

 COORDINATES OF SYMMETRY UNIQUE ATOMS (ANGS)
   ATOM   CHARGE       X              Y              Z
 ------------------------------------------------------------
 N           7.0   0.9572717027  -0.2224364585   0.0706947391
 N           7.0   0.0182493324   0.5963573781  -0.0695807811
 O           8.0  -1.1281431061  -0.1027251601   0.0559078310
 H           1.0  -0.8328687925  -1.0331820776   0.2176755537
 H           1.0   1.8180795514   0.3305393381  -0.0283956635
 $IRC   PACE=LINEAR     STRIDE= 0.30000   NPOINT=??
        STOTAL=  1.877347   NEXTPT=   9
        NPRT= 0   NPUN= 0   SADDLE=.FALSE.
        STABLZ=.T.   DELTA= 0.02500   ELBOW= 175.000
 $END   
1         POINT   9 ON THE REACTION PATH
          ******************************
          AT PATH DISTANCE STOTAL=   1.87735

          THE COORDINATES OF POINT QB ARE
 COORDINATES OF ALL ATOMS ARE (ANGS)
   ATOM   CHARGE       X              Y              Z
 ------------------------------------------------------------
 N           7.0   0.9572717027  -0.2224364585   0.0706947391
 N           7.0   0.0182493324   0.5963573781  -0.0695807811
 O           8.0  -1.1281431061  -0.1027251601   0.0559078310
 H           1.0  -0.8328687925  -1.0331820776   0.2176755537
 H           1.0   1.8180795514   0.3305393381  -0.0283956635

          INTERNUCLEAR DISTANCES (ANGS.)
          ------------------------------

                1 N          2 N          3 O          4 H          5 H     

   1 N       0.0000000    1.2537398 *  2.0889003 *  1.9706635 *  1.0279063 *
   2 N       1.2537398 *  0.0000000    1.3485842 *  1.8607303 *  1.8198198 *
   3 O       2.0889003 *  1.3485842 *  0.0000000    0.9894977 *  2.9791027 *
   4 H       1.9706635 *  1.8607303 *  0.9894977 *  0.0000000    2.9912897 *
   5 H       1.0279063 *  1.8198198 *  2.9791027 *  2.9912897 *  0.0000000  

  * ... LESS THAN  3.000

 ...... END OF ONE-ELECTRON INTEGRALS ......
 STEP CPU TIME =     0.00 TOTAL CPU TIME =        167.0 (      2.8 MIN)
 TOTAL WALL CLOCK TIME=        169.1 SECONDS, CPU UTILIZATION IS    98.76%
 TOTAL NUMBER OF NONZERO TWO-ELECTRON INTEGRALS =             1130320
         76 INTEGRAL RECORDS WERE STORED ON DISK FILE  8.
  ...... END OF TWO-ELECTRON INTEGRALS .....
 STEP CPU TIME =     0.08 TOTAL CPU TIME =        167.1 (      2.8 MIN)
 TOTAL WALL CLOCK TIME=        169.2 SECONDS, CPU UTILIZATION IS    98.75%

          --------------------------
               R-PBE SCF CALCULATION
          --------------------------
         DENSITY MATRIX CONVERGENCE THRESHOLD=  1.00E-05
     COARSE -> FINE DFT GRID SWITCH THRESHOLD=  3.00E-04 (SWITCH IN $DFT)
                   HF -> DFT SWITCH THRESHOLD=  5.00E-03 (SWOFF IN $DFT)

 DFT CODE IS SWITCHING FROM THE FINE GRID NRAD= 96,  NLEB=  302
                      TO THE COARSE GRID NRAD0= 24, NLEB0=  110

 ITER EX DEM     TOTAL ENERGY        E CHANGE  DENSITY CHANGE    DIIS ERROR
          * * *   INITIATING DIIS PROCEDURE   * * *
   1  0  0     -185.6174277590  -185.6174277590   0.095532940   0.028408307
   2  1  0     -185.6216840258    -0.0042562668   0.073016900   0.023030801
   3  2  0     -185.6181218343     0.0035621915   0.047243113   0.040974220
   4  3  0     -185.6237933228    -0.0056714885   0.008608345   0.006874155
   5  4  0     -185.6239277131    -0.0001343903   0.002195096   0.002794088
   6  5  0     -185.6239474777    -0.0000197646   0.000551260   0.000677756
   7  6  0     -185.6239501337    -0.0000026560   0.000078089   0.000070153
 DFT CODE IS SWITCHING BACK TO THE FINE GRID
          * * *   INITIATING DIIS PROCEDURE   * * *
   8  7  0     -185.6228327812     0.0011173525   0.001125458   0.001215859
   9  8  0     -185.6228367617    -0.0000039804   0.001263972   0.000529883
  10  9  0     -185.6228348509     0.0000019108   0.001125494   0.001066295
  11 10  0     -185.6228382679    -0.0000034170   0.000366675   0.000308169
  12 11  0     -185.6228385292    -0.0000002614   0.000148301   0.000151270
  13 12  0     -185.6228385804    -0.0000000512   0.000021557   0.000015394
  14 13  0     -185.6228385823    -0.0000000019   0.000001149   0.000001430
  15 14  0     -185.6228385824    -0.0000000000   0.000000169   0.000000200

          -----------------
          DENSITY CONVERGED
          -----------------
     TIME TO FORM FOCK OPERATORS=       3.8 SECONDS (       0.3 SEC/ITER)
     TIME TO SOLVE SCF EQUATIONS=       0.0 SECONDS (       0.0 SEC/ITER)

 FINAL R-PBE ENERGY IS     -185.6228385824 AFTER  15 ITERATIONS
 DFT EXCHANGE + CORRELATION ENERGY =       -22.8476069355
 TOTAL ELECTRON NUMBER             =        24.0000057838
 ...... END OF RHF CALCULATION ......
 STEP CPU TIME =     3.86 TOTAL CPU TIME =        171.0 (      2.8 MIN)
 TOTAL WALL CLOCK TIME=        173.1 SECONDS, CPU UTILIZATION IS    98.75%
 CURRENT ENERGY=     -185.6228385824, IS HIGHER THAN THE
    LAST ENERGY=     -185.6231201159
 YOU ARE NO LONGER ON A STEEPEST DESCENT PATH!
 THIS IRC SHOULD BE RUN WITH SMALLER STEPS AND/OR A BETTER INTEGRATION METHOD.
 EXECUTION OF GAMESS TERMINATED -ABNORMALLY- AT Fri Oct 11 10:49:03 2019
                991402  WORDS OF DYNAMIC MEMORY USED
 STEP CPU TIME =     0.00 TOTAL CPU TIME =        171.0 (      2.8 MIN)
 TOTAL WALL CLOCK TIME=        173.2 SECONDS, CPU UTILIZATION IS    98.74%
 ddikick.x: application process 0 quit unexpectedly.
 ddikick.x: Sending kill signal to DDI processes.
 ddikick.x: Execution terminated due to error(s).
----- accounting info -----
Files used on the master node d12chas534.crc.nd.edu were:
-rw-r--r-- 1 wschnei1 campus 141402 Oct 11 10:49 /scratch365/wschnei1/ircr.F07
Fri Oct 11 10:49:05 EDT 2019
0.433u 0.389s 2:55.96 0.4%	0+0k 0+320io 0pf+0w
