----- GAMESS execution script 'rungms' -----
This job is running on host d12chas540.crc.nd.edu
under operating system Linux at Mon Oct 7 08:08:47 EDT 2019
SGE has assigned the following compute nodes to this run:
Available scratch disk space (Kbyte units) at beginning of the job is
Filesystem      1K-blocks     Used  Available Use% Mounted on
/dev/sda2      1949705068 65803232 1883901836   4% /
GAMESS temporary binary files will be written to /tmp/474277.1.debug
GAMESS supplementary output files will be written to /afs/crc.nd.edu/user/w/wschnei1/scr
Copying input file ts-guess1-vib.inp to your run's scratch directory...
reading your own /afs/crc.nd.edu/user/w/wschnei1/.gmsrc

 Distributed Data Interface kickoff program.
 Initiating 1 compute processes on 1 nodes to run the following command:
 /afs/crc.nd.edu/x86_64_linux/g/gamess/nov-2017/gamess/gamess.00.x ts-guess1-vib 

          ******************************************************
          *         GAMESS VERSION = 11 NOV 2017 (R3)         *
          *             FROM IOWA STATE UNIVERSITY             *
          * M.W.SCHMIDT, K.K.BALDRIDGE, J.A.BOATZ, S.T.ELBERT, *
          *   M.S.GORDON, J.H.JENSEN, S.KOSEKI, N.MATSUNAGA,   *
          *          K.A.NGUYEN, S.J.SU, T.L.WINDUS,           *
          *       TOGETHER WITH M.DUPUIS, J.A.MONTGOMERY       *
          *         J.COMPUT.CHEM.  14, 1347-1363(1993)        *
          **************** 64 BIT INTEL VERSION ****************

  SINCE 1993, STUDENTS AND POSTDOCS WORKING AT IOWA STATE UNIVERSITY
  AND ALSO IN THEIR VARIOUS JOBS AFTER LEAVING ISU HAVE MADE IMPORTANT
  CONTRIBUTIONS TO THE CODE:
     IVANA ADAMOVIC, CHRISTINE AIKENS, YURI ALEXEEV, POOJA ARORA,
     ANDREY ASADCHEV, ROB BELL, PRADIPTA BANDYOPADHYAY, JONATHAN BENTZ,
     BRETT BODE, KURT BRORSEN, CALEB CARLIN, GALINA CHABAN, WEI CHEN,
     CHEOL HO CHOI, PAUL DAY, ALBERT DEFUSCO, NUWAN DESILVA, TIM DUDLEY,
     DMITRI FEDOROV, ALEX FINDLATER, GRAHAM FLETCHER, MARK FREITAG,
     KURT GLAESEMANN, ANASTASIA GUININA,
     DAN KEMP, GRANT MERRILL, NORIYUKI MINEZAWA, JONATHAN MULLIN,
     TAKESHI NAGATA, SEAN NEDD, HEATHER NETZLOFF, BOSILJKA NJEGIC, RYAN OLSON,
     MIKE PAK, BUU PHAM,
     SPENCER PRUITT, LUKE ROSKOP, JIM SHOEMAKER, LYUDMILA SLIPCHENKO,
     TONY SMITH, SAROM SOK LEANG, JIE SONG, TETSUYA TAKETSUGU, SIMON WEBB,
     PENG XU, SOOHAENG YOO, FEDERICO ZAHARIEV

  ADDITIONAL CODE HAS BEEN PROVIDED BY COLLABORATORS IN OTHER GROUPS:
     IOWA STATE UNIVERSITY:
          JOE IVANIC, AARON WEST, LAIMUTIS BYTAUTAS, KLAUS RUEDENBERG
     UNIVERSITY OF TOKYO: KIMIHIKO HIRAO, TAKAHITO NAKAJIMA,
          TAKAO TSUNEDA, MUNEAKI KAMIYA, SUSUMU YANAGISAWA,
          KIYOSHI YAGI, MAHITO CHIBA, SEIKEN TOKURA, NAOAKI KAWAKAMI
     UNIVERSITY OF AARHUS: FRANK JENSEN
     UNIVERSITY OF IOWA: VISVALDAS KAIRYS, HUI LI
     NATIONAL INST. OF STANDARDS AND TECHNOLOGY: WALT STEVENS, DAVID GARMER
     UNIVERSITY OF PISA: BENEDETTA MENNUCCI, JACOPO TOMASI
     UNIVERSITY OF MEMPHIS: HENRY KURTZ, PRAKASHAN KORAMBATH
     UNIVERSITY OF ALBERTA: TOBY ZENG, MARIUSZ KLOBUKOWSKI
     UNIVERSITY OF NEW ENGLAND: MARK SPACKMAN
     MIE UNIVERSITY: HIROAKI UMEDA
     NAT. INST. OF ADVANCED INDUSTRIAL SCIENCE AND TECHNOLOGY: KAZUO KITAURA
     MICHIGAN STATE UNIVERSITY:
          KAROL KOWALSKI, MARTA WLOCH, JEFFREY GOUR, JESSE LUTZ,
          WEI LI, PIOTR PIECUCH
     UNIVERSITY OF SILESIA: MONIKA MUSIAL, STANISLAW KUCHARSKI
     FACULTES UNIVERSITAIRES NOTRE-DAME DE LA PAIX:
          OLIVIER QUINET, BENOIT CHAMPAGNE
     UNIVERSITY OF CALIFORNIA - SANTA BARBARA: BERNARD KIRTMAN
     INSTITUTE FOR MOLECULAR SCIENCE:
          KAZUYA ISHIMURA, MICHIO KATOUDA, AND SHIGERU NAGASE
     UNIVERSITY OF NOTRE DAME: ANNA POMOGAEVA, DAN CHIPMAN
     KYUSHU UNIVERSITY:
          HARUYUKI NAKANO,
          FENG LONG GU, JACEK KORCHOWIEC, MARCIN MAKOWSKI, AND YURIKO AOKI,
          HIROTOSHI MORI AND EISAKU MIYOSHI
     PENNSYLVANIA STATE UNIVERSITY:
          TZVETELIN IORDANOV, CHET SWALINA, JONATHAN SKONE,
          SHARON HAMMES-SCHIFFER
     WASEDA UNIVERSITY:
          MASATO KOBAYASHI, TOMOKO AKAMA, TSUGUKI TOUMA,
          TAKESHI YOSHIKAWA, YASUHIRO IKABATA, JUNJI SEINO,
          YUYA NAKAJIMA, HIROMI NAKAI
     NANJING UNIVERSITY: SHUHUA LI
     UNIVERSITY OF NEBRASKA:
          PEIFENG SU, DEJUN SI, NANDUN THELLAMUREGE, YALI WANG, HUI LI
     UNIVERSITY OF ZURICH: ROBERTO PEVERATI, KIM BALDRIDGE
     N. COPERNICUS UNIVERSITY AND JACKSON STATE UNIVERSITY:
          MARIA BARYSZ
     UNIVERSITY OF COPENHAGEN: Jimmy Kromann, CASPER STEINMANN
     TOKYO INSTITUTE OF TECHNOLOGY: HIROYA NAKATA
     NAGOYA UNIVERSITY: YOSHIO NISHIMOTO, STEPHAN IRLE
     MOSCOW STATE UNIVERSITY: VLADIMIR MIRONOV

 EXECUTION OF GAMESS BEGUN Mon Oct  7 08:08:47 2019

            ECHO OF THE FIRST FEW INPUT CARDS -
 INPUT CARD> $CONTRL SCFTYP=RHF RUNTYP=HESSIAN COORD=CART ISPHER=1 $END                     
 INPUT CARD> $BASIS GBASIS=PCseg-1 $END                                                     
 INPUT CARD> $DATA                                                                          
 INPUT CARD>H2ON2                                                                           
 INPUT CARD>C1 1                                                                            
 INPUT CARD>N 7 0.00000000 0.00000000 0.00000000                                            
 INPUT CARD>N 7 0.77327766 1.08425790 -0.22119328                                           
 INPUT CARD>O 8 1.83292400 0.33128540 -0.20770071                                           
 INPUT CARD>H 1 1.26485918 -0.47143106 -0.39117999                                          
 INPUT CARD>H 1 -0.97205675 0.36267089 0.03397806                                           
 INPUT CARD> $END                                                                           
    1000000 WORDS OF MEMORY AVAILABLE


                    * * * WARNING * * *
 OLD KEYWORD COORD=CART SELECTED, AUTOMATICALLY CHANGED TO COORD=PRINAXIS.
 YOUR MOLECULE'S COORDINATES WILL BE CHANGED TO PRINCIPAL AXES BY
   A) TRANSLATION TO THE CENTER OF MASS, THEN
   B) ROTATION TO HAVE A DIAGONAL MOMENT OF INERTIA TENSOR.

 HOWEVER, NOTHING ELSE IN YOUR INPUT WILL BE ROTATED IN THE SAME WAY,
 SO IF YOU HAVE A $VEC, $VIB, $GRAD, $HESS, EFP PARTICLE COORDINATES,
 OR ANYTHING ELSE THAT DEPENDS ON THE INITIAL ORIENTATION, THAT DATA
 WILL NOT BE USED CORRECTLY IN THIS RUN.

 THE PURPOSE OF COORD=PRINAXIS IS TO BE USED ONCE, ONLY AT THE VERY
 BEGINNING OF A SERIES OF COMPUTATIONS, PERHAPS TO FIND THE SYMMETRY
 UNIQUE ATOMS FROM AN ARBITRARY INITIAL ORIENTATION.

 AFTER THE FIRST RUN, YOU SHOULD USE ONLY COORD=UNIQUE, TO ENSURE THAT
 THE COORDINATES WHICH YOU READ IN ARE THE COORDINATES THAT ARE USED.


     BASIS OPTIONS
     -------------
     GBASIS=PCSEG-1      IGAUSS=       0      POLAR=NONE    
     NDFUNC=       0     NFFUNC=       0     DIFFSP=       F
     NPFUNC=       0      DIFFS=       F     BASNAM=        


     RUN TITLE
     ---------
 H2ON2                                                                           

 THE POINT GROUP OF THE MOLECULE IS C1      
 THE ORDER OF THE PRINCIPAL AXIS IS     1

 THE MOMENTS OF INERTIA ARE (AMU-ANGSTROM**2)
 IXX=     9.400   IYY=    29.925   IZZ=    39.117

 ATOM      ATOMIC                      COORDINATES (BOHR)
           CHARGE         X                   Y                   Z
 N           7.0     1.7774653761       -0.6125720597       -0.0295333000
 N           7.0     0.0203411582        1.2360448963        0.0287293492
 O           8.0    -1.7606739801       -0.4547914317       -0.0357398280
 H           1.0    -0.5392892093       -1.7644078386        0.5698551709
 H           1.0     3.5031084295        0.3195282658        0.0085320604

          INTERNUCLEAR DISTANCES (ANGS.)
          ------------------------------

                1 N          2 N          3 O          4 H          5 H     

   1 N       0.0000000    1.3500000 *  1.8741665 *  1.4053959 *  1.0380650 *
   2 N       1.3500000 *  0.0000000    1.3000000 *  1.6403402 *  1.9057787 *
   3 O       1.8741665 *  1.3000000 *  0.0000000    1.0003579 *  2.8155480 *
   4 H       1.4053959 *  1.6403402 *  1.0003579 *  0.0000000    2.4249285 *
   5 H       1.0380650 *  1.9057787 *  2.8155480 *  2.4249285 *  0.0000000  

  * ... LESS THAN  3.000


     ATOMIC BASIS SET
     ----------------
 THE CONTRACTED PRIMITIVE FUNCTIONS HAVE BEEN UNNORMALIZED
 THE CONTRACTED BASIS FUNCTIONS ARE NOW NORMALIZED TO UNITY

  SHELL TYPE  PRIMITIVE        EXPONENT          CONTRACTION COEFFICIENT(S)

 N         

      1   S       1          1726.3200000    0.005526692708
      1   S       2           259.8270000    0.041238777833
      1   S       3            59.0335000    0.182735518857
      1   S       4            16.3509000    0.465933825414
      1   S       5             4.9108400    0.450079961070

      2   S       6             7.7589400   -0.147940502099
      2   S       7             0.7055730    1.051675837690

      3   S       8             0.2092860    1.000000000000

      4   P       9            13.1844000    0.064862763118
      4   P      10             2.8186000    0.339184155940
      4   P      11             0.7655710    0.735827618992

      5   P      12             0.1959490    1.000000000000

      6   D      13             0.9000000    1.000000000000

 N         

      7   S      14          1726.3200000    0.005526692708
      7   S      15           259.8270000    0.041238777833
      7   S      16            59.0335000    0.182735518857
      7   S      17            16.3509000    0.465933825414
      7   S      18             4.9108400    0.450079961070

      8   S      19             7.7589400   -0.147940502099
      8   S      20             0.7055730    1.051675837690

      9   S      21             0.2092860    1.000000000000

     10   P      22            13.1844000    0.064862763118
     10   P      23             2.8186000    0.339184155940
     10   P      24             0.7655710    0.735827618992

     11   P      25             0.1959490    1.000000000000

     12   D      26             0.9000000    1.000000000000

 O         

     13   S      27          2288.6400000    0.005451138222
     13   S      28           344.4160000    0.040718922842
     13   S      29            78.2538000    0.181369420873
     13   S      30            21.7195000    0.465536820246
     13   S      31             6.5590700    0.451211321214

     14   S      32            10.4656000   -0.150211201174
     14   S      33             0.9643510    1.052867983385

     15   S      34             0.2851270    1.000000000000

     16   P      35            17.0590000    0.068749256972
     16   P      36             3.6899900    0.351671941499
     16   P      37             0.9929960    0.724532099722

     17   P      38             0.2449240    1.000000000000

     18   D      39             1.0000000    1.000000000000

 H         

     19   S      40            12.2518000    0.037217389296
     19   S      41             1.8687100    0.253808206955
     19   S      42             0.4182080    0.797386763917

     20   S      43             0.1061000    1.000000000000

     21   P      44             1.0000000    1.000000000000

 H         

     22   S      45            12.2518000    0.037217389296
     22   S      46             1.8687100    0.253808206955
     22   S      47             0.4182080    0.797386763917

     23   S      48             0.1061000    1.000000000000

     24   P      49             1.0000000    1.000000000000

 TOTAL NUMBER OF BASIS SET SHELLS             =   24
 NUMBER OF CARTESIAN GAUSSIAN BASIS FUNCTIONS =   55
 NOTE: THIS RUN WILL RESTRICT THE MO VARIATION SPACE TO SPHERICAL HARMONICS.
 THE NUMBER OF ORBITALS KEPT IN THE VARIATIONAL SPACE WILL BE PRINTED LATER.
 NUMBER OF ELECTRONS                          =   24
 CHARGE OF MOLECULE                           =    0
 SPIN MULTIPLICITY                            =    1
 NUMBER OF OCCUPIED ORBITALS (ALPHA)          =   12
 NUMBER OF OCCUPIED ORBITALS (BETA )          =   12
 TOTAL NUMBER OF ATOMS                        =    5
 THE NUCLEAR REPULSION ENERGY IS       74.1740447013

     $CONTRL OPTIONS
     ---------------
 SCFTYP=RHF          RUNTYP=HESSIAN      EXETYP=RUN     
 MPLEVL=       0     CITYP =NONE         CCTYP =NONE         VBTYP =NONE    
 DFTTYP=NONE         TDDFT =NONE    
 MULT  =       1     ICHARG=       0     NZVAR =       0     COORD =PRINAXIS
 PP    =NONE         RELWFN=NONE         LOCAL =NONE         NUMGRD=       F
 ISPHER=       1     NOSYM =       0     MAXIT =      30     UNITS =ANGS    
 PLTORB=       F     MOLPLT=       F     AIMPAC=       F     FRIEND=        
 NPRINT=       7     IREST =       0     GEOM  =INPUT   
 NORMF =       0     NORMP =       0     ITOL  =      20     ICUT  =       9
 INTTYP=BEST         GRDTYP=BEST         QMTTOL= 1.0E-06

     $SYSTEM OPTIONS
     ---------------
  REPLICATED MEMORY=     1000000 WORDS (ON EVERY NODE).
 DISTRIBUTED MEMDDI=           0 MILLION WORDS IN AGGREGATE,
 MEMDDI DISTRIBUTED OVER   1 PROCESSORS IS           0 WORDS/PROCESSOR.
 TOTAL MEMORY REQUESTED ON EACH PROCESSOR=     1000000 WORDS.
 TIMLIM=      525600.00 MINUTES, OR     365.0 DAYS.
 PARALL= F  BALTYP=  DLB     KDIAG=    0  COREFL= F
 MXSEQ2=     300 MXSEQ3=     150  mem10=         0

          ----------------
          PROPERTIES INPUT
          ----------------

     MOMENTS            FIELD           POTENTIAL          DENSITY
 IEMOM =       1   IEFLD =       0   IEPOT =       0   IEDEN =       0
 WHERE =COMASS     WHERE =NUCLEI     WHERE =NUCLEI     WHERE =NUCLEI  
 OUTPUT=BOTH       OUTPUT=BOTH       OUTPUT=BOTH       OUTPUT=BOTH    
 IEMINT=       0   IEFINT=       0                     IEDINT=       0
                                                       MORB  =       0
          EXTRAPOLATION IN EFFECT
          SOSCF IN EFFECT
 ORBITAL PRINTING OPTION: NPREO=     1    55     2     1

     -------------------------------
     INTEGRAL TRANSFORMATION OPTIONS
     -------------------------------
     NWORD  =            0
     CUTOFF = 1.0E-09     MPTRAN =       0
     DIRTRF =       F     AOINTS =DUP     

          ----------------------
          INTEGRAL INPUT OPTIONS
          ----------------------
 NOPK  =       1 NORDER=       0 SCHWRZ=       F

     ------------------------------------------
     THE POINT GROUP IS C1 , NAXIS= 1, ORDER= 1
     ------------------------------------------

 -- VARIATIONAL SPACE WILL BE RESTRICTED TO PURE SPHERICAL HARMONICS ONLY --
 AFTER EXCLUDING CONTAMINANT COMBINATIONS FROM THE CARTESIAN GAUSSIAN BASIS
 SET, THE NUMBER OF SPHERICAL HARMONICS KEPT IN THE VARIATION SPACE IS   52

     DIMENSIONS OF THE SYMMETRY SUBSPACES ARE
 A   =   52

 ..... DONE SETTING UP THE RUN .....
 STEP CPU TIME =     0.05 TOTAL CPU TIME =          0.1 (      0.0 MIN)
 TOTAL WALL CLOCK TIME=          0.3 SECONDS, CPU UTILIZATION IS    14.29%

     ---------------------------------
     HESSIAN MATRIX CONTROL PARAMETERS
     ---------------------------------
     METHOD=ANALYTIC   NVIB  =       2   VIBSIZ= 0.01000
     RDHESS=       F   PURIFY=       F   PRTIFC=       F
     VIBANL=       T   DECOMP=       F   PROJCT=       F
     SCLFAC= 1.00000   PRTSCN=       F   NPRT  =       0
     PULCOR=       F   NPUN  =       0   REDOVB=       T
     HSSTYP=GENERAL 
     THERMOCHEMISTRY WILL BE PRINTED FOR    1 TEMPERATURES:
      298.15000
 Old integral subroutine is used

     ------------------------------
     CPHF RESPONSE SOLUTION OPTIONS
     ------------------------------
     POLAR  =       F     NWORD  =       0
     CPHF   =AO      

          ********************
          1 ELECTRON INTEGRALS
          ********************
 ...... END OF ONE-ELECTRON INTEGRALS ......
 STEP CPU TIME =     0.00 TOTAL CPU TIME =          0.1 (      0.0 MIN)
 TOTAL WALL CLOCK TIME=          0.4 SECONDS, CPU UTILIZATION IS    13.16%

          -------------
          GUESS OPTIONS
          -------------
          GUESS =HUCKEL            NORB  =       0          NORDER=       0
          MIX   =       F          PRTMO =       F          PUNMO =       F
          TOLZ  = 1.0E-08          TOLE  = 1.0E-05
          SYMDEN=       F          PURIFY=       F

 INITIAL GUESS ORBITALS GENERATED BY HUCKEL   ROUTINE.
 HUCKEL GUESS REQUIRES     27116 WORDS.

 STATISTICS FOR GENERATION OF SYMMETRY ORBITAL -Q- MATRIX
 NUMBER OF CARTESIAN ATOMIC ORBITALS=         55
 NUMBER OF SPHERICAL CONTAMINANTS DROPPED=     3
 NUMBER OF LINEARLY DEPENDENT MOS DROPPED=     0
 TOTAL NUMBER OF MOS IN VARIATION SPACE=      52

 SYMMETRIES FOR INITIAL GUESS ORBITALS FOLLOW.   BOTH SET(S).
    12 ORBITALS ARE OCCUPIED (    3 CORE ORBITALS).
     4=A        5=A        6=A        7=A        8=A        9=A       10=A   
    11=A       12=A       13=A       14=A       15=A       16=A       17=A   
    18=A       19=A       20=A       21=A       22=A   
 ...... END OF INITIAL ORBITAL SELECTION ......
 STEP CPU TIME =     0.01 TOTAL CPU TIME =          0.1 (      0.0 MIN)
 TOTAL WALL CLOCK TIME=          0.4 SECONDS, CPU UTILIZATION IS    13.95%

                    ----------------------
                    AO INTEGRAL TECHNOLOGY
                    ----------------------
     S,P,L SHELL ROTATED AXIS INTEGRALS, REPROGRAMMED BY
        KAZUYA ISHIMURA (IMS) AND JOSE SIERRA (SYNSTAR).
     S,P,D,L SHELL ROTATED AXIS INTEGRALS PROGRAMMED BY
        KAZUYA ISHIMURA (INSTITUTE FOR MOLECULAR SCIENCE).
     S,P,D,F,G SHELL TO TOTAL QUARTET ANGULAR MOMENTUM SUM 5,
        ERIC PROGRAM BY GRAHAM FLETCHER (ELORET AND NASA ADVANCED
        SUPERCOMPUTING DIVISION, AMES RESEARCH CENTER).
     S,P,D,F,G,L SHELL GENERAL RYS QUADRATURE PROGRAMMED BY
        MICHEL DUPUIS (PACIFIC NORTHWEST NATIONAL LABORATORY).

          --------------------
          2 ELECTRON INTEGRALS
          --------------------

 THE -PK- OPTION IS OFF, THE INTEGRALS ARE NOT IN SUPERMATRIX FORM.
 STORING   15000 INTEGRALS/RECORD ON DISK, USING 12 BYTES/INTEGRAL.
 TWO ELECTRON INTEGRAL EVALUATION REQUIRES   90696 WORDS OF MEMORY.
 II,JST,KST,LST =  1  1  1  1 NREC =         1 INTLOC =    1
 II,JST,KST,LST =  2  1  1  1 NREC =         1 INTLOC =    2
 II,JST,KST,LST =  3  1  1  1 NREC =         1 INTLOC =    7
 II,JST,KST,LST =  4  1  1  1 NREC =         1 INTLOC =   22
 II,JST,KST,LST =  5  1  1  1 NREC =         1 INTLOC =   67
 II,JST,KST,LST =  6  1  1  1 NREC =         1 INTLOC =  214
 II,JST,KST,LST =  7  1  1  1 NREC =         1 INTLOC = 1189
 II,JST,KST,LST =  8  1  1  1 NREC =         1 INTLOC = 3180
 II,JST,KST,LST =  9  1  1  1 NREC =         1 INTLOC = 5640
 II,JST,KST,LST = 10  1  1  1 NREC =         1 INTLOC = 8560
 II,JST,KST,LST = 11  1  1  1 NREC =         2 INTLOC = 5457
 II,JST,KST,LST = 12  1  1  1 NREC =         3 INTLOC = 8122
 II,JST,KST,LST = 13  1  1  1 NREC =         7 INTLOC = 5990
 II,JST,KST,LST = 14  1  1  1 NREC =         8 INTLOC = 4494
 II,JST,KST,LST = 15  1  1  1 NREC =         9 INTLOC = 5743
 II,JST,KST,LST = 16  1  1  1 NREC =        10 INTLOC = 8638
 II,JST,KST,LST = 17  1  1  1 NREC =        14 INTLOC =12179
 II,JST,KST,LST = 18  1  1  1 NREC =        20 INTLOC = 3518
 II,JST,KST,LST = 19  1  1  1 NREC =        35 INTLOC = 2310
 II,JST,KST,LST = 20  1  1  1 NREC =        38 INTLOC = 5882
 II,JST,KST,LST = 21  1  1  1 NREC =        41 INTLOC =12701
 II,JST,KST,LST = 22  1  1  1 NREC =        53 INTLOC = 8758
 II,JST,KST,LST = 23  1  1  1 NREC =        57 INTLOC =14372
 II,JST,KST,LST = 24  1  1  1 NREC =        62 INTLOC = 9472
 TOTAL NUMBER OF NONZERO TWO-ELECTRON INTEGRALS =             1143893
         77 INTEGRAL RECORDS WERE STORED ON DISK FILE  8.
  ...... END OF TWO-ELECTRON INTEGRALS .....
 STEP CPU TIME =     0.16 TOTAL CPU TIME =          0.2 (      0.0 MIN)
 TOTAL WALL CLOCK TIME=          0.6 SECONDS, CPU UTILIZATION IS    34.38%

          --------------------------
                 RHF SCF CALCULATION
          --------------------------

     NUCLEAR ENERGY =        74.1740447013
     MAXIT =   30     NPUNCH=    2
     EXTRAP=T  DAMP=F  SHIFT=F  RSTRCT=F  DIIS=F  DEM=F  SOSCF=T
     DENSITY MATRIX CONV=  1.00E-05
     SOSCF WILL OPTIMIZE     480 ORBITAL ROTATIONS, SOGTOL=   0.250
     MEMORY REQUIRED FOR RHF ITERS=     53865 WORDS.

 ITER EX DEM     TOTAL ENERGY        E CHANGE  DENSITY CHANGE     ORB. GRAD
   1  0  0     -183.9881612543  -183.9881612543   0.301264807   0.000000000
          ---------------START SECOND ORDER SCF---------------
   2  1  0     -184.6278687275    -0.6397074732   0.097848403   0.047553483
   3  2  0     -184.6580020751    -0.0301333477   0.066996368   0.041790589
   4  3  0     -184.6731347386    -0.0151326634   0.009161197   0.004705108
   5  4  0     -184.6736357330    -0.0005009944   0.004803153   0.001880506
   6  5  0     -184.6737460445    -0.0001103116   0.004484447   0.000990004
   7  6  0     -184.6737756108    -0.0000295663   0.000965768   0.000393969
   8  7  0     -184.6737798593    -0.0000042485   0.000670521   0.000239359
   9  8  0     -184.6737811966    -0.0000013373   0.000269122   0.000099410
  10  9  0     -184.6737814154    -0.0000002188   0.000130235   0.000040902
  11 10  0     -184.6737814580    -0.0000000426   0.000039727   0.000010816
  12 11  0     -184.6737814632    -0.0000000053   0.000008988   0.000003060
  13 12  0     -184.6737814637    -0.0000000005   0.000002610   0.000001491

          -----------------
          DENSITY CONVERGED
          -----------------
     TIME TO FORM FOCK OPERATORS=       0.4 SECONDS (       0.0 SEC/ITER)
     TIME TO SOLVE SCF EQUATIONS=       0.0 SECONDS (       0.0 SEC/ITER)

 FINAL RHF ENERGY IS     -184.6737814637 AFTER  13 ITERATIONS

          ------------
          EIGENVECTORS
          ------------

                      1          2          3          4          5
                  -20.5958   -15.7442   -15.6171    -1.5796    -1.2243
                     A          A          A          A          A   
    1  N  1  S   -0.000022   0.003486   0.994782  -0.070361  -0.166908
    2  N  1  S   -0.000094  -0.000172   0.023969   0.146167   0.345141
    3  N  1  S   -0.000098   0.002525  -0.007636   0.052887   0.275936
    4  N  1  X    0.000004   0.000216   0.000279  -0.070087  -0.026472
    5  N  1  Y   -0.000144  -0.000208   0.001994   0.042570   0.113517
    6  N  1  Z    0.000039   0.000004   0.000178   0.003896   0.004453
    7  N  1  X   -0.000433  -0.000861   0.000736   0.001985  -0.038217
    8  N  1  Y    0.000250   0.001070  -0.001206  -0.000964   0.018656
    9  N  1  Z   -0.000199  -0.000078  -0.000166   0.000326   0.006696
   10  N  1 XX    0.000357  -0.000186   0.000592   0.004896   0.003777
   11  N  1 YY   -0.000192  -0.000179  -0.000022   0.001712   0.007431
   12  N  1 ZZ   -0.000165   0.000365  -0.000570  -0.006608  -0.011208
   13  N  1 XY    0.000104   0.000539   0.000395  -0.012233  -0.009728
   14  N  1 XZ    0.000043   0.000052  -0.000017  -0.000680  -0.002004
   15  N  1 YZ    0.000024  -0.000010  -0.000016   0.000507   0.000115
   16  N  2  S    0.000101   0.994945  -0.003474  -0.129912  -0.079893
   17  N  2  S   -0.000182   0.023350  -0.000194   0.272860   0.174478
   18  N  2  S    0.003258  -0.008079   0.001378   0.160297   0.150498
   19  N  2  X   -0.000069  -0.000284  -0.000173  -0.049948   0.203241
   20  N  2  Y   -0.000053  -0.002625   0.000195  -0.141110  -0.045620
   21  N  2  Z    0.000001   0.000007   0.000020  -0.000525  -0.000301
   22  N  2  X   -0.001580  -0.000755   0.000738   0.009573   0.048506
   23  N  2  Y   -0.001468   0.002339  -0.000330  -0.040915  -0.025589
   24  N  2  Z    0.000040   0.000080   0.000047   0.001646  -0.000740
   25  N  2 XX   -0.000082   0.000120  -0.000153   0.003985   0.001984
   26  N  2 YY   -0.000154   0.000441  -0.000243   0.015503   0.003327
   27  N  2 ZZ    0.000236  -0.000561   0.000397  -0.019489  -0.005311
   28  N  2 XY   -0.000425   0.000113   0.000510   0.012781  -0.034711
   29  N  2 XZ   -0.000016   0.000009   0.000011   0.000189  -0.000235
   30  N  2 YZ   -0.000038  -0.000014  -0.000042   0.000140   0.000115
   31  O  3  S    0.994260  -0.000054   0.000009  -0.170989   0.137246
   32  O  3  S    0.026496   0.000209   0.000117   0.348273  -0.285174
   33  O  3  S   -0.010126   0.000184  -0.000155   0.280318  -0.325221
   34  O  3  X    0.001953  -0.000176   0.000052   0.124002   0.010139
   35  O  3  Y    0.000233  -0.000185  -0.000093   0.042298   0.012909
   36  O  3  Z    0.000437  -0.000000   0.000023   0.014936  -0.013744
   37  O  3  X   -0.002527  -0.000369   0.000169   0.037482  -0.015002
   38  O  3  Y   -0.001356   0.000081   0.000376   0.024831  -0.007108
   39  O  3  Z   -0.000287  -0.000163  -0.000204   0.002133  -0.002131
   40  O  3 XX    0.000059  -0.000380   0.000099   0.010689   0.003603
   41  O  3 YY   -0.000077  -0.000139  -0.000108  -0.000215  -0.003210
   42  O  3 ZZ    0.000018   0.000519   0.000009  -0.010474  -0.000393
   43  O  3 XY   -0.000408  -0.000604  -0.000046   0.014006   0.001460
   44  O  3 XZ    0.000094  -0.000094  -0.000028   0.002090  -0.000932
   45  O  3 YZ   -0.000093   0.000012   0.000069   0.000291   0.000787
   46  H  4  S    0.000115   0.000278   0.000163   0.123721  -0.066983
   47  H  4  S    0.000823   0.000655   0.000917  -0.017921  -0.017048
   48  H  4  X    0.000551   0.000055  -0.000339  -0.009537   0.013642
   49  H  4  Y   -0.000700   0.000175  -0.000212   0.023258  -0.007921
   50  H  4  Z    0.000345   0.000055   0.000150  -0.009568   0.003654
   51  H  5  S   -0.000013  -0.000290  -0.000805   0.023363   0.138631
   52  H  5  S    0.000282   0.000397   0.001258  -0.008760  -0.003757
   53  H  5  X    0.000056  -0.000006   0.000984  -0.005525  -0.017606
   54  H  5  Y    0.000070   0.000039   0.000574  -0.001769  -0.008132
   55  H  5  Z    0.000021   0.000010   0.000047  -0.000033  -0.000504

                      6          7          8          9         10
                   -0.9554    -0.7966    -0.6750    -0.6612    -0.5482
                     A          A          A          A          A   
    1  N  1  S    0.105614  -0.039878   0.038717   0.043782  -0.002599
    2  N  1  S   -0.225094   0.081618  -0.089209  -0.097393  -0.005195
    3  N  1  S   -0.256084   0.095610  -0.116730  -0.126067   0.064688
    4  N  1  X   -0.071800   0.331642   0.028058  -0.118753   0.140329
    5  N  1  Y    0.082680   0.053934   0.107478   0.191652  -0.278355
    6  N  1  Z   -0.013395  -0.025752   0.156016  -0.110062  -0.059211
    7  N  1  X   -0.005740   0.137025   0.017979  -0.061426   0.059932
    8  N  1  Y    0.030444   0.034089   0.069321   0.120205  -0.170303
    9  N  1  Z   -0.005748  -0.017481   0.098191  -0.078013  -0.043800
   10  N  1 XX   -0.006617  -0.005367  -0.011138  -0.011653   0.000887
   11  N  1 YY    0.006279   0.002922   0.010785   0.018024  -0.008500
   12  N  1 ZZ    0.000338   0.002445   0.000354  -0.006371   0.007613
   13  N  1 XY   -0.016047   0.020167  -0.001708  -0.014820   0.023283
   14  N  1 XZ    0.000696   0.004170  -0.011438   0.008242   0.004247
   15  N  1 YZ    0.000409  -0.001500   0.013671  -0.007112  -0.007287
   16  N  2  S   -0.159735   0.006234  -0.048837  -0.034138  -0.064104
   17  N  2  S    0.371310  -0.017992   0.104517   0.074798   0.144586
   18  N  2  S    0.336778  -0.010619   0.201462   0.143469   0.247283
   19  N  2  X   -0.106829  -0.098277   0.153388   0.330883  -0.170530
   20  N  2  Y    0.060737   0.181085   0.209017   0.137299   0.437445
   21  N  2  Z   -0.011985  -0.031923   0.249409  -0.165447  -0.083353
   22  N  2  X   -0.016022  -0.033461   0.056360   0.123894  -0.079075
   23  N  2  Y    0.023540   0.089705   0.091093   0.064164   0.282937
   24  N  2  Z   -0.004241  -0.016693   0.141945  -0.096086  -0.057371
   25  N  2 XX    0.009703   0.023057   0.003683  -0.001994  -0.010419
   26  N  2 YY   -0.006186  -0.028758  -0.012033  -0.006619  -0.007563
   27  N  2 ZZ   -0.003517   0.005701   0.008350   0.008613   0.017982
   28  N  2 XY    0.012182   0.008718  -0.014858  -0.032314   0.015592
   29  N  2 XZ    0.001087   0.001065  -0.006624   0.003332  -0.000088
   30  N  2 YZ    0.001999   0.004989  -0.031203   0.020272   0.007885
   31  O  3  S    0.059732  -0.071627  -0.009136  -0.041331   0.036119
   32  O  3  S   -0.129825   0.154857   0.020736   0.090882  -0.080325
   33  O  3  S   -0.143555   0.247217   0.014132   0.131419  -0.124701
   34  O  3  X    0.030317  -0.285292  -0.145697  -0.196326   0.203430
   35  O  3  Y    0.276445   0.160719  -0.151893  -0.275025  -0.206918
   36  O  3  Z   -0.038203  -0.068950   0.387405  -0.251853  -0.058709
   37  O  3  X    0.033093  -0.144101  -0.107997  -0.138501   0.152431
   38  O  3  Y    0.119767   0.088438  -0.087325  -0.170733  -0.131107
   39  O  3  Z   -0.011370  -0.035865   0.246727  -0.168300  -0.051299
   40  O  3 XX    0.000828  -0.020180  -0.012985  -0.005232  -0.002865
   41  O  3 YY    0.005997   0.012909   0.001479  -0.001777   0.006877
   42  O  3 ZZ   -0.006825   0.007270   0.011506   0.007009  -0.004013
   43  O  3 XY    0.025501   0.005605  -0.012958  -0.020393  -0.011955
   44  O  3 XZ   -0.001967  -0.006014   0.022634  -0.017168  -0.002634
   45  O  3 YZ    0.003609   0.000590   0.007108  -0.009010  -0.006190
   46  H  4  S   -0.217336  -0.191634   0.112852   0.019596   0.211095
   47  H  4  S   -0.006709   0.032599   0.029962   0.021826   0.063810
   48  H  4  X    0.011429  -0.000413  -0.017369  -0.014176  -0.005666
   49  H  4  Y   -0.017543  -0.025039   0.008908  -0.007784   0.005714
   50  H  4  Z    0.010210   0.008928   0.009987  -0.009646  -0.010851
   51  H  5  S   -0.120775   0.279419   0.009678  -0.087268   0.026767
   52  H  5  S   -0.008223   0.028051  -0.002162  -0.026794   0.035715
   53  H  5  X    0.009626  -0.022045  -0.002465   0.003186   0.004106
   54  H  5  Y    0.007830  -0.013702   0.001692   0.007728  -0.005093
   55  H  5  Z   -0.000070  -0.000795   0.004124  -0.002565  -0.001765

                     11         12         13         14         15
                   -0.5017    -0.4308     0.0629     0.1717     0.2225
                     A          A          A          A          A   
    1  N  1  S    0.081618   0.015467  -0.004763   0.070863   0.020660
    2  N  1  S   -0.180765  -0.041502   0.009651  -0.092542  -0.026585
    3  N  1  S   -0.366966  -0.049103   0.026018  -0.913016  -0.288806
    4  N  1  X    0.267883   0.045358   0.011332  -0.199536   0.050708
    5  N  1  Y    0.329808   0.013746  -0.025105  -0.064563   0.165097
    6  N  1  Z   -0.064051   0.437788  -0.340380  -0.028721  -0.063266
    7  N  1  X    0.215990   0.018446   0.008817  -0.561602   0.397041
    8  N  1  Y    0.241051   0.009295  -0.046456  -0.149944   0.400825
    9  N  1  Z   -0.054121   0.376125  -0.490510  -0.037375  -0.133139
   10  N  1 XX    0.005524   0.000807   0.000923  -0.000619  -0.007141
   11  N  1 YY    0.004581  -0.002236  -0.001339  -0.001635   0.006768
   12  N  1 ZZ   -0.010105   0.001429   0.000416   0.002255   0.000373
   13  N  1 XY    0.008591   0.003644  -0.000939  -0.008468   0.010781
   14  N  1 XZ    0.005610  -0.012193  -0.011613  -0.002147  -0.001680
   15  N  1 YZ   -0.001203   0.026283   0.009774  -0.001480  -0.002463
   16  N  2  S    0.005826  -0.003489  -0.004884   0.014323   0.004973
   17  N  2  S   -0.005642   0.007194   0.001631  -0.018221   0.011698
   18  N  2  S   -0.050173   0.012936   0.096403  -0.258270  -0.245852
   19  N  2  X   -0.038828  -0.008457  -0.002387   0.038226  -0.083619
   20  N  2  Y   -0.112047   0.010043  -0.001217  -0.065501  -0.071177
   21  N  2  Z   -0.049567   0.200608   0.501687   0.011634   0.030440
   22  N  2  X    0.009667  -0.003010  -0.007681   0.009483  -0.038345
   23  N  2  Y   -0.069165   0.008314  -0.026493  -0.006291  -0.051387
   24  N  2  Z   -0.033634   0.165814   0.636372   0.019386   0.045294
   25  N  2 XX    0.002234  -0.002104  -0.003479  -0.004264   0.005000
   26  N  2 YY    0.005800   0.001518   0.001634   0.001284  -0.010482
   27  N  2 ZZ   -0.008033   0.000586   0.001844   0.002981   0.005482
   28  N  2 XY    0.019722   0.003112   0.001875   0.005626  -0.010770
   29  N  2 XZ   -0.003226   0.036066  -0.006423  -0.000399  -0.000485
   30  N  2 YZ    0.003766  -0.012866  -0.000677   0.000877   0.002429
   31  O  3  S    0.001691  -0.005215  -0.008487   0.017131   0.062975
   32  O  3  S   -0.003381   0.013225   0.015087  -0.024518  -0.088242
   33  O  3  S    0.014375   0.022943   0.060457  -0.177357  -0.720091
   34  O  3  X    0.393461   0.076893   0.031209  -0.054733  -0.031851
   35  O  3  Y   -0.130422  -0.053430  -0.054170   0.084787   0.096836
   36  O  3  Z    0.035630  -0.420074  -0.184173  -0.017161  -0.081858
   37  O  3  X    0.289634   0.060205   0.027051  -0.101798  -0.030155
   38  O  3  Y   -0.095404  -0.044055  -0.082574   0.132657   0.291395
   39  O  3  Z    0.025200  -0.356948  -0.238645  -0.021013  -0.145803
   40  O  3 XX    0.014558   0.003773   0.001845   0.000811  -0.009269
   41  O  3 YY   -0.007715   0.000852  -0.001691  -0.003008   0.009350
   42  O  3 ZZ   -0.006843  -0.004625  -0.000154   0.002197  -0.000082
   43  O  3 XY    0.003353  -0.000947  -0.000880   0.000670   0.012692
   44  O  3 XZ    0.003135  -0.010071   0.004360  -0.000902  -0.003182
   45  O  3 YZ   -0.001838  -0.001098   0.017255   0.001295   0.000241
   46  H  4  S    0.094215  -0.010887  -0.072929   0.013569   0.066410
   47  H  4  S   -0.031705  -0.010222  -0.131396   0.226330   1.843547
   48  H  4  X   -0.029149   0.006685  -0.001156   0.003386  -0.003636
   49  H  4  Y    0.015811  -0.001750  -0.001430   0.001023  -0.002293
   50  H  4  Z   -0.006290  -0.007336  -0.011968   0.000906  -0.000313
   51  H  5  S    0.271912   0.041264  -0.008589   0.049049   0.019674
   52  H  5  S    0.052746   0.023470   0.001393   1.607881  -0.595225
   53  H  5  X   -0.017827  -0.001793  -0.000016   0.002222  -0.001376
   54  H  5  Y   -0.002917  -0.001048  -0.000914   0.002119   0.005946
   55  H  5  Z   -0.002301   0.014458  -0.013045  -0.001232  -0.002928

                     16         17         18         19         20
                    0.3577     0.3967     0.6979     0.7827     0.8192
                     A          A          A          A          A   
    1  N  1  S   -0.071651   0.020932   0.071392  -0.024837   0.044951
    2  N  1  S    0.086962   0.028878  -0.214180   0.056540  -0.191467
    3  N  1  S    1.401126  -0.807106  -0.717306  -0.241050   0.935114
    4  N  1  X   -0.246514   0.023422  -0.124656   0.190410   0.071160
    5  N  1  Y    0.205321  -0.034976  -0.049124   0.463705   0.098939
    6  N  1  Z   -0.000119   0.037019  -0.077159  -0.023505  -0.002957
    7  N  1  X   -1.022477   0.575086   0.363167   0.259233  -0.100421
    8  N  1  Y    0.941366  -0.411879  -0.538497  -0.273269  -0.078494
    9  N  1  Z    0.031515   0.027392  -0.005706   0.028117   0.018626
   10  N  1 XX    0.021984   0.007579   0.061577  -0.091925   0.074467
   11  N  1 YY   -0.013483  -0.018558   0.002294   0.028913   0.016884
   12  N  1 ZZ   -0.008501   0.010979  -0.063871   0.063012  -0.091351
   13  N  1 XY    0.023266  -0.027431   0.086111  -0.033288  -0.083843
   14  N  1 XZ   -0.004709   0.004780  -0.026607  -0.014403  -0.014866
   15  N  1 YZ   -0.000790   0.002571  -0.010715  -0.004052   0.002701
   16  N  2  S    0.058404  -0.117916  -0.068438   0.021726   0.014718
   17  N  2  S   -0.099299   0.227356   0.213171  -0.308088   0.023764
   18  N  2  S   -1.111519   1.966853   1.016007   1.036076  -0.438377
   19  N  2  X   -0.355921  -0.203404   0.149220   0.316561   0.526882
   20  N  2  Y    0.097544  -0.236608   0.233692   0.425229  -0.675754
   21  N  2  Z    0.013941  -0.021134   0.063493   0.055539   0.082654
   22  N  2  X   -1.263536  -0.691355   0.239459  -0.730812  -0.788245
   23  N  2  Y    0.635796  -1.291506  -0.986796  -1.001066   1.129632
   24  N  2  Z    0.040729  -0.081037  -0.043062  -0.048156  -0.077701
   25  N  2 XX   -0.002177  -0.022494   0.012449   0.063113  -0.024755
   26  N  2 YY    0.000899   0.016165  -0.001808  -0.030353   0.023078
   27  N  2 ZZ    0.001279   0.006329  -0.010641  -0.032759   0.001677
   28  N  2 XY   -0.028362  -0.021186  -0.007371  -0.007226  -0.011475
   29  N  2 XZ   -0.000777  -0.001803   0.004695   0.002876   0.002179
   30  N  2 YZ   -0.000440  -0.002086  -0.004500  -0.003855  -0.007709
   31  O  3  S    0.044132   0.067310   0.036029   0.002695   0.020034
   32  O  3  S   -0.116693  -0.071023  -0.127355   0.120001  -0.105141
   33  O  3  S   -0.265443  -1.145691  -0.331542  -0.949758   0.166809
   34  O  3  X   -0.099460  -0.162775  -0.215146   0.189217  -0.017351
   35  O  3  Y   -0.100673  -0.346119   0.195258   0.027994  -0.035287
   36  O  3  Z   -0.019343   0.032366  -0.085537  -0.013692  -0.015802
   37  O  3  X   -0.162568  -0.624442  -0.302135  -0.429049   0.075007
   38  O  3  Y   -0.256620  -0.925955   0.077047   0.000214   0.052711
   39  O  3  Z   -0.015349   0.034313  -0.062329  -0.085027  -0.020763
   40  O  3 XX   -0.004678  -0.006255   0.006685  -0.045814   0.043304
   41  O  3 YY    0.013326   0.002748   0.015828  -0.000899  -0.022587
   42  O  3 ZZ   -0.008648   0.003506  -0.022513   0.046713  -0.020718
   43  O  3 XY   -0.017903   0.018959  -0.069749  -0.081604  -0.022170
   44  O  3 XZ    0.002281  -0.006340   0.030757   0.008032   0.011932
   45  O  3 YZ   -0.002660   0.003653  -0.029116  -0.006641  -0.006512
   46  H  4  S    0.177931  -0.193785   0.835738   0.422180   0.305104
   47  H  4  S   -0.450962  -0.320712  -0.575185  -0.379504  -0.199191
   48  H  4  X    0.009905  -0.017065   0.085139  -0.052209  -0.006643
   49  H  4  Y   -0.007100   0.009289  -0.069946   0.007312  -0.007988
   50  H  4  Z    0.000160  -0.004917   0.029982   0.014163   0.000862
   51  H  5  S    0.158906  -0.036251   0.704052  -0.678692   0.107074
   52  H  5  S    0.285181   0.251386  -0.409495   0.622026  -0.088665
   53  H  5  X    0.007674   0.004339   0.075253  -0.088269   0.034369
   54  H  5  Y    0.010026  -0.020887   0.032756  -0.055859  -0.031493
   55  H  5  Z   -0.000813   0.002916  -0.012570  -0.007629  -0.006242

                     21         22         23         24         25
                    0.8464     0.8549     0.8937     0.9294     1.0562
                     A          A          A          A          A   
    1  N  1  S   -0.004084  -0.001716   0.010385   0.009296  -0.025713
    2  N  1  S    0.035883   0.135580   0.112384  -0.092898   0.272244
    3  N  1  S    0.081404  -0.454521  -0.432970   0.093536  -0.009300
    4  N  1  X    0.016762   0.081317  -0.614679   0.375204  -0.115930
    5  N  1  Y    0.050481   0.560935   0.450930  -0.045922  -0.170481
    6  N  1  Z   -0.647591  -0.027928   0.300253   0.629487   0.164928
    7  N  1  X    0.040026   0.034232   0.870196  -0.547929   0.572628
    8  N  1  Y   -0.041333  -0.870514  -0.700795   0.030408   0.563025
    9  N  1  Z    0.534400   0.077267  -0.415098  -0.935824  -0.188244
   10  N  1 XX    0.002497  -0.033834   0.026556  -0.014732  -0.006343
   11  N  1 YY    0.001368   0.011172  -0.002816   0.011595  -0.003807
   12  N  1 ZZ   -0.003865   0.022662  -0.023740   0.003136   0.010150
   13  N  1 XY   -0.018243   0.001051   0.035552  -0.010923  -0.039546
   14  N  1 XZ    0.035729  -0.021703   0.029595  -0.006972  -0.057647
   15  N  1 YZ   -0.038314  -0.002969   0.011950   0.001439  -0.021152
   16  N  2  S   -0.006386  -0.014918   0.027697  -0.016965  -0.002884
   17  N  2  S    0.075504   0.266767  -0.015067   0.031073   0.133625
   18  N  2  S   -0.190991  -0.252956   0.235855   0.001467  -0.553337
   19  N  2  X   -0.025020  -0.535602   0.080278  -0.052599   0.120653
   20  N  2  Y   -0.063098  -0.208094   0.224222  -0.127926   0.035151
   21  N  2  Z   -0.666780   0.204801  -0.288632  -0.567072   0.082771
   22  N  2  X    0.034830   1.058554   0.212919   0.008752  -0.305385
   23  N  2  Y    0.137933   0.477615   0.077747  -0.026838   0.168160
   24  N  2  Z    0.681310  -0.250327   0.443260   0.940770  -0.340654
   25  N  2 XX   -0.001860   0.055707   0.025500   0.007024   0.006325
   26  N  2 YY   -0.008509  -0.035414   0.059935  -0.042789  -0.008543
   27  N  2 ZZ    0.010368  -0.020292  -0.085436   0.035765   0.002218
   28  N  2 XY   -0.023235  -0.095520  -0.096219   0.032340  -0.031573
   29  N  2 XZ   -0.014163  -0.000441  -0.000598   0.023444   0.015347
   30  N  2 YZ    0.068110  -0.009937   0.016641   0.006552   0.001381
   31  O  3  S   -0.004484   0.000462  -0.054328   0.035733  -0.029409
   32  O  3  S   -0.004095  -0.090835   0.160393  -0.141200   0.057556
   33  O  3  S    0.189190   0.830019   0.342100  -0.071974   0.266334
   34  O  3  X   -0.088248  -0.349702  -0.002320  -0.069367  -0.164832
   35  O  3  Y   -0.060616   0.033107  -0.011137   0.075688   0.032384
   36  O  3  Z   -0.173167  -0.034698   0.071076  -0.015658  -0.764546
   37  O  3  X    0.133987   0.382277   0.573822  -0.271560   0.637414
   38  O  3  Y    0.087914   0.189728   0.040096  -0.035449  -0.113139
   39  O  3  Z   -0.027705   0.063184  -0.044635  -0.143781   1.015587
   40  O  3 XX    0.009218   0.007667   0.001837   0.001310  -0.015819
   41  O  3 YY    0.008482   0.066582  -0.005416   0.016266   0.022399
   42  O  3 ZZ   -0.017701  -0.074249   0.003579  -0.017576  -0.006580
   43  O  3 XY    0.005240   0.036669   0.004704  -0.016721  -0.017765
   44  O  3 XZ   -0.014470   0.031817  -0.035588  -0.019647  -0.002057
   45  O  3 YZ   -0.030022  -0.014195   0.015660  -0.020284  -0.031538
   46  H  4  S    0.082936   0.291378  -0.430598   0.338083  -0.099390
   47  H  4  S   -0.173638  -0.352986   0.363319  -0.345380   0.202527
   48  H  4  X   -0.012772   0.012937   0.020108   0.014351   0.075339
   49  H  4  Y   -0.033897  -0.107893   0.038466  -0.054905  -0.075415
   50  H  4  Z    0.020195   0.033094  -0.047477   0.013938   0.040638
   51  H  5  S   -0.104613  -0.199410   0.298632  -0.063828  -0.361480
   52  H  5  S    0.056988   0.197278  -0.451282   0.299021  -0.033873
   53  H  5  X   -0.005295  -0.099740   0.054380  -0.054024   0.022652
   54  H  5  Y   -0.009472   0.001428   0.043861  -0.025937  -0.030467
   55  H  5  Z   -0.006754  -0.009849   0.020494   0.011237  -0.037321

                     26         27         28         29         30
                    1.1063     1.1141     1.1818     1.2890     1.4250
                     A          A          A          A          A   
    1  N  1  S    0.040080   0.047606   0.011917   0.034668   0.042547
    2  N  1  S   -0.573439  -0.588000  -0.346961  -0.362113  -1.470649
    3  N  1  S    0.163792   0.584500   0.535899  -0.291371   4.150169
    4  N  1  X   -0.260081   0.172953  -0.351449   0.297834   0.006938
    5  N  1  Y    0.059773  -0.077972  -0.187131   0.307907   0.042753
    6  N  1  Z    0.050706   0.031099  -0.007506  -0.101710  -0.014732
    7  N  1  X    0.733836  -0.071148   1.731770  -0.885366  -1.000277
    8  N  1  Y   -0.460835   0.210774   0.607420  -1.093675   1.163956
    9  N  1  Z   -0.123888  -0.015385  -0.013148   0.237444   0.121175
   10  N  1 XX    0.013006  -0.040608  -0.017832  -0.011583  -0.152329
   11  N  1 YY   -0.036738  -0.028632  -0.053491  -0.032510   0.087943
   12  N  1 ZZ    0.023732   0.069240   0.071324   0.044092   0.064386
   13  N  1 XY    0.077841   0.014153   0.013750   0.077691  -0.022120
   14  N  1 XZ   -0.044920   0.016988  -0.017627   0.051518   0.081214
   15  N  1 YZ   -0.017271   0.005542  -0.009808   0.004477   0.019247
   16  N  2  S    0.031705   0.003410   0.043551   0.034207  -0.021601
   17  N  2  S   -0.634368  -0.423601  -0.728057  -0.936898   0.947502
   18  N  2  S    1.552392  -0.386854   1.717273   2.518642  -3.103331
   19  N  2  X   -0.358741   0.056279  -0.072579   0.035157   0.043139
   20  N  2  Y   -0.127800   0.034726  -0.087775   0.055654   0.035364
   21  N  2  Z   -0.014425   0.025150  -0.040375   0.020774   0.023423
   22  N  2  X    0.888391   0.075506  -0.403994  -0.277639  -1.228619
   23  N  2  Y   -0.506999   0.031792  -0.448604  -0.683790   1.136295
   24  N  2  Z   -0.048919   0.000638   0.140769  -0.244181  -0.040266
   25  N  2 XX   -0.046853  -0.078282   0.023526  -0.075488   0.136980
   26  N  2 YY    0.027251  -0.107983  -0.042515   0.004307  -0.095670
   27  N  2 ZZ    0.019602   0.186264   0.018989   0.071181  -0.041310
   28  N  2 XY   -0.005887  -0.073778   0.032027   0.085043   0.094703
   29  N  2 XZ    0.007893  -0.005425   0.008046  -0.021060  -0.008731
   30  N  2 YZ   -0.015893  -0.009043  -0.009044   0.015135   0.048849
   31  O  3  S    0.037741  -0.031865   0.015657   0.010101  -0.020540
   32  O  3  S   -0.142728   0.093889  -0.129359  -0.060395   0.263475
   33  O  3  S   -0.152725   0.122267  -0.186995  -0.456432   0.030411
   34  O  3  X    0.324592  -0.586154  -0.168118   0.023595   0.110005
   35  O  3  Y   -0.380642  -0.457536   0.444353   0.370303   0.115264
   36  O  3  Z   -0.278458   0.092510   0.213967  -0.244221  -0.064314
   37  O  3  X   -0.878121   0.982706   0.266301  -0.417298  -0.040672
   38  O  3  Y    0.623781   0.743904  -0.993550  -1.286511  -0.284859
   39  O  3  Z    0.235994  -0.082231  -0.359770   0.568773   0.215929
   40  O  3 XX    0.035188  -0.039962  -0.047980   0.003712  -0.005551
   41  O  3 YY   -0.026617  -0.019341   0.040670  -0.080364   0.077014
   42  O  3 ZZ   -0.008571   0.059303   0.007311   0.076652  -0.071463
   43  O  3 XY    0.001714  -0.012702  -0.051556  -0.021887   0.043813
   44  O  3 XZ    0.003105  -0.008572   0.043731  -0.042828  -0.055478
   45  O  3 YZ   -0.010247   0.009011  -0.037517   0.032489   0.034404
   46  H  4  S    0.468028  -0.255693   0.291593  -0.683814  -0.278139
   47  H  4  S   -0.099562   0.309401  -0.237997  -1.113826  -0.304875
   48  H  4  X   -0.009140  -0.072580   0.076647   0.072847  -0.089002
   49  H  4  Y    0.109803  -0.032439  -0.077708  -0.044904  -0.123901
   50  H  4  Z   -0.023123   0.036704   0.091771   0.024942  -0.069673
   51  H  5  S   -0.073211   0.015838  -0.757506   0.595100  -0.324841
   52  H  5  S   -0.640969  -0.248054  -0.697321   0.303640  -0.165016
   53  H  5  X    0.041727   0.020686   0.080657  -0.043464   0.060391
   54  H  5  Y    0.094847   0.011993   0.015038  -0.012409   0.125262
   55  H  5  Z   -0.023202   0.010187  -0.004012   0.038296   0.059687

                     31         32         33         34         35
                    1.6142     1.7275     1.8337     1.9428     1.9694
                     A          A          A          A          A   
    1  N  1  S    0.016104  -0.002477  -0.006246   0.013438   0.003117
    2  N  1  S   -0.512844   0.131370  -0.030089  -0.091706  -0.174294
    3  N  1  S    1.575936  -0.498839   0.139542   0.244675   1.016442
    4  N  1  X    0.098718   0.015114  -0.006938   0.008888  -0.020496
    5  N  1  Y    0.116882  -0.016032   0.026698  -0.034449   0.056569
    6  N  1  Z   -0.008352  -0.037603  -0.076686  -0.120561   0.026442
    7  N  1  X   -0.287249  -0.285785  -0.256480   0.350252  -0.344630
    8  N  1  Y    0.692308  -0.445524  -0.051941   0.233888   0.089029
    9  N  1  Z    0.007975   0.074108  -0.096347   0.037196  -0.016671
   10  N  1 XX    0.202946  -0.271137   0.012310   0.080720  -0.092841
   11  N  1 YY   -0.292019   0.290892  -0.110007   0.045069   0.046972
   12  N  1 ZZ    0.089072  -0.019755   0.097697  -0.125789   0.045870
   13  N  1 XY   -0.053340   0.071499  -0.055881   0.061769  -0.104285
   14  N  1 XZ   -0.253564  -0.390498  -0.043547  -0.084372   0.033327
   15  N  1 YZ   -0.062612  -0.002863   0.487960   0.360869  -0.044620
   16  N  2  S   -0.007191  -0.001496   0.002083  -0.000086   0.003110
   17  N  2  S    0.492125  -0.205404   0.035211   0.092227   0.471589
   18  N  2  S   -1.550785   1.127684  -0.165003  -0.727394  -2.318932
   19  N  2  X   -0.036780   0.052703  -0.025047   0.045199   0.072422
   20  N  2  Y    0.092481  -0.106197   0.021972   0.050565   0.105558
   21  N  2  Z   -0.065583  -0.106866  -0.001113  -0.121256   0.001906
   22  N  2  X   -0.442880  -0.326070   0.041832   0.154273   0.355533
   23  N  2  Y    0.566077  -0.360727   0.083604   0.259802   1.060933
   24  N  2  Z    0.063833   0.033096  -0.027335  -0.035642   0.076183
   25  N  2 XX   -0.270973   0.205501  -0.074261   0.099441   0.025151
   26  N  2 YY    0.333213  -0.203285   0.060696  -0.029876   0.017459
   27  N  2 ZZ   -0.062240  -0.002216   0.013565  -0.069565  -0.042611
   28  N  2 XY    0.058161   0.023582  -0.015047  -0.050138  -0.085954
   29  N  2 XZ    0.009166   0.108479   0.594811  -0.031837  -0.106511
   30  N  2 YZ   -0.176293  -0.286955  -0.027336  -0.524774  -0.007689
   31  O  3  S   -0.015782  -0.028200   0.000444   0.032802   0.051079
   32  O  3  S    0.248915   0.486606   0.039403  -0.675135  -1.292784
   33  O  3  S   -0.180595  -1.012053  -0.057867   1.256946   2.875366
   34  O  3  X   -0.103324   0.059055   0.013884  -0.082399   0.062251
   35  O  3  Y    0.079627   0.000508   0.046679  -0.018029  -0.064583
   36  O  3  Z    0.020388   0.018479  -0.008157  -0.052340  -0.020887
   37  O  3  X    0.018616  -0.296900  -0.080736   0.508094   0.864894
   38  O  3  Y   -0.032448  -0.465865   0.056606   0.140756   0.362048
   39  O  3  Z   -0.156146  -0.113578   0.100425   0.126665  -0.004621
   40  O  3 XX    0.210902  -0.158037   0.005281  -0.014084  -0.179866
   41  O  3 YY   -0.190547   0.091737  -0.017714   0.029573  -0.141478
   42  O  3 ZZ   -0.020355   0.066300   0.012433  -0.015490   0.321344
   43  O  3 XY    0.038447   0.093393   0.032803  -0.089994   0.065096
   44  O  3 XZ    0.107501   0.136422  -0.108337   0.077400   0.120570
   45  O  3 YZ    0.011859  -0.033443  -0.280564   0.282811  -0.050624
   46  H  4  S   -0.045382  -0.104782   0.014389  -0.207086  -0.484681
   47  H  4  S    0.257938  -0.252719  -0.042216   0.094470  -0.276936
   48  H  4  X    0.151738  -0.020902  -0.179595   0.167041  -0.048639
   49  H  4  Y    0.304511   0.031950   0.003041   0.012002   0.012284
   50  H  4  Z    0.154208   0.189474   0.127680  -0.332990   0.528491
   51  H  5  S   -0.355435   0.393640   0.125451  -0.304158   0.043722
   52  H  5  S   -0.039787   0.163205   0.029314  -0.103585  -0.049137
   53  H  5  X    0.077376  -0.080397   0.038621  -0.062928  -0.028147
   54  H  5  Y   -0.143015   0.211927  -0.046862   0.023908   0.099872
   55  H  5  Z   -0.199688  -0.327250   0.180600   0.169330   0.069397

                     36         37         38         39         40
                    1.9990     2.1253     2.3498     2.4669     2.5981
                     A          A          A          A          A   
    1  N  1  S    0.010684   0.018083  -0.017476   0.021118   0.010538
    2  N  1  S   -0.174670  -0.014152   0.221520  -0.338194  -0.107161
    3  N  1  S    0.558978  -0.195037  -0.311786  -0.025670  -0.336037
    4  N  1  X    0.009689   0.013812   0.044813   0.366743  -0.041795
    5  N  1  Y    0.016477  -0.116783   0.000046  -0.144888  -0.038458
    6  N  1  Z   -0.033059  -0.002669   0.011758  -0.003784   0.022570
    7  N  1  X    0.062468   0.932388   0.215885  -0.498837  -0.088240
    8  N  1  Y    0.173308   0.227846  -0.224652  -0.095567  -0.400684
    9  N  1  Z    0.290362  -0.101165   0.082141   0.056187   0.093724
   10  N  1 XX    0.087895   0.033649  -0.129883   0.099169   0.188026
   11  N  1 YY   -0.000112   0.332331  -0.063410   0.212355  -0.248780
   12  N  1 ZZ   -0.087784  -0.365980   0.193293  -0.311524   0.060754
   13  N  1 XY    0.040929   0.221227  -0.199332  -0.425657   0.150543
   14  N  1 XZ   -0.201137   0.073642   0.022835   0.029993   0.250792
   15  N  1 YZ   -0.127078   0.019697   0.025868  -0.006272  -0.010069
   16  N  2  S    0.003562  -0.012104  -0.005629   0.021217  -0.006591
   17  N  2  S    0.132865  -0.048782   0.101493  -0.522391  -0.264644
   18  N  2  S   -1.127474   0.736677   0.033797   0.841312   0.705374
   19  N  2  X    0.060745   0.068113  -0.010195  -0.262771   0.193673
   20  N  2  Y    0.090818  -0.035650   0.009024   0.170057   0.040813
   21  N  2  Z    0.049920   0.041750  -0.019015   0.013290   0.004987
   22  N  2  X    0.210351  -0.511591   0.190453   0.163665  -0.039282
   23  N  2  Y    0.459419  -0.414904  -0.051135  -0.428481  -0.380287
   24  N  2  Z   -0.121292  -0.023272   0.003911  -0.040137  -0.011303
   25  N  2 XX    0.028956  -0.036187  -0.558614   0.329738   0.145398
   26  N  2 YY   -0.033995   0.176923   0.306042   0.101917   0.206822
   27  N  2 ZZ    0.005038  -0.140737   0.252572  -0.431654  -0.352220
   28  N  2 XY   -0.057928  -0.002519  -0.175390  -0.403018   0.306709
   29  N  2 XZ    0.298593   0.106827  -0.086018  -0.006247  -0.024250
   30  N  2 YZ    0.219811   0.193264  -0.105954   0.037187  -0.064706
   31  O  3  S    0.031394  -0.000292  -0.003460   0.008491   0.049850
   32  O  3  S   -0.846260   0.147639  -0.054260   0.067414  -0.394731
   33  O  3  S    1.796017  -0.629425   0.187139  -0.514888  -0.062076
   34  O  3  X    0.002604  -0.166367   0.027917  -0.088992  -0.273075
   35  O  3  Y   -0.050364   0.002600   0.217728   0.172199  -0.004461
   36  O  3  Z    0.113460   0.018456  -0.022382  -0.059678  -0.102744
   37  O  3  X    0.605296   0.067581   0.037071  -0.210413   0.042969
   38  O  3  Y    0.169039  -0.360522   0.150564  -0.268588  -0.028155
   39  O  3  Z    0.185765  -0.011416  -0.024282   0.040577   0.061855
   40  O  3 XX   -0.032418   0.217949   0.108133   0.087557  -0.088513
   41  O  3 YY    0.008165  -0.230185  -0.108797   0.062963   0.397771
   42  O  3 ZZ    0.024253   0.012236   0.000664  -0.150520  -0.309258
   43  O  3 XY   -0.057519   0.022026  -0.174607  -0.156710   0.052989
   44  O  3 XZ   -0.362719  -0.029310  -0.009608  -0.009131   0.198486
   45  O  3 YZ   -0.014376  -0.121991   0.059671  -0.013370  -0.201894
   46  H  4  S   -0.433016   0.134789   0.128117  -0.146817  -0.220564
   47  H  4  S   -0.106608   0.202975  -0.018739  -0.120120  -0.118287
   48  H  4  X    0.133389   0.295838  -0.349383  -0.164350  -0.409908
   49  H  4  Y   -0.148336   0.261878  -0.180083   0.240256   0.162515
   50  H  4  Z   -0.249151   0.024005  -0.171922   0.019020  -0.072090
   51  H  5  S   -0.214568  -0.503188   0.116028   0.208364   0.122897
   52  H  5  S   -0.059544  -0.076767  -0.092479   0.027685   0.148892
   53  H  5  X   -0.026179  -0.363624  -0.122835   0.219563  -0.308252
   54  H  5  Y   -0.004215   0.448853   0.565820   0.019639   0.118711
   55  H  5  Z   -0.478907   0.177947  -0.172424  -0.082757  -0.306546

                     41         42         43         44         45
                    2.6773     2.7220     2.8254     2.8348     2.9580
                     A          A          A          A          A   
    1  N  1  S   -0.011548  -0.004065  -0.025522  -0.020189   0.015640
    2  N  1  S    0.405871   0.374031   0.275559   0.419871   0.063809
    3  N  1  S   -1.332538  -0.514272  -0.057352  -0.277382  -0.508415
    4  N  1  X    0.217515   0.158188   0.130264   0.109714  -0.037689
    5  N  1  Y    0.026704   0.130722   0.143460   0.169356  -0.083456
    6  N  1  Z   -0.010125  -0.040825   0.001724   0.038584   0.008374
    7  N  1  X    0.524083   0.202760   0.297158   0.354871   0.134021
    8  N  1  Y   -0.438551  -0.302212   0.198045  -0.033182  -0.281985
    9  N  1  Z   -0.043781  -0.179992  -0.139097   0.236905  -0.079389
   10  N  1 XX   -0.120836  -0.096142  -0.276482  -0.227613   0.178307
   11  N  1 YY   -0.143778  -0.238578   0.255534   0.003643  -0.307408
   12  N  1 ZZ    0.264614   0.334720   0.020948   0.223970   0.129101
   13  N  1 XY   -0.092919   0.047726   0.039398   0.133868  -0.072982
   14  N  1 XZ   -0.245597  -0.258208   0.550922   0.111831   0.412580
   15  N  1 YZ    0.051033  -0.454148  -0.328005   0.598569  -0.058865
   16  N  2  S   -0.001604  -0.013058   0.001816  -0.009150  -0.004467
   17  N  2  S   -0.616244   0.242680  -0.072996   0.188683   0.013023
   18  N  2  S    1.921084  -0.177030   0.033101  -0.131868   0.446219
   19  N  2  X    0.103032   0.107875  -0.034207   0.026235   0.066392
   20  N  2  Y    0.049826  -0.123198   0.009369  -0.107003  -0.047020
   21  N  2  Z   -0.007333   0.015370   0.010958  -0.008011  -0.014552
   22  N  2  X    0.085657   0.260876  -0.118515  -0.007345   0.190496
   23  N  2  Y   -0.934121   0.267110  -0.030335   0.232696  -0.107952
   24  N  2  Z   -0.035229   0.058227   0.146232  -0.251753  -0.062180
   25  N  2 XX    0.164781   0.088105   0.047805   0.153420   0.078708
   26  N  2 YY    0.417828  -0.237436   0.071158  -0.283374  -0.144053
   27  N  2 ZZ   -0.582609   0.149331  -0.118964   0.129954   0.065345
   28  N  2 XY    0.304518  -0.052374   0.197541   0.128001  -0.207487
   29  N  2 XZ   -0.050505   0.205727   0.423677  -0.234070   0.517591
   30  N  2 YZ    0.110478  -0.016958  -0.352413   0.414398   0.079296
   31  O  3  S    0.016052   0.019389   0.015044   0.021763  -0.023059
   32  O  3  S   -0.007229  -0.373504  -0.170935  -0.260011   0.228358
   33  O  3  S   -0.618575   0.682086   0.112083   0.317790  -0.148879
   34  O  3  X   -0.138892  -0.105029  -0.121875  -0.146942   0.148253
   35  O  3  Y   -0.306358   0.130002  -0.084282   0.063252  -0.027851
   36  O  3  Z    0.067872  -0.035055  -0.008278  -0.049014   0.003465
   37  O  3  X   -0.113062   0.283170   0.187228   0.240352  -0.147029
   38  O  3  Y    0.027800  -0.081456   0.031863  -0.105749  -0.059320
   39  O  3  Z   -0.089981   0.060572   0.070492   0.072217   0.068897
   40  O  3 XX    0.090524  -0.071583   0.215251   0.221266  -0.058750
   41  O  3 YY    0.045491   0.268451  -0.362903  -0.143901   0.200360
   42  O  3 ZZ   -0.136015  -0.196868   0.147651  -0.077365  -0.141610
   43  O  3 XY    0.151030  -0.165962   0.088592  -0.095719  -0.075537
   44  O  3 XZ   -0.202837  -0.016090   0.214273   0.081977   0.132442
   45  O  3 YZ    0.244721  -0.082917  -0.120644   0.108757   0.678535
   46  H  4  S    0.245454  -0.157687   0.093640   0.093512   0.111909
   47  H  4  S   -0.075852   0.145250   0.093453   0.140128  -0.049554
   48  H  4  X    0.144765   0.137080   0.121366   0.108980   0.180163
   49  H  4  Y   -0.265736   0.502499  -0.091663   0.408245   0.055899
   50  H  4  Z    0.128920  -0.127697  -0.273936  -0.031802   0.391483
   51  H  5  S    0.096258   0.054448  -0.193741  -0.138706   0.117788
   52  H  5  S   -0.093499  -0.083809  -0.144253  -0.130675   0.021160
   53  H  5  X    0.185208   0.172905   0.441957   0.369271  -0.229229
   54  H  5  Y    0.333383   0.287395  -0.003347   0.123660   0.172917
   55  H  5  Z    0.203338   0.501669  -0.179996  -0.413475  -0.197491

                     46         47         48         49         50
                    3.0783     3.1178     3.1469     3.3738     3.4208
                     A          A          A          A          A   
    1  N  1  S    0.037113   0.054523  -0.000349   0.028997   0.023222
    2  N  1  S    0.055634   0.087798  -0.218136  -0.013387   0.081173
    3  N  1  S   -1.114335  -1.842414   0.369536  -0.543667  -0.381509
    4  N  1  X    0.276744  -0.008142   0.004544  -0.275968   0.187616
    5  N  1  Y   -0.159132  -0.311576   0.002213  -0.182670  -0.088690
    6  N  1  Z   -0.002815  -0.018591   0.008032  -0.001421   0.010593
    7  N  1  X    0.359109   0.558600  -0.246419  -0.189957   0.595527
    8  N  1  Y   -0.521284  -0.691365   0.183922  -0.367032   0.070716
    9  N  1  Z    0.029110  -0.044402   0.085876   0.052796  -0.025584
   10  N  1 XX    0.171089  -0.548949  -0.253883  -0.083000  -0.319842
   11  N  1 YY   -0.543085   0.023436   0.371810  -0.223562   0.187382
   12  N  1 ZZ    0.371996   0.525512  -0.117927   0.306562   0.132460
   13  N  1 XY    0.167191   0.613258   0.081049  -0.185613   0.416876
   14  N  1 XZ    0.056659   0.047309  -0.335761  -0.264008   0.069809
   15  N  1 YZ    0.112500  -0.077363  -0.010763  -0.099892   0.059116
   16  N  2  S   -0.031928  -0.073362  -0.004896   0.021014   0.027672
   17  N  2  S   -0.119004  -0.072066  -0.041584  -0.167752  -0.112853
   18  N  2  S    1.482857   2.295390  -0.094106  -0.338875  -0.963196
   19  N  2  X    0.095729   0.020280  -0.088100   0.199765   0.406410
   20  N  2  Y   -0.183003  -0.418431  -0.013652   0.220487   0.169936
   21  N  2  Z   -0.016198  -0.004577  -0.054299  -0.021089   0.011930
   22  N  2  X    0.428790   0.325728  -0.131694   0.274956   0.813248
   23  N  2  Y   -0.593197  -0.958376  -0.115397   0.292295   0.349268
   24  N  2  Z   -0.102005   0.042834  -0.271849  -0.080792   0.014425
   25  N  2 XX    0.265076   0.218270  -0.301068   0.424226  -0.420688
   26  N  2 YY    0.079957   0.363583   0.392777  -0.494490   0.235700
   27  N  2 ZZ   -0.345033  -0.581853  -0.091709   0.070263   0.184989
   28  N  2 XY   -0.483631  -0.326988   0.133026  -0.273883  -0.791320
   29  N  2 XZ   -0.057066  -0.022056   0.299967   0.068450  -0.065463
   30  N  2 YZ    0.155215  -0.095865   0.536236   0.132766  -0.019496
   31  O  3  S   -0.019737   0.012123   0.019458  -0.009400  -0.051265
   32  O  3  S    0.320654   0.182304  -0.099408  -0.405216  -0.595814
   33  O  3  S   -0.570738  -0.939059  -0.157875   1.155783   2.422163
   34  O  3  X    0.114278  -0.088194  -0.121037   0.055890   0.262058
   35  O  3  Y   -0.005686   0.037636   0.028390   0.027808  -0.056866
   36  O  3  Z    0.022178  -0.021939  -0.036733   0.009709   0.096062
   37  O  3  X   -0.379812  -0.345469  -0.089460   0.653336   1.027520
   38  O  3  Y   -0.095809  -0.329566   0.019493   0.168681   0.547985
   39  O  3  Z    0.149807  -0.133185   0.310036   0.166414   0.084140
   40  O  3 XX   -0.401911   0.050631  -0.259628   0.809998   0.205690
   41  O  3 YY   -0.067928  -0.186063   0.079973  -0.524494   0.533284
   42  O  3 ZZ    0.469839   0.135432   0.179655  -0.285504  -0.738974
   43  O  3 XY    0.166752  -0.436246  -0.064483   0.219988   0.336051
   44  O  3 XZ    0.316812  -0.278968   0.624212   0.333393   0.178784
   45  O  3 YZ   -0.283814   0.115601   0.328633   0.018727  -0.201417
   46  H  4  S    0.163017   0.167487  -0.104985  -0.373144  -0.581279
   47  H  4  S   -0.039357  -0.075700  -0.034771  -0.086181   0.222160
   48  H  4  X    0.355826  -0.185468  -0.203755  -0.277304   0.443364
   49  H  4  Y   -0.098797   0.072848  -0.052799  -0.350288  -0.286329
   50  H  4  Z   -0.457234   0.145750  -0.284947  -0.092651   0.187877
   51  H  5  S    0.033077   0.319396   0.024179   0.529487  -0.268317
   52  H  5  S   -0.033177   0.052766   0.048413   0.128130  -0.239207
   53  H  5  X   -0.018087  -0.195232   0.062056  -0.503253   0.247126
   54  H  5  Y    0.279562  -0.351825  -0.276444  -0.138716  -0.116116
   55  H  5  Z   -0.079451  -0.005136   0.166913   0.117336  -0.037185

                     51         52
                    3.8617     3.9225
                     A          A   
    1  N  1  S    0.035629  -0.061760
    2  N  1  S   -0.027761   0.028462
    3  N  1  S   -0.685492   1.157225
    4  N  1  X   -0.138933   0.484024
    5  N  1  Y   -0.114364   0.165633
    6  N  1  Z   -0.013427   0.019197
    7  N  1  X   -0.076610   0.246241
    8  N  1  Y   -0.138230   0.241159
    9  N  1  Z   -0.078202   0.020633
   10  N  1 XX   -0.379119   0.758954
   11  N  1 YY    0.123396  -0.255506
   12  N  1 ZZ    0.255723  -0.503449
   13  N  1 XY   -0.239602   0.911094
   14  N  1 XZ    0.076946  -0.110558
   15  N  1 YZ   -0.012900  -0.080919
   16  N  2  S    0.030301  -0.001861
   17  N  2  S   -0.043256   0.076905
   18  N  2  S   -0.174484  -0.426571
   19  N  2  X    0.159773   0.126945
   20  N  2  Y    0.091417  -0.007781
   21  N  2  Z    0.022149  -0.010034
   22  N  2  X    0.384433   0.101750
   23  N  2  Y   -0.002001   0.152996
   24  N  2  Z    0.063704   0.026225
   25  N  2 XX   -0.212466   0.097721
   26  N  2 YY    0.079244  -0.118006
   27  N  2 ZZ    0.133221   0.020285
   28  N  2 XY   -0.288378  -0.325940
   29  N  2 XZ   -0.019760   0.017703
   30  N  2 YZ   -0.041283  -0.001417
   31  O  3  S    0.040286   0.006922
   32  O  3  S   -0.041403   0.065465
   33  O  3  S   -0.695863  -0.185710
   34  O  3  X   -0.255298  -0.000050
   35  O  3  Y    0.374100   0.191015
   36  O  3  Z   -0.142532  -0.065531
   37  O  3  X   -0.389724  -0.095612
   38  O  3  Y    0.843106   0.382028
   39  O  3  Z   -0.277191  -0.128324
   40  O  3 XX   -0.201708   0.150898
   41  O  3 YY   -0.018322  -0.232836
   42  O  3 ZZ    0.220030   0.081938
   43  O  3 XY    1.070969   0.380923
   44  O  3 XZ   -0.409626  -0.099067
   45  O  3 YZ    0.348679   0.283416
   46  H  4  S    1.477698   0.330368
   47  H  4  S    0.284095   0.073907
   48  H  4  X   -0.514602  -0.796162
   49  H  4  Y    0.889758   0.022720
   50  H  4  Z   -0.422540   0.042251
   51  H  5  S    0.466678  -1.139990
   52  H  5  S    0.040101  -0.219101
   53  H  5  X   -0.324491   0.914323
   54  H  5  Y   -0.257573   0.466233
   55  H  5  Z   -0.021776   0.092640
 ...... END OF RHF CALCULATION ......
 STEP CPU TIME =     0.44 TOTAL CPU TIME =          0.7 (      0.0 MIN)
 TOTAL WALL CLOCK TIME=          1.1 SECONDS, CPU UTILIZATION IS    61.11%

     ----------------------------------------------------------------
     PROPERTY VALUES FOR THE RHF   SELF-CONSISTENT FIELD WAVEFUNCTION
     ----------------------------------------------------------------

          -----------------
          ENERGY COMPONENTS
          -----------------

         WAVEFUNCTION NORMALIZATION =       1.0000000000

                ONE ELECTRON ENERGY =    -399.0355461516
                TWO ELECTRON ENERGY =     140.1877199866
           NUCLEAR REPULSION ENERGY =      74.1740447013
                                      ------------------
                       TOTAL ENERGY =    -184.6737814637

 ELECTRON-ELECTRON POTENTIAL ENERGY =     140.1877199866
  NUCLEUS-ELECTRON POTENTIAL ENERGY =    -584.2270216112
   NUCLEUS-NUCLEUS POTENTIAL ENERGY =      74.1740447013
                                      ------------------
             TOTAL POTENTIAL ENERGY =    -369.8652569232
               TOTAL KINETIC ENERGY =     185.1914754596
                 VIRIAL RATIO (V/T) =       1.9972045474

          ---------------------------------------
          MULLIKEN AND LOWDIN POPULATION ANALYSES
          ---------------------------------------

     ATOMIC MULLIKEN POPULATION IN EACH MOLECULAR ORBITAL

                      1          2          3          4          5

                  2.000000   2.000000   2.000000   2.000000   2.000000

    1             0.000034   0.000526   1.999654   0.182448   0.869586
    2             0.000669   1.999476   0.000274   0.680880   0.461777
    3             1.999293  -0.000083   0.000008   1.023600   0.526471
    4             0.000002   0.000058   0.000099   0.111739   0.023457
    5             0.000003   0.000022  -0.000036   0.001334   0.118709

                      6          7          8          9         10

                  2.000000   2.000000   2.000000   2.000000   2.000000

    1             0.433475   0.632081   0.280003   0.414043   0.418472
    2             0.753378   0.196257   0.736191   0.671079   1.018885
    3             0.532540   0.713353   0.929704   0.874758   0.395460
    4             0.205366   0.132163   0.053056   0.009188   0.151464
    5             0.075241   0.326147   0.001046   0.030932   0.015719

                     11         12

                  2.000000   2.000000

    1             1.064099   1.040243
    2             0.060015   0.230349
    3             0.608023   0.715977
    4             0.036349   0.002052
    5             0.231514   0.011378

               ----- POPULATIONS IN EACH AO -----
                             MULLIKEN      LOWDIN
              1  N  1  S      1.99649     1.97335
              2  N  1  S      0.88808     0.56365
              3  N  1  S      0.80041     0.42581
              4  N  1  X      0.74220     0.68244
              5  N  1  Y      0.81240     0.77279
              6  N  1  Z      0.71477     0.68642
              7  N  1  X      0.28977     0.40006
              8  N  1  Y      0.44822     0.54283
              9  N  1  Z      0.59992     0.60246
             10  N  1 XX      0.00473     0.19953
             11  N  1 YY      0.00692     0.19385
             12  N  1 ZZ      0.02109     0.17966
             13  N  1 XY      0.00351     0.03632
             14  N  1 XZ      0.00614     0.00525
             15  N  1 YZ      0.00000     0.00635
             16  N  2  S      1.99670     1.97349
             17  N  2  S      0.94333     0.57961
             18  N  2  S      0.80778     0.43552
             19  N  2  X      0.71856     0.66968
             20  N  2  Y      0.95077     0.90521
             21  N  2  Z      0.44624     0.40637
             22  N  2  X      0.15210     0.29750
             23  N  2  Y      0.35896     0.48572
             24  N  2  Z      0.34785     0.39139
             25  N  2 XX      0.00866     0.19960
             26  N  2 YY      0.01344     0.20033
             27  N  2 ZZ      0.03630     0.17542
             28  N  2 XY      0.01569     0.05255
             29  N  2 XZ      0.01285     0.02933
             30  N  2 YZ      0.00000     0.01558
             31  O  3  S      1.99633     1.97218
             32  O  3  S      0.91236     0.64683
             33  O  3  S      0.87867     0.45948
             34  O  3  X      1.02143     0.97416
             35  O  3  Y      0.80659     0.75261
             36  O  3  Z      1.09896     1.06497
             37  O  3  X      0.48417     0.56340
             38  O  3  Y      0.39844     0.47766
             39  O  3  Z      0.68759     0.69547
             40  O  3 XX      0.00411     0.18924
             41  O  3 YY      0.00549     0.19249
             42  O  3 ZZ      0.01768     0.18271
             43  O  3 XY      0.00540     0.02735
             44  O  3 XZ      0.00187     0.00774
             45  O  3 YZ      0.00000     0.00349
             46  H  4  S      0.61989     0.48565
             47  H  4  S      0.02816     0.18332
             48  H  4  X      0.03719     0.09927
             49  H  4  Y      0.02657     0.04575
             50  H  4  Z      0.01318     0.03033
             51  H  5  S      0.72978     0.60793
             52  H  5  S      0.04724     0.17687
             53  H  5  X      0.02017     0.03414
             54  H  5  Y      0.00852     0.01969
             55  H  5  Z      0.00629     0.01922

          ----- MULLIKEN ATOMIC OVERLAP POPULATIONS -----
          (OFF-DIAGONAL ELEMENTS NEED TO BE MULTIPLIED BY 2)

             1           2           3           4           5

    1    6.9567010
    2    0.3767108   6.3532695
    3   -0.3741687   0.1634556   8.1549862
    4    0.0227263  -0.0507113   0.3627462   0.3887435
    5    0.3526950  -0.0334957   0.0120858   0.0014869   0.4792381

          TOTAL MULLIKEN AND LOWDIN ATOMIC POPULATIONS
       ATOM         MULL.POP.    CHARGE          LOW.POP.     CHARGE
    1 N             7.334664   -0.334664         7.270758   -0.270758
    2 N             6.809229    0.190771         6.817292    0.182708
    3 O             8.319105   -0.319105         8.209776   -0.209776
    4 H             0.724992    0.275008         0.844321    0.155679
    5 H             0.812010    0.187990         0.857853    0.142147

          MULLIKEN SPHERICAL HARMONIC POPULATIONS
       ATOM           S       P       D      F      G      H      I    TOTAL
    1 N             3.68    3.61    0.04   0.00   0.00   0.00   0.00    7.33
    2 N             3.75    2.97    0.09   0.00   0.00   0.00   0.00    6.81
    3 O             3.79    4.50    0.03   0.00   0.00   0.00   0.00    8.32
    4 H             0.65    0.08    0.00   0.00   0.00   0.00   0.00    0.72
    5 H             0.78    0.03    0.00   0.00   0.00   0.00   0.00    0.81

          -------------------------------
          BOND ORDER AND VALENCE ANALYSIS     BOND ORDER THRESHOLD=0.050
          -------------------------------

                   BOND                       BOND                       BOND
  ATOM PAIR DIST  ORDER      ATOM PAIR DIST  ORDER      ATOM PAIR DIST  ORDER
    1   2  1.350  1.708        1   4  1.405  0.127        1   5  1.038  0.948
    2   3  1.300  1.063        3   4  1.000  0.850

                       TOTAL       BONDED        FREE
      ATOM            VALENCE     VALENCE     VALENCE
    1 N                 2.757       2.757       0.000
    2 N                 2.808       2.808       0.000
    3 O                 1.904       1.904      -0.000
    4 H                 1.014       1.014       0.000
    5 H                 0.970       0.970       0.000

          ---------------------
          ELECTROSTATIC MOMENTS
          ---------------------

 POINT   1           X           Y           Z (BOHR)    CHARGE
                 0.000000   -0.000000    0.000000        0.00 (A.U.)
         DX          DY          DZ         /D/  (DEBYE)
     1.803497    0.041143    0.587808    1.897317
 ...... END OF PROPERTY EVALUATION ......
 STEP CPU TIME =     0.00 TOTAL CPU TIME =          0.7 (      0.0 MIN)
 TOTAL WALL CLOCK TIME=          1.1 SECONDS, CPU UTILIZATION IS    57.89%

     ---------------------------------------------
     1ST AND 2ND INTEGRAL DERIVATIVE CONTRIBUTIONS
     ---------------------------------------------
 ...... END OF 1-ELECTRON GRAD+HESS+FOCKDER ......
 STEP CPU TIME =     0.05 TOTAL CPU TIME =          0.7 (      0.0 MIN)
 TOTAL WALL CLOCK TIME=          1.2 SECONDS, CPU UTILIZATION IS    59.66%

     ----------------------------------------------
     TWO ELECTRON INTEGRAL DERIVATIVE CONTRIBUTIONS
     ----------------------------------------------

      43520 WORDS REQUIRED,   1000000 WORDS AVAILABLE
 THE COARSE/FINE SCHWARZ SCREENINGS SKIPPED          0/         0 BLOCKS.
 THE NUMBER OF DERIVATIVE INTEGRAL BLOCKS COMPUTED WAS     44415
 STEP CPU TIME =     3.18 TOTAL CPU TIME =          3.9 (      0.1 MIN)
 TOTAL WALL CLOCK TIME=          4.4 SECONDS, CPU UTILIZATION IS    88.61%
 ...... END OF 2-ELECTRON GRAD+HESS+FOCKDER ......
 STEP CPU TIME =     0.00 TOTAL CPU TIME =          3.9 (      0.1 MIN)
 TOTAL WALL CLOCK TIME=          4.4 SECONDS, CPU UTILIZATION IS    88.41%

     -------------------------------------------
     COUPLED-PERTURBED CLOSED SHELL HARTREE-FOCK
     -------------------------------------------
 THE CPHF HAS     480 INDEPENDENT ORBITAL ROTATIONS.
 SOLVING FOR   15 NUCLEAR RESPONSES AND 0 ELECTRIC FIELD RESPONSES
           -FA- WILL USE     15925 WORDS,
           -TA- WILL USE     52865 WORDS,
          -FCK- WILL USE     96632 WORDS,
 -WXY- AND -YA- WILL USE    122132 WORDS,
               THERE ARE   1000000 WORDS OF REPLICATED MEMORY AVAILABLE.
        TIME FOR -FA-   =        0.000
        TIME FOR -TA-   =        0.010
        TIME FOR -FCK-  =        0.050
 PRECONDITIONED CONJUGATE GRADIENT SOLVER     CONV. TOLERANCE=5.00E-05
 ITER    RESPONSE ERROR        IMPROVED
   1       3.58553E-01            15
   2       2.46569E-01            15
   3       9.59997E-02            15
   4       5.89876E-02            15
   5       1.66904E-02            15
   6       8.09302E-03            15
   7       2.51133E-03            15
   8       7.74548E-04            15
   9       2.72007E-04            15
  10       7.65831E-05            15
  11       2.54919E-05            10
 THE CPHF HAS CONVERGED AFTER 11 ITERATIONS.
 IT REQUIRED   160 FOCK-LIKE BUILDS TO FIND THE  15 SYMMETRY UNIQUE RESPONSES.
        TIME FOR -YA-   =        0.610
 ...... DONE WITH CPHF CONTRIBUTIONS ......
 STEP CPU TIME =     0.67 TOTAL CPU TIME =          4.6 (      0.1 MIN)
 TOTAL WALL CLOCK TIME=          5.1 SECONDS, CPU UTILIZATION IS    89.59%

          ---------------
          ENERGY GRADIENT
          ---------------

 UNITS ARE HARTREE/BOHR    E'X               E'Y               E'Z 
    1 N               -0.069315219      -0.190652238      -0.012181149
    2 N               -0.103143092       0.173029768       0.030761951
    3 O                0.103524430      -0.027353393      -0.037445943
    4 H                0.057962673       0.025042620       0.020404192
    5 H                0.010971208       0.019933243      -0.001539051

          -------------------------------
          CARTESIAN FORCE CONSTANT MATRIX
          -------------------------------

                                   1                          2
                               N                          N         
                          X        Y        Z        X        Y        Z
  1   N            X 0.831017 0.146126 0.000707-0.142106 0.028885-0.001061
                   Y 0.146126 0.345386-0.004820-0.001742-0.253561-0.007446
                   Z 0.000707-0.004820 0.095760 0.011966 0.012169-0.084695
  2   N            X-0.142106-0.001742 0.011966 0.322176 0.095764-0.017431
                   Y 0.028885-0.253561 0.012169 0.095764 0.566430-0.030168
                   Z-0.001061-0.007446-0.084695-0.017431-0.030168 0.130983
  3   O            X-0.364084-0.041246 0.003922-0.234977-0.075762 0.000367
                   Y 0.022208 0.107545-0.025339-0.085289-0.220796 0.018158
                   Z-0.002605-0.001716 0.048034 0.007079 0.013517-0.066188
  4   H            X-0.031984 0.002654-0.011256 0.086741-0.022043 0.019119
                   Y-0.025739-0.024318 0.016967-0.034005-0.107676 0.019159
                   Z 0.009981 0.011272-0.011756-0.009266 0.005219 0.032432
  5   H            X-0.292843-0.105793-0.005338-0.031836-0.026845-0.000995
                   Y-0.171479-0.175051 0.001023 0.025272 0.015603 0.000297
                   Z-0.007021 0.002710-0.047343 0.007650-0.000738-0.012533

                                   3                          4
                               O                          H         
                          X        Y        Z        X        Y        Z
  3   O            X 0.770179-0.005025 0.054142-0.156263 0.118953-0.053874
                   Y-0.005025 0.268918-0.076765 0.067292-0.173274 0.086367
                   Z 0.054142-0.076765 0.082625-0.060899 0.065816-0.087689
  4   H            X-0.156263 0.067292-0.060899 0.108251-0.064739 0.055202
                   Y 0.118953-0.173274 0.065816-0.064739 0.305625-0.099231
                   Z-0.053874 0.086367-0.087689 0.055202-0.099231 0.068806
  5   H            X-0.014854 0.000816 0.002283-0.006745 0.005531-0.002042
                   Y 0.003080 0.017607-0.000852 0.016835-0.000358-0.003627
                   Z-0.004556-0.002421 0.023219-0.002166-0.002711-0.001793

                                   5
                               H         
                          X        Y        Z
  5   H            X 0.346278 0.126292 0.006093
                   Y 0.126292 0.142199 0.003159
                   Z 0.006093 0.003159 0.038451

          ------------------------          ----------------
          DIPOLE DERIVATIVE TENSOR          (DEBYE/ANGSTROM)
          ------------------------          ----------------

        ATOM                 MU-X           MU-Y           MU-Z
     N          D/DX    -2.976237132    0.627773883    0.082778560
                D/DY     3.311332729   -1.776574679   -0.051186699
                D/DZ     0.384338989    0.170272178   -2.071226630
     N          D/DX     6.928856672   -1.117195352   -0.263464850
                D/DY     1.557926729    0.517159768    0.115407832
                D/DZ     0.131568918   -0.108219092    0.461936692
     O          D/DX    -6.202519889    0.216095360    0.187782297
                D/DY    -4.036603421   -1.253481002    0.238678516
                D/DZ    -0.245237479    0.112258151   -1.635263298
     H          D/DX     1.736132297    0.499921641   -0.004089311
                D/DY    -0.030676315    1.799118096   -0.275676208
                D/DZ    -0.054943298   -0.181176620    1.777187365
     H          D/DX     0.513705563   -0.226647434   -0.003039904
                D/DY    -0.802044900    0.713792024   -0.027242442
                D/DZ    -0.215690406    0.006883360    1.467383420

          --------------------------------------------------------
          NORMAL COORDINATE ANALYSIS IN THE HARMONIC APPROXIMATION
          --------------------------------------------------------

     *******************************************************
     * THIS IS NOT A STATIONARY POINT ON THE MOLECULAR PES *
     *     THE VIBRATIONAL ANALYSIS IS NOT VALID !!!       *
     *******************************************************

          ATOMIC WEIGHTS (AMU)

    1     N                14.00307
    2     N                14.00307
    3     O                15.99491
    4     H                 1.00782
    5     H                 1.00782

 MODES    1 TO    6 ARE TAKEN AS ROTATIONS AND TRANSLATIONS.

 ANALYZING SYMMETRY OF NORMAL MODES...

     FREQUENCIES IN CM**-1, IR INTENSITIES IN DEBYE**2/AMU-ANGSTROM**2,
     REDUCED MASSES IN AMU.

     *******************************************************
     * THIS IS NOT A STATIONARY POINT ON THE MOLECULAR PES *
     *     THE VIBRATIONAL ANALYSIS IS NOT VALID !!!       *
     *******************************************************

                            1           2           3           4           5
       FREQUENCY:       394.12      185.10        0.01        0.00        0.00  
        SYMMETRY:         A           A           A           A           A   
    REDUCED MASS:      3.72171     6.46704     9.20341     9.20328     9.20334
    IR INTENSITY:      0.06377     0.22435     0.00000     0.00000     0.00000

  1   N            X -0.00495479 -0.02552655  0.10427838 -0.03883634 -0.09668822
                   Y  0.00799660 -0.16533242  0.09051577 -0.03399803  0.11128376
                   Z -0.13352486  0.00365758  0.05161193  0.13808452  0.00020200
  2   N            X  0.02501129  0.06764653  0.10428043 -0.03883385 -0.09669484
                   Y -0.00493613 -0.00730794  0.09051651 -0.03399648  0.11127644
                   Z -0.06825873 -0.00951160  0.05161463  0.13808510  0.00020191
  3   O            X -0.01070509 -0.03150631  0.10427823 -0.03883683 -0.09668762
                   Y -0.00997419  0.16414272  0.09051721 -0.03399380  0.11126736
                   Z  0.16823114  0.00438118  0.05161286  0.13808350  0.00020252
  4   H            X -0.09377973 -0.11366835  0.10427586 -0.03884148 -0.09667780
                   Y  0.07433820  0.06840031  0.09051688 -0.03399510  0.11127180
                   Z  0.37649092 -0.00291786  0.05161331  0.13808620  0.00019797
  5   H            X -0.01500595  0.02823322  0.10427885 -0.03883581 -0.09669047
                   Y  0.04143313 -0.27447649  0.09051496 -0.03399873  0.11128811
                   Z -0.24278252  0.01461871  0.05161223  0.13808313  0.00020092

 TRANS. SAYVETZ    X -0.00001125 -0.00023516  4.79857129 -1.78709781 -4.44934769
                   Y -0.00000305  0.00026422  4.16527066 -1.56438542  5.12053889
                   Z  0.00000674 -0.00010532  2.37506503  6.35418599  0.00929732
               TOTAL  0.00001347  0.00036906  6.78356101  6.78356101  6.78356100

   ROT. SAYVETZ    X -2.05098453 -0.22650355  0.00003760  0.00001416  0.00000183
                   Y  9.10658561 -0.02740047  0.00002445 -0.00002463  0.00001918
                   Z -0.13081065-11.57620495 -0.00008516 -0.00017892  0.00061983
               TOTAL  9.33560659 11.57845308  0.00009624  0.00018116  0.00062013

                            6           7           8           9          10
       FREQUENCY:       420.99      560.14      968.73     1083.36     1128.35  
        SYMMETRY:         A           A           A           A           A   
    REDUCED MASS:      1.97428     5.18961     1.91895     1.40299     3.14414
    IR INTENSITY:      0.93413     0.53515     3.73939     1.22865     4.61595

  1   N            X -0.01856202 -0.02396814  0.01907343  0.03316946  0.15960048
                   Y  0.03852788  0.03697773 -0.07076286  0.03820973 -0.02775107
                   Z  0.10671498 -0.10486494 -0.07085837 -0.06480213  0.01146238
  2   N            X  0.09678253  0.10367584 -0.06769175  0.00097242 -0.11717904
                   Y -0.02761807 -0.03096250  0.10906661 -0.09925484 -0.07283693
                   Z -0.08916129  0.17682706  0.05948696 -0.02194099  0.02602908
  3   O            X -0.04113150 -0.04714842  0.03935792 -0.02324139 -0.02515789
                   Y -0.02409838 -0.00796455 -0.03779235  0.04513434  0.06277835
                   Z -0.05703862 -0.05474800 -0.04833787  0.03734522 -0.02828406
  4   H            X -0.38345713 -0.31794559  0.01075077 -0.04135219 -0.17344908
                   Y  0.11043758 -0.04568781  0.19194399 -0.06273504  0.05766808
                   Z  0.52393144  0.00585249  0.50383005 -0.17145438  0.20088145
  5   H            X -0.05060240 -0.04132682  0.04012303 -0.06417190 -0.01668629
                   Y  0.12048368  0.08852510 -0.12436030  0.19460427  0.34360764
                   Z  0.13738785 -0.13689270  0.42132751  0.78400615 -0.27291466

 TRANS. SAYVETZ    X -0.00002344 -0.00006579 -0.00000749 -0.00000268  0.00000903
                   Y  0.00004772  0.00001193 -0.00000264  0.00000197  0.00000902
                   Z -0.00002789 -0.00006436  0.00000235  0.00000847 -0.00000234
               TOTAL  0.00006003  0.00009281  0.00000828  0.00000910  0.00001297

   ROT. SAYVETZ    X -2.98232510  4.35255668  1.02491593  0.57768398  0.13048972
                   Y -4.58787190  1.40001577 -0.87933317 -0.21459548 -0.21505248
                   Z -0.80406265 -1.42187930  0.41844938  0.41861276  1.61350392
               TOTAL  5.53076381  4.78816609  1.41378194  0.74498768  1.63299419

                           11          12          13          14          15
       FREQUENCY:      1328.61     1598.89     1781.35     3169.57     3379.58  
        SYMMETRY:         A           A           A           A           A   
    REDUCED MASS:      6.60572     1.44936     1.17449     1.05351     1.07871
    IR INTENSITY:      1.82681     2.03939     4.00443     3.41134     0.13760

  1   N            X -0.12510223 -0.03316996 -0.01892744  0.00441238 -0.06341948
                   Y  0.03040235 -0.09733569 -0.02898363  0.00019058 -0.03087475
                   Z -0.00581606  0.00675817 -0.00151000  0.00461079 -0.00029374
  2   N            X -0.04718185  0.01649197  0.05841821 -0.01148950 -0.00255553
                   Y -0.10944794  0.08931142 -0.02389758 -0.01691904 -0.00415512
                   Z  0.02186834 -0.01520887  0.01751417 -0.00036133 -0.00008574
  3   O            X  0.15709270  0.05471275 -0.06554948  0.03231225  0.00570799
                   Y  0.06425144 -0.02074530  0.00063223 -0.03357030 -0.00340099
                   Z -0.02459007  0.01847822 -0.02024204  0.01800821  0.00242797
  4   H            X  0.04909915 -0.25133368  0.71426773 -0.30379814 -0.02649411
                   Y  0.02293949 -0.17965118  0.36755103  0.84834647  0.11969430
                   Z  0.23952330 -0.19487122  0.13293761 -0.33922486 -0.05024786
  5   H            X -0.14849553 -0.38527004 -0.22264774 -0.11068994  0.85258377
                   Y  0.05563420  0.62038948  0.35715966 -0.08313104  0.42099906
                   Z -0.07229431  0.01902540 -0.03404908 -0.00562182  0.01698653

 TRANS. SAYVETZ    X  0.00000342 -0.00000270  0.00000110 -0.00000130  0.00000004
                   Y  0.00000357  0.00000347 -0.00000516 -0.00000039 -0.00000003
                   Z  0.00000276 -0.00000017  0.00000020  0.00000011 -0.00000038
               TOTAL  0.00000567  0.00000440  0.00000528  0.00000136  0.00000038

   ROT. SAYVETZ    X  0.23774894 -0.09318124 -0.00018535 -0.07420664 -0.00720801
                   Y -0.19867468  0.02483620  0.13210683  0.02761484  0.00248217
                   Z  0.12145676 -0.01991384  0.00668422  0.15793703 -0.03250599
               TOTAL  0.33278812  0.09846899  0.13227595  0.17667289  0.03338796

 REFERENCE ON SAYVETZ CONDITIONS - A. SAYVETZ, J.CHEM.PHYS., 7, 383-389(1939).

 NOTE - THE MODES J,K ARE ORTHONORMALIZED ACCORDING TO
 SUM ON I   M(I) * (X(I,J)*X(I,K) + Y(I,J)*Y(I,K) + Z(I,J)*Z(I,K)) = DELTA(J,K)

  MODE FREQ(CM**-1)  SYMMETRY  RED. MASS  IR INTENS.
     1     394.121    A        3.721708    0.063767
     2     185.098    A        6.467043    0.224347
     3       0.008    A        9.203413    0.000000
     4       0.004    A        9.203279    0.000000
     5       0.004    A        9.203336    0.000000
     6     420.991    A        1.974277    0.934125
     7     560.140    A        5.189612    0.535151
     8     968.726    A        1.918954    3.739386
     9    1083.361    A        1.402993    1.228650
    10    1128.351    A        3.144139    4.615949
    11    1328.612    A        6.605725    1.826808
    12    1598.889    A        1.449357    2.039390
    13    1781.354    A        1.174485    4.004434
    14    3169.566    A        1.053510    3.411339
    15    3379.581    A        1.078713    0.137596

     -------------------------------
     THERMOCHEMISTRY AT T=  298.15 K
     -------------------------------

 USING IDEAL GAS, RIGID ROTOR, HARMONIC NORMAL MODE APPROXIMATIONS.
 P=  1.01325E+05 PASCAL.
 ALL FREQUENCIES ARE SCALED BY   1.00000
 THE MOMENTS OF INERTIA ARE (IN AMU*BOHR**2)
     33.56882   106.86310   139.68882
 THE ROTATIONAL SYMMETRY NUMBER IS  1.0
 THE ROTATIONAL CONSTANTS ARE (IN GHZ)
     53.71319    16.87288    12.90789
      7 -     15 VIBRATIONAL MODES ARE USED IN THERMOCHEMISTRY.
 THE HARMONIC ZERO POINT ENERGY IS (SCALED BY   1.000)
        0.034169 HARTREE/MOLECULE     7499.289424 CM**-1/MOLECULE 
       21.441566 KCAL/MOL               89.711512 KJ/MOL

               Q               LN Q
 ELEC.     1.00000E+00       0.000000
 TRANS.    1.22695E+07      16.322627
 ROT.      8.01317E+03       8.988841
 VIB.      1.09494E+00       0.090701
 TOT.      1.07652E+11      25.402169

              E         H         G         CV        CP        S
           KJ/MOL    KJ/MOL    KJ/MOL   J/MOL-K   J/MOL-K   J/MOL-K
 ELEC.      0.000     0.000     0.000     0.000     0.000     0.000
 TRANS.     3.718     6.197   -40.463    12.472    20.786   156.499
 ROT.       3.718     3.718   -22.283    12.472    12.472    87.209
 VIB.      90.469    90.469    89.487     9.607     9.607     3.294
 TOTAL     97.906   100.385    26.741    34.550    42.864   247.002
 VIB. THERMAL CORRECTION E(T)-E(0) = H(T)-H(0) =   757.349 J/MOL

              E         H         G         CV        CP        S
         KCAL/MOL  KCAL/MOL  KCAL/MOL CAL/MOL-K CAL/MOL-K CAL/MOL-K
 ELEC.      0.000     0.000     0.000     0.000     0.000     0.000
 TRANS.     0.889     1.481    -9.671     2.981     4.968    37.404
 ROT.       0.889     0.889    -5.326     2.981     2.981    20.843
 VIB.      21.623    21.623    21.388     2.296     2.296     0.787
 TOTAL     23.400    23.993     6.391     8.258    10.245    59.035
 VIB. THERMAL CORRECTION E(T)-E(0) = H(T)-H(0) =   181.011 CAL/MOL

     *******************************************************
     * THIS IS NOT A STATIONARY POINT ON THE MOLECULAR PES *
     *     THE VIBRATIONAL ANALYSIS IS NOT VALID !!!       *
     *******************************************************
 ......END OF NORMAL COORDINATE ANALYSIS......
 STEP CPU TIME =     0.00 TOTAL CPU TIME =          4.6 (      0.1 MIN)
 TOTAL WALL CLOCK TIME=          5.1 SECONDS, CPU UTILIZATION IS    89.41%
                580000  WORDS OF DYNAMIC MEMORY USED
 EXECUTION OF GAMESS TERMINATED NORMALLY Mon Oct  7 08:08:52 2019
 DDI: 263640 bytes (0.3 MB / 0 MWords) used by master data server.

 ----------------------------------------
 CPU timing information for all processes
 ========================================
 0: 4.420 + 0.166 = 4.586
 ----------------------------------------
 ddikick.x: exited gracefully.
----- accounting info -----
Files used on the master node d12chas540.crc.nd.edu were:
-rw-r--r-- 1 wschnei1 campus 57137 Oct  7 08:08 /scratch365/wschnei1/ts-guess1-vib.F07
Mon Oct  7 08:08:56 EDT 2019
0.479u 0.440s 0:09.09 10.0%	0+0k 64+136io 1pf+0w
