----- GAMESS execution script 'rungms' -----
This job is running on host d12chas536.crc.nd.edu
under operating system Linux at Mon Oct 7 08:39:22 EDT 2019
SGE has assigned the following compute nodes to this run:
Available scratch disk space (Kbyte units) at beginning of the job is
Filesystem      1K-blocks     Used  Available Use% Mounted on
/dev/sda2      1949705068 72180888 1877524180   4% /
GAMESS temporary binary files will be written to /tmp/474290.1.debug
GAMESS supplementary output files will be written to /afs/crc.nd.edu/user/w/wschnei1/scr
Copying input file ts-search1.inp to your run's scratch directory...
reading your own /afs/crc.nd.edu/user/w/wschnei1/.gmsrc

 Distributed Data Interface kickoff program.
 Initiating 1 compute processes on 1 nodes to run the following command:
 /afs/crc.nd.edu/x86_64_linux/g/gamess/nov-2017/gamess/gamess.00.x ts-search1 

          ******************************************************
          *         GAMESS VERSION = 11 NOV 2017 (R3)         *
          *             FROM IOWA STATE UNIVERSITY             *
          * M.W.SCHMIDT, K.K.BALDRIDGE, J.A.BOATZ, S.T.ELBERT, *
          *   M.S.GORDON, J.H.JENSEN, S.KOSEKI, N.MATSUNAGA,   *
          *          K.A.NGUYEN, S.J.SU, T.L.WINDUS,           *
          *       TOGETHER WITH M.DUPUIS, J.A.MONTGOMERY       *
          *         J.COMPUT.CHEM.  14, 1347-1363(1993)        *
          **************** 64 BIT INTEL VERSION ****************

  SINCE 1993, STUDENTS AND POSTDOCS WORKING AT IOWA STATE UNIVERSITY
  AND ALSO IN THEIR VARIOUS JOBS AFTER LEAVING ISU HAVE MADE IMPORTANT
  CONTRIBUTIONS TO THE CODE:
     IVANA ADAMOVIC, CHRISTINE AIKENS, YURI ALEXEEV, POOJA ARORA,
     ANDREY ASADCHEV, ROB BELL, PRADIPTA BANDYOPADHYAY, JONATHAN BENTZ,
     BRETT BODE, KURT BRORSEN, CALEB CARLIN, GALINA CHABAN, WEI CHEN,
     CHEOL HO CHOI, PAUL DAY, ALBERT DEFUSCO, NUWAN DESILVA, TIM DUDLEY,
     DMITRI FEDOROV, ALEX FINDLATER, GRAHAM FLETCHER, MARK FREITAG,
     KURT GLAESEMANN, ANASTASIA GUININA,
     DAN KEMP, GRANT MERRILL, NORIYUKI MINEZAWA, JONATHAN MULLIN,
     TAKESHI NAGATA, SEAN NEDD, HEATHER NETZLOFF, BOSILJKA NJEGIC, RYAN OLSON,
     MIKE PAK, BUU PHAM,
     SPENCER PRUITT, LUKE ROSKOP, JIM SHOEMAKER, LYUDMILA SLIPCHENKO,
     TONY SMITH, SAROM SOK LEANG, JIE SONG, TETSUYA TAKETSUGU, SIMON WEBB,
     PENG XU, SOOHAENG YOO, FEDERICO ZAHARIEV

  ADDITIONAL CODE HAS BEEN PROVIDED BY COLLABORATORS IN OTHER GROUPS:
     IOWA STATE UNIVERSITY:
          JOE IVANIC, AARON WEST, LAIMUTIS BYTAUTAS, KLAUS RUEDENBERG
     UNIVERSITY OF TOKYO: KIMIHIKO HIRAO, TAKAHITO NAKAJIMA,
          TAKAO TSUNEDA, MUNEAKI KAMIYA, SUSUMU YANAGISAWA,
          KIYOSHI YAGI, MAHITO CHIBA, SEIKEN TOKURA, NAOAKI KAWAKAMI
     UNIVERSITY OF AARHUS: FRANK JENSEN
     UNIVERSITY OF IOWA: VISVALDAS KAIRYS, HUI LI
     NATIONAL INST. OF STANDARDS AND TECHNOLOGY: WALT STEVENS, DAVID GARMER
     UNIVERSITY OF PISA: BENEDETTA MENNUCCI, JACOPO TOMASI
     UNIVERSITY OF MEMPHIS: HENRY KURTZ, PRAKASHAN KORAMBATH
     UNIVERSITY OF ALBERTA: TOBY ZENG, MARIUSZ KLOBUKOWSKI
     UNIVERSITY OF NEW ENGLAND: MARK SPACKMAN
     MIE UNIVERSITY: HIROAKI UMEDA
     NAT. INST. OF ADVANCED INDUSTRIAL SCIENCE AND TECHNOLOGY: KAZUO KITAURA
     MICHIGAN STATE UNIVERSITY:
          KAROL KOWALSKI, MARTA WLOCH, JEFFREY GOUR, JESSE LUTZ,
          WEI LI, PIOTR PIECUCH
     UNIVERSITY OF SILESIA: MONIKA MUSIAL, STANISLAW KUCHARSKI
     FACULTES UNIVERSITAIRES NOTRE-DAME DE LA PAIX:
          OLIVIER QUINET, BENOIT CHAMPAGNE
     UNIVERSITY OF CALIFORNIA - SANTA BARBARA: BERNARD KIRTMAN
     INSTITUTE FOR MOLECULAR SCIENCE:
          KAZUYA ISHIMURA, MICHIO KATOUDA, AND SHIGERU NAGASE
     UNIVERSITY OF NOTRE DAME: ANNA POMOGAEVA, DAN CHIPMAN
     KYUSHU UNIVERSITY:
          HARUYUKI NAKANO,
          FENG LONG GU, JACEK KORCHOWIEC, MARCIN MAKOWSKI, AND YURIKO AOKI,
          HIROTOSHI MORI AND EISAKU MIYOSHI
     PENNSYLVANIA STATE UNIVERSITY:
          TZVETELIN IORDANOV, CHET SWALINA, JONATHAN SKONE,
          SHARON HAMMES-SCHIFFER
     WASEDA UNIVERSITY:
          MASATO KOBAYASHI, TOMOKO AKAMA, TSUGUKI TOUMA,
          TAKESHI YOSHIKAWA, YASUHIRO IKABATA, JUNJI SEINO,
          YUYA NAKAJIMA, HIROMI NAKAI
     NANJING UNIVERSITY: SHUHUA LI
     UNIVERSITY OF NEBRASKA:
          PEIFENG SU, DEJUN SI, NANDUN THELLAMUREGE, YALI WANG, HUI LI
     UNIVERSITY OF ZURICH: ROBERTO PEVERATI, KIM BALDRIDGE
     N. COPERNICUS UNIVERSITY AND JACKSON STATE UNIVERSITY:
          MARIA BARYSZ
     UNIVERSITY OF COPENHAGEN: Jimmy Kromann, CASPER STEINMANN
     TOKYO INSTITUTE OF TECHNOLOGY: HIROYA NAKATA
     NAGOYA UNIVERSITY: YOSHIO NISHIMOTO, STEPHAN IRLE
     MOSCOW STATE UNIVERSITY: VLADIMIR MIRONOV

 EXECUTION OF GAMESS BEGUN Mon Oct  7 08:39:23 2019

            ECHO OF THE FIRST FEW INPUT CARDS -
 INPUT CARD> $CONTRL SCFTYP=RHF DFTTYP=PBE RUNTYP=SADPOINT COORD=CART ISPHER=1 $END         
 INPUT CARD> $BASIS GBASIS=PCseg-1 $END                                                     
 INPUT CARD> $FORCE HESS=READ $END                                                          
 INPUT CARD> $DATA                                                                          
 INPUT CARD>H2ON2                                                                           
 INPUT CARD>C1       1                                                                      
 INPUT CARD>N           7.0      0.9405942384     -0.3241591975     -0.0156283505           
 INPUT CARD>N           7.0      0.0107640781      0.6540868381      0.0152029180           
 INPUT CARD>O           8.0     -0.9317086136     -0.2406652788     -0.0189127039           
 INPUT CARD>H           1.0     -0.2853795803     -0.9336844866      0.3015543918           
 INPUT CARD>H           1.0      1.8537652825      0.1690870887      0.0045149723           
 INPUT CARD> $END                                                                           
 INPUT CARD> $HESS                                                                          
 INPUT CARD>ENERGY IS     -184.6737814637 E(NUC) IS       74.1740447013                     
 INPUT CARD> 1  1 8.31017204E-01 1.46125961E-01 7.06555414E-04-1.42105871E-01 2.88851646E-02
 INPUT CARD> 1  2-1.06097190E-03-3.64083936E-01 2.22079857E-02-2.60487424E-03-3.19838288E-02
 INPUT CARD> 1  3-2.57390880E-02 9.98066801E-03-2.92842894E-01-1.71479453E-01-7.02134706E-03
 INPUT CARD> 2  1 1.46125961E-01 3.45386183E-01-4.81993812E-03-1.74175526E-03-2.53561438E-01
 INPUT CARD> 2  2-7.44630351E-03-4.12455338E-02 1.07545052E-01-1.71624749E-03 2.65403532E-03
 INPUT CARD> 2  3-2.43175678E-02 1.12719687E-02-1.05793474E-01-1.75051317E-01 2.71002756E-03
 INPUT CARD> 3  1 7.06555414E-04-4.81993812E-03 9.57603815E-02 1.19662311E-02 1.21690082E-02
 INPUT CARD> 3  2-8.46948623E-02 3.92243051E-03-2.53385750E-02 4.80344007E-02-1.12557372E-02
 INPUT CARD> 3  3 1.69667673E-02-1.17561175E-02-5.33831224E-03 1.02305632E-03-4.73433347E-02
 INPUT CARD> 4  1-1.42105871E-01-1.74175526E-03 1.19662311E-02 3.22176203E-01 9.57639971E-02
 INPUT CARD> 4  2-1.74307772E-02-2.34977124E-01-8.52892964E-02 7.07880248E-03 8.67411625E-02
 INPUT CARD> 4  3-3.40053809E-02-9.26551614E-03-3.18358932E-02 2.52715712E-02 7.65001711E-03
 INPUT CARD> 5  1 2.88851646E-02-2.53561438E-01 1.21690082E-02 9.57639971E-02 5.66430076E-01
 INPUT CARD> 5  2-3.01679492E-02-7.57620320E-02-2.20796196E-01 1.35174377E-02-2.20427747E-02
 INPUT CARD> 5  3-1.07676102E-01 5.21913633E-03-2.68452810E-02 1.56030980E-02-7.37832870E-04
 INPUT CARD> 6  1-1.06097190E-03-7.44630351E-03-8.46948623E-02-1.74307772E-02-3.01679492E-02
 INPUT CARD> 6  2 1.30982887E-01 3.66702674E-04 1.81581738E-02-6.61884115E-02 1.91185978E-02
 INPUT CARD> 6  3 1.91588872E-02 3.24321344E-02-9.95259084E-04 2.97075007E-04-1.25334080E-02
 INPUT CARD> 7  1-3.64083936E-01-4.12455338E-02 3.92243051E-03-2.34977124E-01-7.57620320E-02
 INPUT CARD> 7  2 3.66702674E-04 7.70178574E-01-5.02451126E-03 5.41421894E-02-1.56263015E-01
 INPUT CARD> 7  3 1.18952631E-01-5.38741672E-02-1.48543162E-02 3.08049778E-03-4.55613014E-03
 INPUT CARD> 8  1 2.22079857E-02 1.07545052E-01-2.53385750E-02-8.52892964E-02-2.20796196E-01
 INPUT CARD> 8  2 1.81581738E-02-5.02451126E-03 2.68918162E-01-7.67648652E-02 6.72920869E-02
 INPUT CARD> 8  3-1.73274360E-01 8.63671532E-02 8.15783695E-04 1.76070621E-02-2.42106163E-03
 INPUT CARD> 9  1-2.60487424E-03-1.71624749E-03 4.80344007E-02 7.07880248E-03 1.35174377E-02
 INPUT CARD> 9  2-6.61884115E-02 5.41421894E-02-7.67648652E-02 8.26246788E-02-6.08987065E-02
 INPUT CARD> 9  3 6.58157584E-02-8.76891471E-02 2.28320197E-03-8.52384022E-04 2.32193530E-02
 INPUT CARD>10  1-3.19838288E-02 2.65403532E-03-1.12557372E-02 8.67411625E-02-2.20427747E-02
 INPUT CARD>10  2 1.91185978E-02-1.56263015E-01 6.72920869E-02-6.08987065E-02 1.08251171E-01
 INPUT CARD>10  3-6.47390605E-02 5.52017162E-02-6.74497067E-03 1.68350271E-02-2.16553727E-03
 INPUT CARD>11  1-2.57390880E-02-2.43175678E-02 1.69667673E-02-3.40053809E-02-1.07676102E-01
 INPUT CARD>11  2 1.91588872E-02 1.18952631E-01-1.73274360E-01 6.58157584E-02-6.47390605E-02
 INPUT CARD>11  3 3.05625259E-01-9.92307401E-02 5.53060594E-03-3.57633434E-04-2.71063533E-03
 INPUT CARD>12  1 9.98066801E-03 1.12719687E-02-1.17561175E-02-9.26551614E-03 5.21913633E-03
 INPUT CARD>12  2 3.24321344E-02-5.38741672E-02 8.63671532E-02-8.76891471E-02 5.52017162E-02
 INPUT CARD>12  3-9.92307401E-02 6.88061965E-02-2.04249865E-03-3.62735551E-03-1.79318506E-03
    1000000 WORDS OF MEMORY AVAILABLE


                    * * * WARNING * * *
 OLD KEYWORD COORD=CART SELECTED, AUTOMATICALLY CHANGED TO COORD=PRINAXIS.
 YOUR MOLECULE'S COORDINATES WILL BE CHANGED TO PRINCIPAL AXES BY
   A) TRANSLATION TO THE CENTER OF MASS, THEN
   B) ROTATION TO HAVE A DIAGONAL MOMENT OF INERTIA TENSOR.

 HOWEVER, NOTHING ELSE IN YOUR INPUT WILL BE ROTATED IN THE SAME WAY,
 SO IF YOU HAVE A $VEC, $VIB, $GRAD, $HESS, EFP PARTICLE COORDINATES,
 OR ANYTHING ELSE THAT DEPENDS ON THE INITIAL ORIENTATION, THAT DATA
 WILL NOT BE USED CORRECTLY IN THIS RUN.

 THE PURPOSE OF COORD=PRINAXIS IS TO BE USED ONCE, ONLY AT THE VERY
 BEGINNING OF A SERIES OF COMPUTATIONS, PERHAPS TO FIND THE SYMMETRY
 UNIQUE ATOMS FROM AN ARBITRARY INITIAL ORIENTATION.

 AFTER THE FIRST RUN, YOU SHOULD USE ONLY COORD=UNIQUE, TO ENSURE THAT
 THE COORDINATES WHICH YOU READ IN ARE THE COORDINATES THAT ARE USED.


     BASIS OPTIONS
     -------------
     GBASIS=PCSEG-1      IGAUSS=       0      POLAR=NONE    
     NDFUNC=       0     NFFUNC=       0     DIFFSP=       F
     NPFUNC=       0      DIFFS=       F     BASNAM=        


     RUN TITLE
     ---------
 H2ON2                                                                           

 THE POINT GROUP OF THE MOLECULE IS C1      
 THE ORDER OF THE PRINCIPAL AXIS IS     1

 THE MOMENTS OF INERTIA ARE (AMU-ANGSTROM**2)
 IXX=     9.400   IYY=    29.925   IZZ=    39.117

 ATOM      ATOMIC                      COORDINATES (BOHR)
           CHARGE         X                   Y                   Z
 N           7.0     1.7774653762       -0.6125720597       -0.0295333001
 N           7.0     0.0203411581        1.2360448962        0.0287293492
 O           8.0    -1.7606739801       -0.4547914317       -0.0357398281
 H           1.0    -0.5392892093       -1.7644078387        0.5698551709
 H           1.0     3.5031084295        0.3195282657        0.0085320605

          INTERNUCLEAR DISTANCES (ANGS.)
          ------------------------------

                1 N          2 N          3 O          4 H          5 H     

   1 N       0.0000000    1.3500000 *  1.8741665 *  1.4053959 *  1.0380650 *
   2 N       1.3500000 *  0.0000000    1.3000000 *  1.6403402 *  1.9057787 *
   3 O       1.8741665 *  1.3000000 *  0.0000000    1.0003579 *  2.8155480 *
   4 H       1.4053959 *  1.6403402 *  1.0003579 *  0.0000000    2.4249285 *
   5 H       1.0380650 *  1.9057787 *  2.8155480 *  2.4249285 *  0.0000000  

  * ... LESS THAN  3.000


     ATOMIC BASIS SET
     ----------------
 THE CONTRACTED PRIMITIVE FUNCTIONS HAVE BEEN UNNORMALIZED
 THE CONTRACTED BASIS FUNCTIONS ARE NOW NORMALIZED TO UNITY

  SHELL TYPE  PRIMITIVE        EXPONENT          CONTRACTION COEFFICIENT(S)

 N         

      1   S       1          1726.3200000    0.005526692708
      1   S       2           259.8270000    0.041238777833
      1   S       3            59.0335000    0.182735518857
      1   S       4            16.3509000    0.465933825414
      1   S       5             4.9108400    0.450079961070

      2   S       6             7.7589400   -0.147940502099
      2   S       7             0.7055730    1.051675837690

      3   S       8             0.2092860    1.000000000000

      4   P       9            13.1844000    0.064862763118
      4   P      10             2.8186000    0.339184155940
      4   P      11             0.7655710    0.735827618992

      5   P      12             0.1959490    1.000000000000

      6   D      13             0.9000000    1.000000000000

 N         

      7   S      14          1726.3200000    0.005526692708
      7   S      15           259.8270000    0.041238777833
      7   S      16            59.0335000    0.182735518857
      7   S      17            16.3509000    0.465933825414
      7   S      18             4.9108400    0.450079961070

      8   S      19             7.7589400   -0.147940502099
      8   S      20             0.7055730    1.051675837690

      9   S      21             0.2092860    1.000000000000

     10   P      22            13.1844000    0.064862763118
     10   P      23             2.8186000    0.339184155940
     10   P      24             0.7655710    0.735827618992

     11   P      25             0.1959490    1.000000000000

     12   D      26             0.9000000    1.000000000000

 O         

     13   S      27          2288.6400000    0.005451138222
     13   S      28           344.4160000    0.040718922842
     13   S      29            78.2538000    0.181369420873
     13   S      30            21.7195000    0.465536820246
     13   S      31             6.5590700    0.451211321214

     14   S      32            10.4656000   -0.150211201174
     14   S      33             0.9643510    1.052867983385

     15   S      34             0.2851270    1.000000000000

     16   P      35            17.0590000    0.068749256972
     16   P      36             3.6899900    0.351671941499
     16   P      37             0.9929960    0.724532099722

     17   P      38             0.2449240    1.000000000000

     18   D      39             1.0000000    1.000000000000

 H         

     19   S      40            12.2518000    0.037217389296
     19   S      41             1.8687100    0.253808206955
     19   S      42             0.4182080    0.797386763917

     20   S      43             0.1061000    1.000000000000

     21   P      44             1.0000000    1.000000000000

 H         

     22   S      45            12.2518000    0.037217389296
     22   S      46             1.8687100    0.253808206955
     22   S      47             0.4182080    0.797386763917

     23   S      48             0.1061000    1.000000000000

     24   P      49             1.0000000    1.000000000000

 TOTAL NUMBER OF BASIS SET SHELLS             =   24
 NUMBER OF CARTESIAN GAUSSIAN BASIS FUNCTIONS =   55
 NOTE: THIS RUN WILL RESTRICT THE MO VARIATION SPACE TO SPHERICAL HARMONICS.
 THE NUMBER OF ORBITALS KEPT IN THE VARIATIONAL SPACE WILL BE PRINTED LATER.
 NUMBER OF ELECTRONS                          =   24
 CHARGE OF MOLECULE                           =    0
 SPIN MULTIPLICITY                            =    1
 NUMBER OF OCCUPIED ORBITALS (ALPHA)          =   12
 NUMBER OF OCCUPIED ORBITALS (BETA )          =   12
 TOTAL NUMBER OF ATOMS                        =    5
 THE NUCLEAR REPULSION ENERGY IS       74.1740447022

     LEBEDEV GRID-BASED DFT OPTIONS
     ------------------------------
     DFTTYP=PBE     
     NRAD  =      96     NLEB  =     302
     NRAD0 =      24     NLEB0 =     110
     SWOFF =    5.00E-03 (PURE SCF -> DFT)
     SWITCH=    3.00E-04 (COARSE -> TIGHT GRID)
     THRESH=    0.00E+00 GTHRE=    1.00E+00

 GRIMME'S EMPIRICAL DISPERSION CORRECTION= F

     $CONTRL OPTIONS
     ---------------
 SCFTYP=RHF          RUNTYP=SADPOINT     EXETYP=RUN     
 MPLEVL=       0     CITYP =NONE         CCTYP =NONE         VBTYP =NONE    
 DFTTYP=PBE          TDDFT =NONE    
 MULT  =       1     ICHARG=       0     NZVAR =       0     COORD =PRINAXIS
 PP    =NONE         RELWFN=NONE         LOCAL =NONE         NUMGRD=       F
 ISPHER=       1     NOSYM =       0     MAXIT =      30     UNITS =ANGS    
 PLTORB=       F     MOLPLT=       F     AIMPAC=       F     FRIEND=        
 NPRINT=       7     IREST =       0     GEOM  =INPUT   
 NORMF =       0     NORMP =       0     ITOL  =      20     ICUT  =       9
 INTTYP=BEST         GRDTYP=BEST         QMTTOL= 1.0E-06

     $SYSTEM OPTIONS
     ---------------
  REPLICATED MEMORY=     1000000 WORDS (ON EVERY NODE).
 DISTRIBUTED MEMDDI=           0 MILLION WORDS IN AGGREGATE,
 MEMDDI DISTRIBUTED OVER   1 PROCESSORS IS           0 WORDS/PROCESSOR.
 TOTAL MEMORY REQUESTED ON EACH PROCESSOR=     1000000 WORDS.
 TIMLIM=      525600.00 MINUTES, OR     365.0 DAYS.
 PARALL= F  BALTYP=  DLB     KDIAG=    0  COREFL= F
 MXSEQ2=     300 MXSEQ3=     150  mem10=         0

          ----------------
          PROPERTIES INPUT
          ----------------

     MOMENTS            FIELD           POTENTIAL          DENSITY
 IEMOM =       1   IEFLD =       0   IEPOT =       0   IEDEN =       0
 WHERE =COMASS     WHERE =NUCLEI     WHERE =NUCLEI     WHERE =NUCLEI  
 OUTPUT=BOTH       OUTPUT=BOTH       OUTPUT=BOTH       OUTPUT=BOTH    
 IEMINT=       0   IEFINT=       0                     IEDINT=       0
                                                       MORB  =       0
          EXTRAPOLATION IN EFFECT
          DIIS IN EFFECT
 ORBITAL PRINTING OPTION: NPREO=     1    55     2     1

     -------------------------------
     INTEGRAL TRANSFORMATION OPTIONS
     -------------------------------
     NWORD  =            0
     CUTOFF = 1.0E-09     MPTRAN =       0
     DIRTRF =       F     AOINTS =DUP     

          ----------------------
          INTEGRAL INPUT OPTIONS
          ----------------------
 NOPK  =       1 NORDER=       0 SCHWRZ=       F

     ------------------------------------------
     THE POINT GROUP IS C1 , NAXIS= 1, ORDER= 1
     ------------------------------------------

 -- VARIATIONAL SPACE WILL BE RESTRICTED TO PURE SPHERICAL HARMONICS ONLY --
 AFTER EXCLUDING CONTAMINANT COMBINATIONS FROM THE CARTESIAN GAUSSIAN BASIS
 SET, THE NUMBER OF SPHERICAL HARMONICS KEPT IN THE VARIATION SPACE IS   52

     DIMENSIONS OF THE SYMMETRY SUBSPACES ARE
 A   =   52

 ..... DONE SETTING UP THE RUN .....
 STEP CPU TIME =     0.03 TOTAL CPU TIME =          0.0 (      0.0 MIN)
 TOTAL WALL CLOCK TIME=          0.9 SECONDS, CPU UTILIZATION IS     3.49%


          -----------------------------
          STATIONARY POINT LOCATION RUN
          -----------------------------

 OBTAINING INITIAL HESSIAN, HESS=READ    

 $HESS GROUP READ FROM CARDS
 ENERGY IS     -184.6737814637 E(NUC) IS       74.1740447013                     

          PARAMETERS CONTROLLING GEOMETRY SEARCH ARE
          METHOD =QA                  UPHESS =POWELL  
          NNEG   =         1          NFRZ   =         0
          NSTEP  =        20          IFOLOW =         1
          HESS   =READ                RESTAR =         F
          IHREP  =         0          HSSEND =         F
          NPRT   =         0          NPUN   =         0
          OPTTOL = 1.000E-04          RMIN   = 1.500E-03
          RMAX   = 1.000E-01          RLIM   = 7.000E-02
          DXMAX  = 2.000E-01          PURIFY =         F
          MOVIE  =         F          TRUPD  =         T
          TRMAX  = 3.000E-01          TRMIN  = 5.000E-02
          ITBMAT =         5          STPT   =         F
          STSTEP = 1.000E-02          PROJCT=          T

 BEGINNING GEOMETRY SEARCH POINT NSERCH=   0 ...

 COORDINATES OF ALL ATOMS ARE (ANGS)
   ATOM   CHARGE       X              Y              Z
 ------------------------------------------------------------
 N           7.0   0.9405942384  -0.3241591975  -0.0156283505
 N           7.0   0.0107640781   0.6540868381   0.0152029180
 O           8.0  -0.9317086136  -0.2406652788  -0.0189127039
 H           1.0  -0.2853795803  -0.9336844866   0.3015543918
 H           1.0   1.8537652825   0.1690870887   0.0045149723

          ********************
          1 ELECTRON INTEGRALS
          ********************
 ...... END OF ONE-ELECTRON INTEGRALS ......
 STEP CPU TIME =     0.00 TOTAL CPU TIME =          0.0 (      0.0 MIN)
 TOTAL WALL CLOCK TIME=          0.9 SECONDS, CPU UTILIZATION IS     3.37%

          -------------
          GUESS OPTIONS
          -------------
          GUESS =HUCKEL            NORB  =       0          NORDER=       0
          MIX   =       F          PRTMO =       F          PUNMO =       F
          TOLZ  = 1.0E-08          TOLE  = 1.0E-05
          SYMDEN=       F          PURIFY=       F

 INITIAL GUESS ORBITALS GENERATED BY HUCKEL   ROUTINE.
 HUCKEL GUESS REQUIRES     27116 WORDS.

 STATISTICS FOR GENERATION OF SYMMETRY ORBITAL -Q- MATRIX
 NUMBER OF CARTESIAN ATOMIC ORBITALS=         55
 NUMBER OF SPHERICAL CONTAMINANTS DROPPED=     3
 NUMBER OF LINEARLY DEPENDENT MOS DROPPED=     0
 TOTAL NUMBER OF MOS IN VARIATION SPACE=      52

 SYMMETRIES FOR INITIAL GUESS ORBITALS FOLLOW.   BOTH SET(S).
    12 ORBITALS ARE OCCUPIED (    3 CORE ORBITALS).
     4=A        5=A        6=A        7=A        8=A        9=A       10=A   
    11=A       12=A       13=A       14=A       15=A       16=A       17=A   
    18=A       19=A       20=A       21=A       22=A   
 ...... END OF INITIAL ORBITAL SELECTION ......
 STEP CPU TIME =     0.01 TOTAL CPU TIME =          0.0 (      0.0 MIN)
 TOTAL WALL CLOCK TIME=          1.0 SECONDS, CPU UTILIZATION IS     4.08%

                    ----------------------
                    AO INTEGRAL TECHNOLOGY
                    ----------------------
     S,P,L SHELL ROTATED AXIS INTEGRALS, REPROGRAMMED BY
        KAZUYA ISHIMURA (IMS) AND JOSE SIERRA (SYNSTAR).
     S,P,D,L SHELL ROTATED AXIS INTEGRALS PROGRAMMED BY
        KAZUYA ISHIMURA (INSTITUTE FOR MOLECULAR SCIENCE).
     S,P,D,F,G SHELL TO TOTAL QUARTET ANGULAR MOMENTUM SUM 5,
        ERIC PROGRAM BY GRAHAM FLETCHER (ELORET AND NASA ADVANCED
        SUPERCOMPUTING DIVISION, AMES RESEARCH CENTER).
     S,P,D,F,G,L SHELL GENERAL RYS QUADRATURE PROGRAMMED BY
        MICHEL DUPUIS (PACIFIC NORTHWEST NATIONAL LABORATORY).

          --------------------
          2 ELECTRON INTEGRALS
          --------------------

 THE -PK- OPTION IS OFF, THE INTEGRALS ARE NOT IN SUPERMATRIX FORM.
 STORING   15000 INTEGRALS/RECORD ON DISK, USING 12 BYTES/INTEGRAL.
 TWO ELECTRON INTEGRAL EVALUATION REQUIRES   90696 WORDS OF MEMORY.
 II,JST,KST,LST =  1  1  1  1 NREC =         1 INTLOC =    1
 II,JST,KST,LST =  2  1  1  1 NREC =         1 INTLOC =    2
 II,JST,KST,LST =  3  1  1  1 NREC =         1 INTLOC =    7
 II,JST,KST,LST =  4  1  1  1 NREC =         1 INTLOC =   22
 II,JST,KST,LST =  5  1  1  1 NREC =         1 INTLOC =   67
 II,JST,KST,LST =  6  1  1  1 NREC =         1 INTLOC =  214
 II,JST,KST,LST =  7  1  1  1 NREC =         1 INTLOC = 1189
 II,JST,KST,LST =  8  1  1  1 NREC =         1 INTLOC = 3180
 II,JST,KST,LST =  9  1  1  1 NREC =         1 INTLOC = 5640
 II,JST,KST,LST = 10  1  1  1 NREC =         1 INTLOC = 8560
 II,JST,KST,LST = 11  1  1  1 NREC =         2 INTLOC = 5457
 II,JST,KST,LST = 12  1  1  1 NREC =         3 INTLOC = 8122
 II,JST,KST,LST = 13  1  1  1 NREC =         7 INTLOC = 5990
 II,JST,KST,LST = 14  1  1  1 NREC =         8 INTLOC = 4494
 II,JST,KST,LST = 15  1  1  1 NREC =         9 INTLOC = 5743
 II,JST,KST,LST = 16  1  1  1 NREC =        10 INTLOC = 8638
 II,JST,KST,LST = 17  1  1  1 NREC =        14 INTLOC =12179
 II,JST,KST,LST = 18  1  1  1 NREC =        20 INTLOC = 3518
 II,JST,KST,LST = 19  1  1  1 NREC =        35 INTLOC = 2310
 II,JST,KST,LST = 20  1  1  1 NREC =        38 INTLOC = 5882
 II,JST,KST,LST = 21  1  1  1 NREC =        41 INTLOC =12701
 II,JST,KST,LST = 22  1  1  1 NREC =        53 INTLOC = 8758
 II,JST,KST,LST = 23  1  1  1 NREC =        57 INTLOC =14372
 II,JST,KST,LST = 24  1  1  1 NREC =        62 INTLOC = 9472
 TOTAL NUMBER OF NONZERO TWO-ELECTRON INTEGRALS =             1143893
         77 INTEGRAL RECORDS WERE STORED ON DISK FILE  8.
  ...... END OF TWO-ELECTRON INTEGRALS .....
 STEP CPU TIME =     0.17 TOTAL CPU TIME =          0.2 (      0.0 MIN)
 TOTAL WALL CLOCK TIME=          1.3 SECONDS, CPU UTILIZATION IS    16.54%

          --------------------------
               R-PBE SCF CALCULATION
          --------------------------

     NUCLEAR ENERGY =        74.1740447022
     MAXIT =   30     NPUNCH=    2
     EXTRAP=T  DAMP=F  SHIFT=F  RSTRCT=F  DIIS=T  DEM=F  SOSCF=F
         DENSITY MATRIX CONVERGENCE THRESHOLD=  1.00E-05
     COARSE -> FINE DFT GRID SWITCH THRESHOLD=  3.00E-04 (SWITCH IN $DFT)
                   HF -> DFT SWITCH THRESHOLD=  5.00E-03 (SWOFF IN $DFT)
     MEMORY REQUIRED FOR RHF ITERS=    248522 WORDS.

 DFT CODE IS SWITCHING FROM THE FINE GRID NRAD= 96,  NLEB=  302
                      TO THE COARSE GRID NRAD0= 24, NLEB0=  110

     EXCHANGE FUNCTIONAL   =PBE       
     CORRELATION FUNCTIONAL=PBE       
     DFT THRESHOLD         =.276E-07
     GRID CHANGE THRESHOLD =.300E-03
 FOR AN EULER-MACLAURIN QUADRATURE USING  96 RADIAL POINTS:
 SMALLEST GAUSSIAN PRIMITIVE EXPONENT=        0.1061000000 OF TYPE -S-
 ON ATOM NUMBER   4 HAS RADIAL NORMALIZATION=  1.000000
  LARGEST GAUSSIAN PRIMITIVE EXPONENT=     2288.6400000000 OF TYPE -S-
 ON ATOM NUMBER   3 HAS RADIAL NORMALIZATION=  1.000000
 DFT IS SWITCHED OFF, PERFORMING PURE SCF UNTIL SWOFF THRESHOLD IS REACHED.

 ITER EX DEM     TOTAL ENERGY        E CHANGE  DENSITY CHANGE    DIIS ERROR
          * * *   INITIATING DIIS PROCEDURE   * * *
   1  0  0     -183.9881612543  -183.9881612543   0.301264807   0.429976962
   2  1  0     -184.6278687275    -0.6397074732   0.095653206   0.074631322
   3  2  0     -184.6593273450    -0.0314586175   0.068731331   0.038470132
   4  3  0     -184.6717722911    -0.0124449461   0.021028556   0.014913726
   5  4  0     -184.6736181469    -0.0018458558   0.005134300   0.003010952
   6  5  0     -184.6737413915    -0.0001232446   0.003491706   0.001234371
 CONVERGED TO SWOFF, SO DFT CALCULATION IS NOW SWITCHED ON.
          * * *   INITIATING DIIS PROCEDURE   * * *
   7  6  0     -185.5212608738    -0.8475194823   0.186443720   0.059751649
   8  7  0     -185.5331462301    -0.0118853563   0.116514018   0.054692577
   9  8  0     -185.5285327623     0.0046134678   0.078544852   0.058590632
  10  9  0     -185.5501432835    -0.0216105211   0.025499323   0.009461652
  11 10  0     -185.5502756341    -0.0001323507   0.019888087   0.010945382
  12 11  0     -185.5511548599    -0.0008792258   0.001468925   0.001149407
  13 12  0     -185.5511627667    -0.0000079068   0.000510224   0.000328142
  14 13  0     -185.5511636206    -0.0000008539   0.000041652   0.000032553
 DFT CODE IS SWITCHING BACK TO THE FINE GRID
          * * *   INITIATING DIIS PROCEDURE   * * *
  15 14  0     -185.5520524690    -0.0008888484   0.001202517   0.001194802
  16 15  0     -185.5520628790    -0.0000104100   0.000545058   0.000295424
  17 16  0     -185.5520628431     0.0000000359   0.000372039   0.000322376
  18 17  0     -185.5520634253    -0.0000005822   0.000169892   0.000076671
  19 18  0     -185.5520634476    -0.0000000223   0.000122215   0.000057068
  20 19  0     -185.5520634606    -0.0000000130   0.000044050   0.000034246
  21 20  0     -185.5520634666    -0.0000000059   0.000003762   0.000002569
  22 21  0     -185.5520634666    -0.0000000000   0.000000174   0.000000197

          -----------------
          DENSITY CONVERGED
          -----------------
     TIME TO FORM FOCK OPERATORS=       4.3 SECONDS (       0.2 SEC/ITER)
     TIME TO SOLVE SCF EQUATIONS=       0.1 SECONDS (       0.0 SEC/ITER)

 FINAL R-PBE ENERGY IS     -185.5520634666 AFTER  22 ITERATIONS
 DFT EXCHANGE + CORRELATION ENERGY =       -22.8635610713
 TOTAL ELECTRON NUMBER             =        23.9999895540

          ------------
          EIGENVECTORS
          ------------

                      1          2          3          4          5
                  -18.7982   -14.1218   -14.0267    -1.1274    -0.8351
                     A          A          A          A          A   
    1  N  1  S   -0.000039  -0.000053   0.993230  -0.070530  -0.168499
    2  N  1  S   -0.000157  -0.000847   0.034561   0.144082   0.349466
    3  N  1  S   -0.000516   0.007079  -0.016904   0.049850   0.266784
    4  N  1  X    0.000029   0.000504   0.000441  -0.077746  -0.016843
    5  N  1  Y   -0.000280  -0.000542   0.002109   0.049344   0.144874
    6  N  1  Z    0.000067   0.000017   0.000222   0.005008   0.007277
    7  N  1  X   -0.000732  -0.002318   0.002903   0.000414  -0.034532
    8  N  1  Y    0.000362   0.003129  -0.002225  -0.000692   0.025091
    9  N  1  Z   -0.000379  -0.000100  -0.000422  -0.000051   0.007502
   10  N  1 XX    0.000623  -0.000138   0.000887   0.007727   0.001018
   11  N  1 YY   -0.000325  -0.000405  -0.000220  -0.000879   0.007536
   12  N  1 ZZ   -0.000298   0.000543  -0.000667  -0.006848  -0.008553
   13  N  1 XY    0.000155   0.001070   0.000610  -0.010106  -0.008291
   14  N  1 XZ    0.000096   0.000082   0.000018  -0.000492  -0.001737
   15  N  1 YZ    0.000047  -0.000020   0.000015   0.000675   0.000424
   16  N  2  S    0.000080   0.993361   0.000304  -0.131595  -0.074665
   17  N  2  S   -0.000639   0.034197  -0.000576   0.272376   0.160440
   18  N  2  S    0.006792  -0.019605   0.003964   0.164742   0.135783
   19  N  2  X   -0.000035  -0.000262  -0.000502  -0.053762   0.217948
   20  N  2  Y   -0.000061  -0.002863   0.000495  -0.159798  -0.050876
   21  N  2  Z    0.000007   0.000021   0.000033  -0.000362  -0.001924
   22  N  2  X   -0.003061  -0.001820   0.001971   0.007939   0.053129
   23  N  2  Y   -0.003185   0.005695  -0.001254  -0.045886  -0.024278
   24  N  2  Z    0.000053   0.000187   0.000088   0.002180  -0.001084
   25  N  2 XX   -0.000120   0.000062  -0.000218   0.000888   0.002342
   26  N  2 YY   -0.000122   0.000048  -0.000469   0.015323   0.001187
   27  N  2 ZZ    0.000242  -0.000110   0.000687  -0.016211  -0.003529
   28  N  2 XY   -0.000575   0.000309   0.001022   0.012030  -0.029763
   29  N  2 XZ   -0.000025   0.000002   0.000016   0.000007  -0.000124
   30  N  2 YZ   -0.000070  -0.000012  -0.000086  -0.000177   0.000416
   31  O  3  S    0.993119   0.000139  -0.000017  -0.166402   0.135337
   32  O  3  S    0.034906  -0.000135   0.000104   0.338246  -0.284485
   33  O  3  S   -0.018938   0.002244  -0.000094   0.258269  -0.301136
   34  O  3  X    0.002072  -0.000479   0.000105   0.147197  -0.014444
   35  O  3  Y    0.000106  -0.000613  -0.000250   0.052127   0.002161
   36  O  3  Z    0.000456   0.000001   0.000074   0.019377  -0.019116
   37  O  3  X   -0.004595   0.000189   0.000671   0.039955  -0.018702
   38  O  3  Y   -0.002470   0.000724   0.000753   0.024471  -0.008733
   39  O  3  Z   -0.000511  -0.000240  -0.000490   0.002127  -0.003517
   40  O  3 XX   -0.000129  -0.000595   0.000302   0.011559   0.005087
   41  O  3 YY    0.000087  -0.000349  -0.000250  -0.001116  -0.005254
   42  O  3 ZZ    0.000042   0.000944  -0.000053  -0.010442   0.000167
   43  O  3 XY   -0.000506  -0.001229  -0.000151   0.013016  -0.000319
   44  O  3 XZ    0.000107  -0.000141  -0.000077   0.001991  -0.001287
   45  O  3 YZ   -0.000156  -0.000018   0.000108   0.000406   0.000846
   46  H  4  S    0.000422   0.000159   0.000617   0.132184  -0.068395
   47  H  4  S    0.001436   0.001562   0.002323  -0.019488  -0.019111
   48  H  4  X    0.000913   0.000119  -0.000319  -0.006161   0.012235
   49  H  4  Y   -0.001009   0.000366  -0.000280   0.023871  -0.006747
   50  H  4  Z    0.000519   0.000133   0.000215  -0.008979   0.003218
   51  H  5  S    0.000024  -0.000913  -0.001800   0.022331   0.147878
   52  H  5  S    0.000568   0.000834   0.002085  -0.008333  -0.001208
   53  H  5  X    0.000074   0.000090   0.001924  -0.004855  -0.017642
   54  H  5  Y    0.000126   0.000099   0.001272  -0.000897  -0.006212
   55  H  5  Z    0.000036   0.000020   0.000095  -0.000018  -0.000409

                      6          7          8          9         10
                   -0.6428    -0.5285    -0.4437    -0.4303    -0.3168
                     A          A          A          A          A   
    1  N  1  S    0.095197  -0.047698   0.018706   0.065148  -0.000427
    2  N  1  S   -0.201073   0.100260  -0.041991  -0.140478  -0.018352
    3  N  1  S   -0.224419   0.101825  -0.068086  -0.189633   0.040256
    4  N  1  X   -0.068276   0.374326   0.087861  -0.056528   0.113890
    5  N  1  Y    0.065201   0.022604   0.024934   0.243079  -0.296717
    6  N  1  Z   -0.018205  -0.035553   0.220419  -0.039660  -0.085495
    7  N  1  X   -0.002131   0.139197   0.048559  -0.020011   0.042809
    8  N  1  Y    0.020510   0.010999   0.016921   0.149354  -0.172534
    9  N  1  Z   -0.005768  -0.020550   0.131641  -0.031259  -0.060081
   10  N  1 XX   -0.005170  -0.007241  -0.006443  -0.018705   0.001533
   11  N  1 YY    0.006568   0.003089   0.003624   0.023583  -0.005532
   12  N  1 ZZ   -0.001398   0.004152   0.002819  -0.004878   0.003999
   13  N  1 XY   -0.013925   0.015367   0.002768  -0.008822   0.013055
   14  N  1 XZ    0.001085   0.004395  -0.015077   0.003076   0.002919
   15  N  1 YZ   -0.000164  -0.001889   0.015182  -0.000702  -0.007507
   16  N  2  S   -0.151491   0.017649  -0.033699  -0.064584  -0.085472
   17  N  2  S    0.347181  -0.049819   0.068285   0.135035   0.180922
   18  N  2  S    0.314183  -0.035789   0.127584   0.229097   0.310666
   19  N  2  X   -0.126611  -0.156674  -0.012619   0.338239  -0.150349
   20  N  2  Y    0.002478   0.150366   0.111307   0.213855   0.433604
   21  N  2  Z   -0.021111  -0.051619   0.400074  -0.055907  -0.100507
   22  N  2  X   -0.023554  -0.053046  -0.001247   0.122418  -0.062756
   23  N  2  Y   -0.000933   0.070979   0.039474   0.097033   0.265518
   24  N  2  Z   -0.008288  -0.026240   0.211673  -0.030697  -0.064799
   25  N  2 XX    0.009029   0.025781   0.006498   0.007776  -0.006255
   26  N  2 YY   -0.009890  -0.027030  -0.010011  -0.018200  -0.011740
   27  N  2 ZZ    0.000861   0.001249   0.003513   0.010424   0.017995
   28  N  2 XY    0.010859   0.012057   0.001460  -0.021082   0.007629
   29  N  2 XZ    0.001467   0.001630  -0.006085   0.000275  -0.002741
   30  N  2 YZ    0.003231   0.006047  -0.035058   0.005223   0.006037
   31  O  3  S    0.064674  -0.075695   0.006960  -0.056504   0.048716
   32  O  3  S   -0.138086   0.164992  -0.013357   0.115465  -0.111446
   33  O  3  S   -0.149408   0.238058  -0.036263   0.176692  -0.174007
   34  O  3  X    0.032038  -0.205591  -0.057668  -0.284991   0.147642
   35  O  3  Y    0.328837   0.184067   0.006553  -0.273017  -0.196206
   36  O  3  Z   -0.053821  -0.071430   0.376848  -0.050645   0.009575
   37  O  3  X    0.030657  -0.097907  -0.042291  -0.176090   0.106178
   38  O  3  Y    0.130500   0.089585   0.011774  -0.147620  -0.101543
   39  O  3  Z   -0.015382  -0.033812   0.223736  -0.033263  -0.002634
   40  O  3 XX    0.000457  -0.020436  -0.009725  -0.013097  -0.004650
   41  O  3 YY    0.005362   0.015412   0.003255   0.005098   0.008501
   42  O  3 ZZ   -0.005819   0.005024   0.006469   0.007999  -0.003851
   43  O  3 XY    0.022464   0.007863   0.001003  -0.010605  -0.009406
   44  O  3 XZ   -0.002280  -0.005553   0.026515  -0.005878  -0.000843
   45  O  3 YZ    0.002847  -0.000359   0.010118  -0.003945  -0.004869
   46  H  4  S   -0.256626  -0.193953   0.058283  -0.003091   0.220250
   47  H  4  S   -0.022553   0.018972   0.022505   0.042808   0.107960
   48  H  4  X    0.010961  -0.005613  -0.006149  -0.020356  -0.003038
   49  H  4  Y   -0.016413  -0.019527   0.007221  -0.008959  -0.001531
   50  H  4  Z    0.009402   0.006039   0.015363  -0.001833  -0.006995
   51  H  5  S   -0.112326   0.295312   0.051921  -0.047782  -0.005690
   52  H  5  S   -0.009753   0.045356   0.011695  -0.021663   0.044850
   53  H  5  X    0.007087  -0.017956  -0.003417  -0.002069   0.006157
   54  H  5  Y    0.006466  -0.012785  -0.001229   0.008887  -0.005084
   55  H  5  Z   -0.000199  -0.001105   0.005764  -0.000703  -0.002827

                     11         12         13         14         15
                   -0.2836    -0.2520    -0.1333     0.0325     0.0753
                     A          A          A          A          A   
    1  N  1  S    0.084917  -0.038860  -0.003776   0.078265  -0.004395
    2  N  1  S   -0.181439   0.092962   0.006137  -0.160356   0.012709
    3  N  1  S   -0.372264   0.145523   0.014426  -0.773404   0.097200
    4  N  1  X    0.236698  -0.107897   0.012599  -0.275256   0.055315
    5  N  1  Y    0.290952  -0.060180  -0.030657  -0.045474   0.305388
    6  N  1  Z   -0.169200  -0.415090  -0.398111  -0.046961  -0.066482
    7  N  1  X    0.159770  -0.047779   0.003486  -0.478554   0.227791
    8  N  1  Y    0.188069  -0.037975  -0.037650  -0.037369   0.513481
    9  N  1  Z   -0.124563  -0.316793  -0.407192  -0.045096  -0.084880
   10  N  1 XX    0.004829  -0.002916   0.002307   0.005484  -0.007678
   11  N  1 YY    0.004823   0.001359  -0.001802  -0.002110   0.005377
   12  N  1 ZZ   -0.009652   0.001557  -0.000505  -0.003375   0.002301
   13  N  1 XY    0.008972  -0.006452  -0.000673   0.005908   0.018086
   14  N  1 XZ    0.004665   0.001631  -0.008522  -0.003317  -0.004140
   15  N  1 YZ   -0.006367  -0.018522   0.007381  -0.002472  -0.003843
   16  N  2  S    0.002646   0.008797  -0.005607   0.025506   0.013201
   17  N  2  S    0.005660  -0.021882   0.007285  -0.047016  -0.010259
   18  N  2  S   -0.034490  -0.021892   0.069668  -0.370425  -0.304418
   19  N  2  X   -0.037359   0.027002  -0.003613   0.035008  -0.227639
   20  N  2  Y   -0.093081  -0.022791  -0.002384  -0.057546  -0.043365
   21  N  2  Z   -0.093510  -0.122531   0.556154   0.015924   0.025381
   22  N  2  X    0.027009  -0.001945  -0.005490   0.009270  -0.289749
   23  N  2  Y   -0.053336  -0.021636  -0.016476   0.054300   0.019689
   24  N  2  Z   -0.059761  -0.086623   0.482896   0.018679   0.023372
   25  N  2 XX   -0.000460   0.003346  -0.004929  -0.002893   0.010394
   26  N  2 YY    0.005788  -0.002343   0.002520  -0.000188  -0.015198
   27  N  2 ZZ   -0.005328  -0.001003   0.002409   0.003082   0.004804
   28  N  2 XY    0.017623  -0.008105   0.002007   0.003994  -0.020422
   29  N  2 XZ   -0.010560  -0.028922  -0.005456   0.000134   0.000080
   30  N  2 YZ    0.003421   0.003199   0.001409   0.001194   0.002609
   31  O  3  S    0.008835   0.001625  -0.008356   0.026431   0.076116
   32  O  3  S   -0.009506  -0.007135   0.015613  -0.059994  -0.156168
   33  O  3  S   -0.004620  -0.017241   0.053272  -0.201303  -0.692949
   34  O  3  X    0.397410  -0.198472   0.046842  -0.087020  -0.070699
   35  O  3  Y   -0.128419   0.113007  -0.070937   0.159591   0.072804
   36  O  3  Z    0.173997   0.456157  -0.251688  -0.039797  -0.104536
   37  O  3  X    0.266018  -0.139896   0.039516  -0.085725  -0.084643
   38  O  3  Y   -0.085766   0.079904  -0.077072   0.201488   0.144580
   39  O  3  Z    0.125841   0.344144  -0.237465  -0.039486  -0.119429
   40  O  3 XX    0.011927  -0.006979   0.003659   0.000444  -0.013835
   41  O  3 YY   -0.008674   0.000389  -0.002278  -0.001300   0.016514
   42  O  3 ZZ   -0.003253   0.006589  -0.001381   0.000856  -0.002679
   43  O  3 XY    0.002517   0.001628  -0.000775  -0.003970   0.003318
   44  O  3 XZ    0.006109   0.010321   0.000177   0.000118  -0.000303
   45  O  3 YZ   -0.001137   0.001993   0.017067  -0.000819  -0.003622
   46  H  4  S    0.094306  -0.027285  -0.086305   0.094071   0.178860
   47  H  4  S   -0.064472   0.023957  -0.085084   0.451426   1.453313
   48  H  4  X   -0.026458   0.000421  -0.001755   0.011888  -0.002767
   49  H  4  Y    0.013746  -0.000541  -0.002379  -0.005931  -0.020378
   50  H  4  Z   -0.002272   0.010515  -0.016564   0.003750   0.008173
   51  H  5  S    0.257046  -0.107165  -0.005014   0.160572   0.036409
   52  H  5  S    0.088521  -0.063329   0.010973   1.338254  -0.688028
   53  H  5  X   -0.008648   0.001928   0.000704   0.020205  -0.011899
   54  H  5  Y    0.001792   0.000250  -0.000943   0.015677   0.004631
   55  H  5  Z   -0.006362  -0.015273  -0.014373  -0.001789  -0.004041

                     16         17         18         19         20
                    0.1330     0.1534     0.4283     0.5114     0.5442
                     A          A          A          A          A   
    1  N  1  S    0.048039   0.067193   0.071726  -0.006510   0.004768
    2  N  1  S   -0.111003  -0.087345  -0.231917   0.083872  -0.057411
    3  N  1  S   -0.568832  -1.249767  -0.357275  -0.738190   0.765772
    4  N  1  X    0.255881   0.211275  -0.076127   0.118125   0.453046
    5  N  1  Y   -0.126247  -0.198275  -0.170840   0.574861   0.099941
    6  N  1  Z   -0.039418   0.020400  -0.099695  -0.013286  -0.353904
    7  N  1  X    0.506754   0.838492   0.276181   0.456021  -0.645451
    8  N  1  Y   -0.326156  -0.648320  -0.365859  -0.706326   0.087719
    9  N  1  Z   -0.050998  -0.008772   0.042265   0.027629   0.366103
   10  N  1 XX   -0.023800   0.000236   0.079363  -0.071028   0.001752
   11  N  1 YY    0.026040  -0.006222  -0.002426   0.019620   0.015075
   12  N  1 ZZ   -0.002240   0.005986  -0.076938   0.051408  -0.016827
   13  N  1 XY   -0.006648  -0.042834   0.062804  -0.014585  -0.070654
   14  N  1 XZ   -0.000746   0.005590  -0.024822  -0.019198  -0.014233
   15  N  1 YZ   -0.001384   0.001727  -0.010580  -0.005903  -0.018211
   16  N  2  S    0.019952  -0.126864  -0.076085  -0.014839   0.007265
   17  N  2  S   -0.059522   0.298217   0.284985  -0.109512   0.082083
   18  N  2  S   -0.138669   1.695928   0.728664   1.398795  -0.889672
   19  N  2  X    0.509042   0.015722   0.168861   0.135550   0.014018
   20  N  2  Y    0.065077  -0.406772   0.026201   0.445990  -0.614874
   21  N  2  Z    0.008846  -0.033580   0.047968   0.096780  -0.129672
   22  N  2  X    1.039292   0.129650   0.130808  -0.356783  -0.143799
   23  N  2  Y    0.094164  -1.101638  -0.606639  -1.260416   1.069954
   24  N  2  Z    0.011653  -0.063994  -0.054478  -0.119808   0.097061
   25  N  2 XX    0.017449  -0.026372  -0.003210   0.064756  -0.005405
   26  N  2 YY   -0.012487   0.007152  -0.000317  -0.029375  -0.030772
   27  N  2 ZZ   -0.004961   0.019220   0.003526  -0.035381   0.036176
   28  N  2 XY    0.039545   0.000862  -0.002912  -0.032482  -0.010521
   29  N  2 XZ    0.002915  -0.001240   0.004917   0.002933   0.001145
   30  N  2 YZ    0.001783  -0.001285  -0.003991  -0.006367   0.011933
   31  O  3  S   -0.053669   0.043227   0.037329   0.009960   0.025302
   32  O  3  S    0.129057  -0.047648  -0.159541   0.063175  -0.148100
   33  O  3  S    0.449534  -0.712079  -0.140873  -0.799146   0.464225
   34  O  3  X    0.213628  -0.129532  -0.289826   0.045359  -0.221857
   35  O  3  Y    0.370779  -0.261145   0.178348   0.069767  -0.051846
   36  O  3  Z   -0.030050   0.028065  -0.105452  -0.027640  -0.154508
   37  O  3  X    0.334775  -0.340903  -0.196972  -0.413803   0.108411
   38  O  3  Y    0.602548  -0.452814  -0.008788  -0.133025   0.217572
   39  O  3  Z   -0.038609   0.018958  -0.020596  -0.048608   0.035139
   40  O  3 XX    0.002188   0.000708   0.017627  -0.036051   0.023520
   41  O  3 YY   -0.013006  -0.004763   0.012903   0.016514   0.019610
   42  O  3 ZZ    0.010818   0.004055  -0.030529   0.019537  -0.043130
   43  O  3 XY   -0.005359   0.035194  -0.051335  -0.067491  -0.001181
   44  O  3 XZ    0.002124  -0.006217   0.029289   0.017103   0.022174
   45  O  3 YZ   -0.001900   0.004161  -0.029322  -0.013419  -0.027786
   46  H  4  S    0.037738  -0.278605   0.801861   0.522418   0.505578
   47  H  4  S    0.817393   0.309989  -0.664314  -0.648271  -0.539853
   48  H  4  X    0.000396  -0.022545   0.076899  -0.019513  -0.019754
   49  H  4  Y   -0.005267   0.003043  -0.060353  -0.020408  -0.066067
   50  H  4  Z    0.006773   0.000496   0.025404   0.020917   0.038937
   51  H  5  S   -0.132461  -0.086236   0.772383  -0.563079  -0.376791
   52  H  5  S   -0.455682   0.068248  -0.588761   0.666058   0.472295
   53  H  5  X   -0.009950   0.005090   0.073793  -0.064454  -0.056365
   54  H  5  Y   -0.002356  -0.024030   0.019544  -0.045891  -0.039362
   55  H  5  Z   -0.002143   0.001939  -0.011069  -0.008284  -0.011290

                     21         22         23         24         25
                    0.5560     0.5631     0.6085     0.6347     0.7511
                     A          A          A          A          A   
    1  N  1  S   -0.015047   0.007039  -0.032940   0.004361  -0.021230
    2  N  1  S    0.139084   0.039189  -0.006445  -0.044987   0.200437
    3  N  1  S   -0.814229  -0.447666   0.016055  -0.008407  -0.054544
    4  N  1  X   -0.147721   0.081261   0.476560   0.254884  -0.172641
    5  N  1  Y    0.108499   0.221441  -0.532674  -0.043408  -0.120900
    6  N  1  Z   -0.437116   0.386546  -0.106765   0.605935   0.164581
    7  N  1  X    0.349820  -0.055473  -0.728230  -0.364729   0.593302
    8  N  1  Y   -0.411207  -0.528555   0.887587   0.073100   0.362198
    9  N  1  Z    0.373940  -0.312497   0.201661  -1.005956  -0.178327
   10  N  1 XX   -0.034610  -0.022686  -0.052356  -0.013440  -0.000904
   11  N  1 YY   -0.006253   0.006796  -0.009030   0.005562  -0.008826
   12  N  1 ZZ    0.040864   0.015890   0.061386   0.007879   0.009730
   13  N  1 XY    0.048569   0.026005   0.013677   0.004181  -0.027185
   14  N  1 XZ    0.021872  -0.024001  -0.016370  -0.008405  -0.057758
   15  N  1 YZ   -0.018124   0.011468  -0.008057   0.007843  -0.024909
   16  N  2  S   -0.024101  -0.015113  -0.024714  -0.012006   0.004139
   17  N  2  S    0.153976   0.198770  -0.068165   0.010491   0.031444
   18  N  2  S    0.127704  -0.284913   0.058847   0.032261  -0.233306
   19  N  2  X   -0.520804  -0.511622  -0.153354  -0.031884   0.056653
   20  N  2  Y    0.307604  -0.129342   0.213765   0.005409   0.017475
   21  N  2  Z   -0.403531   0.456701   0.204280  -0.592394   0.112004
   22  N  2  X    1.149792   1.170516  -0.209086  -0.029737  -0.123353
   23  N  2  Y   -0.415577   0.346417  -0.770371  -0.154376   0.083801
   24  N  2  Z    0.401693  -0.505563  -0.337553   1.076785  -0.431253
   25  N  2 XX    0.022978   0.028138  -0.013589   0.007341  -0.000917
   26  N  2 YY   -0.016498  -0.024254  -0.054713  -0.030525   0.008051
   27  N  2 ZZ   -0.006480  -0.003884   0.068302   0.023184  -0.007134
   28  N  2 XY   -0.029310  -0.028014   0.092404   0.019327  -0.026680
   29  N  2 XZ   -0.005890   0.003431   0.003706   0.013637   0.001935
   30  N  2 YZ    0.038585  -0.036179  -0.017424   0.018269  -0.007763
   31  O  3  S   -0.031881  -0.005847   0.041606   0.022400  -0.024870
   32  O  3  S    0.079698  -0.054733  -0.089070  -0.095899   0.060139
   33  O  3  S    0.464215   0.733925  -0.627053  -0.079205   0.187916
   34  O  3  X   -0.185404  -0.290359   0.079405  -0.073458  -0.047476
   35  O  3  Y    0.004222   0.089871   0.043011   0.082869  -0.043431
   36  O  3  Z   -0.131850   0.096084  -0.028594  -0.054795  -0.804623
   37  O  3  X    0.319889   0.338324  -0.616122  -0.143382   0.388061
   38  O  3  Y    0.131587   0.163513  -0.143287  -0.066469  -0.006464
   39  O  3  Z    0.049995   0.055616   0.038000  -0.122391   1.091858
   40  O  3 XX   -0.009257   0.003448  -0.025157  -0.004481  -0.007990
   41  O  3 YY    0.030912   0.043335  -0.002363   0.011315   0.011028
   42  O  3 ZZ   -0.021655  -0.046783   0.027520  -0.006834  -0.003037
   43  O  3 XY    0.039388   0.038178  -0.012001  -0.019629  -0.006000
   44  O  3 XZ   -0.006087   0.022967   0.016523  -0.021997  -0.006113
   45  O  3 YZ   -0.013232   0.002717  -0.008005  -0.008476  -0.025714
   46  H  4  S   -0.154425   0.110506   0.200866   0.221423  -0.077751
   47  H  4  S    0.033000  -0.077474  -0.176581  -0.256744   0.191140
   48  H  4  X    0.013480   0.024308  -0.011859   0.018579   0.051613
   49  H  4  Y   -0.036228  -0.064034  -0.001507  -0.036687  -0.029359
   50  H  4  Z    0.017538   0.009262   0.033181   0.000949   0.033042
   51  H  5  S   -0.027998  -0.025252  -0.297737  -0.057328  -0.282851
   52  H  5  S   -0.107822   0.008267   0.493548   0.250929  -0.113569
   53  H  5  X   -0.024462  -0.055950  -0.038839  -0.030553   0.023244
   54  H  5  Y    0.032257   0.022508  -0.012712  -0.012373  -0.012739
   55  H  5  Z    0.002737  -0.004391  -0.007647   0.000336  -0.038623

                     26         27         28         29         30
                    0.8022     0.8176     0.9029     0.9989     1.1370
                     A          A          A          A          A   
    1  N  1  S    0.046943   0.036418   0.024657   0.043625   0.041292
    2  N  1  S   -0.538228  -0.448369  -0.521512  -0.521226  -1.407624
    3  N  1  S    0.417435  -0.001189   0.666612   0.029226   4.006056
    4  N  1  X    0.158114  -0.154087  -0.382257   0.303589  -0.002843
    5  N  1  Y   -0.029307   0.099488  -0.207495   0.291697   0.017542
    6  N  1  Z    0.050000   0.033213   0.008844  -0.090800  -0.011943
    7  N  1  X   -0.172960   0.285053   1.892963  -0.873890  -0.952374
    8  N  1  Y    0.092483  -0.655053   0.595414  -1.010354   1.145142
    9  N  1  Z   -0.059011  -0.113753  -0.047254   0.235548   0.114368
   10  N  1 XX   -0.038339   0.013738  -0.021881  -0.002981  -0.183968
   11  N  1 YY   -0.016662  -0.003476  -0.065885  -0.049978   0.105830
   12  N  1 ZZ    0.055001  -0.010262   0.087766   0.052958   0.078138
   13  N  1 XY    0.027051   0.065757   0.008578   0.078669  -0.011587
   14  N  1 XZ    0.008045  -0.039471  -0.028924   0.055057   0.095569
   15  N  1 YZ    0.002107  -0.012681  -0.010808   0.005480   0.020889
   16  N  2  S    0.007205   0.017802   0.050107   0.035110  -0.023606
   17  N  2  S   -0.360878  -0.358372  -0.868223  -0.940225   0.907944
   18  N  2  S   -0.570536   1.202860   1.828581   2.411161  -2.964169
   19  N  2  X    0.069804  -0.334557  -0.111623   0.001523   0.045147
   20  N  2  Y    0.105374  -0.127125  -0.109831   0.039219   0.014913
   21  N  2  Z    0.033075  -0.025256  -0.031396   0.015378   0.020394
   22  N  2  X    0.277246   1.011023  -0.220204  -0.288299  -1.223885
   23  N  2  Y   -0.010529  -0.416602  -0.516433  -0.634720   1.083802
   24  N  2  Z   -0.022071   0.015175   0.126083  -0.234542  -0.033081
   25  N  2 XX   -0.066723  -0.021987  -0.003757  -0.109026   0.163769
   26  N  2 YY   -0.082737   0.034348  -0.053078   0.010387  -0.117799
   27  N  2 ZZ    0.149461  -0.012361   0.056835   0.098639  -0.045970
   28  N  2 XY   -0.063278   0.020626   0.014082   0.075206   0.070771
   29  N  2 XZ   -0.004645   0.004823   0.012823  -0.025487  -0.011479
   30  N  2 YZ   -0.009774  -0.015838  -0.012949   0.005498   0.055733
   31  O  3  S   -0.035242   0.046812   0.016281   0.014281  -0.021070
   32  O  3  S    0.127709  -0.167436  -0.128459  -0.089342   0.277778
   33  O  3  S    0.089111  -0.103605  -0.202690  -0.409206  -0.024529
   34  O  3  X   -0.446729   0.472473  -0.174475  -0.008568   0.103938
   35  O  3  Y   -0.576875  -0.355964   0.241254   0.326397   0.094236
   36  O  3  Z    0.025556  -0.154486   0.147546  -0.212639  -0.055439
   37  O  3  X    0.799297  -1.174114   0.248018  -0.419440  -0.039186
   38  O  3  Y    1.127232   0.730185  -0.653478  -1.239108  -0.269063
   39  O  3  Z   -0.021063   0.070374  -0.311299   0.533148   0.204001
   40  O  3 XX   -0.029575   0.054268  -0.050611   0.016266  -0.022128
   41  O  3 YY   -0.032234  -0.031332   0.030621  -0.091342   0.102171
   42  O  3 ZZ    0.061809  -0.022936   0.019990   0.075076  -0.080043
   43  O  3 XY   -0.019462   0.002952  -0.044635  -0.007892   0.042123
   44  O  3 XZ   -0.012468   0.007425   0.041658  -0.044563  -0.061774
   45  O  3 YZ    0.011756  -0.006076  -0.037770   0.037928   0.033940
   46  H  4  S   -0.191314   0.533500   0.355292  -0.655037  -0.234245
   47  H  4  S    0.485212  -0.159979  -0.135546  -1.161102  -0.313219
   48  H  4  X   -0.066516  -0.010690   0.034914   0.063197  -0.096634
   49  H  4  Y    0.012532   0.114173  -0.034946  -0.020635  -0.143295
   50  H  4  Z    0.016709  -0.034635   0.081058   0.020969  -0.078562
   51  H  5  S    0.107487   0.113495  -0.768192   0.534820  -0.305232
   52  H  5  S   -0.242971  -0.457016  -0.901682   0.233167  -0.175406
   53  H  5  X    0.008794   0.006357   0.079073  -0.024958   0.044723
   54  H  5  Y    0.023652   0.081084   0.020542  -0.008348   0.132503
   55  H  5  Z    0.002439  -0.019079  -0.010975   0.043576   0.068007

                     31         32         33         34         35
                    1.2894     1.3882     1.4877     1.5809     1.6204
                     A          A          A          A          A   
    1  N  1  S    0.018967  -0.003808  -0.005385   0.012850   0.003063
    2  N  1  S   -0.586720   0.154883  -0.040035  -0.088738  -0.182687
    3  N  1  S    1.841023  -0.585678   0.164013   0.255215   1.050653
    4  N  1  X    0.084982   0.022696  -0.001164  -0.000747  -0.017765
    5  N  1  Y    0.093566  -0.005821   0.026374  -0.032668   0.059045
    6  N  1  Z   -0.005774  -0.036365  -0.056170  -0.102602   0.028574
    7  N  1  X   -0.311926  -0.299861  -0.264123   0.348359  -0.374068
    8  N  1  Y    0.823786  -0.502941  -0.038531   0.232822   0.090811
    9  N  1  Z    0.011724   0.075146  -0.105772   0.021363  -0.025464
   10  N  1 XX    0.191442  -0.277211   0.016781   0.077110  -0.103740
   11  N  1 YY   -0.284384   0.292062  -0.115573   0.045270   0.049351
   12  N  1 ZZ    0.092942  -0.014851   0.098792  -0.122380   0.054389
   13  N  1 XY   -0.051869   0.076724  -0.057051   0.053682  -0.106120
   14  N  1 XZ   -0.263318  -0.397400  -0.038138  -0.067602   0.043582
   15  N  1 YZ   -0.059267   0.010552   0.492539   0.372362  -0.050040
   16  N  2  S   -0.011253  -0.000070   0.001096   0.000391   0.001029
   17  N  2  S    0.580911  -0.245153   0.048493   0.102142   0.486415
   18  N  2  S   -1.809369   1.249941  -0.215081  -0.766189  -2.302218
   19  N  2  X   -0.030791   0.052952  -0.025267   0.041385   0.067661
   20  N  2  Y    0.088195  -0.107179   0.021882   0.053123   0.095074
   21  N  2  Z   -0.055189  -0.090619   0.007902  -0.105033   0.003213
   22  N  2  X   -0.536074  -0.315058   0.048117   0.168439   0.317833
   23  N  2  Y    0.662936  -0.403763   0.101114   0.278027   1.061887
   24  N  2  Z    0.056972   0.018384  -0.029886  -0.044546   0.084591
   25  N  2 XX   -0.246641   0.196502  -0.079998   0.110973   0.029580
   26  N  2 YY    0.327446  -0.209244   0.064725  -0.024625   0.037129
   27  N  2 ZZ   -0.080806   0.012742   0.015273  -0.086349  -0.066709
   28  N  2 XY    0.058440   0.013634  -0.015820  -0.043963  -0.068596
   29  N  2 XZ    0.014031   0.118188   0.590885  -0.050356  -0.104434
   30  N  2 YZ   -0.177672  -0.289467  -0.019876  -0.525494   0.011304
   31  O  3  S   -0.018214  -0.027305   0.000791   0.034112   0.049238
   32  O  3  S    0.283145   0.470243   0.030987  -0.683613  -1.221094
   33  O  3  S   -0.205142  -1.010049  -0.033637   1.279854   2.747697
   34  O  3  X   -0.086729   0.060314   0.011243  -0.081567   0.044477
   35  O  3  Y    0.071131   0.012843   0.037143  -0.016665  -0.053912
   36  O  3  Z    0.024363   0.016220  -0.012224  -0.056664  -0.016400
   37  O  3  X    0.014023  -0.307148  -0.072254   0.518036   0.838878
   38  O  3  Y   -0.019946  -0.499466   0.077746   0.154678   0.340626
   39  O  3  Z   -0.160721  -0.104915   0.110388   0.121778  -0.019227
   40  O  3 XX    0.216450  -0.166987   0.010797  -0.022376  -0.181561
   41  O  3 YY   -0.183522   0.096941  -0.019471   0.028930  -0.154485
   42  O  3 ZZ   -0.032928   0.070046   0.008674  -0.006554   0.336046
   43  O  3 XY    0.044682   0.095608   0.029648  -0.089338   0.074073
   44  O  3 XZ    0.110412   0.140140  -0.119778   0.095371   0.131439
   45  O  3 YZ    0.016243  -0.035930  -0.286437   0.293142  -0.069149
   46  H  4  S   -0.049192  -0.107636   0.012395  -0.202958  -0.451544
   47  H  4  S    0.305317  -0.298658  -0.032392   0.099964  -0.295102
   48  H  4  X    0.144991  -0.016196  -0.175101   0.145146  -0.061435
   49  H  4  Y    0.293071   0.018001   0.001889   0.022944   0.022899
   50  H  4  Z    0.136806   0.187350   0.111368  -0.298736   0.534120
   51  H  5  S   -0.383793   0.409570   0.117091  -0.292851   0.053372
   52  H  5  S   -0.073731   0.188097   0.028821  -0.112210  -0.042905
   53  H  5  X    0.084315  -0.080676   0.036051  -0.056698  -0.028563
   54  H  5  Y   -0.119179   0.196230  -0.047193   0.025272   0.103971
   55  H  5  Z   -0.198041  -0.308561   0.176860   0.190017   0.072560

                     36         37         38         39         40
                    1.6412     1.7654     1.9635     2.0590     2.1839
                     A          A          A          A          A   
    1  N  1  S    0.012319   0.017862  -0.014283   0.022518   0.008599
    2  N  1  S   -0.189075  -0.017233   0.179428  -0.358493  -0.062428
    3  N  1  S    0.606591  -0.213198  -0.271639   0.028763  -0.420438
    4  N  1  X    0.007401   0.004271   0.062671   0.345371  -0.003471
    5  N  1  Y    0.012907  -0.116236  -0.011237  -0.130487  -0.016855
    6  N  1  Z   -0.039318   0.000669   0.006169  -0.005488   0.016007
    7  N  1  X    0.102280   0.959585   0.189508  -0.559739  -0.073660
    8  N  1  Y    0.196768   0.235163  -0.208953  -0.071593  -0.448988
    9  N  1  Z    0.294924  -0.112035   0.091667   0.047140   0.088859
   10  N  1 XX    0.091676   0.031722  -0.139370   0.106218   0.160200
   11  N  1 YY    0.016638   0.355884  -0.010355   0.220671  -0.237830
   12  N  1 ZZ   -0.108314  -0.387605   0.149725  -0.326889   0.077630
   13  N  1 XY    0.051756   0.225475  -0.234100  -0.425840   0.131175
   14  N  1 XZ   -0.212889   0.080362   0.014491   0.017312   0.226122
   15  N  1 YZ   -0.128170   0.027709   0.018336  -0.015021  -0.047226
   16  N  2  S    0.003377  -0.010036  -0.005374   0.023815  -0.004746
   17  N  2  S    0.145105  -0.082926   0.094307  -0.523351  -0.286497
   18  N  2  S   -1.187008   0.848797   0.012188   0.785184   0.768996
   19  N  2  X    0.064761   0.061687  -0.045047  -0.262767   0.188640
   20  N  2  Y    0.092010  -0.027702   0.018207   0.169150   0.048560
   21  N  2  Z    0.044606   0.036124  -0.016242   0.014173   0.004415
   22  N  2  X    0.201935  -0.550309   0.216381   0.156352  -0.009379
   23  N  2  Y    0.485384  -0.469316  -0.043858  -0.393804  -0.405216
   24  N  2  Z   -0.123584  -0.018908  -0.002307  -0.037161  -0.007017
   25  N  2 XX    0.052019  -0.019353  -0.535785   0.373256   0.129213
   26  N  2 YY   -0.031370   0.172396   0.295544   0.054021   0.215922
   27  N  2 ZZ   -0.020649  -0.153043   0.240241  -0.427277  -0.345135
   28  N  2 XY   -0.050804  -0.010241  -0.233349  -0.393176   0.295941
   29  N  2 XZ    0.290902   0.096173  -0.077660   0.001978  -0.011029
   30  N  2 YZ    0.199526   0.180915  -0.096357   0.043163  -0.067293
   31  O  3  S    0.034400  -0.002153  -0.004243   0.006172   0.051195
   32  O  3  S   -0.892662   0.197114  -0.052300   0.092357  -0.417250
   33  O  3  S    1.890059  -0.760525   0.196750  -0.524749  -0.037203
   34  O  3  X   -0.011167  -0.156573   0.021111  -0.072949  -0.269573
   35  O  3  Y   -0.051370   0.014967   0.217375   0.143075   0.011155
   36  O  3  Z    0.094948   0.011254  -0.022418  -0.050348  -0.098628
   37  O  3  X    0.656359   0.025918   0.041178  -0.223311   0.054329
   38  O  3  Y    0.158719  -0.397535   0.144015  -0.268519  -0.036302
   39  O  3  Z    0.202476  -0.015770  -0.020349   0.039016   0.063726
   40  O  3 XX   -0.038011   0.227439   0.116019   0.074372  -0.076062
   41  O  3 YY    0.006672  -0.234831  -0.121204   0.068820   0.420661
   42  O  3 ZZ    0.031339   0.007392   0.005184  -0.143192  -0.344599
   43  O  3 XY   -0.058893   0.030682  -0.206692  -0.134361   0.039495
   44  O  3 XZ   -0.369271  -0.015315  -0.022843  -0.009210   0.198337
   45  O  3 YZ   -0.001770  -0.124618   0.061925  -0.019048  -0.213247
   46  H  4  S   -0.448732   0.147813   0.109148  -0.163623  -0.239105
   47  H  4  S   -0.117599   0.217928  -0.008469  -0.115675  -0.111662
   48  H  4  X    0.152413   0.284789  -0.345213  -0.127935  -0.407512
   49  H  4  Y   -0.134565   0.268920  -0.138424   0.243541   0.194572
   50  H  4  Z   -0.240984   0.020086  -0.175500   0.037385  -0.091329
   51  H  5  S   -0.245691  -0.506489   0.124736   0.220610   0.135705
   52  H  5  S   -0.070808  -0.079982  -0.107258   0.033199   0.144455
   53  H  5  X   -0.036692  -0.345703  -0.101518   0.241857  -0.273083
   54  H  5  Y    0.011860   0.428092   0.552322  -0.049005   0.167630
   55  H  5  Z   -0.448176   0.184608  -0.174349  -0.060404  -0.278538

                     41         42         43         44         45
                    2.2640     2.3197     2.4022     2.4205     2.5246
                     A          A          A          A          A   
    1  N  1  S   -0.014614  -0.005064  -0.027436  -0.016699   0.014694
    2  N  1  S    0.447747   0.383828   0.292641   0.355821   0.077112
    3  N  1  S   -1.367975  -0.489550  -0.015220  -0.192718  -0.524967
    4  N  1  X    0.211160   0.146902   0.110974   0.072846  -0.027952
    5  N  1  Y    0.043335   0.131399   0.147336   0.143943  -0.070459
    6  N  1  Z   -0.006846  -0.035626   0.007375   0.030337   0.012016
    7  N  1  X    0.575652   0.242189   0.310200   0.288205   0.146448
    8  N  1  Y   -0.441708  -0.258765   0.231230  -0.023766  -0.296568
    9  N  1  Z   -0.043488  -0.204036  -0.108310   0.271235  -0.064390
   10  N  1 XX   -0.147137  -0.124896  -0.297136  -0.212030   0.161329
   11  N  1 YY   -0.116727  -0.193558   0.269901   0.010933  -0.293134
   12  N  1 ZZ    0.263863   0.318454   0.027236   0.201097   0.131804
   13  N  1 XY   -0.116809   0.061329   0.040509   0.143229  -0.056487
   14  N  1 XZ   -0.237568  -0.257763   0.563091   0.028454   0.390563
   15  N  1 YZ    0.066215  -0.457698  -0.251769   0.618341  -0.033516
   16  N  2  S    0.001789  -0.013903   0.002067  -0.009781  -0.005065
   17  N  2  S   -0.626787   0.272055  -0.043168   0.216863   0.014478
   18  N  2  S    1.952691  -0.228909  -0.033021  -0.211467   0.449330
   19  N  2  X    0.097845   0.083602  -0.038633   0.017183   0.065422
   20  N  2  Y    0.058304  -0.133757   0.001887  -0.111243  -0.050488
   21  N  2  Z   -0.003846   0.012734   0.004048  -0.001415  -0.013496
   22  N  2  X    0.080403   0.262495  -0.151516  -0.016649   0.201292
   23  N  2  Y   -0.937759   0.297656   0.018799   0.271484  -0.106600
   24  N  2  Z   -0.044088   0.067306   0.122359  -0.277181  -0.094555
   25  N  2 XX    0.143352   0.081169   0.064982   0.147269   0.069842
   26  N  2 YY    0.395950  -0.246706   0.021260  -0.295766  -0.135652
   27  N  2 ZZ   -0.539302   0.165537  -0.086242   0.148497   0.065810
   28  N  2 XY    0.310924  -0.067178   0.218071   0.109442  -0.202723
   29  N  2 XZ   -0.052389   0.216865   0.398897  -0.292687   0.525026
   30  N  2 YZ    0.123896  -0.022213  -0.311451   0.453306   0.136264
   31  O  3  S    0.016605   0.016264   0.016030   0.020726  -0.019859
   32  O  3  S   -0.013371  -0.342315  -0.171863  -0.243084   0.190421
   33  O  3  S   -0.623765   0.679153   0.107336   0.308139  -0.113644
   34  O  3  X   -0.137672  -0.087891  -0.126115  -0.134230   0.125376
   35  O  3  Y   -0.269655   0.122243  -0.065471   0.084905  -0.017024
   36  O  3  Z    0.060941  -0.029657  -0.014903  -0.049001  -0.003535
   37  O  3  X   -0.107751   0.287404   0.198852   0.225546  -0.129394
   38  O  3  Y    0.013218  -0.085410   0.014090  -0.120860  -0.061265
   39  O  3  Z   -0.089201   0.058211   0.075857   0.067389   0.093531
   40  O  3 XX    0.118177  -0.061000   0.249983   0.202508  -0.061780
   41  O  3 YY    0.031952   0.219382  -0.397186  -0.127088   0.203256
   42  O  3 ZZ   -0.150129  -0.158382   0.147203  -0.075419  -0.141476
   43  O  3 XY    0.158072  -0.181883   0.074088  -0.122627  -0.075007
   44  O  3 XZ   -0.200684  -0.019018   0.211644   0.059175   0.171649
   45  O  3 YZ    0.253612  -0.077056  -0.092698   0.091572   0.692627
   46  H  4  S    0.277095  -0.149683   0.111555   0.053204   0.107499
   47  H  4  S   -0.067311   0.179598   0.111146   0.140905  -0.050175
   48  H  4  X    0.146799   0.168952   0.112339   0.061028   0.164799
   49  H  4  Y   -0.234203   0.499263  -0.054256   0.426707   0.083048
   50  H  4  Z    0.119520  -0.126613  -0.275181  -0.022870   0.378411
   51  H  5  S    0.098520   0.032261  -0.195342  -0.109518   0.109340
   52  H  5  S   -0.123043  -0.111048  -0.163775  -0.115139   0.020627
   53  H  5  X    0.214972   0.206944   0.466977   0.316593  -0.214372
   54  H  5  Y    0.360150   0.259546  -0.018967   0.079416   0.177863
   55  H  5  Z    0.199688   0.530873  -0.243719  -0.391293  -0.204996

                     46         47         48         49         50
                    2.6436     2.6731     2.7069     2.9177     2.9658
                     A          A          A          A          A   
    1  N  1  S    0.037428   0.051304  -0.001460   0.031151   0.021983
    2  N  1  S    0.105020   0.094944  -0.236749  -0.005663   0.097762
    3  N  1  S   -1.304201  -1.878125   0.433228  -0.610091  -0.394365
    4  N  1  X    0.282565  -0.019604   0.012908  -0.258463   0.190511
    5  N  1  Y   -0.155412  -0.293838   0.004498  -0.185188  -0.081457
    6  N  1  Z   -0.004781  -0.017056   0.005323  -0.002577   0.010782
    7  N  1  X    0.464721   0.541013  -0.275661  -0.178610   0.651596
    8  N  1  Y   -0.593036  -0.712485   0.218406  -0.396719   0.083435
    9  N  1  Z    0.028360  -0.049299   0.091207   0.053604  -0.030897
   10  N  1 XX    0.148117  -0.537762  -0.243697  -0.103486  -0.332877
   11  N  1 YY   -0.546337   0.046927   0.380295  -0.219706   0.204412
   12  N  1 ZZ    0.398220   0.490835  -0.136598   0.323192   0.128465
   13  N  1 XY    0.211133   0.592793   0.074673  -0.160948   0.445516
   14  N  1 XZ    0.075858   0.041148  -0.349224  -0.271008   0.081348
   15  N  1 YZ    0.112782  -0.087188  -0.010102  -0.102663   0.060899
   16  N  2  S   -0.035327  -0.071878  -0.004420   0.020945   0.025778
   17  N  2  S   -0.155393  -0.124602  -0.047667  -0.171383  -0.092696
   18  N  2  S    1.723902   2.442586  -0.105264  -0.351320  -0.977264
   19  N  2  X    0.094372  -0.001373  -0.096792   0.213218   0.384714
   20  N  2  Y   -0.198436  -0.396003  -0.006377   0.212985   0.152599
   21  N  2  Z   -0.013182  -0.006029  -0.044197  -0.018954   0.011854
   22  N  2  X    0.476805   0.292094  -0.161106   0.334644   0.857871
   23  N  2  Y   -0.696267  -1.040651  -0.126762   0.298411   0.354478
   24  N  2  Z   -0.101245   0.048389  -0.277596  -0.085512   0.019554
   25  N  2 XX    0.279771   0.217211  -0.307199   0.405707  -0.437271
   26  N  2 YY    0.104317   0.386341   0.408204  -0.474604   0.256344
   27  N  2 ZZ   -0.384088  -0.603551  -0.101006   0.068897   0.180926
   28  N  2 XY   -0.493731  -0.272627   0.149497  -0.317607  -0.796961
   29  N  2 XZ   -0.062276  -0.012550   0.278100   0.067308  -0.065342
   30  N  2 YZ    0.140422  -0.100933   0.529410   0.137131  -0.025562
   31  O  3  S   -0.017823   0.013537   0.018963  -0.010062  -0.048168
   32  O  3  S    0.316637   0.211665  -0.076277  -0.435300  -0.616063
   33  O  3  S   -0.628714  -1.074682  -0.211053   1.252386   2.447550
   34  O  3  X    0.098707  -0.097551  -0.114455   0.054299   0.240215
   35  O  3  Y   -0.008498   0.027396   0.021128   0.029231  -0.053206
   36  O  3  Z    0.017424  -0.020784  -0.036533   0.008856   0.089373
   37  O  3  X   -0.397033  -0.399568  -0.117438   0.694168   1.039810
   38  O  3  Y   -0.113266  -0.360217   0.016938   0.204800   0.575844
   39  O  3  Z    0.142835  -0.146717   0.318439   0.175531   0.074432
   40  O  3 XX   -0.389004   0.047451  -0.278341   0.798848   0.184222
   41  O  3 YY   -0.072332  -0.179833   0.073239  -0.500644   0.530048
   42  O  3 ZZ    0.461336   0.132382   0.205101  -0.298204  -0.714270
   43  O  3 XY    0.148109  -0.452036  -0.059780   0.238120   0.328528
   44  O  3 XZ    0.286405  -0.292897   0.616013   0.339016   0.157261
   45  O  3 YZ   -0.280164   0.139361   0.280923   0.014965  -0.187663
   46  H  4  S    0.185754   0.177934  -0.109139  -0.381970  -0.541000
   47  H  4  S   -0.034438  -0.097223  -0.036266  -0.087675   0.240808
   48  H  4  X    0.354976  -0.212505  -0.197055  -0.277385   0.439061
   49  H  4  Y   -0.088985   0.067263  -0.073372  -0.358895  -0.263125
   50  H  4  Z   -0.458778   0.171701  -0.319011  -0.100616   0.189840
   51  H  5  S    0.026732   0.327170   0.009506   0.528371  -0.299834
   52  H  5  S   -0.052242   0.076348   0.052260   0.137699  -0.268380
   53  H  5  X    0.003045  -0.200858   0.078859  -0.507869   0.285836
   54  H  5  Y    0.293777  -0.368015  -0.285867  -0.150007  -0.124289
   55  H  5  Z   -0.092873   0.002642   0.179237   0.124984  -0.041641

                     51         52
                    3.3800     3.4614
                     A          A   
    1  N  1  S    0.033759  -0.063123
    2  N  1  S   -0.023211   0.012634
    3  N  1  S   -0.660423   1.210488
    4  N  1  X   -0.127927   0.471349
    5  N  1  Y   -0.106945   0.168006
    6  N  1  Z   -0.012514   0.018956
    7  N  1  X   -0.092245   0.241382
    8  N  1  Y   -0.131451   0.248086
    9  N  1  Z   -0.078700   0.023501
   10  N  1 XX   -0.359407   0.766795
   11  N  1 YY    0.118366  -0.253953
   12  N  1 ZZ    0.241041  -0.512842
   13  N  1 XY   -0.217557   0.905761
   14  N  1 XZ    0.072561  -0.115056
   15  N  1 YZ   -0.015444  -0.081622
   16  N  2  S    0.029174  -0.002346
   17  N  2  S   -0.021821   0.075947
   18  N  2  S   -0.211686  -0.429882
   19  N  2  X    0.150117   0.110332
   20  N  2  Y    0.081049  -0.009383
   21  N  2  Z    0.021297  -0.009912
   22  N  2  X    0.394864   0.092354
   23  N  2  Y    0.009479   0.155511
   24  N  2  Z    0.065832   0.026681
   25  N  2 XX   -0.213297   0.102073
   26  N  2 YY    0.078548  -0.117970
   27  N  2 ZZ    0.134749   0.015897
   28  N  2 XY   -0.289440  -0.304592
   29  N  2 XZ   -0.020324   0.016938
   30  N  2 YZ   -0.040892  -0.001832
   31  O  3  S    0.040832   0.007031
   32  O  3  S   -0.022190   0.071261
   33  O  3  S   -0.738764  -0.195040
   34  O  3  X   -0.249329  -0.000182
   35  O  3  Y    0.363112   0.174482
   36  O  3  Z   -0.139595  -0.061171
   37  O  3  X   -0.416692  -0.098648
   38  O  3  Y    0.877157   0.377368
   39  O  3  Z   -0.288870  -0.129379
   40  O  3 XX   -0.211672   0.152713
   41  O  3 YY   -0.021880  -0.235446
   42  O  3 ZZ    0.233553   0.082733
   43  O  3 XY    1.069092   0.352961
   44  O  3 XZ   -0.414133  -0.094286
   45  O  3 YZ    0.354465   0.276694
   46  H  4  S    1.485135   0.305940
   47  H  4  S    0.313407   0.071291
   48  H  4  X   -0.540610  -0.803171
   49  H  4  Y    0.907957   0.005068
   50  H  4  Z   -0.429352   0.051056
   51  H  5  S    0.441007  -1.133848
   52  H  5  S    0.044830  -0.238343
   53  H  5  X   -0.305723   0.925573
   54  H  5  Y   -0.254449   0.472911
   55  H  5  Z   -0.019396   0.095100
 ...... END OF RHF CALCULATION ......
 STEP CPU TIME =     4.48 TOTAL CPU TIME =          4.7 (      0.1 MIN)
 TOTAL WALL CLOCK TIME=          5.8 SECONDS, CPU UTILIZATION IS    80.58%

     ---------------------------------------------------------------------
     PROPERTIES FOR THE PBE      DFT FUNCTIONAL (RHF  TYPE) DENSITY MATRIX
     ---------------------------------------------------------------------

          -----------------
          ENERGY COMPONENTS
          -----------------

         WAVEFUNCTION NORMALIZATION =       1.0000000000

                ONE ELECTRON ENERGY =    -399.5062745023
                TWO ELECTRON ENERGY =     139.7801663336
           NUCLEAR REPULSION ENERGY =      74.1740447022
                                      ------------------
                       TOTAL ENERGY =    -185.5520634666

 ELECTRON-ELECTRON POTENTIAL ENERGY =     139.7801663336
  NUCLEUS-ELECTRON POTENTIAL ENERGY =    -584.9409259102
   NUCLEUS-NUCLEUS POTENTIAL ENERGY =      74.1740447022
                                      ------------------
             TOTAL POTENTIAL ENERGY =    -370.9867148745
               TOTAL KINETIC ENERGY =     185.4346514079
                 VIRIAL RATIO (V/T) =       2.0006331722

          ---------------------------------------
          MULLIKEN AND LOWDIN POPULATION ANALYSES
          ---------------------------------------

     ATOMIC MULLIKEN POPULATION IN EACH MOLECULAR ORBITAL

                      1          2          3          4          5

                  2.000000   2.000000   2.000000   2.000000   2.000000

    1             0.000048   0.001452   1.999057   0.186993   0.885844
    2             0.001400   1.998132   0.000792   0.712436   0.459793
    3             1.998498   0.000236   0.000045   0.980760   0.496243
    4             0.000049   0.000133   0.000266   0.118713   0.024019
    5             0.000005   0.000046  -0.000161   0.001098   0.134101

                      6          7          8          9         10

                  2.000000   2.000000   2.000000   2.000000   2.000000

    1             0.344657   0.724602   0.348236   0.487093   0.408244
    2             0.642062   0.208754   0.887373   0.746045   1.111073
    3             0.671150   0.572389   0.732416   0.741990   0.284387
    4             0.277193   0.123411   0.019945   0.013639   0.180678
    5             0.064939   0.370845   0.012030   0.011233   0.015618

                     11         12

                  2.000000   2.000000

    1             0.968266   0.879130
    2             0.073562   0.083174
    3             0.708905   0.989370
    4             0.051787   0.004872
    5             0.197480   0.043454

               ----- POPULATIONS IN EACH AO -----
                             MULLIKEN      LOWDIN
              1  N  1  S      1.99486     1.97232
              2  N  1  S      0.90693     0.57404
              3  N  1  S      0.78773     0.42494
              4  N  1  X      0.76755     0.69725
              5  N  1  Y      0.81610     0.76968
              6  N  1  Z      0.75103     0.71776
              7  N  1  X      0.24918     0.38924
              8  N  1  Y      0.40474     0.52525
              9  N  1  Z      0.51962     0.53784
             10  N  1 XX      0.00424     0.19922
             11  N  1 YY      0.00813     0.19150
             12  N  1 ZZ      0.01521     0.18486
             13  N  1 XY      0.00347     0.03072
             14  N  1 XZ      0.00483     0.00569
             15  N  1 YZ      0.00000     0.00560
             16  N  2  S      1.99515     1.97257
             17  N  2  S      0.94758     0.58451
             18  N  2  S      0.84543     0.44447
             19  N  2  X      0.71559     0.66360
             20  N  2  Y      0.90510     0.86038
             21  N  2  Z      0.59253     0.53919
             22  N  2  X      0.15158     0.29125
             23  N  2  Y      0.33098     0.47177
             24  N  2  Z      0.36542     0.40646
             25  N  2 XX      0.00796     0.19896
             26  N  2 YY      0.01484     0.19430
             27  N  2 ZZ      0.02882     0.18630
             28  N  2 XY      0.01291     0.04792
             29  N  2 XZ      0.01069     0.02587
             30  N  2 YZ      0.00000     0.01228
             31  O  3  S      1.99513     1.97127
             32  O  3  S      0.93277     0.65960
             33  O  3  S      0.85482     0.45766
             34  O  3  X      1.03216     0.98074
             35  O  3  Y      0.84518     0.78336
             36  O  3  Z      1.06090     1.02307
             37  O  3  X      0.45483     0.54813
             38  O  3  Y      0.35338     0.45574
             39  O  3  Z      0.61543     0.63858
             40  O  3 XX      0.00359     0.18795
             41  O  3 YY      0.00717     0.19430
             42  O  3 ZZ      0.01311     0.18294
             43  O  3 XY      0.00599     0.02385
             44  O  3 XZ      0.00192     0.00872
             45  O  3 YZ      0.00000     0.00397
             46  H  4  S      0.66398     0.50758
             47  H  4  S      0.07962     0.20968
             48  H  4  X      0.03400     0.09589
             49  H  4  Y      0.02479     0.04510
             50  H  4  Z      0.01231     0.02729
             51  H  5  S      0.73859     0.60619
             52  H  5  S      0.07988     0.19174
             53  H  5  X      0.01676     0.03205
             54  H  5  Y      0.00838     0.01961
             55  H  5  Z      0.00708     0.01924

          ----- MULLIKEN ATOMIC OVERLAP POPULATIONS -----
          (OFF-DIAGONAL ELEMENTS NEED TO BE MULTIPLIED BY 2)

             1           2           3           4           5

    1    6.8939933
    2    0.3281459   6.4636652
    3   -0.3571648   0.2021968   7.9971638
    4    0.0734020  -0.0456441   0.3166898   0.4723690
    5    0.2952455  -0.0237690   0.0175034  -0.0021117   0.5638207

          TOTAL MULLIKEN AND LOWDIN ATOMIC POPULATIONS
       ATOM         MULL.POP.    CHARGE          LOW.POP.     CHARGE
    1 N             7.233622   -0.233622         7.225890   -0.225890
    2 N             6.924595    0.075405         6.899854    0.100146
    3 O             8.176389   -0.176389         8.119870   -0.119870
    4 H             0.814705    0.185295         0.885549    0.114451
    5 H             0.850689    0.149311         0.868838    0.131162

          MULLIKEN SPHERICAL HARMONIC POPULATIONS
       ATOM           S       P       D      F      G      H      I    TOTAL
    1 N             3.69    3.51    0.04   0.00   0.00   0.00   0.00    7.23
    2 N             3.79    3.06    0.08   0.00   0.00   0.00   0.00    6.92
    3 O             3.78    4.36    0.03   0.00   0.00   0.00   0.00    8.18
    4 H             0.74    0.07    0.00   0.00   0.00   0.00   0.00    0.81
    5 H             0.82    0.03    0.00   0.00   0.00   0.00   0.00    0.85

          -------------------------------
          BOND ORDER AND VALENCE ANALYSIS     BOND ORDER THRESHOLD=0.050
          -------------------------------

                   BOND                       BOND                       BOND
  ATOM PAIR DIST  ORDER      ATOM PAIR DIST  ORDER      ATOM PAIR DIST  ORDER
    1   2  1.350  1.645        1   3  1.874  0.107        1   4  1.405  0.209
    1   5  1.038  0.927        2   3  1.300  1.180        2   4  1.640  0.058
    3   4  1.000  0.834

                       TOTAL       BONDED        FREE
      ATOM            VALENCE     VALENCE     VALENCE
    1 N                 2.888       2.888      -0.000
    2 N                 2.898       2.898       0.000
    3 O                 2.159       2.159       0.000
    4 H                 1.108       1.108       0.000
    5 H                 0.986       0.986       0.000

          ---------------------
          ELECTROSTATIC MOMENTS
          ---------------------

 POINT   1           X           Y           Z (BOHR)    CHARGE
                 0.000000   -0.000000   -0.000000        0.00 (A.U.)
         DX          DY          DZ         /D/  (DEBYE)
[...]
   54  H  5  Y   -0.011569  -0.004391  -0.007753   0.001423  -0.005273
   55  H  5  Z    0.002075   0.000818   0.001355   0.008120   0.000894

                     11         12         13         14         15
                   -0.2676    -0.2634    -0.1041    -0.0082     0.0416
                     A          A          A          A          A   
    1  N  1  S    0.068546  -0.000090  -0.000019   0.085557   0.036759
    2  N  1  S   -0.170565   0.000218   0.000046  -0.185345  -0.067373
    3  N  1  S   -0.254955   0.000377   0.000074  -0.620145  -0.501204
    4  N  1  X    0.192684   0.001099  -0.001126  -0.159723  -0.226572
    5  N  1  Y    0.000213   0.078181  -0.063958   0.188533  -0.292798
    6  N  1  Z   -0.000004   0.447336  -0.365516  -0.032583   0.051923
    7  N  1  X    0.086874   0.000903  -0.001264  -0.326159  -0.394914
    8  N  1  Y    0.027696   0.059966  -0.072138   0.283579  -0.449232
    9  N  1  Z   -0.004631   0.343301  -0.412203  -0.048709   0.079797
   10  N  1 XX   -0.002639  -0.000012  -0.000093   0.007075   0.017080
   11  N  1 YY    0.006299   0.004089   0.003867   0.004312  -0.017518
   12  N  1 ZZ   -0.003659  -0.004077  -0.003774  -0.011387   0.000438
   13  N  1 XY    0.009643  -0.000354  -0.002752   0.021024  -0.019995
   14  N  1 XZ   -0.001692  -0.002199  -0.015966  -0.003749   0.003441
   15  N  1 YZ   -0.002088   0.013117   0.012370  -0.003343   0.003811
   16  N  2  S   -0.065648   0.000078   0.000001   0.035639  -0.036352
   17  N  2  S    0.141208  -0.000167  -0.000008  -0.052042   0.074825
   18  N  2  S    0.227780  -0.000283   0.000035  -0.543845   0.407695
   19  N  2  X   -0.026636   0.000200   0.001825   0.016036   0.026588
   20  N  2  Y    0.295341   0.007370   0.097531  -0.055462  -0.080100
   21  N  2  Z   -0.051559   0.044145   0.557351   0.009708   0.013930
   22  N  2  X    0.026649  -0.000002   0.001705  -0.043683  -0.035423
   23  N  2  Y    0.201788   0.002206   0.089256   0.084835  -0.141906
   24  N  2  Z   -0.035396   0.013947   0.510142  -0.014628   0.024964
   25  N  2 XX   -0.012595   0.000220   0.000004   0.009196  -0.027146
   26  N  2 YY   -0.000496  -0.000518   0.000258  -0.007015   0.019794
   27  N  2 ZZ    0.013091   0.000298  -0.000262  -0.002182   0.007352
   28  N  2 XY    0.018574   0.006238   0.000087  -0.003004   0.003483
   29  N  2 XZ   -0.003097   0.035870   0.000469   0.000481  -0.000481
   30  N  2 YZ    0.002766  -0.001677   0.000830   0.001021  -0.002602
   31  O  3  S    0.027477  -0.000034  -0.000007   0.031953  -0.011742
   32  O  3  S   -0.071361   0.000089   0.000013  -0.075176   0.028113
   33  O  3  S   -0.044185   0.000041   0.000045  -0.168574   0.042120
   34  O  3  X    0.293149  -0.002167  -0.001028  -0.095470  -0.075142
   35  O  3  Y   -0.414855  -0.087125  -0.057361   0.283559  -0.178799
   36  O  3  Z    0.070871  -0.501563  -0.327586  -0.049335   0.031546
   37  O  3  X    0.231452  -0.001588  -0.000978  -0.062177  -0.118535
   38  O  3  Y   -0.280228  -0.062664  -0.054563   0.289891  -0.228369
   39  O  3  Z    0.047731  -0.360616  -0.311663  -0.050558   0.040358
   40  O  3 XX    0.006420  -0.000101   0.000021  -0.005027   0.008591
   41  O  3 YY   -0.001363  -0.001630   0.003555   0.007111  -0.010926
   42  O  3 ZZ   -0.005057   0.001731  -0.003576  -0.002084   0.002335
   43  O  3 XY   -0.011451  -0.002676   0.000655  -0.005143   0.002305
   44  O  3 XZ    0.001936  -0.015284   0.003515   0.000911  -0.000426
   45  O  3 YZ   -0.000740  -0.005223   0.011372  -0.001898   0.002758
   46  H  4  S    0.193101  -0.000228  -0.000058   0.365417  -0.249759
   47  H  4  S    0.145729  -0.000186  -0.000044   0.739553  -0.907191
   48  H  4  X   -0.020224   0.000036  -0.000048   0.002958   0.005385
   49  H  4  Y    0.003758   0.000014  -0.002471  -0.011059   0.015946
   50  H  4  Z   -0.000592   0.000119  -0.014121   0.001923  -0.002811
   51  H  5  S    0.120570  -0.000175  -0.000077   0.209407   0.084586
   52  H  5  S    0.085473  -0.000118  -0.000066   0.804778   1.295369
   53  H  5  X   -0.000892   0.000053  -0.000051   0.014897   0.026074
   54  H  5  Y   -0.000769   0.002960  -0.002845   0.018273  -0.004644
   55  H  5  Z    0.000160   0.016929  -0.016269  -0.003245   0.000737

                     16         17         18         19         20
                    0.1578     0.1918     0.3312     0.5147     0.5333
                     A          A          A          A          A   
    1  N  1  S    0.031822   0.067201   0.091774   0.007839  -0.016766
    2  N  1  S   -0.013619  -0.086867  -0.239614  -0.011969   0.186221
    3  N  1  S   -0.761233  -1.536644  -0.787213   0.296673  -0.818461
    4  N  1  X    0.066253   0.208924   0.111423  -0.529915  -0.240585
    5  N  1  Y    0.013273  -0.163400  -0.117520  -0.395570   0.519957
    6  N  1  Z   -0.002553   0.027951   0.020140   0.070831  -0.090255
    7  N  1  X    0.674309   0.970915   0.575019   0.253907   0.846815
    8  N  1  Y   -0.090408  -0.787190  -0.612615   0.544938  -0.665867
    9  N  1  Z    0.013608   0.134603   0.105244  -0.096108   0.113835
   10  N  1 XX    0.017712  -0.037438   0.079296   0.071410  -0.063140
   11  N  1 YY   -0.025391   0.025118  -0.006290  -0.029226   0.028093
   12  N  1 ZZ    0.007679   0.012319  -0.073006  -0.042185   0.035047
   13  N  1 XY   -0.021016  -0.047886   0.030333   0.015257   0.014186
   14  N  1 XZ    0.003647   0.008557  -0.005871  -0.003041  -0.002120
   15  N  1 YZ    0.006966  -0.002509  -0.014004  -0.002727   0.001389
   16  N  2  S   -0.107264  -0.038030  -0.090492   0.032142  -0.004472
   17  N  2  S    0.242812   0.061113   0.278260  -0.144178  -0.095076
   18  N  2  S    1.515135   1.045939   1.173207  -0.170089   1.615993
   19  N  2  X   -0.282052   0.437851   0.247838   0.372735   0.218394
   20  N  2  Y   -0.314566  -0.116163  -0.070683   0.129874   0.622509
   21  N  2  Z    0.055979   0.018870   0.011600  -0.023866  -0.109666
   22  N  2  X   -0.546802   1.196005   0.514244  -0.564792  -0.567948
   23  N  2  Y   -0.882584  -0.554381  -0.626174   0.109427  -1.290136
   24  N  2  Z    0.156219   0.093034   0.107890  -0.017357   0.227587
   25  N  2 XX   -0.029399   0.014237  -0.015335  -0.024301   0.090806
   26  N  2 YY    0.010154  -0.012794   0.012819   0.046537  -0.023747
   27  N  2 ZZ    0.019245  -0.001443   0.002516  -0.022235  -0.067058
   28  N  2 XY   -0.022169   0.031203   0.004866   0.017229  -0.047335
   29  N  2 XZ    0.004064  -0.005515  -0.000789  -0.003025   0.007678
   30  N  2 YZ    0.001974   0.002253  -0.002161  -0.014383  -0.008859
   31  O  3  S    0.094043  -0.042816   0.009711  -0.015408  -0.006075
   32  O  3  S   -0.159000   0.137738  -0.073363   0.080055   0.127667
   33  O  3  S   -1.169399   0.196519   0.106819  -0.301590  -0.878916
   34  O  3  X   -0.285603   0.163006  -0.236900   0.257483   0.211461
   35  O  3  Y   -0.248330   0.146524   0.142243   0.027065   0.006042
   36  O  3  Z    0.044384  -0.026174  -0.024109  -0.005548  -0.001781
   37  O  3  X   -0.661280   0.121518  -0.097209   0.014463  -0.404820
   38  O  3  Y   -0.398982   0.334706  -0.005191  -0.013002  -0.203078
   39  O  3  Z    0.071978  -0.058956   0.001218   0.002204   0.036889
   40  O  3 XX   -0.000484   0.000192   0.022886  -0.018698  -0.060635
   41  O  3 YY   -0.000824  -0.014036  -0.003292  -0.013360   0.029668
   42  O  3 ZZ    0.001308   0.013844  -0.019594   0.032059   0.030967
   43  O  3 XY    0.022327   0.006414  -0.022553  -0.023051  -0.048435
   44  O  3 XZ   -0.003899  -0.001067   0.003786   0.004231   0.008824
   45  O  3 YZ    0.000367   0.005787  -0.003318   0.009553   0.000437
   46  H  4  S   -0.242155  -0.319099   0.795783  -0.455274   0.153719
   47  H  4  S    0.677086   0.766293  -0.849579   0.809514  -0.381712
   48  H  4  X   -0.001236   0.001975   0.009808   0.036551  -0.025694
   49  H  4  Y   -0.002794  -0.009094  -0.009739   0.066333   0.002902
   50  H  4  Z    0.000493   0.001590   0.001663  -0.011750  -0.000415
   51  H  5  S    0.072095  -0.254886   0.623165   0.703731  -0.198548
   52  H  5  S   -0.248083  -0.122066  -0.605275  -0.804011   0.196949
   53  H  5  X    0.004857  -0.013822   0.048707   0.119698  -0.004657
   54  H  5  Y   -0.015756  -0.020424  -0.003171   0.023131  -0.025633
   55  H  5  Z    0.002740   0.003617   0.000393  -0.004396   0.004495

                     21         22
                    0.5435     0.5766
                     A          A   
    1  N  1  S   -0.000009  -0.014487
    2  N  1  S    0.000000   0.055408
    3  N  1  S    0.000303  -1.116834
    4  N  1  X   -0.002308  -0.251721
    5  N  1  Y   -0.133939  -0.189347
    6  N  1  Z   -0.765025   0.033876
    7  N  1  X    0.002176   0.544985
    8  N  1  Y    0.132460   0.005317
    9  N  1  Z    0.756001  -0.002642
   10  N  1 XX    0.000159  -0.041472
   11  N  1 YY   -0.009315  -0.008927
   12  N  1 ZZ    0.009156   0.050399
   13  N  1 XY    0.004607   0.097921
   14  N  1 XZ    0.027031  -0.016766
   15  N  1 YZ   -0.029822   0.012025
   16  N  2  S   -0.000005  -0.034218
   17  N  2  S    0.000020   0.135561
   18  N  2  S   -0.000226   0.432443
   19  N  2  X   -0.001484  -0.575546
   20  N  2  Y   -0.083592   0.511344
   21  N  2  Z   -0.477425  -0.087633
   22  N  2  X    0.001078   1.333203
   23  N  2  Y    0.069091  -0.972915
   24  N  2  Z    0.394356   0.165905
   25  N  2 XX   -0.000112   0.018089
   26  N  2 YY    0.014734  -0.015678
   27  N  2 ZZ   -0.014622  -0.002411
   28  N  2 XY   -0.003031  -0.016318
   29  N  2 XZ   -0.018410   0.002777
   30  N  2 YZ    0.047175   0.002828
   31  O  3  S    0.000006  -0.018914
   32  O  3  S   -0.000013   0.081591
   33  O  3  S   -0.000079   0.200774
   34  O  3  X   -0.000642  -0.132840
   35  O  3  Y   -0.035459   0.089037
   36  O  3  Z   -0.202673  -0.015163
   37  O  3  X    0.000114   0.075617
   38  O  3  Y    0.010042   0.146628
   39  O  3  Z    0.057539  -0.025901
   40  O  3 XX   -0.000028  -0.005830
   41  O  3 YY   -0.005235   0.012857
   42  O  3 ZZ    0.005264  -0.007027
   43  O  3 XY   -0.000960   0.061721
   44  O  3 XZ   -0.005115  -0.010808
   45  O  3 YZ   -0.016722  -0.004361
   46  H  4  S   -0.000023  -0.130489
   47  H  4  S   -0.000034   0.338720
   48  H  4  X    0.000077   0.058327
   49  H  4  Y    0.004928  -0.000771
   50  H  4  Z    0.028233  -0.000056
   51  H  5  S   -0.000040   0.104944
   52  H  5  S   -0.000007  -0.345150
   53  H  5  X    0.000006   0.010350
   54  H  5  Y   -0.000387   0.060889
   55  H  5  Z   -0.002201  -0.010667

     ---------------------------------------------------------------------
     PROPERTIES FOR THE PBE      DFT FUNCTIONAL (RHF  TYPE) DENSITY MATRIX
     ---------------------------------------------------------------------

          -----------------
          ENERGY COMPONENTS
          -----------------

         WAVEFUNCTION NORMALIZATION =       1.0000000000

                ONE ELECTRON ENERGY =    -397.3696329730
                TWO ELECTRON ENERGY =     138.7808355926
           NUCLEAR REPULSION ENERGY =      73.0033764160
                                      ------------------
                       TOTAL ENERGY =    -185.5854209645

 ELECTRON-ELECTRON POTENTIAL ENERGY =     138.7808355926
  NUCLEUS-ELECTRON POTENTIAL ENERGY =    -582.4513339510
   NUCLEUS-NUCLEUS POTENTIAL ENERGY =      73.0033764160
                                      ------------------
             TOTAL POTENTIAL ENERGY =    -370.6671219425
               TOTAL KINETIC ENERGY =     185.0817009780
                 VIRIAL RATIO (V/T) =       2.0027216088

          ---------------------------------------
          MULLIKEN AND LOWDIN POPULATION ANALYSES
          ---------------------------------------

     ATOMIC MULLIKEN POPULATION IN EACH MOLECULAR ORBITAL

                      1          2          3          4          5

                  2.000000   2.000000   2.000000   2.000000   2.000000

    1            -0.000029   0.001777   1.999045   0.288968   0.840877
    2             0.001770   1.997956   0.000895   0.829876   0.439559
    3             1.998073   0.000128   0.000034   0.845140   0.615229
    4             0.000185   0.000085   0.000240   0.030797   0.000524
    5             0.000002   0.000053  -0.000213   0.005218   0.103811

                      6          7          8          9         10

                  2.000000   2.000000   2.000000   2.000000   2.000000

    1             0.747180   0.605804   0.536832   0.495766   0.617831
    2             0.425061   0.489110   0.461434   0.953578   0.756668
    3             0.460591   0.393025   0.952514   0.545929   0.367116
    4             0.052897   0.292338   0.032600   0.002966   0.174774
    5             0.314271   0.219723   0.016620   0.001761   0.083611

                     11         12

                  2.000000   2.000000

    1             0.147648   0.917674
    2             0.505418   0.024455
    3             1.096963   1.051817
    4             0.183703   0.000004
    5             0.066268   0.006050

               ----- POPULATIONS IN EACH AO -----
                             MULLIKEN      LOWDIN
              1  N  1  S      1.99440     1.97090
              2  N  1  S      0.87260     0.53907
              3  N  1  S      0.68945     0.38807
              4  N  1  X      0.78187     0.70179
              5  N  1  Y      0.80786     0.75493
              6  N  1  Z      0.84126     0.80223
              7  N  1  X      0.21851     0.39123
              8  N  1  Y      0.40219     0.49785
              9  N  1  Z      0.55865     0.57316
             10  N  1 XX      0.00348     0.20866
             11  N  1 YY      0.00816     0.17591
             12  N  1 ZZ      0.01297     0.16032
             13  N  1 XY      0.00418     0.02737
             14  N  1 XZ      0.00381     0.00715
             15  N  1 YZ      0.00000     0.00501
             16  N  2  S      1.99488     1.97180
             17  N  2  S      0.92437     0.56167
             18  N  2  S      0.78162     0.42302
             19  N  2  X      0.72108     0.65775
             20  N  2  Y      0.94750     0.90585
             21  N  2  Z      0.60818     0.55116
             22  N  2  X      0.12223     0.28217
             23  N  2  Y      0.35064     0.48855
             24  N  2  Z      0.35307     0.40557
             25  N  2 XX      0.00826     0.20665
             26  N  2 YY      0.01653     0.18351
             27  N  2 ZZ      0.02968     0.17439
             28  N  2 XY      0.01807     0.05251
             29  N  2 XZ      0.00967     0.03624
             30  N  2 YZ      0.00000     0.01112
             31  O  3  S      1.99544     1.97164
             32  O  3  S      0.94247     0.68348
             33  O  3  S      0.94970     0.49517
             34  O  3  X      0.95033     0.90746
             35  O  3  Y      0.91042     0.86500
             36  O  3  Z      0.98776     0.95396
             37  O  3  X      0.46620     0.54041
             38  O  3  Y      0.49887     0.56187
             39  O  3  Z      0.59728     0.62588
             40  O  3 XX      0.00333     0.20139
             41  O  3 YY      0.00699     0.19742
             42  O  3 ZZ      0.01066     0.19543
             43  O  3 XY      0.00581     0.01682
             44  O  3 XZ      0.00127     0.00771
             45  O  3 YZ      0.00000     0.00214
             46  H  4  S      0.56679     0.45864
             47  H  4  S      0.16408     0.26900
             48  H  4  X      0.02385     0.07312
             49  H  4  Y      0.01311     0.01989
             50  H  4  Z      0.00328     0.00566
             51  H  5  S      0.71587     0.57731
             52  H  5  S      0.06793     0.18169
             53  H  5  X      0.01924     0.03610
             54  H  5  Y      0.00637     0.01642
             55  H  5  Z      0.00777     0.02081

          ----- MULLIKEN ATOMIC OVERLAP POPULATIONS -----
          (OFF-DIAGONAL ELEMENTS NEED TO BE MULTIPLIED BY 2)

             1           2           3           4           5

    1    6.6635562
    2    0.3281122   6.3855379
    3   -0.2618336   0.2603746   8.1631705
    4    0.1556115  -0.0698381   0.1528995   0.5300885
    5    0.3139272  -0.0184073   0.0119477   0.0023526   0.5073539

          TOTAL MULLIKEN AND LOWDIN ATOMIC POPULATIONS
       ATOM         MULL.POP.    CHARGE          LOW.POP.     CHARGE
    1 N             7.199374   -0.199374         7.203648   -0.203648
    2 N             6.885779    0.114221         6.911953    0.088047
    3 O             8.326559   -0.326559         8.225755   -0.225755
    4 H             0.771114    0.228886         0.826309    0.173691
    5 H             0.817174    0.182826         0.832335    0.167665

          MULLIKEN SPHERICAL HARMONIC POPULATIONS
       ATOM           S       P       D      F      G      H      I    TOTAL
    1 N             3.56    3.61    0.03   0.00   0.00   0.00   0.00    7.20
    2 N             3.70    3.10    0.08   0.00   0.00   0.00   0.00    6.89
    3 O             3.89    4.41    0.03   0.00   0.00   0.00   0.00    8.33
    4 H             0.73    0.04    0.00   0.00   0.00   0.00   0.00    0.77
    5 H             0.78    0.03    0.00   0.00   0.00   0.00   0.00    0.82

          -------------------------------
          BOND ORDER AND VALENCE ANALYSIS     BOND ORDER THRESHOLD=0.050
          -------------------------------

                   BOND                       BOND                       BOND
  ATOM PAIR DIST  ORDER      ATOM PAIR DIST  ORDER      ATOM PAIR DIST  ORDER
    1   2  1.283  1.505        1   3  2.021  0.220        1   4  1.319  0.494
    1   5  1.033  0.897        2   3  1.291  1.351        2   4  1.688  0.065
    3   4  1.376  0.450        3   5  2.993  0.055

                       TOTAL       BONDED        FREE
      ATOM            VALENCE     VALENCE     VALENCE
    1 N                 3.116       3.116       0.000
    2 N                 2.935       2.935      -0.000
    3 O                 2.075       2.075       0.000
    4 H                 1.023       1.023      -0.000
    5 H                 0.980       0.980       0.000

          ---------------------
          ELECTROSTATIC MOMENTS
          ---------------------

 POINT   1           X           Y           Z (BOHR)    CHARGE
                -0.128975    0.102373    0.048066        0.00 (A.U.)
         DX          DY          DZ         /D/  (DEBYE)
     2.609622   -0.592145    0.095593    2.677667
 ...... END OF PROPERTY EVALUATION ......
 STEP CPU TIME =     0.01 TOTAL CPU TIME =         72.2 (      1.2 MIN)
 TOTAL WALL CLOCK TIME=         74.0 SECONDS, CPU UTILIZATION IS    97.53%
  $VIB   
          IVIB=   0 IATOM=   0 ICOORD=   0 E=     -185.5854209645
 -3.122824583E-05 1.291563358E-05-1.388895734E-05 6.749107875E-06 8.271349648E-06
  2.166476775E-06-1.810776462E-05 2.331434392E-06-2.592742449E-06 2.246223393E-05
 -1.381411457E-05 7.886147783E-06 2.012466865E-05-9.704303054E-06 6.429075233E-06
  2.609622246E+00-5.921451528E-01 9.559342196E-02
 ......END OF GEOMETRY SEARCH......
 STEP CPU TIME =     0.00 TOTAL CPU TIME =         72.2 (      1.2 MIN)
 TOTAL WALL CLOCK TIME=         74.0 SECONDS, CPU UTILIZATION IS    97.51%
                991462  WORDS OF DYNAMIC MEMORY USED
 EXECUTION OF GAMESS TERMINATED NORMALLY Mon Oct  7 08:40:37 2019
 DDI: 263640 bytes (0.3 MB / 0 MWords) used by master data server.

 ----------------------------------------
 CPU timing information for all processes
 ========================================
 0: 71.313 + 0.901 = 72.214
 ----------------------------------------
 ddikick.x: exited gracefully.
----- accounting info -----
Files used on the master node d12chas536.crc.nd.edu were:
-rw-r--r-- 1 wschnei1 campus 267375 Oct  7 08:40 /scratch365/wschnei1/ts-search1.F07
Mon Oct  7 08:40:40 EDT 2019
0.467u 0.358s 1:18.00 1.0%	0+0k 368+576io 2pf+0w
