----- GAMESS execution script 'rungms' -----
This job is running on host d12chas543.crc.nd.edu
under operating system Linux at Mon Oct 7 08:47:38 EDT 2019
SGE has assigned the following compute nodes to this run:
Available scratch disk space (Kbyte units) at beginning of the job is
Filesystem      1K-blocks     Used  Available Use% Mounted on
/dev/sda2      1949705068 69054360 1880650708   4% /
GAMESS temporary binary files will be written to /tmp/474291.1.debug
GAMESS supplementary output files will be written to /afs/crc.nd.edu/user/w/wschnei1/scr
Copying input file ts-vib1.inp to your run's scratch directory...
reading your own /afs/crc.nd.edu/user/w/wschnei1/.gmsrc

 Distributed Data Interface kickoff program.
 Initiating 1 compute processes on 1 nodes to run the following command:
 /afs/crc.nd.edu/x86_64_linux/g/gamess/nov-2017/gamess/gamess.00.x ts-vib1 

          ******************************************************
          *         GAMESS VERSION = 11 NOV 2017 (R3)         *
          *             FROM IOWA STATE UNIVERSITY             *
          * M.W.SCHMIDT, K.K.BALDRIDGE, J.A.BOATZ, S.T.ELBERT, *
          *   M.S.GORDON, J.H.JENSEN, S.KOSEKI, N.MATSUNAGA,   *
          *          K.A.NGUYEN, S.J.SU, T.L.WINDUS,           *
          *       TOGETHER WITH M.DUPUIS, J.A.MONTGOMERY       *
          *         J.COMPUT.CHEM.  14, 1347-1363(1993)        *
          **************** 64 BIT INTEL VERSION ****************

  SINCE 1993, STUDENTS AND POSTDOCS WORKING AT IOWA STATE UNIVERSITY
  AND ALSO IN THEIR VARIOUS JOBS AFTER LEAVING ISU HAVE MADE IMPORTANT
  CONTRIBUTIONS TO THE CODE:
     IVANA ADAMOVIC, CHRISTINE AIKENS, YURI ALEXEEV, POOJA ARORA,
     ANDREY ASADCHEV, ROB BELL, PRADIPTA BANDYOPADHYAY, JONATHAN BENTZ,
     BRETT BODE, KURT BRORSEN, CALEB CARLIN, GALINA CHABAN, WEI CHEN,
     CHEOL HO CHOI, PAUL DAY, ALBERT DEFUSCO, NUWAN DESILVA, TIM DUDLEY,
     DMITRI FEDOROV, ALEX FINDLATER, GRAHAM FLETCHER, MARK FREITAG,
     KURT GLAESEMANN, ANASTASIA GUININA,
     DAN KEMP, GRANT MERRILL, NORIYUKI MINEZAWA, JONATHAN MULLIN,
     TAKESHI NAGATA, SEAN NEDD, HEATHER NETZLOFF, BOSILJKA NJEGIC, RYAN OLSON,
     MIKE PAK, BUU PHAM,
     SPENCER PRUITT, LUKE ROSKOP, JIM SHOEMAKER, LYUDMILA SLIPCHENKO,
     TONY SMITH, SAROM SOK LEANG, JIE SONG, TETSUYA TAKETSUGU, SIMON WEBB,
     PENG XU, SOOHAENG YOO, FEDERICO ZAHARIEV

  ADDITIONAL CODE HAS BEEN PROVIDED BY COLLABORATORS IN OTHER GROUPS:
     IOWA STATE UNIVERSITY:
          JOE IVANIC, AARON WEST, LAIMUTIS BYTAUTAS, KLAUS RUEDENBERG
     UNIVERSITY OF TOKYO: KIMIHIKO HIRAO, TAKAHITO NAKAJIMA,
          TAKAO TSUNEDA, MUNEAKI KAMIYA, SUSUMU YANAGISAWA,
          KIYOSHI YAGI, MAHITO CHIBA, SEIKEN TOKURA, NAOAKI KAWAKAMI
     UNIVERSITY OF AARHUS: FRANK JENSEN
     UNIVERSITY OF IOWA: VISVALDAS KAIRYS, HUI LI
     NATIONAL INST. OF STANDARDS AND TECHNOLOGY: WALT STEVENS, DAVID GARMER
     UNIVERSITY OF PISA: BENEDETTA MENNUCCI, JACOPO TOMASI
     UNIVERSITY OF MEMPHIS: HENRY KURTZ, PRAKASHAN KORAMBATH
     UNIVERSITY OF ALBERTA: TOBY ZENG, MARIUSZ KLOBUKOWSKI
     UNIVERSITY OF NEW ENGLAND: MARK SPACKMAN
     MIE UNIVERSITY: HIROAKI UMEDA
     NAT. INST. OF ADVANCED INDUSTRIAL SCIENCE AND TECHNOLOGY: KAZUO KITAURA
     MICHIGAN STATE UNIVERSITY:
          KAROL KOWALSKI, MARTA WLOCH, JEFFREY GOUR, JESSE LUTZ,
          WEI LI, PIOTR PIECUCH
     UNIVERSITY OF SILESIA: MONIKA MUSIAL, STANISLAW KUCHARSKI
     FACULTES UNIVERSITAIRES NOTRE-DAME DE LA PAIX:
          OLIVIER QUINET, BENOIT CHAMPAGNE
     UNIVERSITY OF CALIFORNIA - SANTA BARBARA: BERNARD KIRTMAN
     INSTITUTE FOR MOLECULAR SCIENCE:
          KAZUYA ISHIMURA, MICHIO KATOUDA, AND SHIGERU NAGASE
     UNIVERSITY OF NOTRE DAME: ANNA POMOGAEVA, DAN CHIPMAN
     KYUSHU UNIVERSITY:
          HARUYUKI NAKANO,
          FENG LONG GU, JACEK KORCHOWIEC, MARCIN MAKOWSKI, AND YURIKO AOKI,
          HIROTOSHI MORI AND EISAKU MIYOSHI
     PENNSYLVANIA STATE UNIVERSITY:
          TZVETELIN IORDANOV, CHET SWALINA, JONATHAN SKONE,
          SHARON HAMMES-SCHIFFER
     WASEDA UNIVERSITY:
          MASATO KOBAYASHI, TOMOKO AKAMA, TSUGUKI TOUMA,
          TAKESHI YOSHIKAWA, YASUHIRO IKABATA, JUNJI SEINO,
          YUYA NAKAJIMA, HIROMI NAKAI
     NANJING UNIVERSITY: SHUHUA LI
     UNIVERSITY OF NEBRASKA:
          PEIFENG SU, DEJUN SI, NANDUN THELLAMUREGE, YALI WANG, HUI LI
     UNIVERSITY OF ZURICH: ROBERTO PEVERATI, KIM BALDRIDGE
     N. COPERNICUS UNIVERSITY AND JACKSON STATE UNIVERSITY:
          MARIA BARYSZ
     UNIVERSITY OF COPENHAGEN: Jimmy Kromann, CASPER STEINMANN
     TOKYO INSTITUTE OF TECHNOLOGY: HIROYA NAKATA
     NAGOYA UNIVERSITY: YOSHIO NISHIMOTO, STEPHAN IRLE
     MOSCOW STATE UNIVERSITY: VLADIMIR MIRONOV

 EXECUTION OF GAMESS BEGUN Mon Oct  7 08:47:38 2019

            ECHO OF THE FIRST FEW INPUT CARDS -
 INPUT CARD> $CONTRL SCFTYP=RHF DFTTYP=PBE RUNTYP=HESSIAN COORD=CART ISPHER=1 $END          
 INPUT CARD> $FORCE METHOD=SEMINUM $END                                                     
 INPUT CARD> $BASIS GBASIS=PCseg-1 $END                                                     
 INPUT CARD> $GUESS GUESS=MOREAD $END                                                       
 INPUT CARD> $DATA                                                                          
 INPUT CARD>H2ON2                                                                           
 INPUT CARD>C1 1                                                                            
 INPUT CARD> N           7.0   0.9233485039  -0.2399318160   0.0736256617                   
 INPUT CARD> N           7.0  -0.0272197420   0.6088503884  -0.0717581187                   
 INPUT CARD> O           8.0  -1.0933769256  -0.1081391759   0.0571959479                   
 INPUT CARD> H           1.0  -0.1059622027  -1.0519964547   0.2191639975                   
 INPUT CARD> H           1.0   1.8912457716   0.1158820221   0.0085037392                   
 INPUT CARD> $END                                                                           
 INPUT CARD> $VEC                                                                           
 INPUT CARD> 1  1 1.63816016E-05 3.78257571E-04 7.66311361E-04-2.59086682E-04 3.03774583E-04
 INPUT CARD> 1  2-5.23251405E-05-3.70784010E-04-1.14353914E-03 2.01387483E-04-2.25978043E-04
 INPUT CARD> 1  3-5.51830480E-06 2.31496348E-04-1.34974182E-04 2.53472677E-05 4.98565862E-05
 INPUT CARD> 1  4-7.66818848E-05 7.72961352E-04-8.28350093E-03-2.01460361E-05 1.24207061E-04
 INPUT CARD> 1  5-2.16742441E-05 4.39066179E-03 3.41423524E-03-6.11829707E-04 3.60016872E-04
 INPUT CARD> 1  6-1.52751371E-04-2.07265501E-04 5.57645125E-04-9.97287129E-05-1.33053525E-05
 INPUT CARD> 1  7-9.93211999E-01-3.48340031E-02 2.04695002E-02-1.71008049E-03-4.96452098E-04
 INPUT CARD> 1  8 9.24885947E-05 5.72349824E-03 2.03872084E-03-3.75446187E-04 3.10995394E-04
 INPUT CARD> 1  9 2.79839217E-05-3.38979315E-04-3.44970987E-05 3.55870217E-06-7.63853847E-05
 INPUT CARD> 1 10-1.49349044E-03-1.50644925E-03 5.15378489E-04-4.64076590E-04 7.95315497E-05
 INPUT CARD> 1 11 2.24633369E-04-2.42999483E-04-3.34222643E-05-1.93421177E-05 3.42368729E-06
 INPUT CARD> 2  1-6.43419765E-04 1.27262191E-03-8.13769174E-03-8.62476088E-04 7.47065359E-04
 INPUT CARD> 2  2-1.27929579E-04 3.42235175E-03-2.77954856E-03 4.75156798E-04 3.37010904E-04
 INPUT CARD> 2  3 2.92409546E-04-6.29420450E-04-1.13549482E-03 1.94828045E-04-1.88211828E-04
 INPUT CARD> 2  4-9.93327884E-01-3.43830276E-02 2.01789557E-02 7.61865122E-05 2.91143418E-03
 INPUT CARD> 2  5-5.09638428E-04 2.48324434E-03-5.60652656E-03 9.72813495E-04-3.91744038E-04
 INPUT CARD> 2  6 1.49659359E-04 2.42084678E-04-1.10072100E-04 2.16722634E-05 1.96474740E-05
 INPUT CARD> 2  7-1.37079721E-04 1.49889197E-04-2.11200771E-03 5.46463008E-04 4.81121760E-04
 INPUT CARD> 2  8-8.59989429E-05-2.39891829E-04-2.68247587E-05 5.50652256E-06 8.37314164E-04
 INPUT CARD> 2  9 1.18782170E-04-9.56096334E-04 1.12984288E-03-2.04635603E-04-2.28003261E-04
 INPUT CARD> 2 10-9.73584305E-06-1.07436958E-03 1.75036400E-04-4.05967463E-04 7.03938359E-05
 INPUT CARD> 2 11 5.25444668E-04-1.02305408E-03-1.19269885E-04 1.65921336E-04-2.86285403E-05
 INPUT CARD> 3  1 9.93185424E-01 3.46511701E-02-1.68335194E-02 2.90694642E-04 1.60436879E-03
 INPUT CARD> 3  2-2.80986332E-04 3.00097586E-03-1.76269030E-03 2.98320077E-04 1.32939252E-03
 INPUT CARD> 3  3-4.37322614E-04-8.92069905E-04 3.26802225E-04-6.50459825E-05-9.57172705E-05
 INPUT CARD> 3  4-3.62540616E-04-1.02476841E-03 4.41808169E-03-7.87522715E-04 7.74783420E-04
 INPUT CARD> 3  5-1.32954910E-04 2.21987216E-03-1.21458305E-03 2.05237327E-04-3.82594503E-04
 INPUT CARD> 3  6-3.56264037E-04 7.38858540E-04 1.09742998E-03-1.87637283E-04 2.24358249E-04
 INPUT CARD> 3  7-1.42144207E-05-2.60566346E-04 5.72401319E-04-2.16157864E-05-2.38931344E-04
 INPUT CARD> 3  8 4.19033077E-05 6.42687529E-04 7.08794225E-04-1.26224908E-04 2.33018714E-04
 INPUT CARD> 3  9-1.14894493E-04-1.18124221E-04-1.45310179E-04 2.40799373E-05-1.58896376E-07
 INPUT CARD> 3 10 3.95909130E-04 2.00506470E-03-4.51499818E-04-5.23888288E-04 9.32752618E-05
 INPUT CARD> 3 11-2.09454814E-03 2.01995535E-03 2.08083767E-03 1.02250322E-03-1.84933365E-04
 INPUT CARD> 4  1-8.88802946E-02 1.82133029E-01 7.48766058E-02-9.04684331E-02 5.94754549E-02
 INPUT CARD> 4  2-1.01039051E-02-8.17164699E-03-6.71883453E-04 1.45656232E-04 8.31418917E-03
 INPUT CARD> 4  3-7.68142369E-04-7.54604680E-03-1.07105443E-02 1.81269409E-03-1.37479719E-03
    1000000 WORDS OF MEMORY AVAILABLE


                    * * * WARNING * * *
 OLD KEYWORD COORD=CART SELECTED, AUTOMATICALLY CHANGED TO COORD=PRINAXIS.
 YOUR MOLECULE'S COORDINATES WILL BE CHANGED TO PRINCIPAL AXES BY
   A) TRANSLATION TO THE CENTER OF MASS, THEN
   B) ROTATION TO HAVE A DIAGONAL MOMENT OF INERTIA TENSOR.

 HOWEVER, NOTHING ELSE IN YOUR INPUT WILL BE ROTATED IN THE SAME WAY,
 SO IF YOU HAVE A $VEC, $VIB, $GRAD, $HESS, EFP PARTICLE COORDINATES,
 OR ANYTHING ELSE THAT DEPENDS ON THE INITIAL ORIENTATION, THAT DATA
 WILL NOT BE USED CORRECTLY IN THIS RUN.

 THE PURPOSE OF COORD=PRINAXIS IS TO BE USED ONCE, ONLY AT THE VERY
 BEGINNING OF A SERIES OF COMPUTATIONS, PERHAPS TO FIND THE SYMMETRY
 UNIQUE ATOMS FROM AN ARBITRARY INITIAL ORIENTATION.

 AFTER THE FIRST RUN, YOU SHOULD USE ONLY COORD=UNIQUE, TO ENSURE THAT
 THE COORDINATES WHICH YOU READ IN ARE THE COORDINATES THAT ARE USED.


     BASIS OPTIONS
     -------------
     GBASIS=PCSEG-1      IGAUSS=       0      POLAR=NONE    
     NDFUNC=       0     NFFUNC=       0     DIFFSP=       F
     NPFUNC=       0      DIFFS=       F     BASNAM=        


     RUN TITLE
     ---------
 H2ON2                                                                           

 THE POINT GROUP OF THE MOLECULE IS C1      
 THE ORDER OF THE PRINCIPAL AXIS IS     1

 THE MOMENTS OF INERTIA ARE (AMU-ANGSTROM**2)
 IXX=     7.364   IYY=    34.505   IZZ=    41.869

 ATOM      ATOMIC                      COORDINATES (BOHR)
           CHARGE         X                   Y                   Z
 N           7.0     1.8921521445       -0.4982543092       -0.0000518591
 N           7.0     0.0408232461        1.0661974845       -0.0000110285
 O           8.0    -1.9253007707       -0.3790459962        0.0000165224
 H           1.0     0.0019007230       -2.1233689273        0.0001045230
 H           1.0     3.6965815005        0.2479030036        0.0005070367

          INTERNUCLEAR DISTANCES (ANGS.)
          ------------------------------

                1 N          2 N          3 O          4 H          5 H     

   1 N       0.0000000    1.2826331 *  2.0210939 *  1.3191326 *  1.0332809 *
   2 N       1.2826331 *  0.0000000    1.2912762 *  1.6879716 *  1.9824151 *
   3 O       2.0210939 *  1.2912762 *  0.0000000    1.3755319 *  2.9934143 *
   4 H       1.3191326 *  1.6879716 *  1.3755319 *  0.0000000    2.3231783 *
   5 H       1.0332809 *  1.9824151 *  2.9934143 *  2.3231783 *  0.0000000  

  * ... LESS THAN  3.000


     ATOMIC BASIS SET
     ----------------
 THE CONTRACTED PRIMITIVE FUNCTIONS HAVE BEEN UNNORMALIZED
 THE CONTRACTED BASIS FUNCTIONS ARE NOW NORMALIZED TO UNITY

  SHELL TYPE  PRIMITIVE        EXPONENT          CONTRACTION COEFFICIENT(S)

 N         

      1   S       1          1726.3200000    0.005526692708
      1   S       2           259.8270000    0.041238777833
      1   S       3            59.0335000    0.182735518857
      1   S       4            16.3509000    0.465933825414
      1   S       5             4.9108400    0.450079961070

      2   S       6             7.7589400   -0.147940502099
      2   S       7             0.7055730    1.051675837690

      3   S       8             0.2092860    1.000000000000

      4   P       9            13.1844000    0.064862763118
      4   P      10             2.8186000    0.339184155940
      4   P      11             0.7655710    0.735827618992

      5   P      12             0.1959490    1.000000000000

      6   D      13             0.9000000    1.000000000000

 N         

      7   S      14          1726.3200000    0.005526692708
      7   S      15           259.8270000    0.041238777833
      7   S      16            59.0335000    0.182735518857
      7   S      17            16.3509000    0.465933825414
      7   S      18             4.9108400    0.450079961070

      8   S      19             7.7589400   -0.147940502099
      8   S      20             0.7055730    1.051675837690

      9   S      21             0.2092860    1.000000000000

     10   P      22            13.1844000    0.064862763118
     10   P      23             2.8186000    0.339184155940
     10   P      24             0.7655710    0.735827618992

     11   P      25             0.1959490    1.000000000000

     12   D      26             0.9000000    1.000000000000

 O         

     13   S      27          2288.6400000    0.005451138222
     13   S      28           344.4160000    0.040718922842
     13   S      29            78.2538000    0.181369420873
     13   S      30            21.7195000    0.465536820246
     13   S      31             6.5590700    0.451211321214

     14   S      32            10.4656000   -0.150211201174
     14   S      33             0.9643510    1.052867983385

     15   S      34             0.2851270    1.000000000000

     16   P      35            17.0590000    0.068749256972
     16   P      36             3.6899900    0.351671941499
     16   P      37             0.9929960    0.724532099722

     17   P      38             0.2449240    1.000000000000

     18   D      39             1.0000000    1.000000000000

 H         

     19   S      40            12.2518000    0.037217389296
     19   S      41             1.8687100    0.253808206955
     19   S      42             0.4182080    0.797386763917

     20   S      43             0.1061000    1.000000000000

     21   P      44             1.0000000    1.000000000000

 H         

     22   S      45            12.2518000    0.037217389296
     22   S      46             1.8687100    0.253808206955
     22   S      47             0.4182080    0.797386763917

     23   S      48             0.1061000    1.000000000000

     24   P      49             1.0000000    1.000000000000

 TOTAL NUMBER OF BASIS SET SHELLS             =   24
 NUMBER OF CARTESIAN GAUSSIAN BASIS FUNCTIONS =   55
 NOTE: THIS RUN WILL RESTRICT THE MO VARIATION SPACE TO SPHERICAL HARMONICS.
 THE NUMBER OF ORBITALS KEPT IN THE VARIATIONAL SPACE WILL BE PRINTED LATER.
 NUMBER OF ELECTRONS                          =   24
 CHARGE OF MOLECULE                           =    0
 SPIN MULTIPLICITY                            =    1
 NUMBER OF OCCUPIED ORBITALS (ALPHA)          =   12
 NUMBER OF OCCUPIED ORBITALS (BETA )          =   12
 TOTAL NUMBER OF ATOMS                        =    5
 THE NUCLEAR REPULSION ENERGY IS       73.0033764178

     LEBEDEV GRID-BASED DFT OPTIONS
     ------------------------------
     DFTTYP=PBE     
     NRAD  =      96     NLEB  =     302
     NRAD0 =      96     NLEB0 =     302
     SWOFF =    5.00E-03 (PURE SCF -> DFT)
     SWITCH=    3.00E-04 (COARSE -> TIGHT GRID)
     THRESH=    0.00E+00 GTHRE=    1.00E+00

 GRIMME'S EMPIRICAL DISPERSION CORRECTION= F

     $CONTRL OPTIONS
     ---------------
 SCFTYP=RHF          RUNTYP=HESSIAN      EXETYP=RUN     
 MPLEVL=       0     CITYP =NONE         CCTYP =NONE         VBTYP =NONE    
 DFTTYP=PBE          TDDFT =NONE    
 MULT  =       1     ICHARG=       0     NZVAR =       0     COORD =PRINAXIS
 PP    =NONE         RELWFN=NONE         LOCAL =NONE         NUMGRD=       F
 ISPHER=       1     NOSYM =       0     MAXIT =      30     UNITS =ANGS    
 PLTORB=       F     MOLPLT=       F     AIMPAC=       F     FRIEND=        
 NPRINT=       7     IREST =       0     GEOM  =INPUT   
 NORMF =       0     NORMP =       0     ITOL  =      20     ICUT  =       9
 INTTYP=BEST         GRDTYP=BEST         QMTTOL= 1.0E-06

     $SYSTEM OPTIONS
     ---------------
  REPLICATED MEMORY=     1000000 WORDS (ON EVERY NODE).
 DISTRIBUTED MEMDDI=           0 MILLION WORDS IN AGGREGATE,
 MEMDDI DISTRIBUTED OVER   1 PROCESSORS IS           0 WORDS/PROCESSOR.
 TOTAL MEMORY REQUESTED ON EACH PROCESSOR=     1000000 WORDS.
 TIMLIM=      525600.00 MINUTES, OR     365.0 DAYS.
 PARALL= F  BALTYP=  DLB     KDIAG=    0  COREFL= F
 MXSEQ2=     300 MXSEQ3=     150  mem10=         0

          ----------------
          PROPERTIES INPUT
          ----------------

     MOMENTS            FIELD           POTENTIAL          DENSITY
 IEMOM =       1   IEFLD =       0   IEPOT =       0   IEDEN =       0
 WHERE =COMASS     WHERE =NUCLEI     WHERE =NUCLEI     WHERE =NUCLEI  
 OUTPUT=BOTH       OUTPUT=BOTH       OUTPUT=BOTH       OUTPUT=BOTH    
 IEMINT=       0   IEFINT=       0                     IEDINT=       0
                                                       MORB  =       0
          EXTRAPOLATION IN EFFECT
          DIIS IN EFFECT
 ORBITAL PRINTING OPTION: NPREO=     1    55     2     1

     -------------------------------
     INTEGRAL TRANSFORMATION OPTIONS
     -------------------------------
     NWORD  =            0
     CUTOFF = 1.0E-09     MPTRAN =       0
     DIRTRF =       F     AOINTS =DUP     

          ----------------------
          INTEGRAL INPUT OPTIONS
          ----------------------
 NOPK  =       1 NORDER=       0 SCHWRZ=       F

     ------------------------------------------
     THE POINT GROUP IS C1 , NAXIS= 1, ORDER= 1
     ------------------------------------------

 -- VARIATIONAL SPACE WILL BE RESTRICTED TO PURE SPHERICAL HARMONICS ONLY --
 AFTER EXCLUDING CONTAMINANT COMBINATIONS FROM THE CARTESIAN GAUSSIAN BASIS
 SET, THE NUMBER OF SPHERICAL HARMONICS KEPT IN THE VARIATION SPACE IS   52

     DIMENSIONS OF THE SYMMETRY SUBSPACES ARE
 A   =   52

 ..... DONE SETTING UP THE RUN .....
 STEP CPU TIME =     0.03 TOTAL CPU TIME =          0.0 (      0.0 MIN)
 TOTAL WALL CLOCK TIME=          0.1 SECONDS, CPU UTILIZATION IS    60.00%

     ---------------------------------
     HESSIAN MATRIX CONTROL PARAMETERS
     ---------------------------------
     METHOD=SEMINUM    NVIB  =       2   VIBSIZ= 0.01000
     RDHESS=       F   PURIFY=       F   PRTIFC=       F
     VIBANL=       T   DECOMP=       F   PROJCT=       F
     SCLFAC= 1.00000   PRTSCN=       F   NPRT  =       0
     PULCOR=       F   NPUN  =       0   REDOVB=       T
     HSSTYP=GENERAL 
     THERMOCHEMISTRY WILL BE PRINTED FOR    1 TEMPERATURES:
      298.15000

               * * * EFFICIENCY NOTE * * *
 THIS CALCULATION CAN BE RUN WITH DIFFERENTIATION METHOD=ANALYTIC
 THIS MIGHT BE MORE ACCURATE AND/OR FASTER THAN YOUR CHOICE,
 BUT THE REQUESTED CALCULATION METHOD=SEMINUM  IS PROCEEDING.

1   ATOM  0
                                        -------------------
   COORD  0                             NUCLEAR COORDINATES
                                        -------------------
     VIB  0

                       ATOM             X              Y              Z

                 1  N                1.892152      -0.498254      -0.000052
                 2  N                0.040823       1.066197      -0.000011
                 3  O               -1.925301      -0.379046       0.000017
                 4  H                0.001901      -2.123369       0.000105
                 5  H                3.696582       0.247903       0.000507

          ********************
          1 ELECTRON INTEGRALS
          ********************
 ...... END OF ONE-ELECTRON INTEGRALS ......
 STEP CPU TIME =     0.00 TOTAL CPU TIME =          0.0 (      0.0 MIN)
 TOTAL WALL CLOCK TIME=          0.1 SECONDS, CPU UTILIZATION IS    50.00%

          -------------
          GUESS OPTIONS
          -------------
          GUESS =MOREAD            NORB  =       0          NORDER=       0
          MIX   =       F          PRTMO =       F          PUNMO =       F
          TOLZ  = 1.0E-08          TOLE  = 1.0E-05
          SYMDEN=       F          PURIFY=       F

 INITIAL GUESS ORBITALS GENERATED BY MOREAD   ROUTINE.

 STATISTICS FOR GENERATION OF SYMMETRY ORBITAL -Q- MATRIX
 NUMBER OF CARTESIAN ATOMIC ORBITALS=         55
 NUMBER OF SPHERICAL CONTAMINANTS DROPPED=     3
 NUMBER OF LINEARLY DEPENDENT MOS DROPPED=     0
 TOTAL NUMBER OF MOS IN VARIATION SPACE=      52

 SYMMETRIES FOR INITIAL GUESS ORBITALS FOLLOW.   BOTH SET(S).
    12 ORBITALS ARE OCCUPIED (    3 CORE ORBITALS).
     1=A        2=A        3=A        4=A        5=A        6=A        7=A   
     8=A        9=A       10=A       11=A       12=A       13=A       14=A   
    15=A       16=A       17=A       18=A       19=A       20=A       21=A   
    22=A       23=A       24=A       25=A       26=A       27=A       28=A   
    29=A       30=A       31=A       32=A       33=A       34=A       35=A   
    36=A       37=A       38=A       39=A       40=A       41=A       42=A   
    43=A       44=A       45=A       46=A       47=A       48=A       49=A   
    50=A       51=A       52=A   
 ...... END OF INITIAL ORBITAL SELECTION ......
 STEP CPU TIME =     0.01 TOTAL CPU TIME =          0.0 (      0.0 MIN)
 TOTAL WALL CLOCK TIME=          0.1 SECONDS, CPU UTILIZATION IS    66.67%

                    ----------------------
                    AO INTEGRAL TECHNOLOGY
                    ----------------------
     S,P,L SHELL ROTATED AXIS INTEGRALS, REPROGRAMMED BY
        KAZUYA ISHIMURA (IMS) AND JOSE SIERRA (SYNSTAR).
     S,P,D,L SHELL ROTATED AXIS INTEGRALS PROGRAMMED BY
        KAZUYA ISHIMURA (INSTITUTE FOR MOLECULAR SCIENCE).
     S,P,D,F,G SHELL TO TOTAL QUARTET ANGULAR MOMENTUM SUM 5,
        ERIC PROGRAM BY GRAHAM FLETCHER (ELORET AND NASA ADVANCED
        SUPERCOMPUTING DIVISION, AMES RESEARCH CENTER).
     S,P,D,F,G,L SHELL GENERAL RYS QUADRATURE PROGRAMMED BY
        MICHEL DUPUIS (PACIFIC NORTHWEST NATIONAL LABORATORY).

          --------------------
          2 ELECTRON INTEGRALS
          --------------------

 THE -PK- OPTION IS OFF, THE INTEGRALS ARE NOT IN SUPERMATRIX FORM.
 STORING   15000 INTEGRALS/RECORD ON DISK, USING 12 BYTES/INTEGRAL.
 TWO ELECTRON INTEGRAL EVALUATION REQUIRES   90696 WORDS OF MEMORY.
 II,JST,KST,LST =  1  1  1  1 NREC =         1 INTLOC =    1
 II,JST,KST,LST =  2  1  1  1 NREC =         1 INTLOC =    2
 II,JST,KST,LST =  3  1  1  1 NREC =         1 INTLOC =    7
 II,JST,KST,LST =  4  1  1  1 NREC =         1 INTLOC =   22
 II,JST,KST,LST =  5  1  1  1 NREC =         1 INTLOC =   67
 II,JST,KST,LST =  6  1  1  1 NREC =         1 INTLOC =  214
 II,JST,KST,LST =  7  1  1  1 NREC =         1 INTLOC = 1189
 II,JST,KST,LST =  8  1  1  1 NREC =         1 INTLOC = 3165
 II,JST,KST,LST =  9  1  1  1 NREC =         1 INTLOC = 5616
 II,JST,KST,LST = 10  1  1  1 NREC =         1 INTLOC = 8517
 II,JST,KST,LST = 11  1  1  1 NREC =         2 INTLOC = 5379
 II,JST,KST,LST = 12  1  1  1 NREC =         3 INTLOC = 7847
 II,JST,KST,LST = 13  1  1  1 NREC =         7 INTLOC = 5394
 II,JST,KST,LST = 14  1  1  1 NREC =         8 INTLOC = 1294
 II,JST,KST,LST = 15  1  1  1 NREC =         9 INTLOC = 1405
 II,JST,KST,LST = 16  1  1  1 NREC =        10 INTLOC = 3874
 II,JST,KST,LST = 17  1  1  1 NREC =        14 INTLOC = 1966
 II,JST,KST,LST = 18  1  1  1 NREC =        19 INTLOC = 5362
 II,JST,KST,LST = 19  1  1  1 NREC =        33 INTLOC = 1459
 II,JST,KST,LST = 20  1  1  1 NREC =        36 INTLOC = 3707
 II,JST,KST,LST = 21  1  1  1 NREC =        39 INTLOC = 9111
 II,JST,KST,LST = 22  1  1  1 NREC =        50 INTLOC =13594
 II,JST,KST,LST = 23  1  1  1 NREC =        54 INTLOC =12820
 II,JST,KST,LST = 24  1  1  1 NREC =        59 INTLOC = 5934
 TOTAL NUMBER OF NONZERO TWO-ELECTRON INTEGRALS =             1064565
         71 INTEGRAL RECORDS WERE STORED ON DISK FILE  8.
  ...... END OF TWO-ELECTRON INTEGRALS .....
 STEP CPU TIME =     0.16 TOTAL CPU TIME =          0.2 (      0.0 MIN)
 TOTAL WALL CLOCK TIME=          0.2 SECONDS, CPU UTILIZATION IS    86.96%

          --------------------------
               R-PBE SCF CALCULATION
          --------------------------

     NUCLEAR ENERGY =        73.0033764178
     MAXIT =   30     NPUNCH=    2
     EXTRAP=T  DAMP=F  SHIFT=F  RSTRCT=F  DIIS=T  DEM=F  SOSCF=F
         DENSITY MATRIX CONVERGENCE THRESHOLD=  1.00E-05
     COARSE -> FINE DFT GRID SWITCH THRESHOLD=  3.00E-04 (SWITCH IN $DFT)
                   HF -> DFT SWITCH THRESHOLD=  0.00E+00 (SWOFF IN $DFT)
     MEMORY REQUIRED FOR RHF ITERS=    248522 WORDS.

     EXCHANGE FUNCTIONAL   =PBE       
     CORRELATION FUNCTIONAL=PBE       
     DFT THRESHOLD         =.690E-08
 FOR AN EULER-MACLAURIN QUADRATURE USING  96 RADIAL POINTS:
 SMALLEST GAUSSIAN PRIMITIVE EXPONENT=        0.1061000000 OF TYPE -S-
 ON ATOM NUMBER   4 HAS RADIAL NORMALIZATION=  1.000000
  LARGEST GAUSSIAN PRIMITIVE EXPONENT=     2288.6400000000 OF TYPE -S-
 ON ATOM NUMBER   3 HAS RADIAL NORMALIZATION=  1.000000

 ITER EX DEM     TOTAL ENERGY        E CHANGE  DENSITY CHANGE    DIIS ERROR
          * * *   INITIATING DIIS PROCEDURE   * * *
   1  0  0     -185.5626334484  -185.5626334484   0.093107886   0.064642888
   2  1  0     -185.5848510676    -0.0222176192   0.031196208   0.013781474
   3  2  0     -185.5850764513    -0.0002253837   0.013494416   0.008600634
   4  3  0     -185.5852669817    -0.0001905304   0.008010272   0.006202147
   5  4  0     -185.5854035890    -0.0001366073   0.002155996   0.001670823
   6  5  0     -185.5854177438    -0.0000141547   0.000707614   0.000687681
   7  6  0     -185.5854193698    -0.0000016260   0.000122070   0.000086536
   8  7  0     -185.5854194005    -0.0000000306   0.000025869   0.000032088
   9  8  0     -185.5854194050    -0.0000000046   0.000003132   0.000001898
  10  9  0     -185.5854194050    -0.0000000000   0.000000266   0.000000339

          -----------------
          DENSITY CONVERGED
          -----------------
     TIME TO FORM FOCK OPERATORS=       4.9 SECONDS (       0.5 SEC/ITER)
     TIME TO SOLVE SCF EQUATIONS=       0.0 SECONDS (       0.0 SEC/ITER)

 FINAL R-PBE ENERGY IS     -185.5854194050 AFTER  10 ITERATIONS
 DFT EXCHANGE + CORRELATION ENERGY =       -22.8001320200
 TOTAL ELECTRON NUMBER             =        23.9999958062

          ------------
          EIGENVECTORS
          ------------

                      1          2          3          4          5
                  -18.7890   -14.1113   -14.0480    -1.0922    -0.8645
                     A          A          A          A          A   
    1  N  1  S   -0.000016   0.000643   0.993185  -0.088881  -0.168148
    2  N  1  S   -0.000378  -0.001273   0.034651   0.182134   0.350265
    3  N  1  S   -0.000766   0.008138  -0.016834   0.074877   0.258497
    4  N  1  X    0.000270   0.000888   0.000234  -0.092494  -0.038118
    5  N  1  Y   -0.000299  -0.000728   0.001638   0.057174   0.118319
    6  N  1  Z    0.000000   0.000000   0.000001   0.000007   0.000021
    7  N  1  X    0.000331  -0.003517   0.003061  -0.008143  -0.031133
    8  N  1  Y    0.001173   0.002700  -0.001683  -0.000968   0.019316
    9  N  1  Z   -0.000000   0.000000  -0.000000   0.000001   0.000004
   10  N  1 XX    0.000218  -0.000406   0.001307   0.008952   0.002374
   11  N  1 YY    0.000022  -0.000252  -0.000401  -0.001203   0.005778
   12  N  1 ZZ   -0.000239   0.000657  -0.000907  -0.007749  -0.008152
   13  N  1 XY    0.000145   0.001149   0.000402  -0.010484  -0.006661
   14  N  1 XZ    0.000000   0.000000   0.000001  -0.000001   0.000000
   15  N  1 YZ    0.000000   0.000000   0.000000   0.000001   0.000001
   16  N  2  S    0.000077   0.993328  -0.000363  -0.151124  -0.045368
   17  N  2  S   -0.000773   0.034383  -0.001025   0.314451   0.098074
   18  N  2  S    0.008283  -0.020179   0.004418   0.179122   0.074196
   19  N  2  X    0.000024   0.000026  -0.000814  -0.038498   0.260922
   20  N  2  Y   -0.000125  -0.002957   0.000758  -0.160550  -0.034133
   21  N  2  Z    0.000000  -0.000000   0.000000   0.000000  -0.000001
   22  N  2  X   -0.004269  -0.002678   0.002261   0.012648   0.054600
   23  N  2  Y   -0.003618   0.005601  -0.001155  -0.041866  -0.012724
   24  N  2  Z    0.000000   0.000000  -0.000000   0.000001   0.000002
   25  N  2 XX   -0.000326   0.000384  -0.000449   0.006743   0.000931
   26  N  2 YY    0.000116  -0.000139  -0.000323   0.009540   0.000635
   27  N  2 ZZ    0.000210  -0.000245   0.000772  -0.016283  -0.001565
   28  N  2 XY   -0.000585   0.000133   0.001111   0.008378  -0.032335
   29  N  2 XZ    0.000000  -0.000000   0.000000  -0.000000   0.000001
   30  N  2 YZ    0.000000  -0.000000  -0.000000  -0.000000   0.000000
   31  O  3  S    0.993212   0.000137  -0.000014  -0.148240   0.145899
   32  O  3  S    0.034834  -0.000150  -0.000261   0.300528  -0.303264
   33  O  3  S   -0.020469   0.002112   0.000572   0.252323  -0.314517
   34  O  3  X    0.001692  -0.000529  -0.000013   0.137542  -0.048859
   35  O  3  Y    0.000564  -0.000507  -0.000243   0.060705  -0.049882
   36  O  3  Z   -0.000000   0.000000   0.000000  -0.000002   0.000001
   37  O  3  X   -0.005649   0.000239   0.000617   0.048382  -0.036005
   38  O  3  Y   -0.002269   0.000036   0.000742   0.018257  -0.015387
   39  O  3  Z    0.000000  -0.000000  -0.000000  -0.000001   0.000000
   40  O  3 XX   -0.000313  -0.000768   0.000241   0.013302   0.000187
   41  O  3 YY   -0.000038  -0.000223  -0.000123  -0.002791  -0.003478
   42  O  3 ZZ    0.000351   0.000991  -0.000118  -0.010511   0.003290
   43  O  3 XY    0.000024  -0.001173  -0.000133   0.011725  -0.004951
   44  O  3 XZ   -0.000000   0.000000  -0.000000  -0.000001   0.000000
   45  O  3 YZ    0.000000   0.000000   0.000000  -0.000000   0.000000
   46  H  4  S    0.001493   0.000010   0.000396   0.067247   0.010769
   47  H  4  S    0.001506   0.001074   0.002005  -0.016142  -0.013947
   48  H  4  X   -0.000531  -0.000189  -0.000433  -0.000249   0.007167
   49  H  4  Y    0.000453   0.000406  -0.000547   0.013758   0.002227
   50  H  4  Z   -0.000000   0.000000   0.000000  -0.000001   0.000000
   51  H  5  S   -0.000225  -0.000525  -0.002095   0.031004   0.130825
   52  H  5  S    0.000243   0.001023   0.002020  -0.006333  -0.002792
   53  H  5  X    0.000033   0.000125   0.002044  -0.006145  -0.016295
   54  H  5  Y    0.000021  -0.000164   0.001110  -0.000526  -0.004666
   55  H  5  Z    0.000000  -0.000000   0.000001  -0.000001  -0.000005

                      6          7          8          9         10
                   -0.6062    -0.5362    -0.4442    -0.4341    -0.3034
                     A          A          A          A          A   
    1  N  1  S    0.103739   0.011022   0.039636   0.000033  -0.038113
    2  N  1  S   -0.217068  -0.027973  -0.081099  -0.000071   0.071135
    3  N  1  S   -0.261864  -0.053374  -0.113750  -0.000094   0.206439
    4  N  1  X   -0.278146   0.316256  -0.088122  -0.000073  -0.082321
    5  N  1  Y    0.099208   0.153280   0.297160   0.000100  -0.350739
    6  N  1  Z   -0.000055   0.000047  -0.000111   0.295062  -0.000110
    7  N  1  X   -0.062585   0.128648  -0.034655  -0.000032  -0.064910
    8  N  1  Y    0.036874   0.067395   0.187689   0.000065  -0.213795
    9  N  1  Z   -0.000017   0.000015  -0.000064   0.178109  -0.000072
   10  N  1 XX   -0.001628  -0.009081  -0.014858  -0.000006  -0.010076
   11  N  1 YY    0.004326   0.007784   0.018541   0.000004   0.004736
   12  N  1 ZZ   -0.002699   0.001297  -0.003683   0.000002   0.005340
   13  N  1 XY   -0.019694   0.001492  -0.012625  -0.000005   0.002014
   14  N  1 XZ   -0.000003   0.000002   0.000004  -0.018167  -0.000003
   15  N  1 YZ   -0.000001   0.000003  -0.000003   0.016043  -0.000006
   16  N  2  S   -0.136948  -0.076051  -0.008153  -0.000007  -0.057299
   17  N  2  S    0.317129   0.168178   0.010190   0.000014   0.108186
   18  N  2  S    0.312411   0.195985   0.033653   0.000024   0.251335
   19  N  2  X    0.037512  -0.144720   0.363900   0.000133  -0.011786
   20  N  2  Y   -0.036848   0.199220   0.110519   0.000015   0.398841
   21  N  2  Z   -0.000022   0.000026  -0.000144   0.443692   0.000022
   22  N  2  X    0.022879  -0.024709   0.100496   0.000042  -0.030861
   23  N  2  Y   -0.030664   0.085256   0.051298   0.000005   0.242590
   24  N  2  Z   -0.000009   0.000013  -0.000071   0.231461   0.000016
   25  N  2 XX   -0.003078   0.028185   0.008735  -0.000000   0.001088
   26  N  2 YY    0.001274  -0.033267  -0.013055  -0.000001  -0.017460
   27  N  2 ZZ    0.001804   0.005082   0.004320   0.000001   0.016372
   28  N  2 XY   -0.004342   0.011854  -0.018627  -0.000007  -0.013593
   29  N  2 XZ   -0.000002   0.000001  -0.000001  -0.000928  -0.000009
   30  N  2 YZ    0.000003  -0.000002   0.000012  -0.035430  -0.000001
   31  O  3  S    0.102940  -0.002504  -0.090806  -0.000021   0.009909
   32  O  3  S   -0.217492   0.009392   0.187276   0.000043  -0.030103
   33  O  3  S   -0.293164   0.004798   0.286731   0.000066  -0.047920
   34  O  3  X    0.100228  -0.055044  -0.321484  -0.000073  -0.324825
   35  O  3  Y    0.126825   0.261306  -0.236357  -0.000096   0.062177
   36  O  3  Z   -0.000010   0.000008  -0.000091   0.325102   0.000128
   37  O  3  X    0.038391  -0.033686  -0.183040  -0.000044  -0.213400
   38  O  3  Y    0.056684   0.134768  -0.129799  -0.000053   0.055721
   39  O  3  Z   -0.000004   0.000003  -0.000053   0.190857   0.000088
   40  O  3 XX    0.007308  -0.012396  -0.011705  -0.000001  -0.020251
   41  O  3 YY   -0.002043   0.011526   0.001852  -0.000001   0.015548
   42  O  3 ZZ   -0.005265   0.000870   0.009853   0.000002   0.004702
   43  O  3 XY    0.011285   0.017707  -0.013565  -0.000005  -0.001265
   44  O  3 XZ   -0.000001   0.000001  -0.000007   0.024722   0.000005
   45  O  3 YZ   -0.000000   0.000000  -0.000003   0.010049   0.000002
   46  H  4  S   -0.079579  -0.256793  -0.091625  -0.000001   0.154888
   47  H  4  S   -0.032702  -0.026326   0.026085   0.000012   0.139891
   48  H  4  X    0.002571  -0.002588  -0.012996  -0.000005   0.019584
   49  H  4  Y   -0.001830  -0.024321  -0.007751   0.000002  -0.005515
   50  H  4  Z   -0.000001   0.000003  -0.000003   0.012207  -0.000000
   51  H  5  S   -0.263846   0.235060  -0.055535  -0.000018  -0.183394
   52  H  5  S   -0.031627   0.031830  -0.029074  -0.000016  -0.042720
   53  H  5  X    0.017074  -0.016842  -0.001714  -0.000004   0.009108
   54  H  5  Y    0.012349  -0.005050   0.007816   0.000002  -0.005038
   55  H  5  Z    0.000006  -0.000006  -0.000003   0.008243   0.000000

                     11         12         13         14         15
                   -0.2676    -0.2634    -0.1041    -0.0082     0.0415
                     A          A          A          A          A   
    1  N  1  S   -0.068546   0.000092  -0.000019   0.085556   0.036760
    2  N  1  S    0.170565  -0.000226   0.000043  -0.185344  -0.067375
    3  N  1  S    0.254957  -0.000364   0.000096  -0.620144  -0.501202
    4  N  1  X   -0.192561   0.000367   0.000070  -0.166220  -0.216193
    5  N  1  Y   -0.006851   0.000102   0.000000   0.185712  -0.304993
    6  N  1  Z   -0.000667  -0.454118  -0.371072  -0.000117  -0.000051
    7  N  1  X   -0.085854   0.000208   0.000081  -0.335877  -0.378966
    8  N  1  Y   -0.031058   0.000113  -0.000004   0.276324  -0.469596
    9  N  1  Z   -0.000502  -0.348499  -0.418469  -0.000157  -0.000096
   10  N  1 XX    0.003212  -0.000001  -0.000002   0.005798   0.018249
   11  N  1 YY   -0.007190   0.000012   0.000003   0.006105  -0.019274
   12  N  1 ZZ    0.003978  -0.000011  -0.000001  -0.011904   0.001025
   13  N  1 XY   -0.009399   0.000015  -0.000001   0.021394  -0.018841
   14  N  1 XZ    0.000001   0.002706  -0.016645   0.000001   0.000003
   15  N  1 YZ   -0.000020  -0.013854   0.012567   0.000003  -0.000001
   16  N  2  S    0.065648  -0.000080   0.000001   0.035639  -0.036352
   17  N  2  S   -0.141208   0.000173  -0.000008  -0.052044   0.074824
   18  N  2  S   -0.227775   0.000273   0.000033  -0.543849   0.407689
   19  N  2  X    0.036952  -0.000069   0.000001   0.017967   0.029373
   20  N  2  Y   -0.298708   0.000357   0.000010  -0.055719  -0.080339
   21  N  2  Z   -0.000032  -0.044756   0.565822   0.000060   0.000004
   22  N  2  X   -0.019576   0.000033   0.000024  -0.046620  -0.030441
   23  N  2  Y   -0.205665   0.000246  -0.000002   0.084532  -0.145217
   24  N  2  Z    0.000002  -0.014120   0.517894   0.000074   0.000015
   25  N  2 XX    0.013705  -0.000019   0.000001   0.009359  -0.027299
   26  N  2 YY   -0.000204   0.000002  -0.000001  -0.007334   0.020342
   27  N  2 ZZ   -0.013501   0.000017   0.000000  -0.002025   0.006957
   28  N  2 XY   -0.018320   0.000032   0.000003  -0.002384   0.001624
   29  N  2 XZ   -0.000055  -0.036447   0.000447  -0.000003  -0.000001
   30  N  2 YZ   -0.000000   0.000482   0.000898   0.000003   0.000003
   31  O  3  S   -0.027477   0.000035  -0.000006   0.031953  -0.011742
   32  O  3  S    0.071361  -0.000091   0.000015  -0.075177   0.028112
   33  O  3  S    0.044184  -0.000039   0.000038  -0.168572   0.042119
   34  O  3  X   -0.307484   0.000557   0.000045  -0.105331  -0.068844
   35  O  3  Y    0.410510  -0.000618  -0.000042   0.284360  -0.184039
   36  O  3  Z    0.000762   0.509077  -0.332571  -0.000032   0.000014
   37  O  3  X   -0.241115   0.000432   0.000039  -0.072277  -0.110476
   38  O  3  Y    0.276116  -0.000422  -0.000035   0.291953  -0.235854
   39  O  3  Z    0.000545   0.366024  -0.316405  -0.000038   0.000012
   40  O  3 XX   -0.007104   0.000015   0.000001  -0.004701   0.008427
   41  O  3 YY    0.001939  -0.000006  -0.000001   0.007070  -0.011179
   42  O  3 ZZ    0.005165  -0.000009   0.000000  -0.002369   0.002752
   43  O  3 XY    0.011280  -0.000016   0.000001  -0.005704   0.003131
   44  O  3 XZ    0.000024   0.015316   0.003156   0.000001  -0.000001
   45  O  3 YZ    0.000010   0.006103   0.012211   0.000001   0.000001
   46  H  4  S   -0.193101   0.000232  -0.000059   0.365418  -0.249753
   47  H  4  S   -0.145730   0.000185  -0.000050   0.739562  -0.907192
   48  H  4  X    0.020343  -0.000036  -0.000002   0.003343   0.004824
   49  H  4  Y   -0.003105   0.000005  -0.000001  -0.011117   0.016368
   50  H  4  Z    0.000001  -0.000119  -0.014336  -0.000003  -0.000003
   51  H  5  S   -0.120571   0.000178  -0.000080   0.209407   0.084590
   52  H  5  S   -0.085473   0.000121  -0.000073   0.804767   1.295376
   53  H  5  X    0.000864   0.000003   0.000002   0.014249   0.026221
   54  H  5  Y    0.000816   0.000002   0.000002   0.019061  -0.003800
   55  H  5  Z   -0.000023  -0.017186  -0.016516   0.000000   0.000009

                     16         17         18         19         20
                    0.1578     0.1918     0.3312     0.5147     0.5333
                     A          A          A          A          A   
    1  N  1  S    0.031822  -0.067201   0.091774   0.007839  -0.016766
    2  N  1  S   -0.013622   0.086865  -0.239613  -0.011965   0.186217
    3  N  1  S   -0.761233   1.536651  -0.787216   0.296653  -0.818454
    4  N  1  X    0.065750  -0.214511   0.115467  -0.515759  -0.258619
    5  N  1  Y    0.015789   0.158479  -0.115321  -0.419877   0.519131
    6  N  1  Z   -0.000014  -0.000039  -0.000061  -0.000100  -0.000065
    7  N  1  X    0.677058  -0.997865   0.596103   0.234702   0.869585
    8  N  1  Y   -0.068112   0.764679  -0.601405   0.561763  -0.645942
    9  N  1  Z   -0.000007  -0.000040  -0.000064   0.000054   0.000095
   10  N  1 XX    0.018932   0.034461   0.077356   0.070364  -0.063888
   11  N  1 YY   -0.027677  -0.022500  -0.002212  -0.027762   0.028639
   12  N  1 ZZ    0.008745  -0.011962  -0.075144  -0.042602   0.035250
   13  N  1 XY   -0.019523   0.051030   0.034136   0.019502   0.010686
   14  N  1 XZ    0.000004   0.000008   0.000019   0.000056  -0.000010
   15  N  1 YZ    0.000001   0.000006   0.000008   0.000027  -0.000009
   16  N  2  S   -0.107264   0.038030  -0.090493   0.032141  -0.004472
   17  N  2  S    0.242810  -0.061112   0.278260  -0.144178  -0.095074
   18  N  2  S    1.515139  -1.045945   1.173213  -0.170067   1.615991
   19  N  2  X   -0.270876  -0.441648   0.250159   0.367964   0.196481
   20  N  2  Y   -0.329034   0.102519  -0.063042   0.144822   0.639245
   21  N  2  Z    0.000015   0.000021   0.000041   0.000076  -0.000032
   22  N  2  X   -0.515596  -1.214674   0.535839  -0.568273  -0.522472
   23  N  2  Y   -0.914613   0.520578  -0.617304   0.091229  -1.328851
   24  N  2  Z    0.000005   0.000056   0.000008  -0.000050  -0.000006
   25  N  2 XX   -0.028009  -0.012314  -0.015596  -0.025257   0.093532
   26  N  2 YY    0.008453   0.011196   0.013409   0.049679  -0.025156
   27  N  2 ZZ    0.019556   0.001118   0.002187  -0.024422  -0.068377
   28  N  2 XY   -0.024044  -0.032699   0.003785   0.014546  -0.043333
   29  N  2 XZ   -0.000000  -0.000002  -0.000004  -0.000010  -0.000005
   30  N  2 YZ    0.000001   0.000003   0.000003   0.000009   0.000002
   31  O  3  S    0.094043   0.042817   0.009711  -0.015409  -0.006075
   32  O  3  S   -0.158999  -0.137738  -0.073363   0.080056   0.127666
   33  O  3  S   -1.169402  -0.196521   0.106819  -0.301597  -0.878918
   34  O  3  X   -0.276743  -0.157781  -0.241731   0.256379   0.211119
   35  O  3  Y   -0.261954  -0.154370   0.136021   0.036473   0.013542
   36  O  3  Z    0.000001   0.000004   0.000004   0.000031  -0.000031
   37  O  3  X   -0.646922  -0.109737  -0.096969   0.014907  -0.397475
   38  O  3  Y   -0.427963  -0.343844  -0.008670  -0.012682  -0.220224
   39  O  3  Z    0.000004  -0.000006  -0.000009  -0.000025   0.000028
   40  O  3 XX   -0.001837   0.000214   0.024219  -0.017297  -0.057592
   41  O  3 YY    0.000484   0.014504  -0.004134  -0.016222   0.026535
   42  O  3 ZZ    0.001353  -0.014718  -0.020086   0.033519   0.031057
   43  O  3 XY    0.022626  -0.007087  -0.021793  -0.023534  -0.052701
   44  O  3 XZ    0.000000  -0.000000   0.000001   0.000000   0.000003
   45  O  3 YZ    0.000000   0.000001   0.000001   0.000007  -0.000002
   46  H  4  S   -0.242158   0.319100   0.795786  -0.455272   0.153723
   47  H  4  S    0.677086  -0.766292  -0.849579   0.809507  -0.381721
   48  H  4  X   -0.001137  -0.002293   0.010143   0.034209  -0.025781
   49  H  4  Y   -0.002879   0.009158  -0.009536   0.068584   0.002042
   50  H  4  Z   -0.000000  -0.000005  -0.000009  -0.000024   0.000008
   51  H  5  S    0.072097   0.254887   0.623161   0.703731  -0.198558
   52  H  5  S   -0.248082   0.122065  -0.605276  -0.804011   0.196960
   53  H  5  X    0.005406   0.013099   0.048788   0.118816  -0.003759
   54  H  5  Y   -0.015815   0.021206  -0.001511   0.027653  -0.026169
   55  H  5  Z   -0.000001   0.000003  -0.000003   0.000042  -0.000005

                     21         22         23         24         25
                    0.5435     0.5766     0.5999     0.6346     0.7823
                     A          A          A          A          A   
    1  N  1  S    0.000009  -0.014487   0.010137   0.000009  -0.000030
    2  N  1  S   -0.000004   0.055411   0.105507  -0.000005   0.000341
    3  N  1  S   -0.000309  -1.116841  -0.197701  -0.000098  -0.000405
    4  N  1  X   -0.000179  -0.244939  -0.525507  -0.000117  -0.000386
    5  N  1  Y    0.000070  -0.200912   0.458079  -0.000027  -0.000105
    6  N  1  Z    0.776657  -0.000075  -0.000151   0.512814   0.124335
    7  N  1  X    0.000288   0.544468   0.635846   0.000176   0.001248
    8  N  1  Y   -0.000162   0.024471  -0.931981  -0.000010   0.000074
    9  N  1  Z   -0.767507   0.000064   0.000174  -0.979299  -0.060410
   10  N  1 XX   -0.000009  -0.047362   0.047107   0.000015   0.000020
   11  N  1 YY   -0.000001  -0.004811  -0.009094  -0.000003   0.000034
   12  N  1 ZZ    0.000010   0.052174  -0.038013  -0.000011  -0.000053
   13  N  1 XY    0.000018   0.097887   0.028191   0.000006   0.000006
   14  N  1 XZ   -0.028497   0.000014   0.000025   0.009148  -0.060819
   15  N  1 YZ    0.030708   0.000002   0.000006   0.006068  -0.037149
   16  N  2  S    0.000004  -0.034218   0.019237   0.000003   0.000011
   17  N  2  S   -0.000026   0.135560   0.224435  -0.000024   0.000135
   18  N  2  S    0.000251   0.432449  -0.529718   0.000131   0.001525
   19  N  2  X   -0.000077  -0.593086  -0.269560   0.000029  -0.000210
   20  N  2  Y    0.000057   0.498655  -0.244498  -0.000006  -0.000285
   21  N  2  Z    0.484700  -0.000047  -0.000018  -0.737004   0.145802
   22  N  2  X    0.000204   1.366427   1.047784  -0.000005  -0.000104
   23  N  2  Y   -0.000109  -0.940430   1.014430  -0.000009  -0.000110
   24  N  2  Z   -0.400380   0.000037  -0.000017   1.290424  -0.555279
   25  N  2 XX    0.000010   0.019036   0.021785  -0.000003   0.000115
   26  N  2 YY    0.000007  -0.017062   0.038667   0.000012   0.000053
   27  N  2 ZZ   -0.000017  -0.001974  -0.060452  -0.000010  -0.000168
   28  N  2 XY   -0.000024  -0.015153  -0.112055  -0.000008   0.000071
   29  N  2 XZ    0.020373  -0.000002  -0.000009   0.019930   0.010177
   30  N  2 YZ   -0.049455   0.000007   0.000012   0.030946  -0.023015
   31  O  3  S   -0.000005  -0.018913  -0.052718  -0.000001   0.000058
   32  O  3  S    0.000011   0.081589   0.126324  -0.000003  -0.000214
   33  O  3  S    0.000059   0.200773   1.023622  -0.000007  -0.000222
   34  O  3  X   -0.000019  -0.135876  -0.206595   0.000003   0.000604
   35  O  3  Y   -0.000001   0.085686  -0.139959   0.000007   0.000561
   36  O  3  Z    0.205756  -0.000019  -0.000016  -0.101581  -0.866186
   37  O  3  X    0.000056   0.070440   0.784756   0.000028  -0.001113
   38  O  3  Y    0.000021   0.151415   0.361402  -0.000011  -0.001155
   39  O  3  Z   -0.058409   0.000001  -0.000002  -0.140078   1.177603
   40  O  3 XX   -0.000002  -0.009544   0.029766  -0.000001   0.000027
   41  O  3 YY    0.000006   0.017263   0.017617  -0.000000   0.000034
   42  O  3 ZZ   -0.000005  -0.007720  -0.047384   0.000001  -0.000060
   43  O  3 XY    0.000005   0.061741   0.059260  -0.000004   0.000026
   44  O  3 XZ    0.004589  -0.000001  -0.000001  -0.036957  -0.009409
   45  O  3 YZ    0.017956  -0.000002  -0.000001   0.000944  -0.023260
   46  H  4  S    0.000030  -0.130481  -0.112746   0.000019   0.000612
   47  H  4  S    0.000018   0.338713   0.190110   0.000050  -0.000396
   48  H  4  X    0.000014   0.058318   0.031495   0.000011   0.000014
   49  H  4  Y    0.000011   0.001260  -0.001437   0.000014   0.000042
   50  H  4  Z   -0.028660  -0.000000  -0.000005  -0.017671   0.082189
   51  H  5  S    0.000030   0.104934   0.258874   0.000103  -0.000409
   52  H  5  S    0.000025  -0.345142  -0.544262  -0.000082  -0.000247
   53  H  5  X   -0.000015   0.008213   0.039045  -0.000006   0.000040
   54  H  5  Y   -0.000000   0.062136   0.038702   0.000012  -0.000002
   55  H  5  Z    0.002234   0.000020   0.000015  -0.007233  -0.031930

                     26         27         28         29         30
                    0.7868     0.8335     0.9159     1.0090     1.1715
                     A          A          A          A          A   
    1  N  1  S   -0.029883   0.064336   0.027520  -0.000967   0.043562
    2  N  1  S    0.374579  -0.897409  -0.535432  -0.245093  -1.398226
    3  N  1  S   -0.504720   0.348506   0.657611   1.412193   4.526471
    4  N  1  X   -0.204155  -0.102009  -0.214446  -0.332205   0.114217
    5  N  1  Y   -0.005178   0.151920  -0.030589  -0.397862   0.138421
    6  N  1  Z   -0.000170  -0.000048  -0.000070  -0.000041   0.000037
    7  N  1  X    0.525885   0.518172   1.418853   1.521184  -1.938715
    8  N  1  Y   -0.177266  -0.573137   0.209379   1.502422   0.745690
    9  N  1  Z    0.000128   0.000086   0.000267   0.000330  -0.000047
   10  N  1 XX    0.009675  -0.029145  -0.013307  -0.050105  -0.124071
   11  N  1 YY    0.034872  -0.007616  -0.076901   0.073717   0.049188
   12  N  1 ZZ   -0.044547   0.036761   0.090208  -0.023612   0.074883
   13  N  1 XY   -0.000397   0.092749   0.007865  -0.070819  -0.036762
   14  N  1 XZ    0.000057   0.000018  -0.000056  -0.000203   0.000210
   15  N  1 YZ    0.000036   0.000007  -0.000035  -0.000096   0.000102
   16  N  2  S    0.003276   0.037889   0.048892  -0.028493  -0.025857
   17  N  2  S    0.193623  -0.776260  -0.936825   0.607042   0.959067
   18  N  2  S    1.031605   1.863092   2.139496  -1.507342  -3.513739
   19  N  2  X   -0.176233  -0.239510   0.017217   0.061097   0.100472
   20  N  2  Y   -0.194909  -0.074162  -0.056980  -0.120707   0.042200
   21  N  2  Z   -0.000182  -0.000020  -0.000046  -0.000071   0.000039
   22  N  2  X    0.013307   0.774439  -0.543313  -0.548042  -1.722394
   23  N  2  Y   -0.001411  -0.610890  -0.517129   0.134998   1.292615
   24  N  2  Z    0.000673   0.000030   0.000043   0.000062  -0.000000
   25  N  2 XX    0.098292  -0.052849  -0.016105   0.094612   0.077279
   26  N  2 YY    0.040492   0.012526  -0.057497  -0.068503  -0.062880
   27  N  2 ZZ   -0.138785   0.040322   0.073602  -0.026110  -0.014399
   28  N  2 XY    0.063594   0.050468  -0.010533  -0.037379   0.108077
   29  N  2 XZ   -0.000015   0.000001   0.000010   0.000029  -0.000025
   30  N  2 YZ    0.000022  -0.000001  -0.000028  -0.000088   0.000090
   31  O  3  S    0.044454   0.037171   0.012557   0.000032  -0.029319
   32  O  3  S   -0.151719  -0.197695  -0.078956  -0.049645   0.386838
   33  O  3  S   -0.142289  -0.058713  -0.498152   0.230329  -0.304298
   34  O  3  X    0.521772   0.366377  -0.362461   0.010485   0.053304
   35  O  3  Y    0.467981  -0.349692   0.481508  -0.331402   0.219187
   36  O  3  Z    0.001072   0.000039   0.000154   0.000231  -0.000098
   37  O  3  X   -0.959889  -0.863549   0.352793   0.296822  -0.001818
   38  O  3  Y   -0.919213   0.475475  -1.050650   0.527422  -0.652113
   39  O  3  Z   -0.001460  -0.000059  -0.000228  -0.000383   0.000190
   40  O  3 XX    0.025007   0.041714  -0.071077  -0.028067   0.019006
   41  O  3 YY    0.023564  -0.047125   0.017431   0.091015   0.025298
   42  O  3 ZZ   -0.048571   0.005411   0.053646  -0.062948  -0.044304
   43  O  3 XY    0.027644  -0.043690  -0.022850  -0.009276   0.094620
   44  O  3 XZ    0.000015   0.000003   0.000022   0.000053  -0.000058
   45  O  3 YZ    0.000025  -0.000000  -0.000009  -0.000031   0.000032
   46  H  4  S    0.360234   0.205820   0.051244   0.733839  -0.532060
   47  H  4  S   -0.352901  -0.317069  -0.419804   0.500048  -0.479333
   48  H  4  X    0.004817  -0.025647  -0.021954  -0.035570   0.018419
   49  H  4  Y    0.019364   0.053456  -0.022849  -0.029473  -0.149496
   50  H  4  Z   -0.000099   0.000001   0.000050   0.000127  -0.000131
   51  H  5  S   -0.135279   0.055764  -0.561538  -1.011729   0.087926
   52  H  5  S   -0.010930  -0.628653  -0.624862  -0.640056   0.099659
   53  H  5  X    0.001751   0.034330   0.065882   0.067296   0.053330
   54  H  5  Y   -0.002195   0.072446  -0.022808   0.039859   0.134282
   55  H  5  Z    0.000027   0.000041  -0.000012  -0.000119   0.000266

                     31         32         33         34         35
                    1.3075     1.3886     1.4808     1.5878     1.6533
                     A          A          A          A          A   
    1  N  1  S   -0.000028  -0.006424   0.000001   0.018121   0.000052
    2  N  1  S    0.000702   0.434000   0.000010  -0.144978  -0.000068
    3  N  1  S   -0.002235  -1.633341   0.000004   0.531970  -0.000536
    4  N  1  X   -0.000226   0.001651  -0.000009   0.031308  -0.000055
    5  N  1  Y   -0.000288  -0.081582  -0.000011   0.040785  -0.000027
    6  N  1  Z    0.017209  -0.000011  -0.122620   0.000008   0.070920
    7  N  1  X    0.001629   0.259899   0.000176  -0.113233   0.003241
    8  N  1  Y   -0.000126  -0.563128  -0.000100  -0.296580   0.001392
    9  N  1  Z   -0.035578  -0.000077   0.047323   0.000109   0.059216
   10  N  1 XX   -0.000223  -0.292690   0.000014  -0.058963   0.000253
   11  N  1 YY    0.000147   0.384631   0.000015   0.330840   0.000510
   12  N  1 ZZ    0.000076  -0.091941  -0.000029  -0.271876  -0.000763
   13  N  1 XY   -0.000146   0.070914   0.000011   0.112917   0.000772
   14  N  1 XZ    0.507232  -0.000271  -0.145681   0.000052   0.051868
   15  N  1 YZ    0.155138   0.000006   0.509371  -0.000060  -0.353459
   16  N  2  S    0.000012   0.007025  -0.000004  -0.007544  -0.000027
   17  N  2  S   -0.000595  -0.604856   0.000082   0.317392  -0.000368
   18  N  2  S    0.002153   2.293921  -0.000281  -1.600525   0.003782
   19  N  2  X   -0.000068   0.045666   0.000023   0.112595   0.000372
   20  N  2  Y   -0.000170  -0.171527   0.000018   0.044100  -0.000119
   21  N  2  Z    0.098171  -0.000051  -0.021102  -0.000001   0.148614
   22  N  2  X    0.000838   0.047243   0.000211   0.479278  -0.002472
   23  N  2  Y   -0.000836  -0.721537   0.000105   0.666510  -0.001918
   24  N  2  Z   -0.073984   0.000029  -0.107804  -0.000067  -0.048522
   25  N  2 XX    0.000223   0.245243  -0.000001   0.091790  -0.000371
   26  N  2 YY   -0.000357  -0.433373   0.000052  -0.008409   0.000728
   27  N  2 ZZ    0.000134   0.188130  -0.000051  -0.083382  -0.000357
   28  N  2 XY   -0.000106   0.003667  -0.000036  -0.065874   0.000355
   29  N  2 XZ   -0.104032   0.000117   0.615889  -0.000238   0.194076
   30  N  2 YZ    0.280130  -0.000161  -0.031194  -0.000054   0.662946
   31  O  3  S    0.000022  -0.022205   0.000024   0.078412  -0.000077
   32  O  3  S   -0.000313   0.320049  -0.000370  -1.373891   0.001750
   33  O  3  S    0.000261  -0.916247   0.000659   2.505713  -0.004562
   34  O  3  X   -0.000022   0.041020  -0.000048  -0.147908  -0.000212
   35  O  3  Y   -0.000214  -0.093556   0.000023   0.056076   0.000038
   36  O  3  Z   -0.120324   0.000044   0.011022  -0.000043   0.094427
   37  O  3  X    0.000110  -0.287917   0.000235   0.926657  -0.000922
   38  O  3  Y    0.000323  -0.344786   0.000116   0.206736  -0.001175
   39  O  3  Z    0.253735  -0.000069   0.190017   0.000008   0.017147
   40  O  3 XX   -0.000222  -0.217976  -0.000006  -0.126499   0.000556
   41  O  3 YY    0.000179   0.075644   0.000009  -0.016135  -0.000601
   42  O  3 ZZ    0.000044   0.142332  -0.000003   0.142634   0.000045
   43  O  3 XY   -0.000009   0.174512  -0.000063  -0.035790   0.000170
   44  O  3 XZ   -0.134381   0.000057  -0.220472   0.000077  -0.334613
   45  O  3 YZ    0.084615  -0.000060  -0.197542   0.000133  -0.203629
   46  H  4  S    0.000653   0.143885  -0.000070  -0.475179   0.000741
   47  H  4  S    0.000037  -0.322528   0.000002  -0.178249   0.000965
   48  H  4  X   -0.000128   0.247285  -0.000098   0.058133   0.001064
   49  H  4  Y   -0.000254  -0.334599   0.000071   0.172372   0.000725
   50  H  4  Z   -0.366872   0.000179  -0.175989  -0.000086   0.169118
   51  H  5  S   -0.000245   0.386144  -0.000084  -0.047385  -0.001830
   52  H  5  S   -0.000299   0.103851  -0.000059  -0.000495  -0.000427
   53  H  5  X   -0.000095  -0.040050  -0.000070  -0.162320  -0.000466
   54  H  5  Y   -0.000124   0.138503   0.000158   0.348539   0.000460
   55  H  5  Z    0.438512  -0.000268   0.023614  -0.000051  -0.257718

                     36         37         38         39         40
                    1.6686     1.7799     1.8735     1.9232     2.1639
                     A          A          A          A          A   
    1  N  1  S   -0.018394   0.000007  -0.006030  -0.030614  -0.030675
    2  N  1  S   -0.048750   0.000340   0.220701   0.407179   0.188308
    3  N  1  S    0.474112  -0.001144  -1.201851  -0.493877  -0.012126
    4  N  1  X    0.029281  -0.000050   0.118163  -0.141601   0.196800
    5  N  1  Y    0.027954  -0.000038  -0.064433   0.019030   0.067225
    6  N  1  Z    0.000234   0.034495   0.000049   0.000020   0.000032
    7  N  1  X   -1.435028   0.001180   0.192491   0.475344   0.031487
    8  N  1  Y   -0.522697  -0.000027  -0.623240  -0.328157   0.258434
    9  N  1  Z   -0.000256  -0.409810   0.000029   0.000156  -0.000137
   10  N  1 XX   -0.081897  -0.000099  -0.160626  -0.170672  -0.311531
   11  N  1 YY   -0.186321   0.000158   0.233876  -0.114652   0.410141
   12  N  1 ZZ    0.268219  -0.000059  -0.073250   0.285324  -0.098610
   13  N  1 XY   -0.293847   0.000151  -0.010895  -0.043366  -0.303825
   14  N  1 XZ   -0.000055   0.120728   0.000002  -0.000097  -0.000285
   15  N  1 YZ   -0.000944   0.109090  -0.000075  -0.000078  -0.000121
   16  N  2  S    0.011866  -0.000016  -0.008706  -0.010534   0.013795
   17  N  2  S    0.194503  -0.000103  -0.362832   0.204834  -0.404536
   18  N  2  S   -1.842347   0.001569   2.072978   0.137860   0.588649
   19  N  2  X   -0.143123   0.000138  -0.070787   0.059929  -0.175086
   20  N  2  Y    0.063896  -0.000086  -0.097672  -0.033868   0.101536
   21  N  2  Z    0.000329   0.003130   0.000029   0.000019  -0.000020
   22  N  2  X    0.972791  -0.000311   0.042454   0.216034  -0.374450
   23  N  2  Y    0.895934  -0.000658  -0.733487   0.020877  -0.337475
   24  N  2  Z    0.000099   0.202668  -0.000055  -0.000115   0.000088
   25  N  2 XX    0.161227  -0.000169   0.116585  -0.530529   0.175101
   26  N  2 YY   -0.297073   0.000239  -0.118069   0.232677   0.266301
   27  N  2 ZZ    0.135846  -0.000070   0.001484   0.297852  -0.441401
   28  N  2 XY   -0.135580   0.000061  -0.044952  -0.062156   0.216415
   29  N  2 XZ    0.000600   0.096672  -0.000084  -0.000108   0.000053
   30  N  2 YZ    0.001535   0.046491   0.000127   0.000112  -0.000045
   31  O  3  S    0.034858  -0.000010  -0.011701  -0.015289   0.024339
   32  O  3  S   -0.802036   0.000307   0.638677  -0.048081  -0.053496
   33  O  3  S    2.050215  -0.000960  -1.555535   0.397371  -0.512810
   34  O  3  X    0.084167  -0.000077  -0.046608   0.095476  -0.230886
   35  O  3  Y   -0.011355   0.000019   0.046057   0.086921  -0.079424
   36  O  3  Z    0.000295   0.060419  -0.000001  -0.000005   0.000036
   37  O  3  X    0.450442  -0.000183  -0.590632   0.095118  -0.005291
   38  O  3  Y    0.474235  -0.000221  -0.219876   0.084876  -0.121659
   39  O  3  Z   -0.000138  -0.160695   0.000015   0.000029  -0.000063
   40  O  3 XX   -0.244195   0.000170   0.158345   0.082530   0.363891
   41  O  3 YY    0.230632  -0.000207   0.329236  -0.299867  -0.496000
   42  O  3 ZZ    0.013563   0.000037  -0.487581   0.217337   0.132109
   43  O  3 XY   -0.051150  -0.000005  -0.280762  -0.074015  -0.015678
   44  O  3 XZ   -0.000643   0.257245  -0.000022  -0.000131  -0.000357
   45  O  3 YZ   -0.000736  -0.340228  -0.000005   0.000167   0.000379
   46  H  4  S   -0.367845   0.000312  -0.038861   0.169006   0.055212
   47  H  4  S   -0.415699   0.000213   0.042534  -0.161223   0.028025
   48  H  4  X   -0.380223   0.000143  -0.478371  -0.187571  -0.036103
   49  H  4  Y   -0.294946   0.000210   0.281310  -0.368478  -0.042868
   50  H  4  Z    0.001058   0.734601  -0.000001  -0.000116   0.000129
   51  H  5  S    0.723763  -0.000258   0.276876   0.046298   0.028761
   52  H  5  S    0.184841  -0.000097   0.031961  -0.101630  -0.131426
   53  H  5  X    0.221515  -0.000376  -0.041901  -0.161963   0.490384
   54  H  5  Y   -0.194783   0.000304   0.396890   0.550289  -0.017580
   55  H  5  Z   -0.000588   0.504302  -0.000205  -0.000156   0.000482

                     41         42         43         44         45
                    2.1908     2.2661     2.3176     2.3385     2.5029
                     A          A          A          A          A   
    1  N  1  S    0.000023   0.021113   0.000011   0.015348   0.019577
    2  N  1  S    0.000156  -0.638193   0.000195  -0.055305   0.378686
    3  N  1  S   -0.000851   0.827919  -0.004095  -1.382475  -1.572105
    4  N  1  X   -0.000021   0.126383  -0.000050   0.105289   0.643704
    5  N  1  Y   -0.000013  -0.164981  -0.000454  -0.188288   0.015299
    6  N  1  Z   -0.029865   0.000044   0.072415  -0.000254   0.000164
    7  N  1  X    0.000326  -0.567938   0.001399   0.402996   1.136114
    8  N  1  Y   -0.000375   0.277017  -0.001975  -0.652356  -0.256004
    9  N  1  Z   -0.066096   0.000273   0.317367  -0.001055   0.000427
   10  N  1 XX    0.000152   0.306323   0.000305   0.203579  -0.048147
   11  N  1 YY   -0.000357   0.228172  -0.001011  -0.283447  -0.367831
   12  N  1 ZZ    0.000205  -0.534494   0.000706   0.079868   0.415978
   13  N  1 XY    0.000292  -0.434476   0.000225  -0.008092   0.132015
   14  N  1 XZ   -0.337009   0.000221   0.231250  -0.000761  -0.000657
   15  N  1 YZ    0.107071   0.000800   0.750694  -0.002534   0.000652
   16  N  2  S   -0.000016   0.019757  -0.000005  -0.001171  -0.029020
   17  N  2  S    0.000172  -0.235980  -0.002395  -0.797684  -0.036246
   18  N  2  S    0.000326  -0.168974   0.007193   2.429266   1.581741
   19  N  2  X    0.000205  -0.317012   0.000726   0.161922   0.120885
   20  N  2  Y   -0.000128   0.176097   0.000279   0.098978  -0.222639
   21  N  2  Z   -0.021808  -0.000006  -0.014885   0.000064  -0.000062
   22  N  2  X    0.000439   0.002500   0.000650   0.389202   0.733686
   23  N  2  Y   -0.000007  -0.087132  -0.003299  -1.124478  -0.563204
   24  N  2  Z   -0.034885  -0.000310  -0.328088   0.001075  -0.000452
   25  N  2 XX    0.000009  -0.089930   0.001133   0.283669   0.061045
   26  N  2 YY   -0.000185   0.116136   0.001250   0.433312   0.169484
   27  N  2 ZZ    0.000176  -0.026206  -0.002384  -0.716980  -0.230528
   28  N  2 XY   -0.000064  -0.604429   0.001207   0.076390  -0.519280
   29  N  2 XZ   -0.026914  -0.000241  -0.250897   0.000743  -0.000736
   30  N  2 YZ    0.082571   0.000374   0.403647  -0.001360   0.000810
   31  O  3  S   -0.000005  -0.038146   0.000115   0.018746  -0.014633
   32  O  3  S   -0.000035   0.396119  -0.000708  -0.077148   0.141981
   33  O  3  S    0.000269  -0.379774  -0.001602  -0.572625  -0.169929
   34  O  3  X    0.000085   0.220195  -0.000798  -0.139688   0.102962
   35  O  3  Y    0.000001   0.143022  -0.000740  -0.162810   0.040703
   36  O  3  Z    0.043135  -0.000013  -0.019586   0.000063  -0.000032
   37  O  3  X    0.000004  -0.281360  -0.000510  -0.265623  -0.172776
   38  O  3  Y    0.000112  -0.152902   0.000298   0.063267   0.047464
   39  O  3  Z   -0.067453   0.000074   0.098369  -0.000330   0.000142
   40  O  3 XX   -0.000255  -0.062657  -0.000299  -0.182150  -0.276525
   41  O  3 YY    0.000435  -0.080835   0.000875   0.337873   0.174996
   42  O  3 ZZ   -0.000180   0.143492  -0.000576  -0.155724   0.101529
   43  O  3 XY    0.000047  -0.112031   0.001139   0.303913   0.037131
   44  O  3 XZ   -0.471918   0.000126   0.238233  -0.000813   0.000347
   45  O  3 YZ    0.700306   0.000373   0.207086  -0.000748  -0.000341
   46  H  4  S    0.000066  -0.104661   0.000011  -0.002414   0.434476
   47  H  4  S    0.000080  -0.138194  -0.000877  -0.281598   0.257651
   48  H  4  X    0.000139   0.027307  -0.000701  -0.141107   0.463434
   49  H  4  Y    0.000208  -0.189485  -0.001281  -0.401593   0.440021
   50  H  4  Z    0.409926   0.000434   0.248499  -0.000816  -0.000367
   51  H  5  S    0.000063   0.026520   0.000310   0.138208  -0.357961
   52  H  5  S    0.000020   0.075417   0.000214   0.056165  -0.364376
   53  H  5  X   -0.000272  -0.162506  -0.000681  -0.276898   0.586221
   54  H  5  Y    0.000025   0.009056   0.000864   0.337443   0.453862
   55  H  5  Z    0.341157  -0.000597  -0.642915   0.002029   0.000258

                     46         47         48         49         50
                    2.5835     2.6989     2.7194     2.7840     2.9369
                     A          A          A          A          A   
    1  N  1  S    0.000037  -0.000036  -0.002801   0.065861   0.043151
    2  N  1  S    0.000438  -0.000098  -0.013961  -0.165949   0.057743
    3  N  1  S   -0.002288   0.001139  -0.096404  -1.800050  -0.933534
    4  N  1  X    0.000717  -0.000153   0.078934   0.038524  -0.025787
    5  N  1  Y   -0.000074   0.000145   0.007935  -0.385410  -0.205941
    6  N  1  Z   -0.034537  -0.007178   0.000026  -0.000077  -0.000045
    7  N  1  X    0.001614  -0.000566   0.251946   0.385847   0.406988
    8  N  1  Y   -0.000403   0.000332   0.193833  -0.725569  -0.262150
    9  N  1  Z   -0.173678   0.064031   0.000044  -0.000014   0.000011
   10  N  1 XX   -0.000351   0.000141  -0.390835  -0.487342  -0.245291
   11  N  1 YY   -0.000329   0.000319   0.436707   0.005021  -0.130966
   12  N  1 ZZ    0.000680  -0.000460  -0.045872   0.482321   0.376258
   13  N  1 XY    0.000319  -0.000075   0.331762   0.601924   0.104350
   14  N  1 XZ    0.778568  -0.379704   0.000099  -0.000478  -0.000083
   15  N  1 YZ   -0.296388  -0.153968   0.000266  -0.000099  -0.000012
   16  N  2  S   -0.000056   0.000028  -0.026043  -0.080013   0.026920
   17  N  2  S   -0.000016  -0.000067   0.000428   0.028419  -0.183975
   18  N  2  S    0.002461  -0.001192   0.348689   2.545292  -0.508345
   19  N  2  X    0.000196  -0.000081  -0.021153   0.046697   0.459455
   20  N  2  Y   -0.000382   0.000198  -0.126240  -0.424891   0.186192
   21  N  2  Z    0.036161  -0.061525   0.000007  -0.000040  -0.000014
   22  N  2  X    0.000880  -0.000320  -0.015397   0.310900   0.887631
   23  N  2  Y   -0.000926   0.000286  -0.370061  -0.869979   0.329144
   24  N  2  Z    0.152260  -0.317066   0.000103  -0.000146  -0.000043
   25  N  2 XX    0.000107  -0.000425  -0.425613   0.603588   0.119404
   26  N  2 YY    0.000352   0.000224   0.596374   0.017329  -0.237045
   27  N  2 ZZ   -0.000460   0.000201  -0.170761  -0.620916   0.117642
   28  N  2 XY   -0.000675   0.000322  -0.005605  -0.403567  -0.751470
   29  N  2 XZ    0.690546   0.467417  -0.000351   0.000012  -0.000008
   30  N  2 YZ   -0.370723   0.565540  -0.000171   0.000306   0.000058
   31  O  3  S   -0.000013   0.000002   0.000852   0.004501  -0.017632
   32  O  3  S    0.000185  -0.000286  -0.208270   0.459342  -0.813650
   33  O  3  S   -0.000405   0.000597   0.213554  -1.352831   2.228352
   34  O  3  X    0.000082  -0.000033  -0.046103  -0.027603   0.083319
   35  O  3  Y    0.000044   0.000005   0.026279  -0.025564   0.098661
   36  O  3  Z    0.003998  -0.029431   0.000015  -0.000009  -0.000003
   37  O  3  X   -0.000265   0.000292   0.115303  -0.641592   1.116805
   38  O  3  Y   -0.000018   0.000038  -0.155247  -0.334490   0.279112
   39  O  3  Z    0.028862   0.336575  -0.000153   0.000126   0.000014
   40  O  3 XX   -0.000316  -0.000010  -0.211195  -0.099109   0.868249
   41  O  3 YY    0.000185   0.000359   0.508726  -0.339243  -0.161256
   42  O  3 ZZ    0.000131  -0.000348  -0.297531   0.438352  -0.706993
   43  O  3 XY   -0.000063  -0.000076  -0.461622  -0.352890   0.211581
   44  O  3 XZ    0.084741   0.751354  -0.000324   0.000249   0.000031
   45  O  3 YZ    0.405071   0.392970  -0.000242   0.000086  -0.000024
   46  H  4  S    0.000549  -0.000387  -0.259120   0.065283  -0.228735
   47  H  4  S    0.000266  -0.000139  -0.085296  -0.120051   0.015947
   48  H  4  X    0.000504   0.000033   0.312469  -0.305137   0.443082
   49  H  4  Y    0.000463  -0.000450  -0.460512  -0.004672  -0.254352
   50  H  4  Z    0.222559  -0.247772   0.000149  -0.000158  -0.000023
   51  H  5  S   -0.000444  -0.000009  -0.132759   0.437409   0.189923
   52  H  5  S   -0.000403   0.000080  -0.064205   0.127499  -0.082823
   53  H  5  X    0.000651  -0.000007   0.215513  -0.385062  -0.227815
   54  H  5  Y    0.000491  -0.000181  -0.333808  -0.297726  -0.089361
   55  H  5  Z   -0.316166   0.258039  -0.000097   0.000036  -0.000090

                     51         52
                    3.1914     3.5308
                     A          A   
    1  N  1  S   -0.002893  -0.080204
    2  N  1  S    0.137310  -0.022796
    3  N  1  S   -0.159034   1.890405
    4  N  1  X   -0.156028   0.483547
    5  N  1  Y    0.053850   0.113657
    6  N  1  Z   -0.000016   0.000172
    7  N  1  X    0.094266   0.057164
    8  N  1  Y   -0.045164   0.231297
    9  N  1  Z   -0.000026   0.000165
   10  N  1 XX    0.324915   0.962263
   11  N  1 YY   -0.409944  -0.318782
   12  N  1 ZZ    0.085029  -0.643481
   13  N  1 XY   -0.423556   0.946810
   14  N  1 XZ    0.000014   0.000351
   15  N  1 YZ   -0.000062   0.000132
   16  N  2  S   -0.024786  -0.004871
   17  N  2  S   -0.047990   0.157730
   18  N  2  S    0.946223  -0.798362
   19  N  2  X   -0.335815   0.098215
   20  N  2  Y   -0.041483   0.035719
   21  N  2  Z    0.000015   0.000005
   22  N  2  X   -0.567629  -0.235354
   23  N  2  Y   -0.200988   0.366043
   24  N  2  Z    0.000005   0.000010
   25  N  2 XX    0.540477   0.292940
   26  N  2 YY   -0.362793  -0.323824
   27  N  2 ZZ   -0.177684   0.030884
   28  N  2 XY    0.591241  -0.126573
   29  N  2 XZ    0.000029  -0.000009
   30  N  2 YZ   -0.000026  -0.000070
   31  O  3  S    0.023285  -0.007476
   32  O  3  S    0.028476  -0.070207
   33  O  3  S   -0.754587   0.371424
   34  O  3  X   -0.164067   0.055814
   35  O  3  Y   -0.082943   0.003496
   36  O  3  Z   -0.000002   0.000002
   37  O  3  X   -0.196045   0.205116
   38  O  3  Y   -0.745109  -0.121197
   39  O  3  Z    0.000031  -0.000029
   40  O  3 XX    0.046166   0.232620
   41  O  3 YY   -0.104713  -0.197849
   42  O  3 ZZ    0.058547  -0.034772
   43  O  3 XY   -0.903204  -0.117862
   44  O  3 XZ    0.000036  -0.000037
   45  O  3 YZ   -0.000004   0.000000
   46  H  4  S   -0.099968  -0.458527
   47  H  4  S   -0.191812  -0.173091
   48  H  4  X    0.591429  -0.341899
   49  H  4  Y   -0.191258  -0.534315
   50  H  4  Z   -0.000011   0.000112
   51  H  5  S    0.070377  -1.258388
   52  H  5  S    0.064041  -0.191659
   53  H  5  X   -0.219689   1.062115
   54  H  5  Y    0.282790   0.372474
   55  H  5  Z   -0.000031   0.000419
 ...... END OF RHF CALCULATION ......
 STEP CPU TIME =     4.97 TOTAL CPU TIME =          5.2 (      0.1 MIN)
 TOTAL WALL CLOCK TIME=          5.2 SECONDS, CPU UTILIZATION IS    99.23%

     ---------------------------------------------------------------------
     PROPERTIES FOR THE PBE      DFT FUNCTIONAL (RHF  TYPE) DENSITY MATRIX
     ---------------------------------------------------------------------

          -----------------
          ENERGY COMPONENTS
          -----------------

         WAVEFUNCTION NORMALIZATION =       1.0000000000

                ONE ELECTRON ENERGY =    -397.3696277071
                TWO ELECTRON ENERGY =     138.7808318843
           NUCLEAR REPULSION ENERGY =      73.0033764178
                                      ------------------
                       TOTAL ENERGY =    -185.5854194050

 ELECTRON-ELECTRON POTENTIAL ENERGY =     138.7808318843
  NUCLEUS-ELECTRON POTENTIAL ENERGY =    -582.4513261868
   NUCLEUS-NUCLEUS POTENTIAL ENERGY =      73.0033764178
                                      ------------------
             TOTAL POTENTIAL ENERGY =    -370.6671178848
               TOTAL KINETIC ENERGY =     185.0816984797
                 VIRIAL RATIO (V/T) =       2.0027216139

          ---------------------------------------
          MULLIKEN AND LOWDIN POPULATION ANALYSES
          ---------------------------------------

     ATOMIC MULLIKEN POPULATION IN EACH MOLECULAR ORBITAL

                      1          2          3          4          5

                  2.000000   2.000000   2.000000   2.000000   2.000000

    1            -0.000029   0.001777   1.999045   0.288970   0.840874
    2             0.001770   1.997956   0.000895   0.829880   0.439559
    3             1.998073   0.000128   0.000034   0.845134   0.615233
    4             0.000185   0.000085   0.000240   0.030797   0.000524
    5             0.000002   0.000053  -0.000213   0.005219   0.103810

                      6          7          8          9         10

                  2.000000   2.000000   2.000000   2.000000   2.000000

    1             0.747181   0.605804   0.536836   0.495764   0.617826
    2             0.425060   0.489110   0.461434   0.953578   0.756677
    3             0.460590   0.393025   0.952510   0.545930   0.367111
    4             0.052897   0.292338   0.032600   0.002966   0.174775
    5             0.314272   0.219723   0.016620   0.001761   0.083611

                     11         12

                  2.000000   2.000000

    1             0.147649   0.917674
    2             0.505409   0.024456
    3             1.096970   1.051817
    4             0.183703   0.000004
    5             0.066269   0.006050

               ----- POPULATIONS IN EACH AO -----
                             MULLIKEN      LOWDIN
              1  N  1  S      1.99440     1.97091
              2  N  1  S      0.87260     0.53910
              3  N  1  S      0.68945     0.38807
              4  N  1  X      0.77922     0.69998
              5  N  1  Y      0.80949     0.75538
              6  N  1  Z      0.84227     0.80363
              7  N  1  X      0.21189     0.38717
              8  N  1  Y      0.40398     0.49958
              9  N  1  Z      0.56348     0.57544
             10  N  1 XX      0.00341     0.20866
             11  N  1 YY      0.00783     0.17598
             12  N  1 ZZ      0.01367     0.15995
             13  N  1 XY      0.00413     0.02879
             14  N  1 XZ      0.00356     0.00684
             15  N  1 YZ      0.00000     0.00438
             16  N  2  S      1.99488     1.97180
             17  N  2  S      0.92437     0.56168
             18  N  2  S      0.78162     0.42301
             19  N  2  X      0.72274     0.65900
             20  N  2  Y      0.95655     0.91585
             21  N  2  Z      0.59748     0.53991
             22  N  2  X      0.12270     0.28284
             23  N  2  Y      0.35009     0.49054
             24  N  2  Z      0.35316     0.40292
             25  N  2 XX      0.00807     0.20660
             26  N  2 YY      0.01673     0.18410
             27  N  2 ZZ      0.03000     0.17416
             28  N  2 XY      0.01771     0.05288
             29  N  2 XZ      0.00968     0.03574
             30  N  2 YZ      0.00000     0.01085
             31  O  3  S      1.99544     1.97164
             32  O  3  S      0.94248     0.68345
             33  O  3  S      0.94970     0.49515
             34  O  3  X      0.95933     0.91679
             35  O  3  Y      0.89883     0.85278
             36  O  3  Z      0.99035     0.95690
             37  O  3  X      0.47576     0.54631
             38  O  3  Y      0.48604     0.55397
             39  O  3  Z      0.60055     0.62798
             40  O  3 XX      0.00338     0.20071
             41  O  3 YY      0.00682     0.19791
             42  O  3 ZZ      0.01103     0.19546
             43  O  3 XY      0.00546     0.01747
             44  O  3 XZ      0.00138     0.00713
             45  O  3 YZ      0.00000     0.00212
             46  H  4  S      0.56679     0.45870
             47  H  4  S      0.16408     0.26900
             48  H  4  X      0.02385     0.07324
             49  H  4  Y      0.01342     0.02023
             50  H  4  Z      0.00297     0.00522
             51  H  5  S      0.71587     0.57713
             52  H  5  S      0.06793     0.18169
             53  H  5  X      0.01883     0.03539
             54  H  5  Y      0.00674     0.01697
             55  H  5  Z      0.00781     0.02093

          ----- MULLIKEN ATOMIC OVERLAP POPULATIONS -----
          (OFF-DIAGONAL ELEMENTS NEED TO BE MULTIPLIED BY 2)

             1           2           3           4           5

    1    6.6635535
    2    0.3281150   6.3855420
    3   -0.2618348   0.2603735   8.1631692
    4    0.1556099  -0.0698386   0.1529008   0.5300899
    5    0.3139270  -0.0184075   0.0119478   0.0023526   0.5073540

          TOTAL MULLIKEN AND LOWDIN ATOMIC POPULATIONS
       ATOM         MULL.POP.    CHARGE          LOW.POP.     CHARGE
    1 N             7.199371   -0.199371         7.203858   -0.203858
    2 N             6.885784    0.114216         6.911885    0.088115
    3 O             8.326556   -0.326556         8.225774   -0.225774
    4 H             0.771115    0.228885         0.826375    0.173625
    5 H             0.817174    0.182826         0.832107    0.167893

          MULLIKEN SPHERICAL HARMONIC POPULATIONS
       ATOM           S       P       D      F      G      H      I    TOTAL
    1 N             3.56    3.61    0.03   0.00   0.00   0.00   0.00    7.20
    2 N             3.70    3.10    0.08   0.00   0.00   0.00   0.00    6.89
    3 O             3.89    4.41    0.03   0.00   0.00   0.00   0.00    8.33
    4 H             0.73    0.04    0.00   0.00   0.00   0.00   0.00    0.77
    5 H             0.78    0.03    0.00   0.00   0.00   0.00   0.00    0.82

          -------------------------------
          BOND ORDER AND VALENCE ANALYSIS     BOND ORDER THRESHOLD=0.050
          -------------------------------

                   BOND                       BOND                       BOND
  ATOM PAIR DIST  ORDER      ATOM PAIR DIST  ORDER      ATOM PAIR DIST  ORDER
    1   2  1.283  1.505        1   3  2.021  0.220        1   4  1.319  0.494
    1   5  1.033  0.897        2   3  1.291  1.351        2   4  1.688  0.065
    3   4  1.376  0.450        3   5  2.993  0.055

                       TOTAL       BONDED        FREE
      ATOM            VALENCE     VALENCE     VALENCE
    1 N                 3.116       3.116       0.000
    2 N                 2.935       2.935       0.000
    3 O                 2.075       2.075      -0.000
    4 H                 1.023       1.023      -0.000
    5 H                 0.980       0.980       0.000

          ---------------------
          ELECTROSTATIC MOMENTS
          ---------------------

 POINT   1           X           Y           Z (BOHR)    CHARGE
                 0.000000    0.000000   -0.000000        0.00 (A.U.)
         DX          DY          DZ         /D/  (DEBYE)
     2.628761   -0.509491    0.000516    2.677680
 ...... END OF PROPERTY EVALUATION ......
 STEP CPU TIME =     0.01 TOTAL CPU TIME =          5.2 (      0.1 MIN)
 TOTAL WALL CLOCK TIME=          5.2 SECONDS, CPU UTILIZATION IS    99.23%

 BEGINNING ONE ELECTRON GRADIENT...
 ..... END OF 1-ELECTRON GRADIENT ......
 STEP CPU TIME =     0.00 TOTAL CPU TIME =          5.2 (      0.1 MIN)
 TOTAL WALL CLOCK TIME=          5.2 SECONDS, CPU UTILIZATION IS    99.04%

          ----------------------
          GRADIENT OF THE ENERGY
          ----------------------
 MEMORY FOR GRID POINT CONTRIBUTIONS TO THE DFT GRADIENT=    210017 WORDS.
 STEP CPU TIME =     0.81 TOTAL CPU TIME =          6.0 (      0.1 MIN)
 TOTAL WALL CLOCK TIME=          6.0 SECONDS, CPU UTILIZATION IS    99.17%

 THE MINIMUM MEMORY REQUIRED FOR THIS RUN IS      88986 WORDS.
 USING     991342 WORDS FOR 2E- DERIVATIVE INTEGRAL CONTRIBUTIONS.
 THE COARSE/FINE SCHWARZ SCREENINGS SKIPPED            0/           0 BLOCKS.
 THE NUMBER OF GRADIENT INTEGRAL BLOCKS COMPUTED WAS     44415
 ...... END OF 2-ELECTRON GRADIENT ......
 STEP CPU TIME =     0.21 TOTAL CPU TIME =          6.2 (      0.1 MIN)
[...]
                                        -------------------
     VIB  2

                       ATOM             X              Y              Z

                 1  N                1.892152      -0.498254      -0.000052
                 2  N                0.040823       1.066197      -0.000011
                 3  O               -1.925301      -0.379046       0.000017
                 4  H                0.001901      -2.123369       0.000105
                 5  H                3.696582       0.247903      -0.009493
 ...... END OF ONE-ELECTRON INTEGRALS ......
 STEP CPU TIME =     0.00 TOTAL CPU TIME =        139.7 (      2.3 MIN)
 TOTAL WALL CLOCK TIME=        140.8 SECONDS, CPU UTILIZATION IS    99.21%
 TOTAL NUMBER OF NONZERO TWO-ELECTRON INTEGRALS =             1080390
         73 INTEGRAL RECORDS WERE STORED ON DISK FILE  8.
  ...... END OF TWO-ELECTRON INTEGRALS .....
 STEP CPU TIME =     0.09 TOTAL CPU TIME =        139.8 (      2.3 MIN)
 TOTAL WALL CLOCK TIME=        140.9 SECONDS, CPU UTILIZATION IS    99.21%

          --------------------------
               R-PBE SCF CALCULATION
          --------------------------
         DENSITY MATRIX CONVERGENCE THRESHOLD=  1.00E-05
     COARSE -> FINE DFT GRID SWITCH THRESHOLD=  3.00E-04 (SWITCH IN $DFT)
                   HF -> DFT SWITCH THRESHOLD=  0.00E+00 (SWOFF IN $DFT)

 ITER EX DEM     TOTAL ENERGY        E CHANGE  DENSITY CHANGE    DIIS ERROR
          * * *   INITIATING DIIS PROCEDURE   * * *
   1  0  0     -185.5854162102  -185.5854162102   0.002312840   0.000801992
   2  1  0     -185.5854188556    -0.0000026454   0.000188836   0.000069980
   3  2  0     -185.5854188692    -0.0000000135   0.000068675   0.000037579
   4  3  0     -185.5854188753    -0.0000000061   0.000012352   0.000003623
   5  4  0     -185.5854188752     0.0000000001   0.000008958   0.000006223
   6  5  0     -185.5854188753    -0.0000000002   0.000002320   0.000001538

          -----------------
          DENSITY CONVERGED
          -----------------
     TIME TO FORM FOCK OPERATORS=       2.8 SECONDS (       0.5 SEC/ITER)
     TIME TO SOLVE SCF EQUATIONS=       0.0 SECONDS (       0.0 SEC/ITER)

 FINAL R-PBE ENERGY IS     -185.5854188753 AFTER   6 ITERATIONS
 DFT EXCHANGE + CORRELATION ENERGY =       -22.8001293919
 TOTAL ELECTRON NUMBER             =        23.9999958103
 ...... END OF RHF CALCULATION ......
 STEP CPU TIME =     2.84 TOTAL CPU TIME =        142.7 (      2.4 MIN)
 TOTAL WALL CLOCK TIME=        143.8 SECONDS, CPU UTILIZATION IS    99.21%
 ..... END OF 1-ELECTRON GRADIENT ......
 STEP CPU TIME =     0.00 TOTAL CPU TIME =        142.7 (      2.4 MIN)
 TOTAL WALL CLOCK TIME=        143.8 SECONDS, CPU UTILIZATION IS    99.20%
 MEMORY FOR GRID POINT CONTRIBUTIONS TO THE DFT GRADIENT=    210017 WORDS.
 STEP CPU TIME =     0.80 TOTAL CPU TIME =        143.5 (      2.4 MIN)
 TOTAL WALL CLOCK TIME=        144.6 SECONDS, CPU UTILIZATION IS    99.21%
 ...... END OF 2-ELECTRON GRADIENT ......
 STEP CPU TIME =     0.20 TOTAL CPU TIME =        143.7 (      2.4 MIN)
 TOTAL WALL CLOCK TIME=        144.8 SECONDS, CPU UTILIZATION IS    99.21%

 UNITS ARE HARTREE/BOHR    E'X               E'Y               E'Z 
    1 N               -0.000045764       0.000009470       0.000068254
    2 N                0.000023844       0.000005397       0.000128068
    3 O               -0.000026409      -0.000004870      -0.000145316
    4 H                0.000020343      -0.000008503       0.000061133
    5 H                0.000027986      -0.000001494      -0.000112139
  $VIB   
          IVIB=   2 IATOM=   5 ICOORD=   3 E=     -185.5854188753
 -4.576370612E-05 9.469806377E-06 6.825447504E-05 2.384409050E-05 5.397136378E-06
  1.280684420E-04-2.640913502E-05-4.870111222E-06-1.453164370E-04 2.034317263E-05
 -8.502880388E-06 6.113278460E-05 2.798557800E-05-1.493951144E-06-1.121392646E-04
  2.628738837E+00-5.094991620E-01-7.638846549E-03
 ...... END OF NUMERICAL HESSIAN CALCULATION ......
 STEP CPU TIME =     0.00 TOTAL CPU TIME =        143.7 (      2.4 MIN)
 TOTAL WALL CLOCK TIME=        144.8 SECONDS, CPU UTILIZATION IS    99.21%

          ---------------
          ENERGY GRADIENT
          ---------------

 UNITS ARE HARTREE/BOHR    E'X               E'Y               E'Z 
    1 N               -0.000037041       0.000011605      -0.000009020
    2 N                0.000022810       0.000006082      -0.000001556
    3 O               -0.000026823      -0.000004478       0.000002893
    4 H                0.000020938      -0.000008518       0.000001538
    5 H                0.000020116      -0.000004691       0.000006144

          -------------------------------
          CARTESIAN FORCE CONSTANT MATRIX
          -------------------------------

                                   1                          2
                               N                          N         
                          X        Y        Z        X        Y        Z
  1   N            X 0.843287-0.048636 0.000108-0.307228 0.152209-0.000000
                   Y-0.048636 0.387863 0.000031 0.171631-0.292531-0.000023
                   Z 0.000108 0.000031 0.046713-0.000019-0.000000-0.034605
  2   N            X-0.307228 0.171631-0.000019 0.517849-0.035518-0.000006
                   Y 0.152209-0.292531-0.000000-0.035518 0.602707 0.000008
                   Z-0.000000-0.000023-0.034605-0.000006 0.000008 0.058788
  3   O            X-0.217358-0.049172-0.000005-0.280901-0.093962 0.000003
                   Y 0.064770 0.059524 0.000009-0.134259-0.206246 0.000004
                   Z 0.000003 0.000006 0.030290 0.000005-0.000003-0.057630
  4   H            X 0.008179 0.024650 0.000010 0.087395 0.005170 0.000006
                   Y-0.018667-0.030939 0.000004-0.012853-0.113629 0.000004
                   Z-0.000003 0.000012-0.034660 0.000005 0.000003 0.046410
  5   H            X-0.326893-0.098475-0.000094-0.017116-0.027901-0.000003
                   Y-0.149674-0.123922-0.000043 0.010995 0.009699 0.000008
                   Z-0.000106-0.000026-0.007740 0.000012-0.000008-0.012963

                                   3                          4
                               O                          H         
                          X        Y        Z        X        Y        Z
  3   O            X 0.506783 0.142998-0.000005-0.002229 0.002344 0.000002
                   Y 0.142998 0.124301-0.000001-0.075863 0.004283-0.000004
                   Z-0.000005-0.000001 0.057005-0.000001 0.000000-0.044491
  4   H            X-0.002229-0.075863-0.000001-0.087619 0.024017-0.000006
                   Y 0.002344 0.004283 0.000000 0.024017 0.135908-0.000007
                   Z 0.000002-0.000004-0.044491-0.000006-0.000007 0.038695
  5   H            X-0.006289 0.002354-0.000003-0.005723 0.005162 0.000001
                   Y-0.002206 0.018142-0.000002 0.022027 0.004375-0.000003
                   Z 0.000006-0.000006 0.014828-0.000011-0.000000-0.005955

                                   5
                               H         
                          X        Y        Z
  5   H            X 0.356026 0.118860 0.000099
                   Y 0.118860 0.091707 0.000040
                   Z 0.000099 0.000040 0.011832

          ------------------------          ----------------
          DIPOLE DERIVATIVE TENSOR          (DEBYE/ANGSTROM)
          ------------------------          ----------------

        ATOM                 MU-X           MU-Y           MU-Z
     N          D/DX    -3.488468372    0.619463802    0.000339354
                D/DY     2.398686089    0.090132407   -0.000035472
                D/DZ     0.000945238    0.000064784   -1.590981290
     N          D/DX     5.021690409   -0.545183006   -0.000369639
                D/DY    -0.558734042   -0.859691016    0.000029785
                D/DZ    -0.000255090   -0.000186168    0.009005093
     O          D/DX    -5.045496901    0.278994379    0.000004949
                D/DY    -1.277367383   -0.712100358    0.000132512
                D/DZ     0.000034314    0.000035418   -1.181895452
     H          D/DX     2.757070057   -0.352567690    0.000131302
                D/DY     0.161335126    0.612252055    0.000023789
                D/DZ    -0.000174080    0.000103581    1.221857707
     H          D/DX     0.756232086    0.000036656   -0.000103940
                D/DY    -0.723855607    0.869249267   -0.000150883
                D/DZ    -0.000246992   -0.000084567    1.540886479

          --------------------------------------------------------
          NORMAL COORDINATE ANALYSIS IN THE HARMONIC APPROXIMATION
          --------------------------------------------------------

          ATOMIC WEIGHTS (AMU)

    1     N                14.00307
    2     N                14.00307
    3     O                15.99491
    4     H                 1.00782
    5     H                 1.00782

 MODE(S)     1 TO     1 TREATED AS IMAGINARY.

 MODES    2 TO    7 ARE TAKEN AS ROTATIONS AND TRANSLATIONS.

 ANALYZING SYMMETRY OF NORMAL MODES...

     FREQUENCIES IN CM**-1, IR INTENSITIES IN DEBYE**2/AMU-ANGSTROM**2,
     REDUCED MASSES IN AMU.

                            1           2           3           4           5
       FREQUENCY:      1635.19 I      5.38        0.29        0.01        0.17  
        SYMMETRY:         A           A           A           A           A   
    REDUCED MASS:      1.07279     5.44543     8.55470     9.20318     9.45577
    IR INTENSITY:      6.66564     0.17092     0.00064     0.00000     0.00018

  1   N            X -0.01755289 -0.04106274  0.00000005  0.14703097  0.00935533
                   Y -0.02258741 -0.15941407  0.00013437 -0.01067324  0.14194631
                   Z -0.00000642 -0.00000364  0.15800316  0.00000816 -0.00013923
  2   N            X -0.04162422  0.08683294 -0.00000005  0.14702452  0.01349524
                   Y -0.00594527 -0.00813517  0.00013381 -0.01067955  0.14684192
                   Z -0.00000366  0.00001242  0.13849819  0.00001030 -0.00012927
  3   O            X -0.00981485 -0.03135650 -0.00000014  0.14702768  0.00966922
                   Y  0.04125164  0.15264038  0.00013212 -0.01068386  0.15204404
                   Z  0.00000067  0.00000973  0.14347073  0.00001114 -0.00012990
  4   H            X  0.94443400 -0.17367903 -0.00000030  0.14703760  0.00506574
                   Y -0.10327844 -0.00497677  0.00013492 -0.01068262  0.14694538
                   Z  0.00003711 -0.00000779  0.16472403  0.00000894 -0.00014068
  5   H            X  0.03353569  0.01985311 -0.00000218  0.14702583  0.01132834
                   Y -0.15498155 -0.30670730  0.00013893 -0.01066618  0.13717376
                   Z  0.00010116 -0.00000515  0.15820926  0.00000774 -0.00014095

 TRANS. SAYVETZ    X -0.00002664 -0.01565064 -0.00000480  6.76573855  0.49115875
                   Y -0.00000981 -0.21885766  0.00614461 -0.49140777  6.76219505
                   Z  0.00000891  0.00026568  6.77219080  0.00045356 -0.00612137
               TOTAL  0.00002976  0.21941670  6.77219358  6.78356101  6.78001153

   ROT. SAYVETZ    X -0.00000626  0.00016715 -0.21743367  0.00001212  0.00009477
                   Y -0.00005076  0.00040826 -0.43715693  0.00009229  0.00028818
                   Z  0.00237223-12.22134472  0.00008621  0.00044147 -0.39551042
               TOTAL  0.00237278 12.22134473  0.48824542  0.00045117  0.39551054

                            6           7           8           9          10
       FREQUENCY:         4.22        6.90      567.41      916.60     1138.43  
        SYMMETRY:         A           A           A           A           A   
    REDUCED MASS:      6.17280     4.31733     1.15710     3.39440     1.22690
    IR INTENSITY:      0.23331     0.00092     2.95797     0.23600     0.91250

  1   N            X  0.00000275  0.00000285  0.00002861 -0.11107355 -0.00002840
                   Y -0.00001238  0.00001373  0.00000045 -0.02872809 -0.00002612
                   Z  0.18507083 -0.03191265 -0.09171164  0.00000678 -0.05260457
  2   N            X  0.00000775 -0.00000097 -0.00000087  0.00031410 -0.00000664
                   Y -0.00000203  0.00000313  0.00000540  0.14920351  0.00001231
                   Z -0.07185464  0.20156027 -0.02096520 -0.00001236  0.07747242
  3   O            X -0.00000102 -0.00000051 -0.00000302  0.09377286  0.00003382
                   Y  0.00000426 -0.00000258 -0.00000492 -0.08604320 -0.00000108
                   Z -0.14715356 -0.12262971  0.03055331  0.00000631 -0.06565286
  4   H            X -0.00001987  0.00000202 -0.00009850 -0.01117724  0.00000459
                   Y  0.00000567 -0.00001670  0.00005614  0.15521653  0.00006859
                   Z  0.12754150 -0.38688845  0.17268814 -0.00005127  0.87711514
  5   H            X -0.00003746 -0.00002119 -0.00024291  0.06192105 -0.00005425
                   Y  0.00000632 -0.00006707 -0.00005769 -0.46360612  0.00014015
                   Z  0.29097361  0.15893061  0.90808934  0.00002226 -0.18070596

 TRANS. SAYVETZ    X  0.00007304 -0.00000100 -0.00000387  0.00005690  0.00000031
                   Y -0.00012154  0.00011037  0.00000158 -0.00003030 -0.00000028
                   Z -0.34654387  0.18439467  0.00011024 -0.00000654 -0.00002690
               TOTAL  0.34654389  0.18439470  0.00011032  0.00006479  0.00002690

   ROT. SAYVETZ    X -1.67212386  4.84308301 -0.00103998  0.00009067 -0.00042723
                   Y-10.47841402 -3.63740611 -0.00056382  0.00007475 -0.00071918
                   Z -0.00057253  0.00023583 -0.00000391 -0.00357741 -0.00000013
               TOTAL 10.61099236  6.05691145  0.00118299  0.00357934  0.00083651

                           11          12          13          14          15
       FREQUENCY:      1175.51     1335.68     1416.54     1965.84     3358.95  
        SYMMETRY:         A           A           A           A           A   
    REDUCED MASS:      3.01647     2.51181     5.48834     1.09151     1.07895
    IR INTENSITY:      1.84030     1.76791     3.15460     0.54039     0.45988

  1   N            X -0.11430202 -0.06318337 -0.11693671 -0.01110454 -0.06723914
                   Y -0.02764576 -0.04041362  0.14657781 -0.00024466 -0.02278631
                   Z  0.00000554 -0.00000139 -0.00000571  0.00000546 -0.00001840
  2   N            X -0.04400710  0.15475296  0.12023243  0.00040474  0.00091845
                   Y -0.05569598  0.07350509 -0.11469590 -0.07539442 -0.00534479
                   Z -0.00000816  0.00000149 -0.00000276  0.00000021 -0.00000037
  3   O            X  0.15852197 -0.07559449 -0.00658720  0.00684430  0.00153892
                   Y  0.05423635 -0.06252423  0.00057027  0.00571119  0.00056267
                   Z  0.00001117  0.00000447 -0.00000238  0.00000152  0.00000005
  4   H            X -0.01567832  0.19696331  0.01244350  0.09555580  0.00436064
                   Y -0.12507509  0.04232459 -0.13967128  0.94757882  0.02994070
                   Z -0.00018955 -0.00009387  0.00011360 -0.00007442 -0.00000317
  5   H            X -0.30055526 -0.26952333  0.04631680 -0.05549586  0.89271297
                   Y  0.42231701  0.49019322 -0.31238177  0.01272719  0.35199519
                   Z  0.00005498  0.00000635  0.00003429 -0.00002923  0.00026460

 TRANS. SAYVETZ    X  0.00002285  0.00000038  0.00000869  0.00001738  0.00001488
                   Y  0.00003303 -0.00000254 -0.00002451 -0.00000894  0.00000260
                   Z  0.00000632 -0.00001521 -0.00000754 -0.00000076  0.00000147
               TOTAL  0.00004066  0.00001542  0.00002707  0.00001956  0.00001517

   ROT. SAYVETZ    X -0.00005448 -0.00004911  0.00004138 -0.00001185 -0.00000510
                   Y -0.00002640  0.00003532  0.00004127  0.00000239  0.00000923
                   Z  0.00071796  0.00217491  0.00070857  0.00010131  0.00006832
               TOTAL  0.00072051  0.00217575  0.00071097  0.00010202  0.00006913

 REFERENCE ON SAYVETZ CONDITIONS - A. SAYVETZ, J.CHEM.PHYS., 7, 383-389(1939).

 NOTE - THE MODES J,K ARE ORTHONORMALIZED ACCORDING TO
 SUM ON I   M(I) * (X(I,J)*X(I,K) + Y(I,J)*Y(I,K) + Z(I,J)*Z(I,K)) = DELTA(J,K)

  MODE FREQ(CM**-1)  SYMMETRY  RED. MASS  IR INTENS.
     1    1635.189    A        1.072788    6.665644
     2       5.381    A        5.445433    0.170920
     3       0.286    A        8.554696    0.000643
     4       0.011    A        9.203179    0.000000
     5       0.174    A        9.455772    0.000179
     6       4.221    A        6.172803    0.233312
     7       6.895    A        4.317330    0.000918
     8     567.406    A        1.157097    2.957970
     9     916.600    A        3.394397    0.236000
    10    1138.430    A        1.226896    0.912499
    11    1175.509    A        3.016469    1.840297
    12    1335.679    A        2.511813    1.767908
    13    1416.543    A        5.488339    3.154599
    14    1965.840    A        1.091506    0.540386
    15    3358.952    A        1.078952    0.459885

     -------------------------------
     THERMOCHEMISTRY AT T=  298.15 K
     -------------------------------

 USING IDEAL GAS, RIGID ROTOR, HARMONIC NORMAL MODE APPROXIMATIONS.
 P=  1.01325E+05 PASCAL.
 ALL FREQUENCIES ARE SCALED BY   1.00000
 THE MOMENTS OF INERTIA ARE (IN AMU*BOHR**2)
     26.29873   123.21899   149.51772
 THE ROTATIONAL SYMMETRY NUMBER IS  1.0
 THE ROTATIONAL CONSTANTS ARE (IN GHZ)
     68.56180    14.63320    12.05936
   1 IMAGINARY FREQUENCY VIBRATION(S) IS(ARE) EXCLUDED
     FROM THE FOLLOWING THERMOCHEMICAL ANALYSIS.
      8 -     15 VIBRATIONAL MODES ARE USED IN THERMOCHEMISTRY.
 THE HARMONIC ZERO POINT ENERGY IS (SCALED BY   1.000)
        0.027053 HARTREE/MOLECULE     5937.479931 CM**-1/MOLECULE 
       16.976124 KCAL/MOL               71.028103 KJ/MOL

               Q               LN Q
 ELEC.     1.00000E+00       0.000000
 TRANS.    1.22695E+07      16.322627
 ROT.      7.87941E+03       8.972009
 VIB.      1.09336E+00       0.089251
 TOT.      1.05702E+11      25.383887

              E         H         G         CV        CP        S
           KJ/MOL    KJ/MOL    KJ/MOL   J/MOL-K   J/MOL-K   J/MOL-K
 ELEC.      0.000     0.000     0.000     0.000     0.000     0.000
 TRANS.     3.718     6.197   -40.463    12.472    20.786   156.499
 ROT.       3.718     3.718   -22.241    12.472    12.472    87.069
 VIB.      71.781    71.781    70.807     9.601     9.601     3.267
 TOTAL     79.218    81.697     8.103    34.544    42.859   246.834
 VIB. THERMAL CORRECTION E(T)-E(0) = H(T)-H(0) =   752.776 J/MOL

              E         H         G         CV        CP        S
         KCAL/MOL  KCAL/MOL  KCAL/MOL CAL/MOL-K CAL/MOL-K CAL/MOL-K
 ELEC.      0.000     0.000     0.000     0.000     0.000     0.000
 TRANS.     0.889     1.481    -9.671     2.981     4.968    37.404
 ROT.       0.889     0.889    -5.316     2.981     2.981    20.810
 VIB.      17.156    17.156    16.923     2.295     2.295     0.781
 TOTAL     18.933    19.526     1.937     8.256    10.243    58.995
 VIB. THERMAL CORRECTION E(T)-E(0) = H(T)-H(0) =   179.918 CAL/MOL
 ......END OF NORMAL COORDINATE ANALYSIS......
 STEP CPU TIME =     0.00 TOTAL CPU TIME =        143.7 (      2.4 MIN)
 TOTAL WALL CLOCK TIME=        144.9 SECONDS, CPU UTILIZATION IS    99.18%
                994871  WORDS OF DYNAMIC MEMORY USED
 EXECUTION OF GAMESS TERMINATED NORMALLY Mon Oct  7 08:50:03 2019
 DDI: 263640 bytes (0.3 MB / 0 MWords) used by master data server.

 ----------------------------------------
 CPU timing information for all processes
 ========================================
 0: 142.549 + 1.139 = 143.688
 ----------------------------------------
 ddikick.x: exited gracefully.
----- accounting info -----
Files used on the master node d12chas543.crc.nd.edu were:
-rw-r--r-- 1 wschnei1 campus 60270 Oct  7 08:50 /scratch365/wschnei1/ts-vib1.F07
Mon Oct  7 08:50:06 EDT 2019
0.456u 0.306s 2:28.64 0.5%	0+0k 88+240io 1pf+0w
