----- GAMESS execution script 'rungms' -----
This job is running on host dftfe.crc.nd.edu
under operating system Linux at Thu Feb 26 00:18:20 EST 2015
Available scratch disk space (Kbyte units) at beginning of the job is
Filesystem     1K-blocks     Used Available Use% Mounted on
/dev/sda2      147771864 22814744 117450688  17% /
GAMESS temporary binary files will be written to /tmp
GAMESS supplementary output files will be written to /tmp
Copying input file gamess.inp to your run's scratch directory...

 Distributed Data Interface kickoff program.
 Initiating 1 compute processes on 1 nodes to run the following command:
 /opt/crc/gamess/2012R1/gamess/gamess.00.x gamess 

          ******************************************************
          *         GAMESS VERSION =  1 MAY 2012 (R1)          *
          *             FROM IOWA STATE UNIVERSITY             *
          * M.W.SCHMIDT, K.K.BALDRIDGE, J.A.BOATZ, S.T.ELBERT, *
          *   M.S.GORDON, J.H.JENSEN, S.KOSEKI, N.MATSUNAGA,   *
          *          K.A.NGUYEN, S.J.SU, T.L.WINDUS,           *
          *       TOGETHER WITH M.DUPUIS, J.A.MONTGOMERY       *
          *         J.COMPUT.CHEM.  14, 1347-1363(1993)        *
          **************** 64 BIT LINUX VERSION ****************

  SINCE 1993, STUDENTS AND POSTDOCS WORKING AT IOWA STATE UNIVERSITY
  AND ALSO IN THEIR VARIOUS JOBS AFTER LEAVING ISU HAVE MADE IMPORTANT
  CONTRIBUTIONS TO THE CODE:
     IVANA ADAMOVIC, CHRISTINE AIKENS, YURI ALEXEEV, POOJA ARORA,
     ANDREY ASADCHEV, ROB BELL, PRADIPTA BANDYOPADHYAY, JONATHAN BENTZ,
     BRETT BODE, GALINA CHABAN, WEI CHEN, CHEOL HO CHOI, PAUL DAY,
     ALBERT DEFUSCO, TIM DUDLEY, DMITRI FEDOROV, GRAHAM FLETCHER,
     MARK FREITAG, KURT GLAESEMANN, DAN KEMP, GRANT MERRILL,
     NORIYUKI MINEZAWA, JONATHAN MULLIN, TAKESHI NAGATA,
     SEAN NEDD, HEATHER NETZLOFF, BOSILJKA NJEGIC, RYAN OLSON, MIKE PAK,
     JIM SHOEMAKER, LYUDMILA SLIPCHENKO, SAROM SOK, JIE SONG,
     TETSUYA TAKETSUGU, SIMON WEBB, SOOHAENG YOO, FEDERICO ZAHARIEV

  ADDITIONAL CODE HAS BEEN PROVIDED BY COLLABORATORS IN OTHER GROUPS:
     IOWA STATE UNIVERSITY:
          JOE IVANIC, LAIMUTIS BYTAUTAS, KLAUS RUEDENBERG
     UNIVERSITY OF TOKYO: KIMIHIKO HIRAO, TAKAHITO NAKAJIMA,
          TAKAO TSUNEDA, MUNEAKI KAMIYA, SUSUMU YANAGISAWA,
          KIYOSHI YAGI, MAHITO CHIBA, SEIKEN TOKURA, NAOAKI KAWAKAMI
     UNIVERSITY OF AARHUS: FRANK JENSEN
     UNIVERSITY OF IOWA: VISVALDAS KAIRYS, HUI LI
     NATIONAL INST. OF STANDARDS AND TECHNOLOGY: WALT STEVENS, DAVID GARMER
     UNIVERSITY OF PISA: BENEDETTA MENNUCCI, JACOPO TOMASI
     UNIVERSITY OF MEMPHIS: HENRY KURTZ, PRAKASHAN KORAMBATH
     UNIVERSITY OF ALBERTA: TOBY ZENG, MARIUSZ KLOBUKOWSKI
     UNIVERSITY OF NEW ENGLAND: MARK SPACKMAN
     MIE UNIVERSITY: HIROAKI UMEDA
     MICHIGAN STATE UNIVERSITY:
          KAROL KOWALSKI, MARTA WLOCH, JEFFREY GOUR, JESSE LUTZ, PIOTR PIECUCH
     UNIVERSITY OF SILESIA: MONIKA MUSIAL, STANISLAW KUCHARSKI
     FACULTES UNIVERSITAIRES NOTRE-DAME DE LA PAIX:
          OLIVIER QUINET, BENOIT CHAMPAGNE
     UNIVERSITY OF CALIFORNIA - SANTA BARBARA: BERNARD KIRTMAN
     INSTITUTE FOR MOLECULAR SCIENCE:
          KAZUYA ISHIMURA, MICHIO KATOUDA, AND SHIGERU NAGASE
     UNIVERSITY OF NOTRE DAME: DAN CHIPMAN
     KYUSHU UNIVERSITY:
          HARUYUKI NAKANO,
          FENG LONG GU, JACEK KORCHOWIEC, MARCIN MAKOWSKI, AND YURIKO AOKI,
          HIROTOSHI MORI AND EISAKU MIYOSHI
     PENNSYLVANIA STATE UNIVERSITY:
          TZVETELIN IORDANOV, CHET SWALINA, JONATHAN SKONE,
          SHARON HAMMES-SCHIFFER
     WASEDA UNIVERSITY:
          MASATO KOBAYASHI, TOMOKO AKAMA, TSUGUKI TOUMA,
          TAKESHI YOSHIKAWA, YASUHIRO IKABATA, HIROMI NAKAI
     UNIVERSITY OF NEBRASKA:
          PEIFENG SU, DEJUN SI, NANDUN THELLAMUREGE, YALI WANG, HUI LI
     UNIVERSITY OF ZURICH:
          ROBERTO PEVERATI, KIM BALDRIDGE
     N. COPERNICUS UNIVERSITY AND JACKSON STATE UNIVERSITY:
          MARIA BARYSZ

 EXECUTION OF GAMESS BEGUN Thu Feb 26 00:18:20 2015

            ECHO OF THE FIRST FEW INPUT CARDS -
 INPUT CARD> $BASIS GBASIS=PC1 $END                                                         
 INPUT CARD> $CONTRL COORD=ZMT ISPHER=1 RUNTYP=ENERGY DFTTYP=PBE $END                       
 INPUT CARD>                                                                                
 INPUT CARD> $DATA                                                                          
 INPUT CARD>Title                                                                           
 INPUT CARD>Cnv 2                                                                           
 INPUT CARD>                                                                                
 INPUT CARD>S                                                                               
 INPUT CARD>O 1 1.60                                                                        
 INPUT CARD>O 1 1.60 2 140.0                                                                
 INPUT CARD> $END                                                                           
    1000000 WORDS OF MEMORY AVAILABLE

     BASIS OPTIONS
     -------------
     GBASIS=PC1          IGAUSS=       0      POLAR=NONE    
     NDFUNC=       0     NFFUNC=       0     DIFFSP=       F
     NPFUNC=       0      DIFFS=       F     BASNAM=        


     RUN TITLE
     ---------
 Title                                                                           

 THE POINT GROUP OF THE MOLECULE IS CNV     
 THE ORDER OF THE PRINCIPAL AXIS IS     2

 YOUR FULLY SUBSTITUTED Z-MATRIX IS
 S   
 O      1   1.6000000
 O      1   1.6000000  2  140.0000

 THE MOMENTS OF INERTIA ARE (AMU-ANGSTROM**2)
 IXX=     4.789   IYY=    72.314   IZZ=    77.103

 ATOM      ATOMIC                      COORDINATES (BOHR)
           CHARGE         X                   Y                   Z
 S          16.0     0.0000000000        0.0000000000       -0.5172029712
 O           8.0    -2.8412185056        0.0000000000        0.5169159939
 O           8.0     2.8412185056        0.0000000000        0.5169159939

          INTERNUCLEAR DISTANCES (ANGS.)
          ------------------------------

                1 S          2 O          3 O     

   1 S       0.0000000    1.6000000 *  1.6000000 *
   2 O       1.6000000 *  0.0000000    3.0070164  
   3 O       1.6000000 *  3.0070164    0.0000000  

  * ... LESS THAN  3.000


     ATOMIC BASIS SET
     ----------------
 THE CONTRACTED PRIMITIVE FUNCTIONS HAVE BEEN UNNORMALIZED
 THE CONTRACTED BASIS FUNCTIONS ARE NOW NORMALIZED TO UNITY

  SHELL TYPE  PRIMITIVE        EXPONENT          CONTRACTION COEFFICIENT(S)

 S         

      1   S       1         55510.0000000    0.000587229760
      1   S       2          8326.7000000    0.004532413947
      1   S       3          1895.6000000    0.023265261648
      1   S       4           536.7700000    0.089696133027
      1   S       5           174.6700000    0.254098332277
      1   S       6            62.5780000    0.438665087637
      1   S       7            23.5730000    0.314547135094
      1   S       8             5.8908000    0.032727897102

      2   S       9          8326.7000000   -0.000019755715
      2   S      10          1895.6000000   -0.000043822381
      2   S      11           536.7700000   -0.001730264906
      2   S      12           174.6700000   -0.009381263460
      2   S      13            62.5780000   -0.064050766303
      2   S      14            23.5730000   -0.082478179196
      2   S      15             5.8908000    0.478342956889
      2   S      16             2.1852000    0.626896670208

      3   S      17          1895.6000000    0.000016227260
      3   S      18           536.7700000    0.000191135619
      3   S      19           174.6700000    0.001952069674
      3   S      20            62.5780000    0.010578701087
      3   S      21            23.5730000    0.022164934551
      3   S      22             5.8908000   -0.184968323118
      3   S      23             2.1852000   -0.480920750976
      3   S      24             0.4528200    1.243822243872

      4   S      25             0.1620200    1.000000000000

      5   P      26           395.4500000    0.004642761329
      5   P      27            92.8340000    0.036023396489
      5   P      28            29.2660000    0.149058869978
      5   P      29            10.5950000    0.360033266263
      5   P      30             4.0272000    0.455756476221
      5   P      31             1.5484000    0.206167664178

      6   P      32            92.8340000    0.000169901442
      6   P      33            29.2660000   -0.002541839934
      6   P      34            10.5950000   -0.007867614595
      6   P      35             4.0272000   -0.037231009184
      6   P      36             1.5484000    0.161417246830
      6   P      37             0.4613400    0.902230419976

      7   P      38             0.1313100    1.000000000000

      8   D      39             0.5500000    1.000000000000

 O         

     15   S      40          2306.7000000    0.005424388755
     15   S      41           347.1500000    0.040474749465
     15   S      42            78.8900000    0.180219634554
     15   S      43            21.8760000    0.462370311787
     15   S      44             6.6646000    0.454888396263

     16   S      45           347.1500000   -0.000655003786
     16   S      46            78.8900000   -0.005362052952
     16   S      47            21.8760000   -0.074902158894
     16   S      48             6.6646000   -0.181442579655
     16   S      49             1.0669000    1.102006874042

     17   S      50             0.3070000    1.000000000000

     18   P      51            17.0220000    0.068979967443
     18   P      52             3.6838000    0.351985516325
     18   P      53             0.9923400    0.724036547822

     19   P      54             0.2448700    1.000000000000

     20   D      55             1.0000000    1.000000000000

 TOTAL NUMBER OF BASIS SET SHELLS             =   20
 NUMBER OF CARTESIAN GAUSSIAN BASIS FUNCTIONS =   49
 NOTE: THIS RUN WILL RESTRICT THE MO VARIATION SPACE TO SPHERICAL HARMONICS.
 THE NUMBER OF ORBITALS KEPT IN THE VARIATIONAL SPACE WILL BE PRINTED LATER.
 NUMBER OF ELECTRONS                          =   32
 CHARGE OF MOLECULE                           =    0
 SPIN MULTIPLICITY                            =    1
 NUMBER OF OCCUPIED ORBITALS (ALPHA)          =   16
 NUMBER OF OCCUPIED ORBITALS (BETA )          =   16
 TOTAL NUMBER OF ATOMS                        =    3
 THE NUCLEAR REPULSION ENERGY IS       95.9311332052

     LEBEDEV GRID-BASED DFT OPTIONS
     ------------------------------
     DFTTYP=PBE     
     NRAD  =      96     NLEB  =     302
     NRAD0 =      24     NLEB0 =     110
     SWOFF =    5.00E-03 (PURE SCF -> DFT)
     SWITCH=    3.00E-04 (COARSE -> TIGHT GRID)
     THRESH=    0.00E+00 GTHRE=    1.00E+00

 GRIMME'S EMPIRICAL DISPERSION CORRECTION= F

     $CONTRL OPTIONS
     ---------------
 SCFTYP=RHF          RUNTYP=ENERGY       EXETYP=RUN     
 MPLEVL=       0     CITYP =NONE         CCTYP =NONE         VBTYP =NONE    
 DFTTYP=PBE          TDDFT =NONE    
 MULT  =       1     ICHARG=       0     NZVAR =       0     COORD =ZMT     
 PP    =NONE         RELWFN=NONE         LOCAL =NONE         NUMGRD=       F
 ISPHER=       1     NOSYM =       0     MAXIT =      30     UNITS =ANGS    
 PLTORB=       F     MOLPLT=       F     AIMPAC=       F     FRIEND=        
 NPRINT=       7     IREST =       0     GEOM  =INPUT   
 NORMF =       0     NORMP =       0     ITOL  =      20     ICUT  =       9
 INTTYP=BEST         GRDTYP=BEST         QMTTOL= 1.0E-06

     $SYSTEM OPTIONS
     ---------------
  REPLICATED MEMORY=     1000000 WORDS (ON EVERY NODE).
 DISTRIBUTED MEMDDI=           0 MILLION WORDS IN AGGREGATE,
 MEMDDI DISTRIBUTED OVER   1 PROCESSORS IS           0 WORDS/PROCESSOR.
 TOTAL MEMORY REQUESTED ON EACH PROCESSOR=     1000000 WORDS.
 TIMLIM=      525600.00 MINUTES, OR     365.0 DAYS.
 PARALL= F  BALTYP=  DLB     KDIAG=    0  COREFL= F
 MXSEQ2=     300 MXSEQ3=     150

          ----------------
          PROPERTIES INPUT
          ----------------

     MOMENTS            FIELD           POTENTIAL          DENSITY
 IEMOM =       1   IEFLD =       0   IEPOT =       0   IEDEN =       0
 WHERE =COMASS     WHERE =NUCLEI     WHERE =NUCLEI     WHERE =NUCLEI  
 OUTPUT=BOTH       OUTPUT=BOTH       OUTPUT=BOTH       OUTPUT=BOTH    
 IEMINT=       0   IEFINT=       0                     IEDINT=       0
                                                       MORB  =       0
          EXTRAPOLATION IN EFFECT
          DIIS IN EFFECT
 ORBITAL PRINTING OPTION: NPREO=     1    49     2     1

     -------------------------------
     INTEGRAL TRANSFORMATION OPTIONS
     -------------------------------
     NWORD  =            0
     CUTOFF = 1.0E-09     MPTRAN =       0
     DIRTRF =       F     AOINTS =DUP     

          ----------------------
          INTEGRAL INPUT OPTIONS
          ----------------------
 NOPK  =       1 NORDER=       0 SCHWRZ=       F

   --- ENCODED Z MATRIX ---
 COORD  TYPE   I   J   K   L   M   N
    1      1    3   1
    2      1    2   1
    3      2    2   1   3

 THE DETERMINANT OF THE G MATRIX IS 10**(    -4)

 THE DETERMINANT OF THE G MATRIX IS 10**(    -4)
 * * * WARNING * * *
 YOUR B MATRIX HAS A SMALL DETERMINANT.
 THIS SUGGESTS YOU MAY HAVE BADLY CHOSEN COORDINATES.

     ------------------------------------------
     THE POINT GROUP IS CNV, NAXIS= 2, ORDER= 4
     ------------------------------------------

 -- VARIATIONAL SPACE WILL BE RESTRICTED TO PURE SPHERICAL HARMONICS ONLY --
 AFTER EXCLUDING CONTAMINANT COMBINATIONS FROM THE CARTESIAN GAUSSIAN BASIS
 SET, THE NUMBER OF SPHERICAL HARMONICS KEPT IN THE VARIATION SPACE IS   46

     DIMENSIONS OF THE SYMMETRY SUBSPACES ARE
 A1  =   19     A2  =    5     B1  =   14     B2  =    8

 ..... DONE SETTING UP THE RUN .....
 STEP CPU TIME =     0.01 TOTAL CPU TIME =        0.0 (    0.0 MIN)
 TOTAL WALL CLOCK TIME=        0.0 SECONDS, CPU UTILIZATION IS  50.00%

          ********************
          1 ELECTRON INTEGRALS
          ********************
 ...... END OF ONE-ELECTRON INTEGRALS ......
 STEP CPU TIME =     0.01 TOTAL CPU TIME =        0.0 (    0.0 MIN)
 TOTAL WALL CLOCK TIME=        0.0 SECONDS, CPU UTILIZATION IS 100.00%

          -------------
          GUESS OPTIONS
          -------------
          GUESS =HUCKEL            NORB  =       0          NORDER=       0
          MIX   =       F          PRTMO =       F          PUNMO =       F
          TOLZ  = 1.0E-08          TOLE  = 1.0E-05
          SYMDEN=       F          PURIFY=       F

 INITIAL GUESS ORBITALS GENERATED BY HUCKEL   ROUTINE.
 HUCKEL GUESS REQUIRES     21583 WORDS.

 STATISTICS FOR GENERATION OF SYMMETRY ORBITAL -Q- MATRIX
 NUMBER OF CARTESIAN ATOMIC ORBITALS=         49
 NUMBER OF SPHERICAL CONTAMINANTS DROPPED=     3
 NUMBER OF LINEARLY DEPENDENT MOS DROPPED=     0
 TOTAL NUMBER OF MOS IN VARIATION SPACE=      46

 SYMMETRIES FOR INITIAL GUESS ORBITALS FOLLOW.   BOTH SET(S).
    16 ORBITALS ARE OCCUPIED (    7 CORE ORBITALS).
     8=?A1      9=?B1     10=A1      11=B2      12=A1      13=B1      14=A2  
    15=B1      16=?A1     17=B2      18=A1      19=B1      20=A1      21=A1  
    22=A1      23=A1      24=A1      25=A1      26=A1  
 ...... END OF INITIAL ORBITAL SELECTION ......
 STEP CPU TIME =     0.00 TOTAL CPU TIME =        0.0 (    0.0 MIN)
 TOTAL WALL CLOCK TIME=        0.0 SECONDS, CPU UTILIZATION IS  66.67%

                    ----------------------
                    AO INTEGRAL TECHNOLOGY
                    ----------------------
     S,P,L SHELL ROTATED AXIS INTEGRALS, REPROGRAMMED BY
        KAZUYA ISHIMURA (IMS) AND JOSE SIERRA (SYNSTAR).
     S,P,D,L SHELL ROTATED AXIS INTEGRALS PROGRAMMED BY
        KAZUYA ISHIMURA (INSTITUTE FOR MOLECULAR SCIENCE).
     S,P,D,F,G SHELL TO TOTAL QUARTET ANGULAR MOMENTUM SUM 5,
        ERIC PROGRAM BY GRAHAM FLETCHER (ELORET AND NASA ADVANCED
        SUPERCOMPUTING DIVISION, AMES RESEARCH CENTER).
     S,P,D,F,G,L SHELL GENERAL RYS QUADRATURE PROGRAMMED BY
        MICHEL DUPUIS (PACIFIC NORTHWEST NATIONAL LABORATORY).

          --------------------
          2 ELECTRON INTEGRALS
          --------------------

 THE -PK- OPTION IS OFF, THE INTEGRALS ARE NOT IN SUPERMATRIX FORM.
 STORING   15000 INTEGRALS/RECORD ON DISK, USING 12 BYTES/INTEGRAL.
 TWO ELECTRON INTEGRAL EVALUATION REQUIRES   90606 WORDS OF MEMORY.
 II,JST,KST,LST =  1  1  1  1 NREC =         1 INTLOC =    1
 II,JST,KST,LST =  2  1  1  1 NREC =         1 INTLOC =    2
 II,JST,KST,LST =  3  1  1  1 NREC =         1 INTLOC =    7
 II,JST,KST,LST =  4  1  1  1 NREC =         1 INTLOC =   22
 II,JST,KST,LST =  5  1  1  1 NREC =         1 INTLOC =   56
 II,JST,KST,LST =  6  1  1  1 NREC =         1 INTLOC =  125
 II,JST,KST,LST =  7  1  1  1 NREC =         1 INTLOC =  329
 II,JST,KST,LST =  8  1  1  1 NREC =         1 INTLOC =  776
 II,JST,KST,LST =  9  1  1  1 NREC =         1 INTLOC = 2864
 II,JST,KST,LST = 10  1  1  1 NREC =         1 INTLOC = 2864
 II,JST,KST,LST = 11  1  1  1 NREC =         1 INTLOC = 2864
 II,JST,KST,LST = 12  1  1  1 NREC =         1 INTLOC = 2864
 II,JST,KST,LST = 13  1  1  1 NREC =         1 INTLOC = 2864
 II,JST,KST,LST = 14  1  1  1 NREC =         1 INTLOC = 2864
 II,JST,KST,LST = 15  1  1  1 NREC =         1 INTLOC = 2864
 II,JST,KST,LST = 16  1  1  1 NREC =         1 INTLOC = 5053
 II,JST,KST,LST = 17  1  1  1 NREC =         1 INTLOC = 8193
 II,JST,KST,LST = 18  1  1  1 NREC =         1 INTLOC =12597
 II,JST,KST,LST = 19  1  1  1 NREC =         2 INTLOC =14410
 II,JST,KST,LST = 20  1  1  1 NREC =         5 INTLOC =  142
 TOTAL NUMBER OF NONZERO TWO-ELECTRON INTEGRALS =              167556
         12 INTEGRAL RECORDS WERE STORED ON DISK FILE  8.
  ...... END OF TWO-ELECTRON INTEGRALS .....
 STEP CPU TIME =     0.16 TOTAL CPU TIME =        0.2 (    0.0 MIN)
 TOTAL WALL CLOCK TIME=        0.2 SECONDS, CPU UTILIZATION IS 100.00%

          --------------------------
               R-PBE SCF CALCULATION
          --------------------------

     NUCLEAR ENERGY =        95.9311332052
     MAXIT =   30     NPUNCH=    2
     EXTRAP=T  DAMP=F  SHIFT=F  RSTRCT=F  DIIS=T  DEM=F  SOSCF=F
         DENSITY MATRIX CONVERGENCE THRESHOLD=  1.00E-05
     COARSE -> FINE DFT GRID SWITCH THRESHOLD=  3.00E-04 (SWITCH IN $DFT)
                   HF -> DFT SWITCH THRESHOLD=  5.00E-03 (SWOFF IN $DFT)
     MEMORY REQUIRED FOR RHF ITERS=    183108 WORDS.

 DFT CODE IS SWITCHING FROM THE FINE GRID NRAD= 96,  NLEB=  302
                      TO THE COARSE GRID NRAD0= 24, NLEB0=  110

     EXCHANGE FUNCTIONAL   =PBE       
     CORRELATION FUNCTIONAL=PBE       
     DFT THRESHOLD         =.460E-07
     GRID CHANGE THRESHOLD =.300E-03
 FOR AN EULER-MACLAURIN QUADRATURE USING  96 RADIAL POINTS:
 SMALLEST GAUSSIAN PRIMITIVE EXPONENT=        0.1313100000 OF TYPE -P-
 ON ATOM NUMBER   1 HAS RADIAL NORMALIZATION=  1.000000
  LARGEST GAUSSIAN PRIMITIVE EXPONENT=    55510.0000000000 OF TYPE -S-
 ON ATOM NUMBER   1 HAS RADIAL NORMALIZATION=  0.999999
 DFT IS SWITCHED OFF, PERFORMING PURE SCF UNTIL SWOFF THRESHOLD IS REACHED.

 ITER EX DEM     TOTAL ENERGY        E CHANGE  DENSITY CHANGE    DIIS ERROR
   1  0  0     -546.0063774148  -546.0063774148   0.430588268   1.396186105
          * * *   INITIATING DIIS PROCEDURE   * * *
   2  1  0     -546.6232419913    -0.6168645764   0.516794528   0.352884424
   3  2  0     -546.6790880079    -0.0558460166   0.205804297   0.380846467
   4  3  0     -547.0254660581    -0.3463780502   0.022933792   0.016932420
   5  4  0     -547.0271260095    -0.0016599515   0.015763392   0.007542479
   6  5  0     -547.0275383210    -0.0004123115   0.008364020   0.003691369
   7  6  0     -547.0276791846    -0.0001408636   0.005442270   0.001585707
   8  7  0     -547.0277179852    -0.0000388006   0.000905601   0.000394781
 CONVERGED TO SWOFF, SO DFT CALCULATION IS NOW SWITCHED ON.
          * * *   INITIATING DIIS PROCEDURE   * * *
   9  8  0     -548.1894057279    -1.1616877427   0.303838238   0.107384711
  10  9  0     -548.1809631838     0.0084425441   0.261078888   0.129257645
  11 10  0     -548.1877633469    -0.0068001631   0.086275301   0.147750399
  12 11  0     -548.2334102050    -0.0456468581   0.014999558   0.017600329
  13 12  0     -548.2342346932    -0.0008244882   0.001535778   0.001698681
  14 13  0     -548.2342404773    -0.0000057841   0.000826394   0.000345791
  15 14  0     -548.2342409523    -0.0000004750   0.000077073   0.000037405
 DFT CODE IS SWITCHING BACK TO THE FINE GRID
          * * *   INITIATING DIIS PROCEDURE   * * *
  16 15  0     -548.2282685029     0.0059724494   0.006599330   0.009280983
  17 16  0     -548.2283074855    -0.0000389827   0.014200175   0.007812772
  18 17  0     -548.2281646327     0.0001428528   0.008627684   0.011079382
  19 18  0     -548.2284367942    -0.0002721614   0.000289681   0.000307175
  20 19  0     -548.2284370572    -0.0000002631   0.000049653   0.000055053
  21 20  0     -548.2284370690    -0.0000000118   0.000016449   0.000008905
  22 21  0     -548.2284370693    -0.0000000003   0.000002897   0.000001608
  23 22  0     -548.2284370693     0.0000000000   0.000000133   0.000000257

          -----------------
          DENSITY CONVERGED
          -----------------
     TIME TO FORM FOCK OPERATORS=       4.2 SECONDS (       0.2 SEC/ITER)
     TIME TO SOLVE SCF EQUATIONS=       0.0 SECONDS (       0.0 SEC/ITER)

 FINAL R-PBE ENERGY IS     -548.2284370693 AFTER  23 ITERATIONS
 DFT EXCHANGE + CORRELATION ENERGY =       -42.3503994185
 TOTAL ELECTRON NUMBER             =        32.0000003208

          ------------
          EIGENVECTORS
          ------------

                      1          2          3          4          5
                  -88.2213   -18.8231   -18.8230    -7.8402    -5.8617
                     A1         B1         A1         A1         B1  
    1  S  1  S    1.002981   0.000000  -0.000042  -0.274093   0.000000
    2  S  1  S   -0.010296   0.000000  -0.000644   1.039345   0.000000
    3  S  1  S    0.001783   0.000000  -0.001097   0.040456   0.000000
    4  S  1  S   -0.000755   0.000000   0.008150  -0.010778   0.000000
    5  S  1  X    0.000000   0.000097   0.000000   0.000000   0.996798
    6  S  1  Y    0.000000   0.000000   0.000000   0.000000   0.000000
    7  S  1  Z    0.000066   0.000000  -0.000050   0.011719   0.000000
    8  S  1  X    0.000000  -0.001526   0.000000   0.000000   0.009008
    9  S  1  Y    0.000000   0.000000   0.000000   0.000000   0.000000
   10  S  1  Z    0.000037   0.000000   0.000634   0.001179   0.000000
   11  S  1  X    0.000000  -0.006816   0.000000   0.000000  -0.000318
   12  S  1  Y    0.000000   0.000000   0.000000   0.000000   0.000000
   13  S  1  Z   -0.000001   0.000000   0.002393  -0.000329   0.000000
   14  S  1 XX    0.000098   0.000000   0.001149   0.001231   0.000000
   15  S  1 YY   -0.000057   0.000000  -0.000808  -0.000629   0.000000
   16  S  1 ZZ   -0.000041   0.000000  -0.000341  -0.000602   0.000000
   17  S  1 XY    0.000000   0.000000   0.000000   0.000000   0.000000
   18  S  1 XZ    0.000000  -0.000900   0.000000   0.000000   0.000828
   19  S  1 YZ    0.000000   0.000000   0.000000   0.000000   0.000000
   20  O  2  S    0.000009   0.703293   0.703260   0.000047   0.000208
   21  O  2  S    0.000044   0.025889   0.025471   0.000159   0.000018
   22  O  2  S   -0.000058  -0.013088  -0.011521  -0.000304  -0.000307
   23  O  2  X   -0.000018   0.000795   0.000948  -0.000338  -0.000296
   24  O  2  Y    0.000000   0.000000   0.000000   0.000000   0.000000
   25  O  2  Z    0.000004  -0.000411  -0.000120   0.000097   0.000102
   26  O  2  X   -0.000120  -0.002709  -0.003363  -0.001148  -0.000165
   27  O  2  Y    0.000000   0.000000   0.000000   0.000000   0.000000
   28  O  2  Z    0.000056   0.001737   0.000458   0.000591   0.000182
   29  O  2 XX   -0.000101  -0.000276  -0.000465  -0.000731  -0.000375
   30  O  2 YY    0.000064   0.000202   0.000275   0.000466   0.000263
   31  O  2 ZZ    0.000037   0.000074   0.000189   0.000264   0.000113
   32  O  2 XY    0.000000   0.000000   0.000000   0.000000   0.000000
   33  O  2 XZ    0.000076   0.000275   0.000230   0.000563   0.000360
   34  O  2 YZ    0.000000   0.000000   0.000000   0.000000   0.000000
   35  O  3  S    0.000009  -0.703293   0.703260   0.000047  -0.000208
   36  O  3  S    0.000044  -0.025889   0.025471   0.000159  -0.000018
   37  O  3  S   -0.000058   0.013088  -0.011521  -0.000304   0.000307
   38  O  3  X    0.000018   0.000795  -0.000948   0.000338  -0.000296
   39  O  3  Y    0.000000   0.000000   0.000000   0.000000   0.000000
   40  O  3  Z    0.000004   0.000411  -0.000120   0.000097  -0.000102
   41  O  3  X    0.000120  -0.002709   0.003363   0.001148  -0.000165
   42  O  3  Y    0.000000   0.000000   0.000000   0.000000   0.000000
   43  O  3  Z    0.000056  -0.001737   0.000458   0.000591  -0.000182
   44  O  3 XX   -0.000101   0.000276  -0.000465  -0.000731   0.000375
   45  O  3 YY    0.000064  -0.000202   0.000275   0.000466  -0.000263
   46  O  3 ZZ    0.000037  -0.000074   0.000189   0.000264  -0.000113
   47  O  3 XY    0.000000   0.000000   0.000000   0.000000   0.000000
   48  O  3 XZ   -0.000076   0.000275  -0.000230  -0.000563   0.000360
   49  O  3 YZ    0.000000   0.000000   0.000000   0.000000   0.000000

                      6          7          8          9         10
                   -5.8599    -5.8558    -0.9915    -0.9366    -0.6155
                     B2         A1         A1         B1         A1  
    1  S  1  S    0.000000   0.003278   0.047696   0.000000   0.068748
    2  S  1  S    0.000000  -0.012441  -0.138193   0.000000  -0.191872
    3  S  1  S    0.000000   0.000085   0.280645   0.000000   0.437481
    4  S  1  S    0.000000  -0.000788   0.163924   0.000000   0.398400
    5  S  1  X    0.000000   0.000000   0.000000   0.110428   0.000000
    6  S  1  Y    0.996938   0.000000   0.000000   0.000000   0.000000
    7  S  1  Z    0.000000   0.996934  -0.038675   0.000000   0.010322
    8  S  1  X    0.000000   0.000000   0.000000  -0.216405   0.000000
    9  S  1  Y    0.008793   0.000000   0.000000   0.000000   0.000000
   10  S  1  Z    0.000000   0.008520   0.078487   0.000000  -0.013715
   11  S  1  X    0.000000   0.000000   0.000000  -0.018648   0.000000
   12  S  1  Y   -0.000138   0.000000   0.000000   0.000000   0.000000
   13  S  1  Z    0.000000  -0.000207   0.005300   0.000000  -0.027671
   14  S  1 XX    0.000000  -0.000646   0.050704   0.000000  -0.018490
   15  S  1 YY    0.000000  -0.000272  -0.030606   0.000000   0.014844
   16  S  1 ZZ    0.000000   0.000918  -0.020098   0.000000   0.003646
   17  S  1 XY    0.000000   0.000000   0.000000   0.000000   0.000000
   18  S  1 XZ    0.000000   0.000000   0.000000  -0.044645   0.000000
   19  S  1 YZ    0.000700   0.000000   0.000000   0.000000   0.000000
   20  O  2  S    0.000000  -0.000094  -0.126177  -0.147596   0.103613
   21  O  2  S    0.000000  -0.000124   0.252439   0.296877  -0.214935
   22  O  2  S    0.000000   0.000549   0.296109   0.367459  -0.339183
   23  O  2  X    0.000000   0.000169   0.095822   0.088244   0.138752
   24  O  2  Y    0.000023   0.000000   0.000000   0.000000   0.000000
   25  O  2  Z    0.000000  -0.000040  -0.030488  -0.030729  -0.051325
   26  O  2  X    0.000000   0.000317   0.042003   0.039709   0.066344
   27  O  2  Y   -0.000052   0.000000   0.000000   0.000000   0.000000
   28  O  2  Z    0.000000  -0.000189  -0.010593  -0.016622  -0.019322
   29  O  2 XX    0.000000   0.000261   0.011355   0.007888   0.007982
   30  O  2 YY    0.000000  -0.000142  -0.004873  -0.003456  -0.006020
   31  O  2 ZZ    0.000000  -0.000119  -0.006483  -0.004432  -0.001962
   32  O  2 XY    0.000042   0.000000   0.000000   0.000000   0.000000
   33  O  2 XZ    0.000000  -0.000158  -0.004651  -0.005448  -0.006169
   34  O  2 YZ   -0.000028   0.000000   0.000000   0.000000   0.000000
   35  O  3  S    0.000000  -0.000094  -0.126177   0.147596   0.103613
   36  O  3  S    0.000000  -0.000124   0.252439  -0.296877  -0.214935
   37  O  3  S    0.000000   0.000549   0.296109  -0.367459  -0.339183
   38  O  3  X    0.000000  -0.000169  -0.095822   0.088244  -0.138752
   39  O  3  Y    0.000023   0.000000   0.000000   0.000000   0.000000
   40  O  3  Z    0.000000  -0.000040  -0.030488   0.030729  -0.051325
   41  O  3  X    0.000000  -0.000317  -0.042003   0.039709  -0.066344
   42  O  3  Y   -0.000052   0.000000   0.000000   0.000000   0.000000
   43  O  3  Z    0.000000  -0.000189  -0.010593   0.016622  -0.019322
   44  O  3 XX    0.000000   0.000261   0.011355  -0.007888   0.007982
   45  O  3 YY    0.000000  -0.000142  -0.004873   0.003456  -0.006020
   46  O  3 ZZ    0.000000  -0.000119  -0.006483   0.004432  -0.001962
   47  O  3 XY   -0.000042   0.000000   0.000000   0.000000   0.000000
   48  O  3 XZ    0.000000   0.000158   0.004651  -0.005448   0.006169
   49  O  3 YZ   -0.000028   0.000000   0.000000   0.000000   0.000000

                     11         12         13         14         15
                   -0.4436    -0.4161    -0.4115    -0.3290    -0.3176
                     B1         B2         A1         A2         B1  
    1  S  1  S    0.000000   0.000000  -0.009620   0.000000   0.000000
    2  S  1  S    0.000000   0.000000   0.039001   0.000000   0.000000
    3  S  1  S    0.000000   0.000000  -0.045427   0.000000   0.000000
    4  S  1  S    0.000000   0.000000  -0.160183   0.000000   0.000000
    5  S  1  X   -0.172105   0.000000   0.000000   0.000000  -0.017708
    6  S  1  Y    0.000000  -0.203888   0.000000   0.000000   0.000000
    7  S  1  Z    0.000000   0.000000  -0.201827   0.000000   0.000000
    8  S  1  X    0.408116   0.000000   0.000000   0.000000   0.037545
    9  S  1  Y    0.000000   0.477701   0.000000   0.000000   0.000000
   10  S  1  Z    0.000000   0.000000   0.471256   0.000000   0.000000
   11  S  1  X    0.049241   0.000000   0.000000   0.000000   0.089245
   12  S  1  Y    0.000000   0.281054   0.000000   0.000000   0.000000
   13  S  1  Z    0.000000   0.000000   0.257912   0.000000   0.000000
   14  S  1 XX    0.000000   0.000000  -0.025956   0.000000   0.000000
   15  S  1 YY    0.000000   0.000000  -0.017748   0.000000   0.000000
   16  S  1 ZZ    0.000000   0.000000   0.043704   0.000000   0.000000
   17  S  1 XY    0.000000   0.000000   0.000000  -0.110262   0.000000
   18  S  1 XZ    0.035146   0.000000   0.000000   0.000000  -0.103072
   19  S  1 YZ    0.000000   0.036080   0.000000   0.000000   0.000000
   20  O  2  S   -0.063009   0.000000   0.014646   0.000000  -0.001277
   21  O  2  S    0.131537   0.000000  -0.029446   0.000000   0.000188
   22  O  2  S    0.217478   0.000000  -0.058328   0.000000   0.031864
   23  O  2  X   -0.339796   0.000000   0.209084   0.000000   0.218108
   24  O  2  Y    0.000000   0.303136   0.000000   0.465526   0.000000
   25  O  2  Z    0.151273   0.000000   0.222630   0.000000   0.411548
   26  O  2  X   -0.198455   0.000000   0.135118   0.000000   0.154191
   27  O  2  Y    0.000000   0.184134   0.000000   0.331038   0.000000
   28  O  2  Z    0.097024   0.000000   0.137057   0.000000   0.288225
   29  O  2 XX   -0.010036   0.000000   0.015507   0.000000   0.008944
   30  O  2 YY    0.007943   0.000000  -0.003891   0.000000   0.000671
   31  O  2 ZZ    0.002093   0.000000  -0.011616   0.000000  -0.009615
   32  O  2 XY    0.000000   0.018690   0.000000   0.017013   0.000000
   33  O  2 XZ    0.011254   0.000000   0.010746   0.000000   0.014492
   34  O  2 YZ    0.000000  -0.006111   0.000000  -0.006167   0.000000
   35  O  3  S    0.063009   0.000000   0.014646   0.000000   0.001277
   36  O  3  S   -0.131537   0.000000  -0.029446   0.000000  -0.000188
   37  O  3  S   -0.217478   0.000000  -0.058328   0.000000  -0.031864
   38  O  3  X   -0.339796   0.000000  -0.209084   0.000000   0.218108
   39  O  3  Y    0.000000   0.303136   0.000000  -0.465526   0.000000
   40  O  3  Z   -0.151273   0.000000   0.222630   0.000000  -0.411548
   41  O  3  X   -0.198455   0.000000  -0.135118   0.000000   0.154191
   42  O  3  Y    0.000000   0.184134   0.000000  -0.331038   0.000000
   43  O  3  Z   -0.097024   0.000000   0.137057   0.000000  -0.288225
   44  O  3 XX    0.010036   0.000000   0.015507   0.000000  -0.008944
   45  O  3 YY   -0.007943   0.000000  -0.003891   0.000000  -0.000671
   46  O  3 ZZ   -0.002093   0.000000  -0.011616   0.000000   0.009615
   47  O  3 XY    0.000000  -0.018690   0.000000   0.017013   0.000000
   48  O  3 XZ    0.011254   0.000000  -0.010746   0.000000   0.014492
   49  O  3 YZ    0.000000  -0.006111   0.000000   0.006167   0.000000

                     16         17         18         19         20
                   -0.2718    -0.1960    -0.1210     0.0582     0.3620
                     A1         B2         A1         B1         B2  
    1  S  1  S    0.023037   0.000000   0.022592   0.000000   0.000000
    2  S  1  S   -0.104203   0.000000  -0.088001   0.000000   0.000000
    3  S  1  S    0.099397   0.000000   0.121810   0.000000   0.000000
    4  S  1  S    0.518783   0.000000   0.514540   0.000000   0.000000
    5  S  1  X    0.000000   0.000000   0.000000  -0.193880   0.000000
    6  S  1  Y    0.000000  -0.209844   0.000000   0.000000   0.287749
    7  S  1  Z    0.091091   0.000000  -0.186674   0.000000   0.000000
    8  S  1  X    0.000000   0.000000   0.000000   0.505531   0.000000
    9  S  1  Y    0.000000   0.528340   0.000000   0.000000  -1.117674
   10  S  1  Z   -0.221638   0.000000   0.481720   0.000000   0.000000
   11  S  1  X    0.000000   0.000000   0.000000   1.189178   0.000000
   12  S  1  Y    0.000000   0.425852   0.000000   0.000000   1.249834
   13  S  1  Z   -0.085315   0.000000   0.512801   0.000000   0.000000
   14  S  1 XX   -0.147970   0.000000  -0.125401   0.000000   0.000000
   15  S  1 YY    0.069785   0.000000   0.099303   0.000000   0.000000
   16  S  1 ZZ    0.078186   0.000000   0.026099   0.000000   0.000000
   17  S  1 XY    0.000000   0.000000   0.000000   0.000000   0.000000
   18  S  1 XZ    0.000000   0.000000   0.000000  -0.177390   0.000000
   19  S  1 YZ    0.000000  -0.027025   0.000000   0.000000  -0.181741
   20  O  2  S    0.003041   0.000000   0.029890  -0.062352   0.000000
   21  O  2  S   -0.009236   0.000000  -0.062811   0.105514   0.000000
   22  O  2  S   -0.050070   0.000000  -0.219874   0.625810   0.000000
   23  O  2  X   -0.214396   0.000000  -0.369409   0.190102   0.000000
   24  O  2  Y    0.000000  -0.393957   0.000000   0.000000  -0.070124
   25  O  2  Z    0.389886   0.000000  -0.162888  -0.234369   0.000000
   26  O  2  X   -0.157714   0.000000  -0.322910   0.300563   0.000000
   27  O  2  Y    0.000000  -0.312819   0.000000   0.000000  -0.109158
   28  O  2  Z    0.284070   0.000000  -0.133331  -0.238388   0.000000
   29  O  2 XX   -0.001704   0.000000   0.000159   0.007191   0.000000
   30  O  2 YY    0.003178   0.000000   0.001870   0.000142   0.000000
   31  O  2 ZZ   -0.001475   0.000000  -0.002029  -0.007333   0.000000
   32  O  2 XY    0.000000  -0.001030   0.000000   0.000000  -0.022857
   33  O  2 XZ    0.008802   0.000000   0.004168   0.005620   0.000000
   34  O  2 YZ    0.000000  -0.000247   0.000000   0.000000   0.003978
   35  O  3  S    0.003041   0.000000   0.029890   0.062352   0.000000
   36  O  3  S   -0.009236   0.000000  -0.062811  -0.105514   0.000000
   37  O  3  S   -0.050070   0.000000  -0.219874  -0.625810   0.000000
   38  O  3  X    0.214396   0.000000   0.369409   0.190102   0.000000
   39  O  3  Y    0.000000  -0.393957   0.000000   0.000000  -0.070124
   40  O  3  Z    0.389886   0.000000  -0.162888   0.234369   0.000000
   41  O  3  X    0.157714   0.000000   0.322910   0.300563   0.000000
   42  O  3  Y    0.000000  -0.312819   0.000000   0.000000  -0.109158
   43  O  3  Z    0.284070   0.000000  -0.133331   0.238388   0.000000
   44  O  3 XX   -0.001704   0.000000   0.000159  -0.007191   0.000000
   45  O  3 YY    0.003178   0.000000   0.001870  -0.000142   0.000000
   46  O  3 ZZ   -0.001475   0.000000  -0.002029   0.007333   0.000000
   47  O  3 XY    0.000000   0.001030   0.000000   0.000000   0.022857
   48  O  3 XZ   -0.008802   0.000000  -0.004168   0.005620   0.000000
   49  O  3 YZ    0.000000  -0.000247   0.000000   0.000000   0.003978

                     21         22         23         24         25
                    0.3626     0.3680     0.3917     0.5037     0.5061
                     A1         B1         A1         A2         B2  
    1  S  1  S   -0.023705   0.000000  -0.113002   0.000000   0.000000
    2  S  1  S   -0.119386   0.000000  -0.389255   0.000000   0.000000
    3  S  1  S   -0.406248   0.000000  -1.718807   0.000000   0.000000
    4  S  1  S    0.731085   0.000000   2.078789   0.000000   0.000000
    5  S  1  X    0.000000   0.295064   0.000000   0.000000   0.000000
    6  S  1  Y    0.000000   0.000000   0.000000   0.000000   0.055732
    7  S  1  Z    0.272927   0.000000  -0.069580   0.000000   0.000000
    8  S  1  X    0.000000  -1.095173   0.000000   0.000000   0.000000
    9  S  1  Y    0.000000   0.000000   0.000000   0.000000  -0.215704
   10  S  1  Z   -1.053939   0.000000   0.272490   0.000000   0.000000
   11  S  1  X    0.000000   1.567533   0.000000   0.000000   0.000000
   12  S  1  Y    0.000000   0.000000   0.000000   0.000000   0.187650
   13  S  1  Z    1.303173   0.000000  -0.167583   0.000000   0.000000
   14  S  1 XX    0.096761   0.000000  -0.153204   0.000000   0.000000
   15  S  1 YY    0.113632   0.000000   0.074982   0.000000   0.000000
   16  S  1 ZZ   -0.210393   0.000000   0.078222   0.000000   0.000000
   17  S  1 XY    0.000000   0.000000   0.000000   0.850145   0.000000
   18  S  1 XZ    0.000000   0.092468   0.000000   0.000000   0.000000
   19  S  1 YZ    0.000000   0.000000   0.000000   0.000000   0.952455
   20  O  2  S    0.013062  -0.012967   0.011734   0.000000   0.000000
   21  O  2  S   -0.003356  -0.038858  -0.028653   0.000000   0.000000
   22  O  2  S   -0.297866   0.566750  -0.250276   0.000000   0.000000
   23  O  2  X    0.083946  -0.282723   0.104871   0.000000   0.000000
   24  O  2  Y    0.000000   0.000000   0.000000   0.367286  -0.175793
   25  O  2  Z   -0.101536   0.063503  -0.088409   0.000000   0.000000
   26  O  2  X   -0.169389   0.116938  -0.132034   0.000000   0.000000
   27  O  2  Y    0.000000   0.000000   0.000000  -0.150929   0.065075
   28  O  2  Z   -0.052423  -0.083459   0.076328   0.000000   0.000000
   29  O  2 XX   -0.038561   0.038755  -0.035153   0.000000   0.000000
   30  O  2 YY    0.019696  -0.026707   0.026087   0.000000   0.000000
   31  O  2 ZZ    0.018865  -0.012048   0.009066   0.000000   0.000000
   32  O  2 XY    0.000000   0.000000   0.000000  -0.056361   0.027930
   33  O  2 XZ   -0.000101  -0.034597   0.037591   0.000000   0.000000
   34  O  2 YZ    0.000000   0.000000   0.000000   0.028931   0.016689
   35  O  3  S    0.013062   0.012967   0.011734   0.000000   0.000000
   36  O  3  S   -0.003356   0.038858  -0.028653   0.000000   0.000000
   37  O  3  S   -0.297866  -0.566750  -0.250276   0.000000   0.000000
   38  O  3  X   -0.083946  -0.282723  -0.104871   0.000000   0.000000
   39  O  3  Y    0.000000   0.000000   0.000000  -0.367286  -0.175793
   40  O  3  Z   -0.101536  -0.063503  -0.088409   0.000000   0.000000
   41  O  3  X    0.169389   0.116938   0.132034   0.000000   0.000000
   42  O  3  Y    0.000000   0.000000   0.000000   0.150929   0.065075
   43  O  3  Z   -0.052423   0.083459   0.076328   0.000000   0.000000
   44  O  3 XX   -0.038561  -0.038755  -0.035153   0.000000   0.000000
   45  O  3 YY    0.019696   0.026707   0.026087   0.000000   0.000000
   46  O  3 ZZ    0.018865   0.012048   0.009066   0.000000   0.000000
   47  O  3 XY    0.000000   0.000000   0.000000  -0.056361  -0.027930
   48  O  3 XZ    0.000101  -0.034597  -0.037591   0.000000   0.000000
   49  O  3 YZ    0.000000   0.000000   0.000000  -0.028931   0.016689

                     26         27         28         29         30
                    0.5083     0.6240     0.6810     0.7805     0.7842
                     A1         B1         A1         B1         A2  
    1  S  1  S   -0.000036   0.000000   0.001797   0.000000   0.000000
    2  S  1  S   -0.010549   0.000000  -0.075336   0.000000   0.000000
    3  S  1  S   -0.013610   0.000000  -0.061114   0.000000   0.000000
    4  S  1  S    0.073139   0.000000   1.247310   0.000000   0.000000
    5  S  1  X    0.000000  -0.094058   0.000000  -0.050265   0.000000
    6  S  1  Y    0.000000   0.000000   0.000000   0.000000   0.000000
    7  S  1  Z    0.058644   0.000000  -0.058562   0.000000   0.000000
    8  S  1  X    0.000000   0.418296   0.000000   0.341531   0.000000
    9  S  1  Y    0.000000   0.000000   0.000000   0.000000   0.000000
   10  S  1  Z   -0.226711   0.000000   0.280894   0.000000   0.000000
   11  S  1  X    0.000000   0.580178   0.000000  -0.272490   0.000000
   12  S  1  Y    0.000000   0.000000   0.000000   0.000000   0.000000
   13  S  1  Z    0.220853   0.000000   0.192909   0.000000   0.000000
   14  S  1 XX   -0.072253   0.000000   0.708737   0.000000   0.000000
   15  S  1 YY   -0.777851   0.000000  -0.464371   0.000000   0.000000
   16  S  1 ZZ    0.850104   0.000000  -0.244366   0.000000   0.000000
   17  S  1 XY    0.000000   0.000000   0.000000   0.000000   0.543862
   18  S  1 XZ    0.000000   0.831125   0.000000   0.202065   0.000000
   19  S  1 YZ    0.000000   0.000000   0.000000   0.000000   0.000000
   20  O  2  S    0.002878  -0.056445   0.061968  -0.006102   0.000000
   21  O  2  S   -0.007430   0.205875  -0.239255  -0.021437   0.000000
   22  O  2  S   -0.041876   0.338812  -0.327845   0.010387   0.000000
   23  O  2  X   -0.055366   0.003629   0.333754  -0.439883   0.000000
   24  O  2  Y    0.000000   0.000000   0.000000   0.000000  -0.541456
   25  O  2  Z   -0.187745   0.285264   0.011949  -0.416177   0.000000
   26  O  2  X   -0.000321   0.542872  -0.973361   0.681117   0.000000
   27  O  2  Y    0.000000   0.000000   0.000000   0.000000   0.765203
   28  O  2  Z    0.077493  -0.395364   0.232766   0.486205   0.000000
   29  O  2 XX    0.010436  -0.040253   0.003282  -0.039431   0.000000
   30  O  2 YY   -0.018695   0.002406  -0.012867   0.017941   0.000000
   31  O  2 ZZ    0.008260   0.037847   0.009585   0.021490   0.000000
   32  O  2 XY    0.000000   0.000000   0.000000   0.000000  -0.058881
   33  O  2 XZ    0.028324  -0.025484  -0.021089   0.004925   0.000000
   34  O  2 YZ    0.000000   0.000000   0.000000   0.000000   0.027623
   35  O  3  S    0.002878   0.056445   0.061968   0.006102   0.000000
   36  O  3  S   -0.007430  -0.205875  -0.239255   0.021437   0.000000
   37  O  3  S   -0.041876  -0.338812  -0.327845  -0.010387   0.000000
   38  O  3  X    0.055366   0.003629  -0.333754  -0.439883   0.000000
   39  O  3  Y    0.000000   0.000000   0.000000   0.000000   0.541456
   40  O  3  Z   -0.187745  -0.285264   0.011949   0.416177   0.000000
   41  O  3  X    0.000321   0.542872   0.973361   0.681117   0.000000
   42  O  3  Y    0.000000   0.000000   0.000000   0.000000  -0.765203
   43  O  3  Z    0.077493   0.395364   0.232766  -0.486205   0.000000
   44  O  3 XX    0.010436   0.040253   0.003282   0.039431   0.000000
   45  O  3 YY   -0.018695  -0.002406  -0.012867  -0.017941   0.000000
   46  O  3 ZZ    0.008260  -0.037847   0.009585  -0.021490   0.000000
   47  O  3 XY    0.000000   0.000000   0.000000   0.000000  -0.058881
   48  O  3 XZ   -0.028324  -0.025484   0.021089   0.004925   0.000000
   49  O  3 YZ    0.000000   0.000000   0.000000   0.000000  -0.027623

                     31         32         33         34         35
                    0.8253     0.8382     0.8531     0.9409     1.5782
                     A1         B2         B1         A1         A1  
    1  S  1  S    0.013248   0.000000   0.000000  -0.031513  -0.020054
    2  S  1  S    0.070432   0.000000   0.000000  -0.211114  -0.214320
    3  S  1  S    0.240471   0.000000   0.000000  -0.625229  -0.471036
    4  S  1  S   -0.128227   0.000000   0.000000   0.674134   1.825433
    5  S  1  X    0.000000   0.000000   0.024188   0.000000   0.000000
    6  S  1  Y    0.000000  -0.025606   0.000000   0.000000   0.000000
    7  S  1  Z   -0.028442   0.000000   0.000000  -0.024586  -0.010872
    8  S  1  X    0.000000   0.000000  -0.298589   0.000000   0.000000
    9  S  1  Y    0.000000   0.122937   0.000000   0.000000   0.000000
   10  S  1  Z    0.160388   0.000000   0.000000   0.032571   0.087020
   11  S  1  X    0.000000   0.000000   0.208758   0.000000   0.000000
   12  S  1  Y    0.000000  -0.648964   0.000000   0.000000   0.000000
   13  S  1  Z   -0.621500   0.000000   0.000000  -0.010796   0.548186
   14  S  1 XX    0.095501   0.000000   0.000000   0.848127   0.353603
   15  S  1 YY    0.176057   0.000000   0.000000  -0.473970  -0.248866
   16  S  1 ZZ   -0.271559   0.000000   0.000000  -0.374156  -0.104736
   17  S  1 XY    0.000000   0.000000   0.000000   0.000000   0.000000
   18  S  1 XZ    0.000000   0.000000   0.605493   0.000000   0.000000
   19  S  1 YZ    0.000000  -0.249512   0.000000   0.000000   0.000000
   20  O  2  S   -0.005807   0.000000  -0.003497   0.025921  -0.005698
   21  O  2  S    0.090584   0.000000  -0.032283  -0.074041   1.151135
   22  O  2  S   -0.003843   0.000000   0.148243  -0.220947  -1.731429
   23  O  2  X   -0.066220   0.000000   0.433931  -0.526933   0.077427
   24  O  2  Y    0.000000  -0.613327   0.000000   0.000000   0.000000
   25  O  2  Z   -0.598096   0.000000  -0.372262   0.116794   0.057235
   26  O  2  X    0.101708   0.000000  -0.421755   0.358064  -0.661918
   27  O  2  Y    0.000000   0.903703   0.000000   0.000000   0.000000
   28  O  2  Z    0.871461   0.000000   0.522962   0.078113   0.025905
   29  O  2 XX    0.000821   0.000000  -0.015553  -0.048919   0.191491
   30  O  2 YY   -0.004941   0.000000  -0.021032  -0.001013  -0.114780
   31  O  2 ZZ    0.004120   0.000000   0.036585   0.049932  -0.076712
   32  O  2 XY    0.000000  -0.037187   0.000000   0.000000   0.000000
   33  O  2 XZ   -0.043278   0.000000  -0.065764  -0.045559  -0.079943
   34  O  2 YZ    0.000000   0.003563   0.000000   0.000000   0.000000
   35  O  3  S   -0.005807   0.000000   0.003497   0.025921  -0.005698
   36  O  3  S    0.090584   0.000000   0.032283  -0.074041   1.151135
   37  O  3  S   -0.003843   0.000000  -0.148243  -0.220947  -1.731429
   38  O  3  X    0.066220   0.000000   0.433931   0.526933  -0.077427
   39  O  3  Y    0.000000  -0.613327   0.000000   0.000000   0.000000
   40  O  3  Z   -0.598096   0.000000   0.372262   0.116794   0.057235
   41  O  3  X   -0.101708   0.000000  -0.421755  -0.358064   0.661918
   42  O  3  Y    0.000000   0.903703   0.000000   0.000000   0.000000
   43  O  3  Z    0.871461   0.000000  -0.522962   0.078113   0.025905
   44  O  3 XX    0.000821   0.000000   0.015553  -0.048919   0.191491
   45  O  3 YY   -0.004941   0.000000   0.021032  -0.001013  -0.114780
   46  O  3 ZZ    0.004120   0.000000  -0.036585   0.049932  -0.076712
   47  O  3 XY    0.000000   0.037187   0.000000   0.000000   0.000000
   48  O  3 XZ    0.043278   0.000000  -0.065764   0.045559   0.079943
   49  O  3 YZ    0.000000   0.003563   0.000000   0.000000   0.000000

                     36         37         38         39         40
                    1.6793     2.0667     2.0668     2.0735     2.0785
                     B1         B1         A2         B2         A1  
    1  S  1  S    0.000000   0.000000   0.000000   0.000000  -0.001987
    2  S  1  S    0.000000   0.000000   0.000000   0.000000  -0.006644
    3  S  1  S    0.000000   0.000000   0.000000   0.000000  -0.031247
    4  S  1  S    0.000000   0.000000   0.000000   0.000000   0.020465
    5  S  1  X   -0.026814   0.000043   0.000000   0.000000   0.000000
    6  S  1  Y    0.000000   0.000000   0.000000  -0.015863   0.000000
    7  S  1  Z    0.000000   0.000000   0.000000   0.000000   0.006100
    8  S  1  X    0.206755  -0.002827   0.000000   0.000000   0.000000
    9  S  1  Y    0.000000   0.000000   0.000000   0.045424   0.000000
   10  S  1  Z    0.000000   0.000000   0.000000   0.000000  -0.022541
   11  S  1  X    1.431295   0.030811   0.000000   0.000000   0.000000
   12  S  1  Y    0.000000   0.000000   0.000000   0.039795   0.000000
   13  S  1  Z    0.000000   0.000000   0.000000   0.000000   0.002657
   14  S  1 XX    0.000000   0.000000   0.000000   0.000000   0.026747
   15  S  1 YY    0.000000   0.000000   0.000000   0.000000  -0.073093
   16  S  1 ZZ    0.000000   0.000000   0.000000   0.000000   0.046346
   17  S  1 XY    0.000000   0.000000   0.023456   0.000000   0.000000
   18  S  1 XZ    0.267300  -0.023905   0.000000   0.000000   0.000000
   19  S  1 YZ    0.000000   0.000000   0.000000  -0.022984   0.000000
   20  O  2  S    0.001704   0.000470   0.000000   0.000000   0.001235
   21  O  2  S   -1.227931  -0.016981   0.000000   0.000000  -0.010766
   22  O  2  S    2.002857   0.026487   0.000000   0.000000   0.000869
   23  O  2  X   -0.012793   0.001193   0.000000   0.000000  -0.013398
   24  O  2  Y    0.000000   0.000000  -0.004813   0.018328   0.000000
   25  O  2  Z    0.090723   0.008176   0.000000   0.000000   0.001815
   26  O  2  X    0.453734  -0.001858   0.000000   0.000000   0.010501
   27  O  2  Y    0.000000   0.000000   0.007868  -0.031225   0.000000
   28  O  2  Z   -0.368914  -0.014097   0.000000   0.000000  -0.001196
   29  O  2 XX   -0.159345  -0.145168   0.000000   0.000000  -0.006867
   30  O  2 YY    0.095963   0.610790   0.000000   0.000000   0.592989
   31  O  2 ZZ    0.063382  -0.465621   0.000000   0.000000  -0.586122
   32  O  2 XY    0.000000   0.000000   0.331094  -0.021784   0.000000
   33  O  2 XZ    0.129983  -0.304791   0.000000   0.000000  -0.191081
   34  O  2 YZ    0.000000   0.000000   0.624935   0.707657   0.000000
   35  O  3  S   -0.001704  -0.000470   0.000000   0.000000   0.001235
   36  O  3  S    1.227931   0.016981   0.000000   0.000000  -0.010766
   37  O  3  S   -2.002857  -0.026487   0.000000   0.000000   0.000869
   38  O  3  X   -0.012793   0.001193   0.000000   0.000000   0.013398
   39  O  3  Y    0.000000   0.000000   0.004813   0.018328   0.000000
   40  O  3  Z   -0.090723  -0.008176   0.000000   0.000000   0.001815
   41  O  3  X    0.453734  -0.001858   0.000000   0.000000  -0.010501
   42  O  3  Y    0.000000   0.000000  -0.007868  -0.031225   0.000000
   43  O  3  Z    0.368914   0.014097   0.000000   0.000000  -0.001196
   44  O  3 XX    0.159345   0.145168   0.000000   0.000000  -0.006867
   45  O  3 YY   -0.095963  -0.610790   0.000000   0.000000   0.592989
   46  O  3 ZZ   -0.063382   0.465621   0.000000   0.000000  -0.586122
   47  O  3 XY    0.000000   0.000000   0.331094   0.021784   0.000000
   48  O  3 XZ    0.129983  -0.304791   0.000000   0.000000   0.191081
   49  O  3 YZ    0.000000   0.000000  -0.624935   0.707657   0.000000

                     41         42         43         44         45
                    2.1157     2.1735     2.1920     2.2436     2.6407
                     B2         B1         A1         A2         B1  
    1  S  1  S    0.000000   0.000000  -0.005556   0.000000   0.000000
    2  S  1  S    0.000000   0.000000   0.013854   0.000000   0.000000
    3  S  1  S    0.000000   0.000000  -0.051320   0.000000   0.000000
    4  S  1  S    0.000000   0.000000  -0.253791   0.000000   0.000000
    5  S  1  X    0.000000   0.043963   0.000000   0.000000  -0.191248
    6  S  1  Y    0.038342   0.000000   0.000000   0.000000   0.000000
    7  S  1  Z    0.000000   0.000000   0.049250   0.000000   0.000000
    8  S  1  X    0.000000  -0.197270   0.000000   0.000000   0.897779
    9  S  1  Y   -0.105583   0.000000   0.000000   0.000000   0.000000
   10  S  1  Z    0.000000   0.000000  -0.164601   0.000000   0.000000
   11  S  1  X    0.000000  -0.082393   0.000000   0.000000   0.437283
   12  S  1  Y   -0.135952   0.000000   0.000000   0.000000   0.000000
   13  S  1  Z    0.000000   0.000000  -0.213489   0.000000   0.000000
   14  S  1 XX    0.000000   0.000000   0.138977   0.000000   0.000000
   15  S  1 YY    0.000000   0.000000   0.074922   0.000000   0.000000
   16  S  1 ZZ    0.000000   0.000000  -0.213899   0.000000   0.000000
   17  S  1 XY    0.000000   0.000000   0.000000   0.411294   0.000000
   18  S  1 XZ    0.000000   0.275310   0.000000   0.000000   0.493478
   19  S  1 YZ   -0.170451   0.000000   0.000000   0.000000   0.000000
   20  O  2  S    0.000000  -0.001514   0.001062   0.000000  -0.021016
   21  O  2  S    0.000000   0.143137  -0.202939   0.000000  -0.535715
   22  O  2  S    0.000000  -0.188558   0.296968   0.000000   1.017649
   23  O  2  X    0.000000   0.043681  -0.083659   0.000000  -0.029793
   24  O  2  Y   -0.056404   0.000000   0.000000  -0.040711   0.000000
   25  O  2  Z    0.000000  -0.059767  -0.039894   0.000000   0.020155
   26  O  2  X    0.000000  -0.073325   0.208475   0.000000   0.549571
   27  O  2  Y    0.117093   0.000000   0.000000   0.120557   0.000000
   28  O  2  Z    0.000000   0.129264   0.099597   0.000000  -0.197173
   29  O  2 XX    0.000000   0.275710   0.502853   0.000000   0.701787
   30  O  2 YY    0.000000   0.155918  -0.128185   0.000000  -0.351391
   31  O  2 ZZ    0.000000  -0.431628  -0.374667   0.000000  -0.350396
   32  O  2 XY    0.716228   0.000000   0.000000   0.643177   0.000000
   33  O  2 XZ    0.000000   0.564593   0.488446   0.000000  -0.319856
   34  O  2 YZ    0.016670   0.000000   0.000000  -0.337127   0.000000
   35  O  3  S    0.000000   0.001514   0.001062   0.000000   0.021016
   36  O  3  S    0.000000  -0.143137  -0.202939   0.000000   0.535715
   37  O  3  S    0.000000   0.188558   0.296968   0.000000  -1.017649
   38  O  3  X    0.000000   0.043681   0.083659   0.000000  -0.029793
   39  O  3  Y   -0.056404   0.000000   0.000000   0.040711   0.000000
   40  O  3  Z    0.000000   0.059767  -0.039894   0.000000  -0.020155
   41  O  3  X    0.000000  -0.073325  -0.208475   0.000000   0.549571
   42  O  3  Y    0.117093   0.000000   0.000000  -0.120557   0.000000
   43  O  3  Z    0.000000  -0.129264   0.099597   0.000000   0.197173
   44  O  3 XX    0.000000  -0.275710   0.502853   0.000000  -0.701787
   45  O  3 YY    0.000000  -0.155918  -0.128185   0.000000   0.351391
   46  O  3 ZZ    0.000000   0.431628  -0.374667   0.000000   0.350396
   47  O  3 XY   -0.716228   0.000000   0.000000   0.643177   0.000000
   48  O  3 XZ    0.000000   0.564593  -0.488446   0.000000  -0.319856
   49  O  3 YZ    0.016670   0.000000   0.000000   0.337127   0.000000

                     46
                    2.6882
                     A1  
    1  S  1  S    0.028365
    2  S  1  S   -0.096809
    3  S  1  S    0.221187
    4  S  1  S    1.185247
    5  S  1  X    0.000000
    6  S  1  Y    0.000000
    7  S  1  Z   -0.069209
    8  S  1  X    0.000000
    9  S  1  Y    0.000000
   10  S  1  Z    0.339026
   11  S  1  X    0.000000
   12  S  1  Y    0.000000
   13  S  1  Z    0.174300
   14  S  1 XX    0.769305
   15  S  1 YY   -0.439981
   16  S  1 ZZ   -0.329324
   17  S  1 XY    0.000000
   18  S  1 XZ    0.000000
   19  S  1 YZ    0.000000
   20  O  2  S    0.025793
   21  O  2  S    0.568822
   22  O  2  S   -1.124126
   23  O  2  X    0.019874
   24  O  2  Y    0.000000
   25  O  2  Z    0.000525
   26  O  2  X   -0.641414
   27  O  2  Y    0.000000
   28  O  2  Z    0.240565
   29  O  2 XX   -0.549082
   30  O  2 YY    0.400999
   31  O  2 ZZ    0.148082
   32  O  2 XY    0.000000
   33  O  2 XZ    0.548580
   34  O  2 YZ    0.000000
   35  O  3  S    0.025793
   36  O  3  S    0.568822
   37  O  3  S   -1.124126
   38  O  3  X   -0.019874
   39  O  3  Y    0.000000
   40  O  3  Z    0.000525
   41  O  3  X    0.641414
   42  O  3  Y    0.000000
   43  O  3  Z    0.240565
   44  O  3 XX   -0.549082
   45  O  3 YY    0.400999
   46  O  3 ZZ    0.148082
   47  O  3 XY    0.000000
   48  O  3 XZ   -0.548580
   49  O  3 YZ    0.000000
 ...... END OF RHF CALCULATION ......
 STEP CPU TIME =     4.30 TOTAL CPU TIME =        4.5 (    0.1 MIN)
 TOTAL WALL CLOCK TIME=        4.5 SECONDS, CPU UTILIZATION IS  99.78%

     ---------------------------------------------------------------------
     PROPERTIES FOR THE PBE      DFT FUNCTIONAL (RHF  TYPE) DENSITY MATRIX
     ---------------------------------------------------------------------

          -----------------
          ENERGY COMPONENTS
          -----------------

         WAVEFUNCTION NORMALIZATION =       1.0000000000

                ONE ELECTRON ENERGY =    -946.2016907364
                TWO ELECTRON ENERGY =     302.0421204619
           NUCLEAR REPULSION ENERGY =      95.9311332052
                                      ------------------
                       TOTAL ENERGY =    -548.2284370693

 ELECTRON-ELECTRON POTENTIAL ENERGY =     302.0421204619
  NUCLEUS-ELECTRON POTENTIAL ENERGY =   -1493.3070588770
   NUCLEUS-NUCLEUS POTENTIAL ENERGY =      95.9311332052
                                      ------------------
             TOTAL POTENTIAL ENERGY =   -1095.3338052099
               TOTAL KINETIC ENERGY =     547.1053681406
                 VIRIAL RATIO (V/T) =       2.0020527470

          ---------------------------------------
          MULLIKEN AND LOWDIN POPULATION ANALYSES
          ---------------------------------------

     ATOMIC MULLIKEN POPULATION IN EACH MOLECULAR ORBITAL

                      1          2          3          4          5

                  2.000000   2.000000   2.000000   2.000000   2.000000

    1             2.000011   0.001399   0.000910   2.000899   1.999844
    2            -0.000006   0.999300   0.999545  -0.000450   0.000078
    3            -0.000006   0.999300   0.999545  -0.000450   0.000078

                      6          7          8          9         10

                  2.000000   2.000000   2.000000   2.000000   2.000000

    1             2.000004   1.999939   0.634965   0.270921   1.010331
    2            -0.000002   0.000030   0.682517   0.864539   0.494835
    3            -0.000002   0.000030   0.682517   0.864539   0.494835

                     11         12         13         14         15

                  2.000000   2.000000   2.000000   2.000000   2.000000

    1             0.441893   1.074847   1.048444   0.074208   0.099360
    2             0.779054   0.462577   0.475778   0.962896   0.950320
    3             0.779054   0.462577   0.475778   0.962896   0.950320

                     16

                  2.000000

    1             0.535940
    2             0.732030
    3             0.732030

               ----- POPULATIONS IN EACH AO -----
                             MULLIKEN      LOWDIN
              1  S  1  S      2.00022     1.99594
              2  S  1  S      2.01016     1.97154
              3  S  1  S      0.99295     0.61953
              4  S  1  S      0.89764     0.55585
              5  S  1  X      1.99648     1.95277
              6  S  1  Y      1.99619     1.95449
              7  S  1  Z      1.99681     1.95950
              8  S  1  X      0.65453     0.58999
              9  S  1  Y      0.64640     0.61725
             10  S  1  Z      0.77253     0.74661
             11  S  1  X      0.07212     0.26219
             12  S  1  Y      0.42609     0.47761
             13  S  1  Z      0.38766     0.47581
             14  S  1 XX      0.05211     0.29405
             15  S  1 YY      0.12137     0.28188
             16  S  1 ZZ      0.07421     0.28117
             17  S  1 XY      0.09028     0.08819
             18  S  1 XZ      0.00617     0.11088
             19  S  1 YZ      0.00000     0.00587
             20  O  2  S      1.99806     1.98092
             21  O  2  S      0.84733     0.66358
             22  O  2  S      1.08294     0.57794
             23  O  2  X      0.82969     0.78907
             24  O  2  Y      0.84787     0.81233
             25  O  2  Z      1.08060     1.04923
             26  O  2  X      0.45855     0.55384
             27  O  2  Y      0.57301     0.61036
             28  O  2  Z      0.66903     0.70801
             29  O  2 XX      0.00220     0.21121
             30  O  2 YY      0.00482     0.20785
             31  O  2 ZZ      0.00410     0.20312
             32  O  2 XY      0.00434     0.00501
             33  O  2 XZ      0.00050     0.00637
             34  O  2 YZ      0.00000     0.00060
             35  O  3  S      1.99806     1.98092
             36  O  3  S      0.84733     0.66358
             37  O  3  S      1.08294     0.57794
             38  O  3  X      0.82969     0.78907
             39  O  3  Y      0.84787     0.81233
             40  O  3  Z      1.08060     1.04923
             41  O  3  X      0.45855     0.55384
             42  O  3  Y      0.57301     0.61036
             43  O  3  Z      0.66903     0.70801
             44  O  3 XX      0.00220     0.21121
             45  O  3 YY      0.00482     0.20785
             46  O  3 ZZ      0.00410     0.20312
             47  O  3 XY      0.00434     0.00501
             48  O  3 XZ      0.00050     0.00637
             49  O  3 YZ      0.00000     0.00060

          ----- MULLIKEN ATOMIC OVERLAP POPULATIONS -----
          (OFF-DIAGONAL ELEMENTS NEED TO BE MULTIPLIED BY 2)

             1           2           3

    1   14.7244733
    2    0.2347205   8.1737486
    3    0.2347205  -0.0054263   8.1737486

          TOTAL MULLIKEN AND LOWDIN ATOMIC POPULATIONS
       ATOM         MULL.POP.    CHARGE          LOW.POP.     CHARGE
    1 S            15.193914    0.806086        15.241137    0.758863
    2 O             8.403043   -0.403043         8.379432   -0.379432
    3 O             8.403043   -0.403043         8.379432   -0.379432

          MULLIKEN SPHERICAL HARMONIC POPULATIONS
       ATOM           S       P       D      F      G      H      I    TOTAL
    1 S             5.90    8.95    0.34   0.00   0.00   0.00   0.00   15.19
    2 O             3.93    4.46    0.02   0.00   0.00   0.00   0.00    8.40
    3 O             3.93    4.46    0.02   0.00   0.00   0.00   0.00    8.40

          -------------------------------
          BOND ORDER AND VALENCE ANALYSIS     BOND ORDER THRESHOLD=0.050
          -------------------------------

                   BOND                       BOND                       BOND
  ATOM PAIR DIST  ORDER      ATOM PAIR DIST  ORDER      ATOM PAIR DIST  ORDER
    1   2  1.600  1.718        1   3  1.600  1.718        2   3  3.007  0.399

                       TOTAL       BONDED        FREE
      ATOM            VALENCE     VALENCE     VALENCE
    1 S                 3.436       3.436       0.000
    2 O                 2.117       2.117       0.000
    3 O                 2.117       2.117       0.000

          ---------------------
          ELECTROSTATIC MOMENTS
          ---------------------

 POINT   1           X           Y           Z (BOHR)    CHARGE
                 0.000000    0.000000    0.000000        0.00 (A.U.)
         DX          DY          DZ         /D/  (DEBYE)
     0.000000    0.000000   -1.067986    1.067986
 ...... END OF PROPERTY EVALUATION ......
 STEP CPU TIME =     0.02 TOTAL CPU TIME =        4.5 (    0.1 MIN)
 TOTAL WALL CLOCK TIME=        4.5 SECONDS, CPU UTILIZATION IS 100.00%
               580000  WORDS OF DYNAMIC MEMORY USED
 EXECUTION OF GAMESS TERMINATED NORMALLY Thu Feb 26 00:18:24 2015
 DDI: 263624 bytes (0.3 MB / 0 MWords) used by master data server.

 ----------------------------------------
 CPU timing information for all processes
 ========================================
 0: 4.473 + 0.31 = 4.505
 ----------------------------------------
 ddikick.x: exited gracefully.
----- accounting info -----
Files used on the master node dftfe.crc.nd.edu were:
-rw-r--r-- 1 pmehta1 campus   37475 Feb 26 00:18 /tmp/gamess.dat
-rw-r--r-- 1 pmehta1 campus     142 Feb 26 00:18 /tmp/gamess.F05
-rw-r--r-- 1 pmehta1 campus 2160288 Feb 26 00:18 /tmp/gamess.F08
-rw-r--r-- 1 pmehta1 campus 1220440 Feb 26 00:18 /tmp/gamess.F10
Thu Feb 26 00:18:27 EST 2015
0.250u 0.169s 0:07.95 5.1%	0+0k 0+120io 0pf+0w
