   1   1   1   0
  0.1510406E+02  0.2774616E-09  0.2774616E-09  0.2774616E-09  0.5000000E-15
   1.0000000000000000E-004
  CAR 
 Au, FCC                                 
     30.80721356     -5.33026999  301      7.48187322      1.00000000
     -5.330  0.0000E+00  0.0000E+00
     -5.210  0.0000E+00  0.0000E+00
     -5.089  0.0000E+00  0.0000E+00
     -4.969  0.0000E+00  0.0000E+00
     -4.848  0.0000E+00  0.0000E+00
     -4.728  0.0000E+00  0.0000E+00
     -4.608  0.0000E+00  0.0000E+00
     -4.487  0.0000E+00  0.0000E+00
     -4.367  0.0000E+00  0.0000E+00
     -4.246  0.4608E-16  0.5551E-17
     -4.126  0.9697E-11  0.1168E-11
     -4.005  0.1176E-06  0.1417E-07
     -3.885  0.8804E-04  0.1062E-04
     -3.764  0.4533E-02  0.5567E-03
     -3.644  0.1981E-01  0.2943E-02
     -3.523  0.1764E-01  0.5068E-02
     -3.403  0.5567E-01  0.1177E-01
     -3.282  0.4081E-01  0.1669E-01
     -3.162  0.5487E-01  0.2330E-01
     -3.042  0.4544E-01  0.2877E-01
     -2.921  0.7022E-01  0.3723E-01
     -2.801  0.6822E-01  0.4545E-01
     -2.680  0.1115E+00  0.5888E-01
     -2.560  0.8980E-01  0.6970E-01
     -2.439  0.6553E-01  0.7759E-01
     -2.319  0.5145E-01  0.8379E-01
     -2.198  0.1299E+00  0.9944E-01
     -2.078  0.1530E+00  0.1179E+00
     -1.957  0.1650E+00  0.1377E+00
     -1.837  0.1005E+00  0.1498E+00
     -1.717  0.8352E-01  0.1599E+00
     -1.596  0.1964E+00  0.1836E+00
     -1.476  0.2113E+00  0.2090E+00
     -1.355  0.1590E+00  0.2282E+00
     -1.235  0.2286E+00  0.2557E+00
     -1.114  0.3884E+00  0.3025E+00
     -0.994  0.5341E+00  0.3668E+00
     -0.873  0.7156E+00  0.4530E+00
     -0.753  0.6360E+00  0.5296E+00
     -0.632  0.8834E+00  0.6361E+00
     -0.512  0.1227E+01  0.7838E+00
     -0.391  0.1218E+01  0.9305E+00
     -0.271  0.1730E+01  0.1139E+01
     -0.151  0.1572E+01  0.1328E+01
     -0.030  0.1446E+01  0.1502E+01
      0.090  0.1822E+01  0.1722E+01
      0.211  0.1439E+01  0.1895E+01
      0.331  0.1149E+01  0.2034E+01
      0.452  0.1489E+01  0.2213E+01
      0.572  0.1435E+01  0.2386E+01
      0.693  0.9119E+00  0.2496E+01
      0.813  0.8896E+00  0.2603E+01
      0.934  0.1356E+01  0.2766E+01
      1.054  0.1542E+01  0.2952E+01
      1.174  0.1449E+01  0.3127E+01
      1.295  0.1668E+01  0.3327E+01
      1.415  0.1518E+01  0.3510E+01
      1.536  0.1372E+01  0.3676E+01
      1.656  0.1666E+01  0.3876E+01
      1.777  0.1964E+01  0.4113E+01
      1.897  0.1739E+01  0.4322E+01
      2.018  0.1837E+01  0.4543E+01
      2.138  0.2035E+01  0.4789E+01
      2.259  0.2166E+01  0.5050E+01
      2.379  0.3129E+01  0.5426E+01
      2.500  0.2254E+01  0.5698E+01
      2.620  0.1733E+01  0.5907E+01
      2.740  0.1506E+01  0.6088E+01
      2.861  0.1248E+01  0.6238E+01
      2.981  0.1137E+01  0.6375E+01
      3.102  0.1562E+01  0.6564E+01
      3.222  0.1268E+01  0.6716E+01
      3.343  0.1353E+01  0.6879E+01
      3.463  0.1839E+01  0.7101E+01
      3.584  0.1756E+01  0.7312E+01
      3.704  0.1810E+01  0.7530E+01
      3.825  0.1349E+01  0.7693E+01
      3.945  0.1235E+01  0.7842E+01
      4.065  0.1798E+01  0.8058E+01
      4.186  0.1765E+01  0.8271E+01
      4.306  0.9556E+00  0.8386E+01
      4.427  0.8727E+00  0.8491E+01
      4.547  0.1541E+01  0.8677E+01
      4.668  0.1632E+01  0.8873E+01
      4.788  0.1148E+01  0.9012E+01
      4.909  0.1227E+01  0.9159E+01
      5.029  0.1936E+01  0.9392E+01
      5.150  0.2121E+01  0.9648E+01
      5.270  0.2027E+01  0.9892E+01
      5.391  0.2017E+01  0.1014E+02
      5.511  0.1546E+01  0.1032E+02
      5.631  0.9956E+00  0.1044E+02
      5.752  0.1130E+01  0.1058E+02
      5.872  0.3772E+00  0.1062E+02
      5.993  0.7172E-01  0.1063E+02
      6.113  0.3758E-01  0.1064E+02
      6.234  0.8413E-01  0.1065E+02
      6.354  0.2456E+00  0.1068E+02
      6.475  0.4762E+00  0.1073E+02
      6.595  0.4523E+00  0.1079E+02
      6.716  0.3222E+00  0.1083E+02
      6.836  0.1495E+00  0.1084E+02
      6.956  0.1350E+00  0.1086E+02
      7.077  0.2034E+00  0.1089E+02
      7.197  0.3228E+00  0.1092E+02
      7.318  0.3133E+00  0.1096E+02
      7.438  0.2240E+00  0.1099E+02
      7.559  0.2465E+00  0.1102E+02
      7.679  0.2625E+00  0.1105E+02
      7.800  0.1958E+00  0.1107E+02
      7.920  0.7723E-01  0.1108E+02
      8.041  0.3540E+00  0.1113E+02
      8.161  0.3977E+00  0.1117E+02
      8.282  0.3918E+00  0.1122E+02
      8.402  0.3340E+00  0.1126E+02
      8.522  0.1607E+00  0.1128E+02
      8.643  0.1922E+00  0.1130E+02
      8.763  0.1861E+00  0.1133E+02
      8.884  0.9619E-01  0.1134E+02
      9.004  0.1760E+00  0.1136E+02
      9.125  0.2917E+00  0.1139E+02
      9.245  0.4380E+00  0.1145E+02
      9.366  0.3193E+00  0.1149E+02
      9.486  0.2139E+00  0.1151E+02
      9.607  0.1910E+00  0.1153E+02
      9.727  0.2356E+00  0.1156E+02
      9.847  0.1503E+00  0.1158E+02
      9.968  0.1290E+00  0.1160E+02
     10.088  0.2707E+00  0.1163E+02
     10.209  0.3191E+00  0.1167E+02
     10.329  0.1919E+00  0.1169E+02
     10.450  0.1490E+00  0.1171E+02
     10.570  0.3566E+00  0.1175E+02
     10.691  0.1667E+00  0.1177E+02
     10.811  0.1800E-01  0.1177E+02
     10.932  0.1453E+00  0.1179E+02
     11.052  0.2746E+00  0.1182E+02
     11.173  0.3769E+00  0.1187E+02
     11.293  0.6530E+00  0.1195E+02
     11.413  0.4386E+00  0.1200E+02
     11.534  0.2471E+00  0.1203E+02
     11.654  0.1927E+00  0.1205E+02
     11.775  0.2016E+00  0.1208E+02
     11.895  0.2339E+00  0.1211E+02
     12.016  0.4571E+00  0.1216E+02
     12.136  0.3849E+00  0.1221E+02
     12.257  0.3378E+00  0.1225E+02
     12.377  0.2966E+00  0.1228E+02
     12.498  0.1880E+00  0.1231E+02
     12.618  0.1194E+00  0.1232E+02
     12.738  0.1818E+00  0.1234E+02
     12.859  0.3146E+00  0.1238E+02
     12.979  0.4369E+00  0.1243E+02
     13.100  0.3009E+00  0.1247E+02
     13.220  0.3642E+00  0.1251E+02
     13.341  0.2020E+00  0.1254E+02
     13.461  0.2224E+00  0.1256E+02
     13.582  0.2533E+00  0.1260E+02
     13.702  0.5061E+00  0.1266E+02
     13.823  0.5480E+00  0.1272E+02
     13.943  0.1315E+00  0.1274E+02
     14.064  0.2252E+00  0.1277E+02
     14.184  0.4313E+00  0.1282E+02
     14.304  0.2380E+00  0.1285E+02
     14.425  0.2621E+00  0.1288E+02
     14.545  0.2618E+00  0.1291E+02
     14.666  0.1652E+00  0.1293E+02
     14.786  0.5683E+00  0.1300E+02
     14.907  0.4287E+00  0.1305E+02
     15.027  0.1595E+00  0.1307E+02
     15.148  0.1006E+00  0.1308E+02
     15.268  0.1177E+00  0.1309E+02
     15.389  0.1160E+00  0.1311E+02
     15.509  0.3169E+00  0.1315E+02
     15.629  0.3973E+00  0.1319E+02
     15.750  0.2421E+00  0.1322E+02
     15.870  0.2958E+00  0.1326E+02
     15.991  0.5414E+00  0.1332E+02
     16.111  0.6233E+00  0.1340E+02
     16.232  0.4248E+00  0.1345E+02
     16.352  0.5555E+00  0.1352E+02
     16.473  0.3643E+00  0.1356E+02
     16.593  0.5467E-01  0.1357E+02
     16.714  0.3389E-01  0.1357E+02
     16.834  0.1975E+00  0.1360E+02
     16.955  0.3907E+00  0.1364E+02
     17.075  0.4157E+00  0.1369E+02
     17.195  0.2520E+00  0.1372E+02
     17.316  0.2534E+00  0.1375E+02
     17.436  0.4173E+00  0.1380E+02
     17.557  0.4338E+00  0.1386E+02
     17.677  0.4014E+00  0.1390E+02
     17.798  0.4371E+00  0.1396E+02
     17.918  0.3371E+00  0.1400E+02
     18.039  0.5049E+00  0.1406E+02
     18.159  0.5797E+00  0.1413E+02
     18.280  0.4222E+00  0.1418E+02
     18.400  0.4309E+00  0.1423E+02
     18.520  0.4707E+00  0.1429E+02
     18.641  0.4015E+00  0.1434E+02
     18.761  0.2339E+00  0.1436E+02
     18.882  0.5293E+00  0.1443E+02
     19.002  0.6387E+00  0.1451E+02
     19.123  0.5814E+00  0.1458E+02
     19.243  0.4753E+00  0.1463E+02
     19.364  0.1993E+00  0.1466E+02
     19.484  0.2520E+00  0.1469E+02
     19.605  0.2267E+00  0.1471E+02
     19.725  0.5878E+00  0.1479E+02
     19.846  0.7934E+00  0.1488E+02
     19.966  0.4795E+00  0.1494E+02
     20.086  0.7037E+00  0.1502E+02
     20.207  0.5405E+00  0.1509E+02
     20.327  0.5901E+00  0.1516E+02
     20.448  0.3853E+00  0.1521E+02
     20.568  0.1785E+00  0.1523E+02
     20.689  0.2375E+00  0.1526E+02
     20.809  0.3449E+00  0.1530E+02
     20.930  0.7218E+00  0.1538E+02
     21.050  0.6016E+00  0.1546E+02
     21.171  0.4106E+00  0.1551E+02
     21.291  0.2746E+00  0.1554E+02
     21.411  0.3451E+00  0.1558E+02
     21.532  0.5749E+00  0.1565E+02
     21.652  0.4385E+00  0.1570E+02
     21.773  0.5386E+00  0.1577E+02
     21.893  0.6236E+00  0.1584E+02
     22.014  0.5847E+00  0.1591E+02
     22.134  0.5142E+00  0.1598E+02
     22.255  0.6742E+00  0.1606E+02
     22.375  0.9669E+00  0.1617E+02
     22.496  0.7267E+00  0.1626E+02
     22.616  0.4174E+00  0.1631E+02
     22.737  0.5913E+00  0.1638E+02
     22.857  0.6797E+00  0.1646E+02
     22.977  0.5540E+00  0.1653E+02
     23.098  0.3259E+00  0.1657E+02
     23.218  0.2189E+00  0.1660E+02
     23.339  0.3883E+00  0.1664E+02
     23.459  0.7234E+00  0.1673E+02
     23.580  0.5924E+00  0.1680E+02
     23.700  0.4511E+00  0.1686E+02
     23.821  0.7020E+00  0.1694E+02
     23.941  0.9722E+00  0.1706E+02
     24.062  0.8529E+00  0.1716E+02
     24.182  0.6921E+00  0.1724E+02
     24.302  0.3744E+00  0.1729E+02
     24.423  0.2737E+00  0.1732E+02
     24.543  0.3762E+00  0.1737E+02
     24.664  0.3404E+00  0.1741E+02
     24.784  0.2317E+00  0.1744E+02
     24.905  0.2104E+00  0.1746E+02
     25.025  0.4052E+00  0.1751E+02
     25.146  0.2236E+00  0.1754E+02
     25.266  0.2227E+00  0.1756E+02
     25.387  0.1824E+00  0.1759E+02
     25.507  0.2680E+00  0.1762E+02
     25.628  0.3754E+00  0.1766E+02
     25.748  0.2452E+00  0.1769E+02
     25.868  0.2704E+00  0.1773E+02
     25.989  0.1002E+00  0.1774E+02
     26.109  0.6410E-01  0.1775E+02
     26.230  0.6761E-01  0.1775E+02
     26.350  0.2019E+00  0.1778E+02
     26.471  0.1771E+00  0.1780E+02
     26.591  0.9791E-01  0.1781E+02
     26.712  0.1344E+00  0.1783E+02
     26.832  0.3601E+00  0.1787E+02
     26.953  0.3560E+00  0.1791E+02
     27.073  0.8475E-01  0.1792E+02
     27.193  0.1861E-01  0.1793E+02
     27.314  0.9923E-01  0.1794E+02
     27.434  0.1056E+00  0.1795E+02
     27.555  0.8808E-01  0.1796E+02
     27.675  0.5330E-01  0.1797E+02
     27.796  0.1323E+00  0.1798E+02
     27.916  0.6596E-01  0.1799E+02
     28.037  0.3542E-02  0.1799E+02
     28.157  0.1398E-03  0.1799E+02
     28.278  0.5373E-02  0.1799E+02
     28.398  0.2000E-01  0.1800E+02
     28.519  0.7464E-02  0.1800E+02
     28.639  0.2466E-03  0.1800E+02
     28.759  0.5802E-06  0.1800E+02
     28.880  0.9397E-06  0.1800E+02
     29.000  0.3341E-03  0.1800E+02
     29.121  0.8558E-02  0.1800E+02
     29.241  0.1969E-01  0.1800E+02
     29.362  0.4533E-02  0.1800E+02
     29.482  0.8804E-04  0.1800E+02
     29.603  0.1176E-06  0.1800E+02
     29.723  0.9697E-11  0.1800E+02
     29.844  0.4424E-16  0.1800E+02
     29.964  0.0000E+00  0.1800E+02
     30.084  0.0000E+00  0.1800E+02
     30.205  0.0000E+00  0.1800E+02
     30.325  0.0000E+00  0.1800E+02
     30.446  0.0000E+00  0.1800E+02
     30.566  0.0000E+00  0.1800E+02
     30.687  0.0000E+00  0.1800E+02
     30.807  0.0000E+00  0.1800E+02
     30.80721356     -5.33026999  301      7.48187322      1.00000000
     -5.330  0.0000E+00  0.0000E+00  0.0000E+00  0.0000E+00  0.0000E+00  0.0000E+00  0.0000E+00  0.0000E+00  0.0000E+00
     -5.210  0.0000E+00  0.0000E+00  0.0000E+00  0.0000E+00  0.0000E+00  0.0000E+00  0.0000E+00  0.0000E+00  0.0000E+00
     -5.089  0.0000E+00  0.0000E+00  0.0000E+00  0.0000E+00  0.0000E+00  0.0000E+00  0.0000E+00  0.0000E+00  0.0000E+00
     -4.969  0.0000E+00  0.0000E+00  0.0000E+00  0.0000E+00  0.0000E+00  0.0000E+00  0.0000E+00  0.0000E+00  0.0000E+00
     -4.848  0.0000E+00  0.0000E+00  0.0000E+00  0.0000E+00  0.0000E+00  0.0000E+00  0.0000E+00  0.0000E+00  0.0000E+00
     -4.728  0.0000E+00  0.0000E+00  0.0000E+00  0.0000E+00  0.0000E+00  0.0000E+00  0.0000E+00  0.0000E+00  0.0000E+00
     -4.608  0.0000E+00  0.0000E+00  0.0000E+00  0.0000E+00  0.0000E+00  0.0000E+00  0.0000E+00  0.0000E+00  0.0000E+00
     -4.487  0.0000E+00  0.0000E+00  0.0000E+00  0.0000E+00  0.0000E+00  0.0000E+00  0.0000E+00  0.0000E+00  0.0000E+00
     -4.367  0.0000E+00  0.0000E+00  0.0000E+00  0.0000E+00  0.0000E+00  0.0000E+00  0.0000E+00  0.0000E+00  0.0000E+00
     -4.246  0.3150E-16  0.7212E-19  0.7212E-19  0.7212E-19  0.1717E-20  0.1717E-20  0.5766E-32  0.1717E-20  0.3638E-31
     -4.126  0.6628E-11  0.1518E-13  0.1518E-13  0.1518E-13  0.3612E-15  0.3612E-15  0.1213E-26  0.3612E-15  0.7654E-26
     -4.005  0.8039E-07  0.1841E-09  0.1841E-09  0.1841E-09  0.4381E-11  0.4381E-11  0.2231E-20  0.4381E-11  0.6740E-20
     -3.885  0.6018E-04  0.1378E-06  0.1378E-06  0.1378E-06  0.3280E-08  0.3280E-08  0.6083E-15  0.3280E-08  0.1825E-14
     -3.764  0.3099E-02  0.7095E-05  0.7095E-05  0.7096E-05  0.1689E-06  0.1689E-06  0.1102E-10  0.1689E-06  0.3305E-10
     -3.644  0.1354E-01  0.3100E-04  0.3100E-04  0.3251E-04  0.7749E-06  0.7392E-06  0.1220E-07  0.7749E-06  0.3659E-07
     -3.523  0.1194E-01  0.2701E-04  0.2701E-04  0.1396E-03  0.3405E-05  0.7418E-06  0.9095E-06  0.3405E-05  0.2729E-05
     -3.403  0.3732E-01  0.8453E-04  0.8453E-04  0.7686E-03  0.1883E-04  0.2851E-05  0.5542E-05  0.1883E-04  0.1663E-04
     -3.282  0.2726E-01  0.1498E-03  0.1498E-03  0.4734E-03  0.1451E-04  0.2485E-04  0.3994E-05  0.1451E-04  0.1198E-04
     -3.162  0.3606E-01  0.7074E-03  0.7093E-03  0.1010E-03  0.2331E-04  0.1645E-03  0.5047E-05  0.2336E-04  0.1448E-04
     -3.042  0.2971E-01  0.5335E-03  0.7399E-03  0.9708E-04  0.2768E-04  0.1310E-03  0.2742E-04  0.3276E-04  0.9655E-05
     -2.921  0.4513E-01  0.3308E-03  0.2103E-02  0.3069E-03  0.7770E-04  0.1263E-03  0.2085E-03  0.1200E-03  0.9068E-06
     -2.801  0.4359E-01  0.3879E-03  0.1701E-02  0.7596E-03  0.1855E-03  0.9370E-04  0.1973E-03  0.1022E-03  0.2350E-04
     -2.680  0.7004E-01  0.1319E-02  0.2682E-03  0.3853E-02  0.9514E-03  0.8054E-04  0.1713E-03  0.1408E-03  0.1601E-03
     -2.560  0.5605E-01  0.1067E-02  0.2857E-03  0.3162E-02  0.8311E-03  0.1590E-03  0.1130E-03  0.2868E-03  0.1298E-03
     -2.439  0.4003E-01  0.7264E-03  0.6902E-03  0.2164E-02  0.7057E-03  0.3862E-03  0.3673E-04  0.6720E-03  0.8476E-04
     -2.319  0.3095E-01  0.8751E-03  0.1645E-02  0.7042E-03  0.2646E-03  0.6449E-03  0.2713E-03  0.2842E-03  0.6492E-04
     -2.198  0.7718E-01  0.2322E-02  0.6301E-02  0.2285E-03  0.2974E-03  0.1957E-02  0.1331E-02  0.3984E-03  0.1291E-03
     -2.078  0.8896E-01  0.2744E-02  0.7410E-02  0.5684E-03  0.1066E-02  0.3105E-02  0.1515E-02  0.1169E-02  0.9160E-04
     -1.957  0.9503E-01  0.2307E-02  0.9469E-02  0.5015E-03  0.8915E-03  0.3346E-02  0.2231E-02  0.1123E-02  0.4255E-04
     -1.837  0.5619E-01  0.1116E-02  0.5612E-02  0.8303E-03  0.1355E-02  0.2346E-02  0.1250E-02  0.1899E-02  0.7891E-05
     -1.717  0.4535E-01  0.1598E-02  0.2224E-02  0.2692E-02  0.2995E-02  0.1715E-02  0.5957E-03  0.1709E-02  0.1582E-03
     -1.596  0.1045E+00  0.4925E-02  0.7424E-03  0.1065E-01  0.1040E-01  0.2971E-02  0.1104E-02  0.3018E-02  0.7954E-03
     -1.476  0.1079E+00  0.3943E-02  0.4047E-02  0.8973E-02  0.1070E-01  0.5627E-02  0.3471E-02  0.5795E-02  0.6424E-03
     -1.355  0.7675E-01  0.1463E-02  0.8272E-02  0.3124E-02  0.6289E-02  0.6174E-02  0.6456E-02  0.5908E-02  0.2085E-03
     -1.235  0.1044E+00  0.3116E-02  0.1359E-01  0.2192E-02  0.9518E-02  0.1400E-01  0.9377E-02  0.9535E-02  0.8122E-03
     -1.114  0.1560E+00  0.6977E-02  0.1249E-01  0.5997E-02  0.3094E-01  0.4135E-01  0.5658E-02  0.3065E-01  0.3029E-02
     -0.994  0.1779E+00  0.6296E-02  0.1477E-01  0.4942E-02  0.6609E-01  0.7662E-01  0.8809E-02  0.6103E-01  0.1487E-02
     -0.873  0.2175E+00  0.6438E-02  0.2219E-01  0.5552E-02  0.8710E-01  0.9810E-01  0.5160E-01  0.7426E-01  0.6006E-03
     -0.753  0.1495E+00  0.4412E-02  0.1350E-01  0.5763E-02  0.7628E-01  0.7386E-01  0.1267E+00  0.5928E-01  0.7211E-03
     -0.632  0.1802E+00  0.5537E-02  0.1949E-01  0.9322E-02  0.1105E+00  0.8389E-01  0.2394E+00  0.6101E-01  0.2043E-02
     -0.512  0.2480E+00  0.8769E-02  0.2943E-01  0.1524E-01  0.1915E+00  0.1160E+00  0.3004E+00  0.7481E-01  0.4511E-02
     -0.391  0.2016E+00  0.1029E-01  0.2784E-01  0.1179E-01  0.2796E+00  0.8590E-01  0.3199E+00  0.5083E-01  0.5989E-02
     -0.271  0.2243E+00  0.1047E-01  0.3308E-01  0.1714E-01  0.5245E+00  0.1144E+00  0.4260E+00  0.6976E-01  0.1774E-01
     -0.151  0.1709E+00  0.9519E-02  0.2426E-01  0.1450E-01  0.5738E+00  0.1210E+00  0.3301E+00  0.6289E-01  0.1726E-01
     -0.030  0.1427E+00  0.1356E-01  0.2423E-01  0.1416E-01  0.5284E+00  0.1459E+00  0.2868E+00  0.4485E-01  0.2036E-01
      0.090  0.1522E+00  0.1705E-01  0.2686E-01  0.1957E-01  0.6388E+00  0.2245E+00  0.3700E+00  0.5031E-01  0.4863E-01
      0.211  0.9299E-01  0.1424E-01  0.1517E-01  0.1805E-01  0.5766E+00  0.1601E+00  0.2761E+00  0.3730E-01  0.4324E-01
      0.331  0.7203E-01  0.1854E-01  0.8212E-02  0.2367E-01  0.4437E+00  0.1280E+00  0.2085E+00  0.2110E-01  0.5735E-01
      0.452  0.7892E-01  0.2389E-01  0.1134E-01  0.2859E-01  0.5144E+00  0.1963E+00  0.2992E+00  0.2504E-01  0.9811E-01
      0.572  0.4067E-01  0.2263E-01  0.9083E-02  0.2656E-01  0.6244E+00  0.1176E+00  0.3202E+00  0.1779E-01  0.6203E-01
      0.693  0.2382E-01  0.1878E-01  0.1189E-01  0.1972E-01  0.3473E+00  0.1291E+00  0.1833E+00  0.1472E-01  0.3626E-01
      0.813  0.1500E-01  0.1900E-01  0.1279E-01  0.1472E-01  0.2614E+00  0.1930E+00  0.1684E+00  0.1817E-01  0.6668E-01
      0.934  0.1812E-01  0.3098E-01  0.1693E-01  0.2925E-01  0.4189E+00  0.2056E+00  0.3185E+00  0.3148E-01  0.1009E+00
      1.054  0.1945E-01  0.3323E-01  0.2394E-01  0.3688E-01  0.4943E+00  0.2493E+00  0.3289E+00  0.4750E-01  0.1009E+00
      1.174  0.1711E-01  0.3163E-01  0.2316E-01  0.2244E-01  0.3708E+00  0.2180E+00  0.3687E+00  0.7300E-01  0.1345E+00
      1.295  0.1629E-01  0.3242E-01  0.2354E-01  0.2286E-01  0.3555E+00  0.2757E+00  0.4431E+00  0.1478E+00  0.1425E+00
      1.415  0.2262E-01  0.2164E-01  0.2182E-01  0.2819E-01  0.3721E+00  0.2690E+00  0.3543E+00  0.1471E+00  0.1004E+00
      1.536  0.2200E-01  0.1423E-01  0.1833E-01  0.1804E-01  0.2893E+00  0.3309E+00  0.2898E+00  0.1224E+00  0.1169E+00
      1.656  0.2927E-01  0.2226E-01  0.2675E-01  0.2259E-01  0.2965E+00  0.4085E+00  0.3994E+00  0.1364E+00  0.1391E+00
      1.777  0.3746E-01  0.1956E-01  0.4456E-01  0.4255E-01  0.4318E+00  0.5215E+00  0.3513E+00  0.1508E+00  0.1457E+00
      1.897  0.3900E-01  0.1556E-01  0.4538E-01  0.3393E-01  0.3711E+00  0.5172E+00  0.2504E+00  0.9541E-01  0.1821E+00
      2.018  0.4466E-01  0.1808E-01  0.3700E-01  0.2580E-01  0.3717E+00  0.4100E+00  0.3964E+00  0.1226E+00  0.2229E+00
      2.138  0.4400E-01  0.2060E-01  0.4023E-01  0.2976E-01  0.3796E+00  0.3910E+00  0.4568E+00  0.2582E+00  0.2133E+00
      2.259  0.3501E-01  0.1996E-01  0.4882E-01  0.3032E-01  0.4019E+00  0.4727E+00  0.3260E+00  0.3250E+00  0.3019E+00
      2.379  0.4685E-01  0.2786E-01  0.7673E-01  0.4911E-01  0.6341E+00  0.7077E+00  0.3980E+00  0.5228E+00  0.3745E+00
      2.500  0.4161E-01  0.2108E-01  0.6245E-01  0.2839E-01  0.3491E+00  0.5626E+00  0.3062E+00  0.4217E+00  0.2514E+00
      2.620  0.4298E-01  0.1769E-01  0.6680E-01  0.1801E-01  0.1452E+00  0.4889E+00  0.2101E+00  0.3206E+00  0.2512E+00
      2.740  0.2995E-01  0.1008E-01  0.4176E-01  0.1110E-01  0.9961E-01  0.3036E+00  0.1892E+00  0.4167E+00  0.2747E+00
      2.861  0.2025E-01  0.1422E-01  0.3448E-01  0.1291E-01  0.1432E+00  0.1710E+00  0.1622E+00  0.2868E+00  0.2908E+00
      2.981  0.1429E-01  0.1747E-01  0.3736E-01  0.1933E-01  0.9435E-01  0.1837E+00  0.1293E+00  0.2306E+00  0.3005E+00
      3.102  0.2605E-01  0.1914E-01  0.4814E-01  0.2411E-01  0.6204E-01  0.2648E+00  0.1659E+00  0.3584E+00  0.4484E+00
      3.222  0.1836E-01  0.1213E-01  0.3349E-01  0.1514E-01  0.5503E-01  0.2007E+00  0.2009E+00  0.2675E+00  0.3579E+00
      3.343  0.1725E-01  0.1049E-01  0.3382E-01  0.1395E-01  0.7389E-01  0.1571E+00  0.3045E+00  0.1982E+00  0.4363E+00
      3.463  0.3187E-01  0.1598E-01  0.5716E-01  0.1965E-01  0.7740E-01  0.2487E+00  0.3661E+00  0.2626E+00  0.6066E+00
      3.584  0.2238E-01  0.9814E-02  0.4220E-01  0.1203E-01  0.5204E-01  0.2412E+00  0.3088E+00  0.3170E+00  0.6237E+00
      3.704  0.1888E-01  0.5210E-02  0.2203E-01  0.1069E-01  0.5797E-01  0.1612E+00  0.3683E+00  0.2798E+00  0.7732E+00
      3.825  0.1307E-01  0.7378E-02  0.1574E-01  0.1325E-01  0.3523E-01  0.8547E-01  0.2458E+00  0.1654E+00  0.6796E+00
      3.945  0.9171E-02  0.1600E-01  0.2006E-01  0.1824E-01  0.4295E-01  0.1107E+00  0.2262E+00  0.2282E+00  0.4766E+00
      4.065  0.1979E-01  0.1291E-01  0.2909E-01  0.1656E-01  0.7689E-01  0.1720E+00  0.2637E+00  0.4064E+00  0.6894E+00
      4.186  0.2481E-01  0.1183E-01  0.4012E-01  0.1363E-01  0.8795E-01  0.2054E+00  0.1865E+00  0.3599E+00  0.7228E+00
      4.306  0.1207E-01  0.4254E-02  0.1793E-01  0.3776E-02  0.4328E-01  0.1111E+00  0.7647E-01  0.1723E+00  0.4630E+00
      4.427  0.6486E-02  0.2462E-02  0.1235E-01  0.3034E-02  0.3591E-01  0.7301E-01  0.5806E-01  0.2315E+00  0.4090E+00
      4.547  0.7010E-02  0.4707E-02  0.2093E-01  0.6790E-02  0.1169E+00  0.1594E+00  0.1793E+00  0.4740E+00  0.5024E+00
      4.668  0.1429E-01  0.8947E-02  0.2676E-01  0.1002E-01  0.1273E+00  0.1799E+00  0.2226E+00  0.3874E+00  0.5754E+00
      4.788  0.1713E-01  0.5696E-02  0.1806E-01  0.7142E-02  0.7607E-01  0.1316E+00  0.1110E+00  0.3358E+00  0.3908E+00
      4.909  0.1084E-01  0.2992E-02  0.1206E-01  0.4666E-02  0.6622E-01  0.1499E+00  0.7324E-01  0.4661E+00  0.3947E+00
      5.029  0.1293E-01  0.4608E-02  0.1504E-01  0.5368E-02  0.1198E+00  0.2515E+00  0.1149E+00  0.7591E+00  0.5880E+00
      5.150  0.1702E-01  0.5252E-02  0.1375E-01  0.5833E-02  0.1230E+00  0.3223E+00  0.1331E+00  0.8296E+00  0.6046E+00
      5.270  0.9011E-02  0.3618E-02  0.7030E-02  0.6108E-02  0.1215E+00  0.2927E+00  0.1192E+00  0.8566E+00  0.5571E+00
      5.391  0.6860E-02  0.5299E-02  0.8777E-02  0.8178E-02  0.1255E+00  0.2732E+00  0.1029E+00  0.1080E+01  0.3541E+00
      5.511  0.8334E-02  0.4222E-02  0.6718E-02  0.7061E-02  0.9684E-01  0.2365E+00  0.7989E-01  0.8833E+00  0.1843E+00
      5.631  0.2721E-01  0.5925E-02  0.1376E-01  0.6899E-02  0.7710E-01  0.1896E+00  0.8152E-01  0.4733E+00  0.8437E-01
      5.752  0.5024E-01  0.1083E-01  0.2438E-01  0.1568E-01  0.1544E+00  0.1568E+00  0.1462E+00  0.4600E+00  0.5566E-01
      5.872  0.2495E-01  0.6686E-02  0.1427E-01  0.8221E-02  0.7013E-01  0.5451E-01  0.7030E-01  0.8170E-01  0.1857E-01
      5.993  0.7283E-02  0.1435E-02  0.5888E-02  0.1327E-02  0.4724E-02  0.1659E-01  0.1161E-01  0.1245E-01  0.2744E-02
      6.113  0.3195E-02  0.1393E-02  0.1873E-02  0.6597E-03  0.1883E-03  0.1498E-01  0.3236E-02  0.1328E-02  0.7231E-02
      6.234  0.7214E-02  0.3299E-02  0.4229E-02  0.1655E-02  0.7539E-03  0.3423E-01  0.8322E-02  0.9928E-03  0.1540E-01
      6.354  0.2425E-01  0.8752E-02  0.1568E-01  0.5076E-02  0.4104E-02  0.9210E-01  0.3284E-01  0.7334E-02  0.3010E-01
      6.475  0.4928E-01  0.1577E-01  0.2932E-01  0.7933E-02  0.5536E-02  0.1868E+00  0.5520E-01  0.1184E-01  0.6829E-01
      6.595  0.4768E-01  0.1617E-01  0.3742E-01  0.1026E-01  0.4257E-02  0.1730E+00  0.4466E-01  0.9367E-02  0.5778E-01
      6.716  0.3961E-01  0.8628E-02  0.4067E-01  0.5883E-02  0.3192E-02  0.1143E+00  0.3594E-01  0.1249E-01  0.1881E-01
      6.836  0.1478E-01  0.7365E-02  0.1728E-01  0.8278E-02  0.1629E-01  0.3191E-01  0.1992E-01  0.4191E-02  0.5356E-02
      6.956  0.9366E-02  0.1026E-01  0.1343E-01  0.1297E-01  0.2707E-01  0.7506E-02  0.2039E-01  0.4282E-02  0.3945E-02
      7.077  0.2457E-01  0.7371E-02  0.3114E-01  0.9455E-02  0.3017E-01  0.1739E-01  0.3112E-01  0.1671E-01  0.1329E-02
      7.197  0.4384E-01  0.1145E-01  0.3193E-01  0.1605E-01  0.8001E-01  0.1837E-01  0.5643E-01  0.1786E-01  0.1498E-02
      7.318  0.4908E-01  0.1044E-01  0.1133E-01  0.1671E-01  0.1107E+00  0.8941E-02  0.6191E-01  0.8897E-02  0.1202E-02
      7.438  0.3715E-01  0.6560E-02  0.2136E-02  0.1848E-01  0.8864E-01  0.1534E-02  0.3932E-01  0.2110E-02  0.3831E-02
      7.559  0.3448E-01  0.1081E-01  0.9076E-02  0.2424E-01  0.7345E-01  0.1231E-01  0.3307E-01  0.4390E-02  0.1053E-01
      7.679  0.3310E-01  0.1277E-01  0.3224E-01  0.1378E-01  0.1585E-01  0.6232E-01  0.2980E-01  0.8942E-02  0.1151E-01
      7.800  0.2879E-01  0.6483E-02  0.2863E-01  0.4699E-02  0.1801E-02  0.5938E-01  0.2389E-01  0.7734E-02  0.5279E-02
      7.920  0.9791E-02  0.3173E-02  0.1226E-01  0.4287E-02  0.2863E-02  0.1596E-01  0.6259E-02  0.5032E-02  0.4189E-02
      8.041  0.4965E-01  0.1358E-01  0.6249E-01  0.1346E-01  0.7212E-02  0.8321E-01  0.2557E-01  0.1876E-01  0.1865E-01
      8.161  0.6221E-01  0.1897E-01  0.5933E-01  0.1156E-01  0.4247E-02  0.1105E+00  0.2867E-01  0.1125E-01  0.2471E-01
      8.282  0.5131E-01  0.2283E-01  0.6528E-01  0.1686E-01  0.8233E-02  0.9439E-01  0.3534E-01  0.5599E-02  0.1803E-01
      8.402  0.4709E-01  0.1709E-01  0.5786E-01  0.1216E-01  0.3927E-02  0.8398E-01  0.3032E-01  0.5826E-02  0.1424E-01
      8.522  0.2265E-01  0.9350E-02  0.2165E-01  0.8316E-02  0.2349E-02  0.4051E-01  0.1646E-01  0.3975E-02  0.7155E-02
      8.643  0.3564E-01  0.4488E-02  0.2701E-01  0.1023E-01  0.8214E-02  0.4075E-01  0.1502E-01  0.1317E-01  0.7485E-02
      8.763  0.3395E-01  0.3160E-02  0.3179E-01  0.7718E-02  0.6448E-02  0.3771E-01  0.1427E-01  0.1561E-01  0.5629E-02
      8.884  0.1890E-01  0.2333E-02  0.1633E-01  0.1892E-02  0.1398E-02  0.2379E-01  0.9655E-02  0.5448E-02  0.1358E-02
      9.004  0.4104E-01  0.5846E-02  0.2053E-01  0.6414E-02  0.1811E-01  0.3211E-01  0.1725E-01  0.4990E-02  0.1691E-02
      9.125  0.6411E-01  0.1192E-01  0.3597E-01  0.1676E-01  0.4953E-01  0.3174E-01  0.2545E-01  0.2329E-02  0.1591E-02
      9.245  0.6324E-01  0.2289E-01  0.8017E-01  0.3054E-01  0.6292E-01  0.4224E-01  0.3868E-01  0.4527E-02  0.2445E-02
      9.366  0.3816E-01  0.1341E-01  0.7614E-01  0.1759E-01  0.2712E-01  0.4040E-01  0.2655E-01  0.1112E-01  0.1747E-02
      9.486  0.4537E-01  0.7166E-02  0.2395E-01  0.1839E-01  0.3133E-01  0.1974E-01  0.1775E-01  0.8424E-02  0.4008E-02
      9.607  0.3966E-01  0.4915E-02  0.2826E-01  0.1317E-01  0.2318E-01  0.2102E-01  0.1485E-01  0.9551E-02  0.2861E-02
      9.727  0.3786E-01  0.1047E-01  0.3693E-01  0.1931E-01  0.2473E-01  0.2284E-01  0.2153E-01  0.1365E-01  0.3509E-02
      9.847  0.3261E-01  0.7641E-02  0.1048E-01  0.1752E-01  0.2643E-01  0.7000E-02  0.1067E-01  0.5163E-02  0.4537E-02
      9.968  0.2931E-01  0.7233E-02  0.1936E-01  0.7229E-02  0.7587E-02  0.1841E-01  0.4494E-02  0.4278E-02  0.3786E-02
     10.088  0.3721E-01  0.1343E-01  0.5423E-01  0.2191E-01  0.1862E-01  0.3283E-01  0.1614E-01  0.1067E-01  0.7822E-02
     10.209  0.7953E-01  0.1336E-01  0.5291E-01  0.1099E-01  0.7859E-02  0.6270E-01  0.1825E-01  0.4328E-02  0.5412E-02
     10.329  0.5888E-01  0.8213E-02  0.2743E-01  0.2492E-02  0.4734E-03  0.4025E-01  0.9298E-02  0.4612E-02  0.2361E-02
     10.450  0.2898E-01  0.2627E-02  0.3431E-01  0.6453E-02  0.4989E-02  0.2321E-01  0.7827E-02  0.1036E-01  0.1657E-02
     10.570  0.7170E-01  0.7374E-02  0.7071E-01  0.2799E-01  0.2440E-01  0.5156E-01  0.1209E-01  0.1143E-01  0.7391E-02
     10.691  0.3845E-01  0.4459E-02  0.2655E-01  0.1402E-01  0.1194E-01  0.2342E-01  0.5943E-02  0.4842E-02  0.3752E-02
     10.811  0.5858E-02  0.4934E-03  0.2334E-02  0.8686E-03  0.9337E-03  0.2624E-02  0.8094E-03  0.2801E-03  0.1979E-03
     10.932  0.5686E-01  0.4125E-02  0.1563E-01  0.4876E-02  0.8943E-02  0.1759E-01  0.5899E-02  0.8648E-03  0.4438E-03
     11.052  0.9725E-01  0.7491E-02  0.3758E-01  0.1004E-01  0.1922E-01  0.2985E-01  0.8318E-02  0.6289E-02  0.8551E-03
     11.173  0.1229E+00  0.3763E-02  0.6547E-01  0.4375E-02  0.2109E-01  0.5175E-01  0.9752E-02  0.3189E-01  0.3288E-03
     11.293  0.2823E+00  0.6540E-02  0.4957E-01  0.5007E-02  0.4656E-01  0.8775E-01  0.1515E-01  0.6279E-01  0.6979E-03
     11.413  0.1866E+00  0.8834E-02  0.2834E-01  0.8348E-02  0.3200E-01  0.5488E-01  0.1087E-01  0.3795E-01  0.9533E-03
     11.534  0.7815E-01  0.1459E-01  0.1685E-01  0.2596E-01  0.3014E-01  0.7721E-02  0.7636E-02  0.4922E-02  0.4513E-02
     11.654  0.6844E-01  0.6149E-02  0.1961E-01  0.1625E-01  0.1916E-01  0.9963E-02  0.3602E-02  0.1932E-02  0.4631E-02
     11.775  0.5837E-01  0.2338E-02  0.4885E-01  0.3397E-02  0.6041E-02  0.2920E-01  0.5156E-02  0.4484E-02  0.8588E-03
     11.895  0.8901E-01  0.5077E-02  0.2739E-01  0.7755E-02  0.1483E-01  0.2616E-01  0.3758E-02  0.1432E-01  0.2340E-02
     12.016  0.1674E+00  0.1488E-01  0.2703E-01  0.3419E-01  0.4287E-01  0.3522E-01  0.6742E-02  0.3615E-01  0.1108E-01
     12.136  0.1246E+00  0.1760E-01  0.1559E-01  0.4333E-01  0.4771E-01  0.1482E-01  0.6017E-02  0.3024E-01  0.1163E-01
     12.257  0.1022E+00  0.1931E-01  0.2423E-01  0.3466E-01  0.4035E-01  0.1271E-01  0.5145E-02  0.2163E-01  0.5856E-02
     12.377  0.6915E-01  0.1513E-01  0.3772E-01  0.3850E-01  0.2900E-01  0.1074E-01  0.7835E-02  0.8083E-02  0.1086E-01
     12.498  0.6670E-01  0.7361E-02  0.1279E-01  0.2338E-01  0.1744E-01  0.3760E-02  0.2993E-02  0.1549E-02  0.8641E-02
     12.618  0.2858E-01  0.8064E-02  0.2033E-01  0.1114E-01  0.9275E-02  0.6472E-02  0.1112E-02  0.1473E-02  0.1508E-02
     12.738  0.2672E-01  0.8862E-02  0.4822E-01  0.1214E-01  0.6735E-02  0.2102E-01  0.5276E-02  0.6832E-02  0.1453E-02
     12.859  0.8420E-01  0.1823E-01  0.4926E-01  0.1744E-01  0.4940E-02  0.3380E-01  0.1830E-01  0.1721E-01  0.5562E-03
     12.979  0.1515E+00  0.2735E-01  0.4371E-01  0.2895E-01  0.1722E-01  0.3342E-01  0.1442E-01  0.1696E-01  0.9095E-03
     13.100  0.9921E-01  0.1855E-01  0.3077E-01  0.1987E-01  0.1724E-01  0.2422E-01  0.6536E-02  0.1631E-01  0.5592E-03
     13.220  0.8583E-01  0.2028E-01  0.6073E-01  0.2131E-01  0.2100E-01  0.3723E-01  0.1021E-01  0.3004E-01  0.6404E-03
     13.341  0.5226E-01  0.1175E-01  0.3363E-01  0.1140E-01  0.9864E-02  0.1851E-01  0.5203E-02  0.1272E-01  0.1555E-02
     13.461  0.7721E-01  0.1068E-01  0.3631E-01  0.9519E-02  0.4455E-02  0.1650E-01  0.5906E-02  0.2929E-02  0.5501E-02