    1    1    1    1
  0.1510406E+02  0.2774616E-09  0.2774616E-09  0.2774616E-09  0.5000000E-15
   1.0000000000000000E-004
  CAR 
 Au, FCC                                 
   11  110    9

  0.5000000E-01  0.5000000E-01  0.5000000E-01  0.2000000E-02
   1       -3.6877
   2        1.9201
   3        1.9935
   4        1.9935
   5        3.8154
   6        3.8154
   7       22.8809
   8       26.6548
   9       27.4765

  0.1500000E+00  0.5000000E-01  0.5000000E-01  0.6000000E-02
   1       -3.1813
   2        1.7305
   3        2.1604
   4        2.1983
   5        3.6286
   6        3.8743
   7       23.4297
   8       24.6167
   9       27.2709

  0.2500000E+00  0.5000000E-01  0.5000000E-01  0.6000000E-02
   1       -2.1063
   2        1.5866
   3        2.3377
   4        2.3662
   5        3.6357
   6        4.1332
   7       20.9492
   8       24.1307
   9       27.7802

  0.3500000E+00  0.5000000E-01  0.5000000E-01  0.6000000E-02
   1       -1.2168
   2        2.1190
   3        2.2201
   4        2.3765
   5        4.2341
   6        4.8254
   7       16.8825
   8       23.3389
   9       26.9135

  0.4500000E+00  0.5000000E-01  0.5000000E-01  0.6000000E-02
   1       -1.0466
   2        1.9297
   3        2.0152
   4        4.0959
   5        4.9714
   6        5.7853
   7       12.9496
   8       22.4130
   9       25.7995

 -0.4500000E+00  0.5000000E-01  0.5000000E-01  0.6000000E-02
   1       -1.0562
   2        1.8486
   3        1.9677
   4        4.6326
   5        5.3247
   6        6.5537
   7       11.2776
   8       22.1598
   9       25.8314

 -0.3500000E+00  0.5000000E-01  0.5000000E-01  0.6000000E-02
   1       -1.0594
   2        1.9667
   3        2.1021
   4        3.4485
   5        5.0730
   6        5.1666
   7       14.1693
   8       22.6764
   9       26.3464

 -0.2500000E+00  0.5000000E-01  0.5000000E-01  0.6000000E-02
   1       -1.4284
   2        1.8906
   3        2.2361
   4        2.3145
   5        4.1210
   6        4.4526
   7       18.2688
   8       23.7459
   9       27.4926

 -0.1500000E+00  0.5000000E-01  0.5000000E-01  0.6000000E-02
   1       -2.4967
   2        1.5727
   3        2.3302
   4        2.3463
   5        3.5830
   6        3.9818
   7       22.2086
   8       24.1399
   9       27.7359

 -0.5000000E-01  0.5000000E-01  0.5000000E-01  0.6000000E-02
   1       -3.4296
   2        1.7869
   3        2.1080
   4        2.1147
   5        3.6594
   6        3.8851
   7       23.2018
   8       25.7107
   9       27.3275

  0.1500000E+00  0.1500000E+00  0.5000000E-01  0.6000000E-02
   1       -2.9305
   2        1.5228
   3        2.3482
   4        2.3530
   5        3.3873
   6        4.0194
   7       23.7793
   8       24.8110
   9       26.8629

  0.2500000E+00  0.1500000E+00  0.5000000E-01  0.1200000E-01
   1       -2.0320
   2        1.2226
   3        2.4565
   4        2.6860
   5        3.3231
   6        4.2875
   7       22.4903
   8       24.2147
   9       26.2891

  0.3500000E+00  0.1500000E+00  0.5000000E-01  0.1200000E-01
   1       -0.9767
   2        1.3336
   3        2.0824
   4        2.6918
   5        4.1219
   6        4.9894
   7       18.5189
   8       23.6968
   9       25.2634

  0.4500000E+00  0.1500000E+00  0.5000000E-01  0.1200000E-01
   1       -0.6384
   2        1.7139
   3        2.3656
   4        2.5558
   5        5.0432
   6        6.3189
   7       14.3390
   8       22.8979
   9       24.1449

 -0.4500000E+00  0.1500000E+00  0.5000000E-01  0.1200000E-01
   1       -0.6392
   2        1.5596
   3        2.3250
   4        3.3948
   5        5.2655
   6        8.2275
   7       11.2195
   8       22.3841
   9       23.8246

 -0.3500000E+00  0.1500000E+00  0.5000000E-01  0.1200000E-01
   1       -0.6063
   2        1.6589
   3        2.3549
   4        3.0087
   5        4.8675
   6        7.1031
   7       13.1485
   8       22.3342
   9       23.9250

 -0.2500000E+00  0.1500000E+00  0.5000000E-01  0.1200000E-01
   1       -0.7375
   2        1.6739
   3        2.0166
   4        2.5854
   5        4.0172
   6        5.6318
   7       17.1316
   8       22.7797
   9       24.9959

 -0.1500000E+00  0.1500000E+00  0.5000000E-01  0.1200000E-01
   1       -1.6466
   2        1.2753
   3        2.3257
   4        2.7124
   5        3.3139
   6        4.6051
   7       21.0926
   8       23.4748
   9       26.7743

 -0.5000000E-01  0.1500000E+00  0.5000000E-01  0.1200000E-01
   1       -2.7014
   2        1.5276
   3        2.3493
   4        2.3631
   5        3.4364
   6        4.0291
   7       23.3797
   8       24.0082
   9       26.8872

  0.2500000E+00  0.2500000E+00  0.5000000E-01  0.6000000E-02
   1       -1.4476
   2        0.7926
   3        2.6348
   4        3.1462
   5        3.3766
   6        4.4365
   7       23.0769
   8       24.3654
   9       25.0255

  0.3500000E+00  0.2500000E+00  0.5000000E-01  0.1200000E-01
   1       -0.6253
   2        0.5253
   3        2.3294
   4        3.5647
   5        4.1658
   6        5.0172
   7       20.3234
   8       22.3647
   9       23.9111

  0.4500000E+00  0.2500000E+00  0.5000000E-01  0.1200000E-01
   1       -0.1929
   2        0.8321
   3        2.0447
   4        3.3975
   5        5.1543
   6        6.6452
   7       16.0068
   8       21.6837
   9       22.1129

 -0.4500000E+00  0.2500000E+00  0.5000000E-01  0.1200000E-01
   1       -0.0745
   2        1.1250
   3        2.2717
   4        3.1516
   5        5.3091
   6        9.3560
   7       12.1815
   8       20.3234
   9       22.2328

 -0.3500000E+00  0.2500000E+00  0.5000000E-01  0.1200000E-01
   1        0.1392
   2        1.2054
   3        2.2806
   4        3.0226
   5        4.8145
   6        9.1957
   7       12.8030
   8       19.1695
   9       23.4494

 -0.2500000E+00  0.2500000E+00  0.5000000E-01  0.1200000E-01
   1        0.2847
   2        1.3231
   3        1.6031
   4        3.1182
   5        3.9722
   6        7.2681
   7       16.3874
   8       19.1307
   9       24.4856

 -0.1500000E+00  0.2500000E+00  0.5000000E-01  0.1200000E-01
   1       -0.5259
   2        1.1845
   3        1.9838
   4        2.9785
   5        3.4853
   6        5.7453
   7       18.6159
   8       21.4919
   9       25.4305

 -0.5000000E-01  0.2500000E+00  0.5000000E-01  0.1200000E-01
   1       -1.5731
   2        1.4963
   3        2.2941
   4        2.4794
   5        3.7111
   6        4.5154
   7       19.7319
   8       24.0114
   9       26.7495

  0.3500000E+00  0.3500000E+00  0.5000000E-01  0.6000000E-02
   1       -0.5524
   2        0.0722
   3        3.3792
   4        4.2104
   5        4.7059
   6        4.9439
   7       20.2887
   8       21.1799
   9       21.6741

  0.4500000E+00  0.3500000E+00  0.5000000E-01  0.1200000E-01
   1       -0.4411
   2       -0.0546
   3        3.4360
   4        4.5688
   5        5.1717
   6        6.6670
   7       17.3379
   8       19.4504
   9       20.0660

 -0.4500000E+00  0.3500000E+00  0.5000000E-01  0.1200000E-01
   1       -0.2660
   2        0.3140
   3        3.0056
   4        4.1932
   5        5.4315
   6        9.6066
   7       13.7911
   8       17.7565
   9       20.1391

 -0.3500000E+00  0.3500000E+00  0.5000000E-01  0.1200000E-01
   1        0.0813
   2        0.9135
   3        2.3519
   4        3.7866
   5        5.0304
   6       10.9687
   7       13.1832
   8       15.9928
   9       21.6539

 -0.2500000E+00  0.3500000E+00  0.5000000E-01  0.1200000E-01
   1        0.4496
   2        1.2607
   3        1.7597
   4        3.3491
   5        4.5220
   6        9.0409
   7       14.7737
   8       17.0050
   9       23.5273

 -0.1500000E+00  0.3500000E+00  0.5000000E-01  0.1200000E-01
   1       -0.1828
   2        1.5374
   3        2.1303
   4        2.7529
   5        4.4117
   6        7.2232
   7       14.7292
   8       20.8871
   9       24.1080

 -0.5000000E-01  0.3500000E+00  0.5000000E-01  0.1200000E-01
   1       -0.9473
   2        1.9700
   3        2.2703
   4        2.5483
   5        4.5693
   6        5.4117
   7       15.5767
   8       23.0757
   9       25.5413

  0.4500000E+00  0.4500000E+00  0.5000000E-01  0.6000000E-02
   1       -0.7684
   2       -0.3994
   3        5.0177
   4        5.0497
   5        5.4703
   6        7.0642
   7       16.1053
   8       18.4955
   9       18.8118

 -0.4500000E+00  0.4500000E+00  0.5000000E-01  0.1200000E-01
   1       -0.6945
   2       -0.3372
   3        4.5393
   4        4.9843
   5        5.6543
   6        9.2599
   7       14.1200
   8       17.4239
   9       18.4037

 -0.3500000E+00  0.4500000E+00  0.5000000E-01  0.1200000E-01
   1       -0.3384
   2        0.2082
   3        3.3449
   4        4.4008
   5        5.4279
   6       11.0987
   7       12.9418
   8       16.2992
   9       19.7553

 -0.2500000E+00  0.4500000E+00  0.5000000E-01  0.1200000E-01
   1        0.0555
   2        0.9636
   3        2.3028
   4        3.5188
   5        5.1830
   6       11.1832
   7       11.4708
   8       18.1055
   9       21.8472

 -0.1500000E+00  0.4500000E+00  0.5000000E-01  0.1200000E-01
   1       -0.2739
   2        1.3456
   3        2.6428
   4        2.8479
   5        5.1084
   6        9.1976
   7       11.3319
   8       21.2137
   9       23.3517

 -0.5000000E-01  0.4500000E+00  0.5000000E-01  0.1200000E-01
   1       -0.9040
   2        1.7724
   3        2.1070
   4        3.8837
   5        5.2082
   6        6.8607
   7       11.9360
   8       22.3930
   9       24.9451

 -0.4500000E+00 -0.4500000E+00  0.5000000E-01  0.6000000E-02
   1       -0.8667
   2       -0.4994
   3        5.1945
   4        5.3833
   5        5.6702
   6        8.2796
   7       14.4496
   8       17.8975
   9       18.2644

 -0.3500000E+00 -0.4500000E+00  0.5000000E-01  0.1200000E-01
   1       -0.5936
   2       -0.2411
   3        4.1021
   4        4.8998
   5        5.4603
   6        8.0219
   7       15.6005
   8       18.1338
   9       18.9458

 -0.2500000E+00 -0.4500000E+00  0.5000000E-01  0.1200000E-01
   1       -0.1788
   2        0.5301
   3        2.5006
   4        3.8225
   5        5.3684
   6        8.0247
   7       14.8170
   8       19.7794
   9       20.8941

 -0.1500000E+00 -0.4500000E+00  0.5000000E-01  0.1200000E-01
   1       -0.3269
   2        1.4020
   3        2.3056
   4        2.7986
   5        5.2873
   6        7.6789
   7       13.1875
   8       22.2666
   9       22.8144

 -0.3500000E+00 -0.3500000E+00  0.5000000E-01  0.6000000E-02
   1       -0.6205
   2       -0.2048
   3        4.3019
   4        4.7108
   5        5.2016
   6        5.7153
   7       18.3268
   8       19.6869
   9       19.8242

 -0.2500000E+00 -0.3500000E+00  0.5000000E-01  0.1200000E-01
   1       -0.3696
   2        0.2081
   3        2.7338
   4        4.0799
   5        4.7600
   6        5.6316
   7       18.9174
   8       20.9074
   9       21.8984

 -0.1500000E+00 -0.3500000E+00  0.5000000E-01  0.1200000E-01
   1       -0.4588
   2        1.1252
   3        1.8935
   4        3.0047
   5        4.7165
   6        5.6267
   7       17.2688
   8       22.9262
   9       23.7792

 -0.2500000E+00 -0.2500000E+00  0.5000000E-01  0.6000000E-02
   1       -0.8009
   2        0.4131
   3        2.7422
   4        3.6635
   5        3.9580
   6        4.6873
   7       21.8443
   8       22.7458
   9       23.9111

 -0.1500000E+00 -0.2500000E+00  0.5000000E-01  0.1200000E-01
   1       -1.2691
   2        0.8741
   3        2.3496
   4        3.0916
   5        3.6044
   6        4.6137
   7       21.5079
   8       23.6565
   9       25.5361

 -0.1500000E+00 -0.1500000E+00  0.5000000E-01  0.6000000E-02
   1       -2.2346
   2        1.1762
   3        2.6332
   4        2.7013
   5        3.1394
   6        4.2079
   7       23.9050
   8       24.6575
   9       25.8200

  0.1500000E+00  0.1500000E+00  0.1500000E+00  0.2000000E-02
   1       -2.9473
   2        1.7101
   3        2.2189
   4        2.2189
   5        3.7530
   6        3.7530
   7       23.1985
   8       23.9767
   9       28.3463

  0.2500000E+00  0.1500000E+00  0.1500000E+00  0.6000000E-02
   1       -2.2601
   2        1.4593
   3        2.3682
   4        2.4672
   5        3.3673
   6        4.2242
   7       22.2146
   8       23.8853
   9       26.8649

  0.3500000E+00  0.1500000E+00  0.1500000E+00  0.6000000E-02
   1       -1.1214
   2        1.2711
   3        2.2247
   4        2.8030
   5        3.2564
   6        5.1218
   7       19.8115
   8       22.5655
   9       26.4196

  0.4500000E+00  0.1500000E+00  0.1500000E+00  0.6000000E-02
   1       -0.4702
   2        1.7292
   3        2.1532
   4        2.5489
   5        4.0803
   6        6.3628
   7       15.8719
   8       21.8338
   9       24.6439

 -0.4500000E+00  0.1500000E+00  0.1500000E+00  0.6000000E-02
   1       -0.4856
   2        1.5420
   3        2.4152
   4        3.1283
   5        4.9276
   6        8.0402
   7       12.1392
   8       21.7224
   9       24.0164

 -0.3500000E+00  0.1500000E+00  0.1500000E+00  0.6000000E-02
   1       -0.5349
   2        1.5063
   3        2.4759
   4        2.9378
   5        5.3639
   6        7.9692
   7       11.9473
   8       22.2826
   9       24.3919

 -0.2500000E+00  0.1500000E+00  0.1500000E+00  0.6000000E-02
   1       -0.5853
   2        1.6251
   3        1.9334
   4        2.6754
   5        5.1791
   6        5.6878
   7       15.7207
   8       23.3009
   9       24.2676

 -0.1500000E+00  0.1500000E+00  0.1500000E+00  0.6000000E-02
   1       -1.1643
   2        1.0334
   3        2.2327
   4        2.8430
   5        4.0300
   6        4.6198
   7       20.0247
   8       24.5291
   9       24.9493

  0.2500000E+00  0.2500000E+00  0.1500000E+00  0.6000000E-02
   1       -1.8719
   2        1.3266
   3        2.3849
   4        2.5532
   5        3.5946
   6        4.2833
   7       21.1399
   8       24.4382
   9       26.5222

  0.3500000E+00  0.2500000E+00  0.1500000E+00  0.1200000E-01
   1       -0.9417
   2        1.0192
   3        2.1096
   4        3.0530
   5        3.5701
   6        5.0959
   7       19.9817
   8       22.6111
   9       25.6052

  0.4500000E+00  0.2500000E+00  0.1500000E+00  0.1200000E-01
   1        0.0337
   2        1.0536
   3        1.6281
   4        3.3176
   5        3.9483
   6        6.4807
   7       17.4751
   8       20.3078
   9       24.1125

 -0.4500000E+00  0.2500000E+00  0.1500000E+00  0.1200000E-01
   1        0.1199
   2        1.2302
   3        2.0094
   4        3.0764
   5        4.8005
   6        8.3288
   7       13.7047
   8       19.9992
   9       22.7790

 -0.3500000E+00  0.2500000E+00  0.1500000E+00  0.1200000E-01
   1        0.0269
   2        1.1203
   3        2.4003
   4        2.9956
   5        5.1654
   6       10.0425
   7       11.2901
   8       20.6942
   9       21.7028

 -0.2500000E+00  0.2500000E+00  0.1500000E+00  0.1200000E-01
   1       -0.0207
   2        1.2316
   3        1.7497
   4        3.2338
   5        4.9515
   6        7.4920
   7       14.7552
   8       20.9254
   9       22.3310

 -0.1500000E+00  0.2500000E+00  0.1500000E+00  0.1200000E-01
   1       -0.3149
   2        0.7456
   3        1.9068
   4        3.4770
   5        4.0669
   6        5.7057
   7       18.8000
   8       21.4268
   9       23.9492

  0.3500000E+00  0.3500000E+00  0.1500000E+00  0.6000000E-02
   1       -0.5659
   2        0.7340
   3        2.1527
   4        3.2088
   5        4.8148
   6        4.9511
   7       18.7885
   8       23.3282
   9       23.7799

  0.4500000E+00  0.3500000E+00  0.1500000E+00  0.1200000E-01
   1       -0.0391
   2        0.4830
   3        2.0525
   4        3.9547
   5        4.6018
   6        6.5337
   7       17.5480
   8       20.1301
   9       22.0919

 -0.4500000E+00  0.3500000E+00  0.1500000E+00  0.1200000E-01
   1        0.3203
   2        0.6606
   3        1.7956
   4        4.0423
   5        4.9672
   6        8.6346
   7       15.4043
   8       17.9826
   9       20.5068

 -0.3500000E+00  0.3500000E+00  0.1500000E+00  0.1200000E-01
   1        0.5096
   2        0.8598
   3        1.8093
   4        3.6006
   5        5.2570
   6       11.2726
   7       12.3207
   8       17.6979
   9       19.8018

 -0.2500000E+00  0.3500000E+00  0.1500000E+00  0.1200000E-01
   1        0.7649
   2        0.9178
   3        1.3822
   4        3.6961
   5        4.9373
   6        9.4668
   7       14.7419
   8       17.0328
   9       20.8986

 -0.1500000E+00  0.3500000E+00  0.1500000E+00  0.1200000E-01
   1        0.3587
   2        0.8902
   3        1.4787
   4        3.7301
   5        4.4749
   6        7.4133
   7       16.3968
   8       19.1108
   9       22.3900

  0.4500000E+00  0.4500000E+00  0.1500000E+00  0.6000000E-02
   1       -0.3632
   2        0.1641
   3        3.1024
   4        4.0722
   5        5.4334
   6        7.1918
   7       16.0901
   8       19.7486
   9       20.6235

 -0.4500000E+00  0.4500000E+00  0.1500000E+00  0.1200000E-01
   1       -0.2702
   2        0.0699
   3        3.1305
   4        4.5766
   5        5.4146
   6        9.1200
   7       14.9623
   8       17.6377
   9       18.9253

 -0.3500000E+00  0.4500000E+00  0.1500000E+00  0.1200000E-01
   1        0.0255
   2        0.4374
   3        2.5820
   4        4.0698
   5        5.6477
   6       11.7142
   7       13.4207
   8       16.0639
   9       18.1619

 -0.2500000E+00  0.4500000E+00  0.1500000E+00  0.1200000E-01
   1        0.4267
   2        0.9844
   3        1.7591
   4        3.6762
   5        5.3737
   6       11.5428
   7       13.5202
   8       15.7858
   9       19.3948

 -0.1500000E+00  0.4500000E+00  0.1500000E+00  0.1200000E-01
   1        0.4077
   2        0.9329
   3        1.8965
   4        3.3917
   5        5.0753
   6        9.7388
   7       12.8342
   8       19.1030
   9       21.0109

 -0.4500000E+00 -0.4500000E+00  0.1500000E+00  0.6000000E-02
   1       -0.5801
   2       -0.1398
   3        4.1099
   4        4.7468
   5        5.5185
   6       10.0127
   7       13.6200
   8       16.7603
   9       19.2896

 -0.3500000E+00 -0.4500000E+00  0.1500000E+00  0.1200000E-01
   1       -0.3762
   2       -0.0185
   3        3.5381
   4        4.5702
   5        5.6493
   6       10.5111
   7       13.6845
   8       16.8405
   9       18.3175

 -0.2500000E+00 -0.4500000E+00  0.1500000E+00  0.1200000E-01
   1        0.1457
   2        0.5074
   3        2.2486
   4        4.1305
   5        5.3880
   6       10.1281
   7       14.4725
   8       16.9133
   9       18.9457

 -0.3500000E+00 -0.3500000E+00  0.1500000E+00  0.6000000E-02
   1       -0.4913
   2       -0.0372
   3        3.7291
   4        4.4761
   5        5.5207
   6        8.6793
   7       14.7754
   8       17.8697
   9       19.7477

 -0.2500000E+00 -0.3500000E+00  0.1500000E+00  0.1200000E-01
   1       -0.1105
   2        0.2444
   3        2.5597
   4        4.3735
   5        5.0493
   6        7.6870
   7       16.2733
   8       18.8530
   9       20.2516

 -0.2500000E+00 -0.2500000E+00  0.1500000E+00  0.6000000E-02
   1       -0.3164
   2        0.4376
   3        2.4690
   4        3.6306
   5        5.2355
   6        5.8774
   7       17.4479
   8       21.8469
   9       21.9019

  0.2500000E+00  0.2500000E+00  0.2500000E+00  0.2000000E-02
   1       -1.8172
   2        1.7796
   3        2.2948
   4        2.2948
   5        4.0269
   6        4.0269
   7       19.5834
   8       23.9766
   9       29.1646

  0.3500000E+00  0.2500000E+00  0.2500000E+00  0.6000000E-02
   1       -1.1763
   2        1.6366
   3        2.2274
   4        2.4613
   5        3.7356
   6        5.0125
   7       18.3997
   8       23.4437
   9       26.0548

  0.4500000E+00  0.2500000E+00  0.2500000E+00  0.6000000E-02
   1       -0.1004
   2        1.3010
   3        1.8769
   4        2.9191
   5        3.6185
   6        6.4658
   7       17.4211
   8       20.3166
   9       25.1862

 -0.4500000E+00  0.2500000E+00  0.2500000E+00  0.6000000E-02
   1        0.3961
   2        1.3884
   3        1.7232
   4        3.1122
   5        4.1712
   6        8.0905
   7       15.5134
   8       17.9893
   9       24.9752

 -0.3500000E+00  0.2500000E+00  0.2500000E+00  0.6000000E-02
   1        0.0860
   2        1.1617
   3        2.3125
   4        3.2003
   5        4.9856
   6       10.2021
   7       11.9784
   8       18.5400
   9       23.5540

 -0.2500000E+00  0.2500000E+00  0.2500000E+00  0.6000000E-02
   1       -0.1651
   2        0.8861
   3        2.3614
   4        3.3953
   5        5.4322
   6        8.6310
   7       13.3811
   8       20.0533
   9       22.0487

  0.3500000E+00  0.3500000E+00  0.2500000E+00  0.6000000E-02
   1       -0.9932
   2        1.8782
   3        2.0339
   4        2.4417
   5        4.6776
   6        4.8539
   7       16.9889
   8       23.5789
   9       25.7914

  0.4500000E+00  0.3500000E+00  0.2500000E+00  0.1200000E-01
   1       -0.3246
   2        1.6277
   3        1.6845
   4        2.8640
   5        4.5137
   6        6.4138
   7       15.9099
   8       21.9275
   9       23.8521

 -0.4500000E+00  0.3500000E+00  0.2500000E+00  0.1200000E-01
   1        0.6243
   2        1.1451
   3        1.3724
   4        3.4569
   5        4.4446
   6        8.2382
   7       15.5006
   8       18.0122
   9       22.8790

 -0.3500000E+00  0.3500000E+00  0.2500000E+00  0.1200000E-01
   1        0.4764
   2        1.0581
   3        1.7741
   4        3.5768
   5        4.9539
   6       10.2115
   7       14.0791
   8       16.2907
   9       21.3807

 -0.2500000E+00  0.3500000E+00  0.2500000E+00  0.1200000E-01
   1        0.0812
   2        0.7054
   3        2.2763
   4        3.8813
   5        5.3197
   6       10.5326
   7       12.9518
   8       17.7070
   9       20.0287

  0.4500000E+00  0.4500000E+00  0.2500000E+00  0.6000000E-02
   1       -0.2929
   2        1.2255
   3        2.0725
   4        3.0027
   5        5.3815
   6        7.0345
   7       14.4906
   8       22.0962
   9       23.0055

 -0.4500000E+00  0.4500000E+00  0.2500000E+00  0.1200000E-01
   1        0.1055
   2        0.9025
   3        1.9684
   4        3.6109
   5        5.2006
   6        8.9045
   7       13.7325
   8       19.6142
   9       20.8135

 -0.3500000E+00  0.4500000E+00  0.2500000E+00  0.1200000E-01
   1        0.5010
   2        1.0050
   3        1.5541
   4        3.7429
   5        5.3754
   6       10.9368
   7       14.1230
   8       16.1414
   9       19.1045

 -0.2500000E+00  0.4500000E+00  0.2500000E+00  0.1200000E-01
   1        0.3539
   2        1.0113
   3        1.7353
   4        3.6905
   5        5.6474
   6       12.3910
   7       13.7067
   8       15.1757
   9       18.0640

 -0.4500000E+00 -0.4500000E+00  0.2500000E+00  0.6000000E-02
   1       -0.1615
   2        0.6618
   3        2.6989
   4        3.8024
   5        5.3393
   6       10.3682
   7       12.5253
   8       17.8722
   9       21.4146

 -0.3500000E+00 -0.4500000E+00  0.2500000E+00  0.1200000E-01
   1        0.0238
   2        0.6243
   3        2.5139
   4        3.9802
   5        5.3868
   6       11.9178
   7       12.6653
   8       15.9449
   9       19.7008

 -0.3500000E+00 -0.3500000E+00  0.2500000E+00  0.6000000E-02
   1       -0.1925
   2        0.5575
   3        2.9269
   4        4.1139
   5        5.1894
   6       11.7141
   7       12.2858
   8       16.0386
   9       21.1012

  0.3500000E+00  0.3500000E+00  0.3500000E+00  0.2000000E-02
   1       -1.1860
   2        2.0982
   3        2.0982
   4        3.0966
   5        4.6981
   6        4.6981
   7       15.4658
   8       22.9169
   9       27.7499

  0.4500000E+00  0.3500000E+00  0.3500000E+00  0.6000000E-02
   1       -0.8197
   2        1.8714
   3        2.2289
   4        3.0083
   5        4.5635
   6        6.1430
   7       14.2994
   8       22.6782
   9       24.7459

 -0.4500000E+00  0.3500000E+00  0.3500000E+00  0.6000000E-02
   1       -0.0341
   2        1.4067
   3        2.3712
   4        2.7738
   5        4.5362
   6        8.1122
   7       13.7044
   8       19.9467
   9       24.4852

 -0.3500000E+00  0.3500000E+00  0.3500000E+00  0.6000000E-02
   1        0.2235
   2        1.1946
   3        2.0817
   4        3.5235
   5        4.7207
   6        9.9209
   7       14.0244
   8       16.3038
   9       23.4257

  0.4500000E+00  0.4500000E+00  0.3500000E+00  0.6000000E-02
   1       -0.8363
   2        1.7589
   3        2.2316
   4        3.2538
   5        5.3066
   6        6.3965
   7       12.9895
   8       22.6359
   9       25.2172

 -0.4500000E+00  0.4500000E+00  0.3500000E+00  0.1200000E-01
   1       -0.3155
   2        1.3831
   3        2.5700
   4        2.8036
   5        5.1202
   6        8.4204
   7       12.1283
   8       21.9468
   9       22.6855

 -0.3500000E+00  0.4500000E+00  0.3500000E+00  0.1200000E-01
   1        0.3444
   2        0.9732
   3        2.0721
   4        3.3346
   5        5.0693
   6       10.5481
   7       12.0297
   8       18.5259
   9       21.4774

 -0.4500000E+00 -0.4500000E+00  0.3500000E+00  0.6000000E-02
   1       -0.1987
   2        1.2766
   3        2.6165
   4        2.8139
   5        5.2422
   6        9.6815
   7       11.1610
   8       20.6902
   9       23.8557

  0.4500000E+00  0.4500000E+00  0.4500000E+00  0.2000000E-02
   1       -1.1273
   2        1.9264
   3        1.9264
   4        5.2400
   5        5.2400
   6        5.3474
   7       11.9118
   8       22.1508
   9       26.3372

 -0.4500000E+00  0.4500000E+00  0.4500000E+00  0.6000000E-02
   1       -0.8377
   2        1.7078
   3        2.1354
   4        3.9006
   5        5.2119
   6        7.5698
   7       11.2617
   8       22.3247
   9       24.6266
