       N       E                     dE             d eps       ncg     rms          rms(c)
DAV:   1     0.380865511001E+02    0.38087E+02   -0.48458E+03  2573   0.831E+02

DAV:   2    -0.265186916867E+01   -0.40738E+02   -0.36257E+02  2009   0.198E+02

DAV:   3    -0.310430636120E+01   -0.45244E+00   -0.45222E+00  2395   0.255E+01

DAV:   4    -0.310555742809E+01   -0.12511E-02   -0.12510E-02  2283   0.121E+00

DAV:   5    -0.310556661525E+01   -0.91872E-05   -0.91863E-05  2249   0.953E-02    0.292E+00
RMM:   6    -0.289204313701E+01    0.21352E+00   -0.30792E-01  1989   0.780E+00    0.923E-01
RMM:   7    -0.286287086248E+01    0.29172E-01   -0.38132E-02  2094   0.234E+00    0.252E-01
RMM:   8    -0.285810978590E+01    0.47611E-02   -0.14226E-03  2121   0.675E-01    0.103E-02
RMM:   9    -0.285811914198E+01   -0.93561E-05   -0.19249E-05  1273   0.610E-02

   1 F= -.28581191E+01 E0= -.28574784E+01  d E =-.128142E-02

