 vasp.4.6.26 15Dec04 complex 
 executed on             LinuxPgi date 2009.11.29  22:42:35
 serial version


--------------------------------------------------------------------------------------------------------


 INCAR:
 POTCAR:   PAW_GGA Au 18Jul2000                   
 POTCAR:   PAW_GGA Au 18Jul2000                   
  local pseudopotential read in
  partial core-charges read in
  atomic valenz-charges read in
  non local Contribution for L=                        2  read in
    real space projection operators read in
  non local Contribution for L=                        2  read in
    real space projection operators read in
  non local Contribution for L=                        0  read in
    real space projection operators read in
  non local Contribution for L=                        0  read in
    real space projection operators read in
  non local Contribution for L=                        1  read in
    real space projection operators read in
  non local Contribution for L=                        1  read in
    real space projection operators read in
    PAW grid and wavefunctions read in

   number of l-projection  operators is LMAX  =                        6
   number of lm-projection operators is LMMAX =                       18

 PAW_GGA Au 18Jul2000                   :
 energy of atom  1       EATOM= -927.0928
 kinetic energy error for atom=    0.0152 (will be added to EATOM!!)

 EXHCAR: internal setup
 exchange correlation table for  LEXCH =        7
   RHO(1)=    0.500       N(1)  =     2000
   RHO(2)=  100.500       N(2)  =     4000

 POSCAR: Pure FCC metal                          
  positions in direct lattice
  No initial velocities read in



--------------------------------------------------------------------------------------------------------


 ion  position               nearest neighbor table
   1  0.000  0.000  0.000-

  LATTYP: Found a face centered cubic cell.
 ALAT       =     3.9239000000
  
  Lattice vectors:
  
 A1 = (   0.0000000000,   1.9619500000,   1.9619500000)
 A2 = (   1.9619500000,   0.0000000000,   1.9619500000)
 A3 = (   1.9619500000,   1.9619500000,   0.0000000000)
 Subroutine PRICEL returns:
 Original cell was already a primitive cell.
 

Analysis of symmetry for initial positions (statically):

 Routine SETGRP: Setting up the symmetry group for a 
 face centered cubic supercell.


 Subroutine GETGRP returns: Found 48 space group operations
 (whereof 48 operations were pure point group operations)
 out of a pool of 48 trial point group operations.


The static configuration has the point symmetry O_h .

Analysis of symmetry for dynamics (positions and initial velocities):

 Subroutine DYNSYM returns: Found 48 space group operations
 (whereof 48 operations were pure point group operations)
 out of a pool of 48 trial space group operations
 (whereof 48 operations were pure point group operations)
 and found also     1 'primitive' translations


The dynamic configuration has the point symmetry O_h .


 KPOINTS: 10x10x10 title card                     

Automatic generation of k-mesh.
 
 Subroutine IBZKPT returns following result:
 ===========================================
 
 Found    110 irreducible k-points:
 
 Following reciprocal coordinates:
            Coordinates               Weight
  0.050000  0.050000  0.050000     96.000000
  0.150000  0.050000  0.050000    288.000000
  0.250000  0.050000  0.050000    288.000000
  0.350000  0.050000  0.050000    288.000000
  0.450000  0.050000  0.050000    288.000000
 -0.450000  0.050000  0.050000    288.000000
 -0.350000  0.050000  0.050000    288.000000
 -0.250000  0.050000  0.050000    288.000000
 -0.150000  0.050000  0.050000    288.000000
 -0.050000  0.050000  0.050000    288.000000
  0.150000  0.150000  0.050000    288.000000
  0.250000  0.150000  0.050000    576.000000
  0.350000  0.150000  0.050000    576.000000
  0.450000  0.150000  0.050000    576.000000
 -0.450000  0.150000  0.050000    576.000000
 -0.350000  0.150000  0.050000    576.000000
 -0.250000  0.150000  0.050000    576.000000
 -0.150000  0.150000  0.050000    576.000000
 -0.050000  0.150000  0.050000    576.000000
  0.250000  0.250000  0.050000    288.000000
  0.350000  0.250000  0.050000    576.000000
  0.450000  0.250000  0.050000    576.000000
 -0.450000  0.250000  0.050000    576.000000
 -0.350000  0.250000  0.050000    576.000000
 -0.250000  0.250000  0.050000    576.000000
 -0.150000  0.250000  0.050000    576.000000
 -0.050000  0.250000  0.050000    576.000000
  0.350000  0.350000  0.050000    288.000000
  0.450000  0.350000  0.050000    576.000000
 -0.450000  0.350000  0.050000    576.000000
 -0.350000  0.350000  0.050000    576.000000
 -0.250000  0.350000  0.050000    576.000000
 -0.150000  0.350000  0.050000    576.000000
 -0.050000  0.350000  0.050000    576.000000
  0.450000  0.450000  0.050000    288.000000
 -0.450000  0.450000  0.050000    576.000000
 -0.350000  0.450000  0.050000    576.000000
 -0.250000  0.450000  0.050000    576.000000
 -0.150000  0.450000  0.050000    576.000000
 -0.050000  0.450000  0.050000    576.000000
 -0.450000 -0.450000  0.050000    288.000000
 -0.350000 -0.450000  0.050000    576.000000
 -0.250000 -0.450000  0.050000    576.000000
 -0.150000 -0.450000  0.050000    576.000000
 -0.350000 -0.350000  0.050000    288.000000
 -0.250000 -0.350000  0.050000    576.000000
 -0.150000 -0.350000  0.050000    576.000000
 -0.250000 -0.250000  0.050000    288.000000
 -0.150000 -0.250000  0.050000    576.000000
 -0.150000 -0.150000  0.050000    288.000000
  0.150000  0.150000  0.150000     96.000000
  0.250000  0.150000  0.150000    288.000000
  0.350000  0.150000  0.150000    288.000000
  0.450000  0.150000  0.150000    288.000000
 -0.450000  0.150000  0.150000    288.000000
 -0.350000  0.150000  0.150000    288.000000
 -0.250000  0.150000  0.150000    288.000000
 -0.150000  0.150000  0.150000    288.000000
  0.250000  0.250000  0.150000    288.000000
  0.350000  0.250000  0.150000    576.000000
  0.450000  0.250000  0.150000    576.000000
 -0.450000  0.250000  0.150000    576.000000
 -0.350000  0.250000  0.150000    576.000000
 -0.250000  0.250000  0.150000    576.000000
 -0.150000  0.250000  0.150000    576.000000
  0.350000  0.350000  0.150000    288.000000
  0.450000  0.350000  0.150000    576.000000
 -0.450000  0.350000  0.150000    576.000000
 -0.350000  0.350000  0.150000    576.000000
 -0.250000  0.350000  0.150000    576.000000
 -0.150000  0.350000  0.150000    576.000000
  0.450000  0.450000  0.150000    288.000000
 -0.450000  0.450000  0.150000    576.000000
 -0.350000  0.450000  0.150000    576.000000
 -0.250000  0.450000  0.150000    576.000000
 -0.150000  0.450000  0.150000    576.000000
 -0.450000 -0.450000  0.150000    288.000000
 -0.350000 -0.450000  0.150000    576.000000
 -0.250000 -0.450000  0.150000    576.000000
 -0.350000 -0.350000  0.150000    288.000000
 -0.250000 -0.350000  0.150000    576.000000
 -0.250000 -0.250000  0.150000    288.000000
  0.250000  0.250000  0.250000     96.000000
  0.350000  0.250000  0.250000    288.000000
  0.450000  0.250000  0.250000    288.000000
 -0.450000  0.250000  0.250000    288.000000
 -0.350000  0.250000  0.250000    288.000000
 -0.250000  0.250000  0.250000    288.000000
  0.350000  0.350000  0.250000    288.000000
  0.450000  0.350000  0.250000    576.000000
 -0.450000  0.350000  0.250000    576.000000
 -0.350000  0.350000  0.250000    576.000000
 -0.250000  0.350000  0.250000    576.000000
  0.450000  0.450000  0.250000    288.000000
 -0.450000  0.450000  0.250000    576.000000
 -0.350000  0.450000  0.250000    576.000000
 -0.250000  0.450000  0.250000    576.000000
 -0.450000 -0.450000  0.250000    288.000000
 -0.350000 -0.450000  0.250000    576.000000
 -0.350000 -0.350000  0.250000    288.000000
  0.350000  0.350000  0.350000     96.000000
  0.450000  0.350000  0.350000    288.000000
 -0.450000  0.350000  0.350000    288.000000
 -0.350000  0.350000  0.350000    288.000000
  0.450000  0.450000  0.350000    288.000000
 -0.450000  0.450000  0.350000    576.000000
 -0.350000  0.450000  0.350000    576.000000
 -0.450000 -0.450000  0.350000    288.000000
  0.450000  0.450000  0.450000     96.000000
 -0.450000  0.450000  0.450000    288.000000
 
 Following cartesian coordinates:
            Coordinates               Weight
  0.050000  0.050000  0.050000     96.000000
 -0.050000  0.150000  0.150000    288.000000
 -0.150000  0.250000  0.250000    288.000000
 -0.250000  0.350000  0.350000    288.000000
 -0.350000  0.450000  0.450000    288.000000
  0.550000 -0.450000 -0.450000    288.000000
  0.450000 -0.350000 -0.350000    288.000000
  0.350000 -0.250000 -0.250000    288.000000
  0.250000 -0.150000 -0.150000    288.000000
  0.150000 -0.050000 -0.050000    288.000000
  0.050000  0.050000  0.250000    288.000000
 -0.050000  0.150000  0.350000    576.000000
 -0.150000  0.250000  0.450000    576.000000
 -0.250000  0.350000  0.550000    576.000000
  0.650000 -0.550000 -0.350000    576.000000
  0.550000 -0.450000 -0.250000    576.000000
  0.450000 -0.350000 -0.150000    576.000000
  0.350000 -0.250000 -0.050000    576.000000
  0.250000 -0.150000  0.050000    576.000000
  0.050000  0.050000  0.450000    288.000000
 -0.050000  0.150000  0.550000    576.000000
 -0.150000  0.250000  0.650000    576.000000
  0.750000 -0.650000 -0.250000    576.000000
  0.650000 -0.550000 -0.150000    576.000000
  0.550000 -0.450000 -0.050000    576.000000
  0.450000 -0.350000  0.050000    576.000000
  0.350000 -0.250000  0.150000    576.000000
  0.050000  0.050000  0.650000    288.000000
 -0.050000  0.150000  0.750000    576.000000
  0.850000 -0.750000 -0.150000    576.000000
  0.750000 -0.650000 -0.050000    576.000000
  0.650000 -0.550000  0.050000    576.000000
  0.550000 -0.450000  0.150000    576.000000
  0.450000 -0.350000  0.250000    576.000000
  0.050000  0.050000  0.850000    288.000000
  0.950000 -0.850000 -0.050000    576.000000
  0.850000 -0.750000  0.050000    576.000000
  0.750000 -0.650000  0.150000    576.000000
  0.650000 -0.550000  0.250000    576.000000
  0.550000 -0.450000  0.350000    576.000000
  0.050000  0.050000 -0.950000    288.000000
 -0.050000  0.150000 -0.850000    576.000000
 -0.150000  0.250000 -0.750000    576.000000
 -0.250000  0.350000 -0.650000    576.000000
  0.050000  0.050000 -0.750000    288.000000
 -0.050000  0.150000 -0.650000    576.000000
 -0.150000  0.250000 -0.550000    576.000000
  0.050000  0.050000 -0.550000    288.000000
 -0.050000  0.150000 -0.450000    576.000000
  0.050000  0.050000 -0.350000    288.000000
  0.150000  0.150000  0.150000     96.000000
  0.050000  0.250000  0.250000    288.000000
 -0.050000  0.350000  0.350000    288.000000
 -0.150000  0.450000  0.450000    288.000000
  0.750000 -0.450000 -0.450000    288.000000
  0.650000 -0.350000 -0.350000    288.000000
  0.550000 -0.250000 -0.250000    288.000000
  0.450000 -0.150000 -0.150000    288.000000
  0.150000  0.150000  0.350000    288.000000
  0.050000  0.250000  0.450000    576.000000
 -0.050000  0.350000  0.550000    576.000000
  0.850000 -0.550000 -0.350000    576.000000
  0.750000 -0.450000 -0.250000    576.000000
  0.650000 -0.350000 -0.150000    576.000000
  0.550000 -0.250000 -0.050000    576.000000
  0.150000  0.150000  0.550000    288.000000
  0.050000  0.250000  0.650000    576.000000
  0.950000 -0.650000 -0.250000    576.000000
  0.850000 -0.550000 -0.150000    576.000000
  0.750000 -0.450000 -0.050000    576.000000
  0.650000 -0.350000  0.050000    576.000000
  0.150000  0.150000  0.750000    288.000000
  1.050000 -0.750000 -0.150000    576.000000
  0.950000 -0.650000 -0.050000    576.000000
  0.850000 -0.550000  0.050000    576.000000
  0.750000 -0.450000  0.150000    576.000000
  0.150000  0.150000 -1.050000    288.000000
  0.050000  0.250000 -0.950000    576.000000
 -0.050000  0.350000 -0.850000    576.000000
  0.150000  0.150000 -0.850000    288.000000
  0.050000  0.250000 -0.750000    576.000000
  0.150000  0.150000 -0.650000    288.000000
  0.250000  0.250000  0.250000     96.000000
  0.150000  0.350000  0.350000    288.000000
  0.050000  0.450000  0.450000    288.000000
  0.950000 -0.450000 -0.450000    288.000000
  0.850000 -0.350000 -0.350000    288.000000
  0.750000 -0.250000 -0.250000    288.000000
  0.250000  0.250000  0.450000    288.000000
  0.150000  0.350000  0.550000    576.000000
  1.050000 -0.550000 -0.350000    576.000000
  0.950000 -0.450000 -0.250000    576.000000
  0.850000 -0.350000 -0.150000    576.000000
  0.250000  0.250000  0.650000    288.000000
  1.150000 -0.650000 -0.250000    576.000000
  1.050000 -0.550000 -0.150000    576.000000
  0.950000 -0.450000 -0.050000    576.000000
  0.250000  0.250000 -1.150000    288.000000
  0.150000  0.350000 -1.050000    576.000000
  0.250000  0.250000 -0.950000    288.000000
  0.350000  0.350000  0.350000     96.000000
  0.250000  0.450000  0.450000    288.000000
  1.150000 -0.450000 -0.450000    288.000000
  1.050000 -0.350000 -0.350000    288.000000
  0.350000  0.350000  0.550000    288.000000
  1.250000 -0.550000 -0.350000    576.000000
  1.150000 -0.450000 -0.250000    576.000000
  0.350000  0.350000 -1.250000    288.000000
  0.450000  0.450000  0.450000     96.000000
  1.350000 -0.450000 -0.450000    288.000000
 


--------------------------------------------------------------------------------------------------------




 Dimension of arrays:
   k-Points           NKPTS =    110   number of bands    NBANDS=      9
   number of dos      NEDOS =    301   number of ions     NIONS =      1
   non local maximal  LDIM  =      6   non local SUM 2l+1 LMDIM =     18
   total plane-waves  NPLWV =   2744
   max r-space proj   IRMAX =      1   max aug-charges    IRDMAX=  11308
   dimension x,y,z NGX =    14 NGY =   14 NGZ =   14
   dimension x,y,z NGXF=    28 NGYF=   28 NGZF=   28
   support grid    NGXF=    28 NGYF=   28 NGZF=   28
   ions per type =               1
 NGX,Y,Z   is equivalent  to a cutoff of   8.39,  8.39,  8.39 a.u.
 NGXF,Y,Z  is equivalent  to a cutoff of  16.78, 16.78, 16.78 a.u.


 I would recommend the setting:
   dimension x,y,z NGX =    13 NGY =   13 NGZ =   13
 SYSTEM =  Au, FCC                                 
 POSCAR =  Pure FCC metal                          

 Startparameter for this run:
   NWRITE =      1    write-flag & timer
   PREC   = normal    medium, high low
   ISTART =      0    job   : 0-new  1-cont  2-samecut
   ICHARG =      2    charge: 1-file 2-atom 10-const
   ISPIN  =      1    spin polarized calculation?
   LNONCOLLINEAR =      F non collinear calculations
   LSORBIT =      F    spin-orbit coupling
   INIWAV =      1    electr: 0-lowe 1-rand  2-diag
   LASPH  =      F    aspherical Exc in radial PAW
   METAGGA=      F    non-selfconsistent MetaGGA calc.

 Electronic Relaxation 1
   ENCUT  =  350.0 eV  25.72 Ry    5.07 a.u.   4.23  4.23  4.23*2*pi/ulx,y,z
   ENINI  =  350.0     initial cutoff
   ENAUG  =  356.7 eV  augmentation charge cutoff
   NELM   =     60;   NELMIN=  2; NELMDL= -5     # of ELM steps 
   EDIFF  = 0.1E-03   stopping-criterion for ELM
   LREAL  =      F    real-space projection
   LCOMPAT=      F    compatible to vasp.4.4
   LREAL_COMPAT= F    compatible to vasp.4.5.1-3
   GGA_COMPAT  = T    GGA compatible to vasp.4.4-vasp.4.6
   LMAXPAW     = -100 max onsite density
   LMAXMIX     =    2 max onsite mixed and CHGCAR
   VOSKOWN=      0    Vosko Wilk Nusair interpolation
   ROPT   =    0.00000
 Ionic relaxation
   EDIFFG = 0.1E-02   stopping-criterion for IOM
   NSW    =      0    number of steps for IOM
   NBLOCK =      1;   KBLOCK =      1    inner block; outer block 
   IBRION =     -1    ionic relax: 0-MD 1-quasi-New 2-CG
   NFREE  =      0    steps in history (QN), initial steepest desc. (CG)
   ISIF   =      2    stress and relaxation
   IWAVPR =      0    prediction:  0-non 1-charg 2-wave 3-comb
   ISYM   =      2    0-nonsym 1-usesym 2-fastsym
   LCORR  =      T    Harris-Foulkes like correction to forces

   POTIM  =   0.50    time-step for ionic-motion
   TEIN   =    0.0    initial temperature
   TEBEG  =    0.0;   TEEND  =   0.0 temperature during run
   SMASS  =  -3.00    Nose mass-parameter (am)
   estimated Nose-frequenzy (Omega)   =  0.10E-29 period in steps =****** mass=  -0.176E-27a.u.
   NPACO  =    256;   APACO  = 16.0  distance and # of slots for P.C.
   PSTRESS=    0.0 pullay stress

  Mass of Ions in am
   POMASS = 196.97
  Ionic Valenz
   ZVAL   =  11.00
  Atomic Wigner-Seitz radii
   RWIGS  =  -1.00
   NELECT =      11.0000    total number of electrons
   NUPDOWN=      -1.0000    fix difference up-down

 DOS related values:
   EMIN   =  10.00;   EMAX   =-10.00  energy-range for DOS
   ISMEAR =     0;   SIGMA  =   0.10  broadening in eV -4-tet -1-fermi 0-gaus

 Electronic relaxation 2 (details)
   IALGO  =     68    algorithm
   LDIAG  =      T    sub-space diagonalisation
   IMIX   =      4    mixing-type and parameters
     AMIX     =   0.40;   BMIX     =  1.00
     AMIX_MAG =   1.60;   BMIX_MAG =  1.00
     AMIN     =   0.10
     WC   =   100.;   INIMIX=   1;  MIXPRE=   1

 Intra band minimization:
   WEIMIN = 0.0000     energy-eigenvalue tresh-hold
   EBREAK =  0.28E-05  absolut break condition
   DEPER  =   0.30     relativ break condition  

   TIME   =   0.10     timestep for ELM

  volume/ion in A,a.u.               =      15.10       101.93
  Fermi-wavevector in a.u.,eV,Ry     =   1.472904 29.517110  2.169446

 Second variation
   LSECVAR=     F    do a second variation

 Write flags
   LWAVE  =      F    write WAVECAR
   LCHARG =      T    write CHGCAR
   LVTOT  =      F    write LOCPOT, local potential
   LELF   =      F    write electronic localiz. function (ELF)
   LORBIT =     11    0 simple, 1 ext, 2 COOP (PROOUT)


 Dipole corrections
   IDIPOL =      0    1-x, 2-y, 3-z
   LDIPOL =      F    correct potential



--------------------------------------------------------------------------------------------------------


 Static calculation
 charge density will be updated during run
 non-spin polarized calculation
 RMM-DIIS sequential band-by-band and
  variant of blocked Davidson during initial phase
 performe sub-space diagonalisation
    before iterative eigenvector-optimisation
 modified Broyden-mixing scheme, WC =      100.0
 initial mixing is a Kerker type mixing with AMIX =  0.4000 and BMIX =      1.0000
 Hartree-type preconditioning will be used
 using additional bands                         3
 reciprocal scheme for non local part
 use partial core corrections
 calculate Harris-corrections to forces 
   (improved forces if not selfconsistent)
 use gradient corrections 
 use of overlap-Matrix (Vanderbilt PP)
 Gauss-broadening in eV      SIGMA  =   0.10


--------------------------------------------------------------------------------------------------------


  energy-cutoff  :      350.00
  volume of cell :       15.10
      direct lattice vectors                 reciprocal lattice vectors
     0.000000000  1.961950000  1.961950000    -0.254848493  0.254848493  0.254848493
     1.961950000  0.000000000  1.961950000     0.254848493 -0.254848493  0.254848493
     1.961950000  1.961950000  0.000000000     0.254848493  0.254848493 -0.254848493

  length of vectors
     2.774616299  2.774616299  2.774616299     0.441410537  0.441410537  0.441410537



 k-points in units of 2pi/SCALE and weight: 10x10x10 title card                     
   0.05000000  0.05000000  0.05000000       0.002
  -0.05000000  0.15000000  0.15000000       0.006
  -0.15000000  0.25000000  0.25000000       0.006
  -0.25000000  0.35000000  0.35000000       0.006
  -0.35000000  0.45000000  0.45000000       0.006
   0.55000000 -0.45000000 -0.45000000       0.006
   0.45000000 -0.35000000 -0.35000000       0.006
   0.35000000 -0.25000000 -0.25000000       0.006
   0.25000000 -0.15000000 -0.15000000       0.006
   0.15000000 -0.05000000 -0.05000000       0.006
   0.05000000  0.05000000  0.25000000       0.006
  -0.05000000  0.15000000  0.35000000       0.012
  -0.15000000  0.25000000  0.45000000       0.012
  -0.25000000  0.35000000  0.55000000       0.012
   0.65000000 -0.55000000 -0.35000000       0.012
   0.55000000 -0.45000000 -0.25000000       0.012
   0.45000000 -0.35000000 -0.15000000       0.012
   0.35000000 -0.25000000 -0.05000000       0.012
   0.25000000 -0.15000000  0.05000000       0.012
   0.05000000  0.05000000  0.45000000       0.006
  -0.05000000  0.15000000  0.55000000       0.012
  -0.15000000  0.25000000  0.65000000       0.012
   0.75000000 -0.65000000 -0.25000000       0.012
   0.65000000 -0.55000000 -0.15000000       0.012
   0.55000000 -0.45000000 -0.05000000       0.012
   0.45000000 -0.35000000  0.05000000       0.012
   0.35000000 -0.25000000  0.15000000       0.012
   0.05000000  0.05000000  0.65000000       0.006
  -0.05000000  0.15000000  0.75000000       0.012
   0.85000000 -0.75000000 -0.15000000       0.012
   0.75000000 -0.65000000 -0.05000000       0.012
   0.65000000 -0.55000000  0.05000000       0.012
   0.55000000 -0.45000000  0.15000000       0.012
   0.45000000 -0.35000000  0.25000000       0.012
   0.05000000  0.05000000  0.85000000       0.006
   0.95000000 -0.85000000 -0.05000000       0.012
   0.85000000 -0.75000000  0.05000000       0.012
   0.75000000 -0.65000000  0.15000000       0.012
   0.65000000 -0.55000000  0.25000000       0.012
   0.55000000 -0.45000000  0.35000000       0.012
   0.05000000  0.05000000 -0.95000000       0.006
  -0.05000000  0.15000000 -0.85000000       0.012
  -0.15000000  0.25000000 -0.75000000       0.012
  -0.25000000  0.35000000 -0.65000000       0.012
   0.05000000  0.05000000 -0.75000000       0.006
  -0.05000000  0.15000000 -0.65000000       0.012
  -0.15000000  0.25000000 -0.55000000       0.012
   0.05000000  0.05000000 -0.55000000       0.006
  -0.05000000  0.15000000 -0.45000000       0.012
   0.05000000  0.05000000 -0.35000000       0.006
   0.15000000  0.15000000  0.15000000       0.002
   0.05000000  0.25000000  0.25000000       0.006
  -0.05000000  0.35000000  0.35000000       0.006
  -0.15000000  0.45000000  0.45000000       0.006
   0.75000000 -0.45000000 -0.45000000       0.006
   0.65000000 -0.35000000 -0.35000000       0.006
   0.55000000 -0.25000000 -0.25000000       0.006
   0.45000000 -0.15000000 -0.15000000       0.006
   0.15000000  0.15000000  0.35000000       0.006
   0.05000000  0.25000000  0.45000000       0.012
  -0.05000000  0.35000000  0.55000000       0.012
   0.85000000 -0.55000000 -0.35000000       0.012
   0.75000000 -0.45000000 -0.25000000       0.012
   0.65000000 -0.35000000 -0.15000000       0.012
   0.55000000 -0.25000000 -0.05000000       0.012
   0.15000000  0.15000000  0.55000000       0.006
   0.05000000  0.25000000  0.65000000       0.012
   0.95000000 -0.65000000 -0.25000000       0.012
   0.85000000 -0.55000000 -0.15000000       0.012
   0.75000000 -0.45000000 -0.05000000       0.012
   0.65000000 -0.35000000  0.05000000       0.012
   0.15000000  0.15000000  0.75000000       0.006
   1.05000000 -0.75000000 -0.15000000       0.012
   0.95000000 -0.65000000 -0.05000000       0.012
   0.85000000 -0.55000000  0.05000000       0.012
   0.75000000 -0.45000000  0.15000000       0.012
   0.15000000  0.15000000 -1.05000000       0.006
   0.05000000  0.25000000 -0.95000000       0.012
  -0.05000000  0.35000000 -0.85000000       0.012
   0.15000000  0.15000000 -0.85000000       0.006
   0.05000000  0.25000000 -0.75000000       0.012
   0.15000000  0.15000000 -0.65000000       0.006
   0.25000000  0.25000000  0.25000000       0.002
   0.15000000  0.35000000  0.35000000       0.006
   0.05000000  0.45000000  0.45000000       0.006
   0.95000000 -0.45000000 -0.45000000       0.006
   0.85000000 -0.35000000 -0.35000000       0.006
   0.75000000 -0.25000000 -0.25000000       0.006
   0.25000000  0.25000000  0.45000000       0.006
   0.15000000  0.35000000  0.55000000       0.012
   1.05000000 -0.55000000 -0.35000000       0.012
   0.95000000 -0.45000000 -0.25000000       0.012
   0.85000000 -0.35000000 -0.15000000       0.012
   0.25000000  0.25000000  0.65000000       0.006
   1.15000000 -0.65000000 -0.25000000       0.012
   1.05000000 -0.55000000 -0.15000000       0.012
   0.95000000 -0.45000000 -0.05000000       0.012
   0.25000000  0.25000000 -1.15000000       0.006
   0.15000000  0.35000000 -1.05000000       0.012
   0.25000000  0.25000000 -0.95000000       0.006
   0.35000000  0.35000000  0.35000000       0.002
   0.25000000  0.45000000  0.45000000       0.006
   1.15000000 -0.45000000 -0.45000000       0.006
   1.05000000 -0.35000000 -0.35000000       0.006
   0.35000000  0.35000000  0.55000000       0.006
   1.25000000 -0.55000000 -0.35000000       0.012
   1.15000000 -0.45000000 -0.25000000       0.012
   0.35000000  0.35000000 -1.25000000       0.006
   0.45000000  0.45000000  0.45000000       0.002
   1.35000000 -0.45000000 -0.45000000       0.006

 k-points in reciprocal lattice and weights: 10x10x10 title card                     
   0.05000000  0.05000000  0.05000000       0.002
   0.15000000  0.05000000  0.05000000       0.006
   0.25000000  0.05000000  0.05000000       0.006
   0.35000000  0.05000000  0.05000000       0.006
   0.45000000  0.05000000  0.05000000       0.006
  -0.45000000  0.05000000  0.05000000       0.006
  -0.35000000  0.05000000  0.05000000       0.006
  -0.25000000  0.05000000  0.05000000       0.006
  -0.15000000  0.05000000  0.05000000       0.006
  -0.05000000  0.05000000  0.05000000       0.006
   0.15000000  0.15000000  0.05000000       0.006
   0.25000000  0.15000000  0.05000000       0.012
   0.35000000  0.15000000  0.05000000       0.012
   0.45000000  0.15000000  0.05000000       0.012
  -0.45000000  0.15000000  0.05000000       0.012
  -0.35000000  0.15000000  0.05000000       0.012
  -0.25000000  0.15000000  0.05000000       0.012
  -0.15000000  0.15000000  0.05000000       0.012
  -0.05000000  0.15000000  0.05000000       0.012
   0.25000000  0.25000000  0.05000000       0.006
   0.35000000  0.25000000  0.05000000       0.012
   0.45000000  0.25000000  0.05000000       0.012
  -0.45000000  0.25000000  0.05000000       0.012
  -0.35000000  0.25000000  0.05000000       0.012
  -0.25000000  0.25000000  0.05000000       0.012
  -0.15000000  0.25000000  0.05000000       0.012
  -0.05000000  0.25000000  0.05000000       0.012
   0.35000000  0.35000000  0.05000000       0.006
   0.45000000  0.35000000  0.05000000       0.012
  -0.45000000  0.35000000  0.05000000       0.012
  -0.35000000  0.35000000  0.05000000       0.012
  -0.25000000  0.35000000  0.05000000       0.012
  -0.15000000  0.35000000  0.05000000       0.012
  -0.05000000  0.35000000  0.05000000       0.012
   0.45000000  0.45000000  0.05000000       0.006
  -0.45000000  0.45000000  0.05000000       0.012
  -0.35000000  0.45000000  0.05000000       0.012
  -0.25000000  0.45000000  0.05000000       0.012
  -0.15000000  0.45000000  0.05000000       0.012
  -0.05000000  0.45000000  0.05000000       0.012
  -0.45000000 -0.45000000  0.05000000       0.006
  -0.35000000 -0.45000000  0.05000000       0.012
  -0.25000000 -0.45000000  0.05000000       0.012
  -0.15000000 -0.45000000  0.05000000       0.012
  -0.35000000 -0.35000000  0.05000000       0.006
  -0.25000000 -0.35000000  0.05000000       0.012
  -0.15000000 -0.35000000  0.05000000       0.012
  -0.25000000 -0.25000000  0.05000000       0.006
  -0.15000000 -0.25000000  0.05000000       0.012
  -0.15000000 -0.15000000  0.05000000       0.006
   0.15000000  0.15000000  0.15000000       0.002
   0.25000000  0.15000000  0.15000000       0.006
   0.35000000  0.15000000  0.15000000       0.006
   0.45000000  0.15000000  0.15000000       0.006
  -0.45000000  0.15000000  0.15000000       0.006
  -0.35000000  0.15000000  0.15000000       0.006
  -0.25000000  0.15000000  0.15000000       0.006
  -0.15000000  0.15000000  0.15000000       0.006
   0.25000000  0.25000000  0.15000000       0.006
   0.35000000  0.25000000  0.15000000       0.012
   0.45000000  0.25000000  0.15000000       0.012
  -0.45000000  0.25000000  0.15000000       0.012
  -0.35000000  0.25000000  0.15000000       0.012
  -0.25000000  0.25000000  0.15000000       0.012
  -0.15000000  0.25000000  0.15000000       0.012
   0.35000000  0.35000000  0.15000000       0.006
   0.45000000  0.35000000  0.15000000       0.012
  -0.45000000  0.35000000  0.15000000       0.012
  -0.35000000  0.35000000  0.15000000       0.012
  -0.25000000  0.35000000  0.15000000       0.012
  -0.15000000  0.35000000  0.15000000       0.012
   0.45000000  0.45000000  0.15000000       0.006
  -0.45000000  0.45000000  0.15000000       0.012
  -0.35000000  0.45000000  0.15000000       0.012
  -0.25000000  0.45000000  0.15000000       0.012
  -0.15000000  0.45000000  0.15000000       0.012
  -0.45000000 -0.45000000  0.15000000       0.006
  -0.35000000 -0.45000000  0.15000000       0.012
  -0.25000000 -0.45000000  0.15000000       0.012
  -0.35000000 -0.35000000  0.15000000       0.006
  -0.25000000 -0.35000000  0.15000000       0.012
  -0.25000000 -0.25000000  0.15000000       0.006
   0.25000000  0.25000000  0.25000000       0.002
   0.35000000  0.25000000  0.25000000       0.006
   0.45000000  0.25000000  0.25000000       0.006
  -0.45000000  0.25000000  0.25000000       0.006
  -0.35000000  0.25000000  0.25000000       0.006
  -0.25000000  0.25000000  0.25000000       0.006
   0.35000000  0.35000000  0.25000000       0.006
   0.45000000  0.35000000  0.25000000       0.012
  -0.45000000  0.35000000  0.25000000       0.012
  -0.35000000  0.35000000  0.25000000       0.012
  -0.25000000  0.35000000  0.25000000       0.012
   0.45000000  0.45000000  0.25000000       0.006
  -0.45000000  0.45000000  0.25000000       0.012
  -0.35000000  0.45000000  0.25000000       0.012
  -0.25000000  0.45000000  0.25000000       0.012
  -0.45000000 -0.45000000  0.25000000       0.006
  -0.35000000 -0.45000000  0.25000000       0.012
  -0.35000000 -0.35000000  0.25000000       0.006
   0.35000000  0.35000000  0.35000000       0.002
   0.45000000  0.35000000  0.35000000       0.006
  -0.45000000  0.35000000  0.35000000       0.006
  -0.35000000  0.35000000  0.35000000       0.006
   0.45000000  0.45000000  0.35000000       0.006
  -0.45000000  0.45000000  0.35000000       0.012
  -0.35000000  0.45000000  0.35000000       0.012
  -0.45000000 -0.45000000  0.35000000       0.006
   0.45000000  0.45000000  0.45000000       0.002
  -0.45000000  0.45000000  0.45000000       0.006

 position of ions in fractional coordinates (direct lattice) 
   0.00000000  0.00000000  0.00000000

 position of ions in cartesian coordinates  (Angst):
   0.00000000  0.00000000  0.00000000



--------------------------------------------------------------------------------------------------------


 k-point  1 :  0.05000.05000.0500  plane waves:    238
 k-point  2 :  0.15000.05000.0500  plane waves:    224
 k-point  3 :  0.25000.05000.0500  plane waves:    221
 k-point  4 :  0.35000.05000.0500  plane waves:    223
 k-point  5 :  0.45000.05000.0500  plane waves:    228
 k-point  6 :  -.45000.05000.0500  plane waves:    228
 k-point  7 :  -.35000.05000.0500  plane waves:    226
 k-point  8 :  -.25000.05000.0500  plane waves:    221
 k-point  9 :  -.15000.05000.0500  plane waves:    224
 k-point 10 :  -.05000.05000.0500  plane waves:    230
 k-point 11 :  0.15000.15000.0500  plane waves:    225
 k-point 12 :  0.25000.15000.0500  plane waves:    223
 k-point 13 :  0.35000.15000.0500  plane waves:    224
 k-point 14 :  0.45000.15000.0500  plane waves:    229
 k-point 15 :  -.45000.15000.0500  plane waves:    226
 k-point 16 :  -.35000.15000.0500  plane waves:    227
 k-point 17 :  -.25000.15000.0500  plane waves:    221
 k-point 18 :  -.15000.15000.0500  plane waves:    224
 k-point 19 :  -.05000.15000.0500  plane waves:    224
 k-point 20 :  0.25000.25000.0500  plane waves:    224
 k-point 21 :  0.35000.25000.0500  plane waves:    223
 k-point 22 :  0.45000.25000.0500  plane waves:    224
 k-point 23 :  -.45000.25000.0500  plane waves:    226
 k-point 24 :  -.35000.25000.0500  plane waves:    227
 k-point 25 :  -.25000.25000.0500  plane waves:    224
 k-point 26 :  -.15000.25000.0500  plane waves:    222
 k-point 27 :  -.05000.25000.0500  plane waves:    222
 k-point 28 :  0.35000.35000.0500  plane waves:    220
 k-point 29 :  0.45000.35000.0500  plane waves:    225
 k-point 30 :  -.45000.35000.0500  plane waves:    224
 k-point 31 :  -.35000.35000.0500  plane waves:    222
 k-point 32 :  -.25000.35000.0500  plane waves:    228
 k-point 33 :  -.15000.35000.0500  plane waves:    226
 k-point 34 :  -.05000.35000.0500  plane waves:    223
 k-point 35 :  0.45000.45000.0500  plane waves:    222
 k-point 36 :  -.45000.45000.0500  plane waves:    224
 k-point 37 :  -.35000.45000.0500  plane waves:    224
 k-point 38 :  -.25000.45000.0500  plane waves:    225
 k-point 39 :  -.15000.45000.0500  plane waves:    228
 k-point 40 :  -.05000.45000.0500  plane waves:    228
 k-point 41 :  -.4500-.45000.0500  plane waves:    222
 k-point 42 :  -.3500-.45000.0500  plane waves:    222
 k-point 43 :  -.2500-.45000.0500  plane waves:    224
 k-point 44 :  -.1500-.45000.0500  plane waves:    229
 k-point 45 :  -.3500-.35000.0500  plane waves:    222
 k-point 46 :  -.2500-.35000.0500  plane waves:    222
 k-point 47 :  -.1500-.35000.0500  plane waves:    224
 k-point 48 :  -.2500-.25000.0500  plane waves:    222
 k-point 49 :  -.1500-.25000.0500  plane waves:    224
 k-point 50 :  -.1500-.15000.0500  plane waves:    226
 k-point 51 :  0.15000.15000.1500  plane waves:    226
 k-point 52 :  0.25000.15000.1500  plane waves:    219
 k-point 53 :  0.35000.15000.1500  plane waves:    219
 k-point 54 :  0.45000.15000.1500  plane waves:    227
 k-point 55 :  -.45000.15000.1500  plane waves:    228
 k-point 56 :  -.35000.15000.1500  plane waves:    231
 k-point 57 :  -.25000.15000.1500  plane waves:    229
 k-point 58 :  -.15000.15000.1500  plane waves:    224
 k-point 59 :  0.25000.25000.1500  plane waves:    224
 k-point 60 :  0.35000.25000.1500  plane waves:    224
 k-point 61 :  0.45000.25000.1500  plane waves:    224
 k-point 62 :  -.45000.25000.1500  plane waves:    228
 k-point 63 :  -.35000.25000.1500  plane waves:    228
 k-point 64 :  -.25000.25000.1500  plane waves:    226
 k-point 65 :  -.15000.25000.1500  plane waves:    222
 k-point 66 :  0.35000.35000.1500  plane waves:    221
 k-point 67 :  0.45000.35000.1500  plane waves:    224
 k-point 68 :  -.45000.35000.1500  plane waves:    222
 k-point 69 :  -.35000.35000.1500  plane waves:    225
 k-point 70 :  -.25000.35000.1500  plane waves:    224
 k-point 71 :  -.15000.35000.1500  plane waves:    223
 k-point 72 :  0.45000.45000.1500  plane waves:    225
 k-point 73 :  -.45000.45000.1500  plane waves:    223
 k-point 74 :  -.35000.45000.1500  plane waves:    222
 k-point 75 :  -.25000.45000.1500  plane waves:    225
 k-point 76 :  -.15000.45000.1500  plane waves:    226
 k-point 77 :  -.4500-.45000.1500  plane waves:    225
 k-point 78 :  -.3500-.45000.1500  plane waves:    223
 k-point 79 :  -.2500-.45000.1500  plane waves:    221
 k-point 80 :  -.3500-.35000.1500  plane waves:    226
 k-point 81 :  -.2500-.35000.1500  plane waves:    223
 k-point 82 :  -.2500-.25000.1500  plane waves:    221
 k-point 83 :  0.25000.25000.2500  plane waves:    223
 k-point 84 :  0.35000.25000.2500  plane waves:    221
 k-point 85 :  0.45000.25000.2500  plane waves:    221
 k-point 86 :  -.45000.25000.2500  plane waves:    224
 k-point 87 :  -.35000.25000.2500  plane waves:    227
 k-point 88 :  -.25000.25000.2500  plane waves:    226
 k-point 89 :  0.35000.35000.2500  plane waves:    226
 k-point 90 :  0.45000.35000.2500  plane waves:    225
 k-point 91 :  -.45000.35000.2500  plane waves:    227
 k-point 92 :  -.35000.35000.2500  plane waves:    226
 k-point 93 :  -.25000.35000.2500  plane waves:    223
 k-point 94 :  0.45000.45000.2500  plane waves:    227
 k-point 95 :  -.45000.45000.2500  plane waves:    225
 k-point 96 :  -.35000.45000.2500  plane waves:    222
 k-point 97 :  -.25000.45000.2500  plane waves:    221
 k-point 98 :  -.4500-.45000.2500  plane waves:    224
 k-point 99 :  -.3500-.45000.2500  plane waves:    225
 k-point ** :  -.3500-.35000.2500  plane waves:    224
 k-point ** :  0.35000.35000.3500  plane waves:    226
 k-point ** :  0.45000.35000.3500  plane waves:    224
 k-point ** :  -.45000.35000.3500  plane waves:    228
 k-point ** :  -.35000.35000.3500  plane waves:    228
 k-point ** :  0.45000.45000.3500  plane waves:    227
 k-point ** :  -.45000.45000.3500  plane waves:    228
 k-point ** :  -.35000.45000.3500  plane waves:    225
 k-point ** :  -.4500-.45000.3500  plane waves:    227
 k-point ** :  0.45000.45000.4500  plane waves:    229
 k-point ** :  -.45000.45000.4500  plane waves:    227

 maximum number of plane-waves:    238
 maximal index in each direction: 
   IXMAX=  4   IYMAX=  4   IZMAX=  4
   IXMIN= -4   IYMIN= -4   IZMIN= -4

 WARNING: wrap around error must be expected set NGX to  18
 WARNING: wrap around error must be expected set NGY to  18
 WARNING: wrap around error must be expected set NGZ to  18
 For storing wavefunctions    3.56 MBYTES are necessary
 For predicting wavefunctions    0.28 MBYTES are necessary
Broyden mixing: mesh for mixing (old mesh)
   NGX =  9   NGY =  9   NGZ =  9
  (NGX  = 28   NGY  = 28   NGZ  = 28)
 gives a total of    729 points
 initial charge density was supplied:
 charge density of overlapping atoms calculated
 number of electron   11.0000000 magnetization 
 keeping initial charge density in first step


--------------------------------------------------------------------------------------------------------


 Maximum index for augmentation-charges                     10833 (set IRDMAX)


--------------------------------------------------------------------------------------------------------


 First call to EWALD:  gamma=   0.717
 Maximum number of real-space cells 3x 3x 3
 Maximum number of reciprocal cells 3x 3x 3



----------------------------------------- Iteration    1(   1)  ---------------------------------------


      LOOP:  VPU time    2.63: CPU time    2.40

 eigenvalue-minimisations  :  2573
 total energy-change (2. order) : 0.3808655E+02  (-0.4845823E+03)
 number of electron   11.0000000 magnetization 
 augmentation part    11.0000000 magnetization 

 Free energy of the ion-electron system (eV)
  ---------------------------------------------------
  alpha Z        PSCENC =       123.73329044
  Ewald energy   TEWEN  =     -1017.93440247
  -1/2 Hartree   DENC   =      -108.64682985
  -V(xc)+E(xc)   XCENC  =        15.65807697
  PAW double counting   =       747.65313744     -724.56448596
  entropy T*S    EENTRO =        -0.00398465
  eigenvalues    EBANDS =        75.11413474
  atomic energy  EATOM  =       927.07761444
  ---------------------------------------------------
  free energy    TOTEN  =        38.08655110 eV

  energy without entropy =       38.09053575  energy(sigma->0) =       38.08854343


--------------------------------------------------------------------------------------------------------




----------------------------------------- Iteration    1(   2)  ---------------------------------------


      LOOP:  VPU time    1.98: CPU time    1.82

 eigenvalue-minimisations  :  2009
 total energy-change (2. order) :-0.4073842E+02  (-0.3625727E+02)
 number of electron   11.0000000 magnetization 
 augmentation part    11.0000000 magnetization 

 Free energy of the ion-electron system (eV)
  ---------------------------------------------------
  alpha Z        PSCENC =       123.73329044
  Ewald energy   TEWEN  =     -1017.93440247
  -1/2 Hartree   DENC   =      -108.64682985
  -V(xc)+E(xc)   XCENC  =        15.65807697
  PAW double counting   =       747.65313744     -724.56448596
  entropy T*S    EENTRO =        -0.00169203
  eigenvalues    EBANDS =        34.37342185
  atomic energy  EATOM  =       927.07761444
  ---------------------------------------------------
  free energy    TOTEN  =        -2.65186917 eV

  energy without entropy =       -2.65017714  energy(sigma->0) =       -2.65102315


--------------------------------------------------------------------------------------------------------




----------------------------------------- Iteration    1(   3)  ---------------------------------------


      LOOP:  VPU time    2.35: CPU time    2.15

 eigenvalue-minimisations  :  2395
 total energy-change (2. order) :-0.4524372E+00  (-0.4522176E+00)
 number of electron   11.0000000 magnetization 
 augmentation part    11.0000000 magnetization 

 Free energy of the ion-electron system (eV)
  ---------------------------------------------------
  alpha Z        PSCENC =       123.73329044
  Ewald energy   TEWEN  =     -1017.93440247
  -1/2 Hartree   DENC   =      -108.64682985
  -V(xc)+E(xc)   XCENC  =        15.65807697
  PAW double counting   =       747.65313744     -724.56448596
  entropy T*S    EENTRO =        -0.00170795
  eigenvalues    EBANDS =        33.92100058
  atomic energy  EATOM  =       927.07761444
  ---------------------------------------------------
  free energy    TOTEN  =        -3.10430636 eV

  energy without entropy =       -3.10259841  energy(sigma->0) =       -3.10345239


--------------------------------------------------------------------------------------------------------




----------------------------------------- Iteration    1(   4)  ---------------------------------------


      LOOP:  VPU time    2.23: CPU time    2.05

 eigenvalue-minimisations  :  2283
 total energy-change (2. order) :-0.1251067E-02  (-0.1251043E-02)
 number of electron   11.0000000 magnetization 
 augmentation part    11.0000000 magnetization 

 Free energy of the ion-electron system (eV)
  ---------------------------------------------------
  alpha Z        PSCENC =       123.73329044
  Ewald energy   TEWEN  =     -1017.93440247
  -1/2 Hartree   DENC   =      -108.64682985
  -V(xc)+E(xc)   XCENC  =        15.65807697
  PAW double counting   =       747.65313744     -724.56448596
  entropy T*S    EENTRO =        -0.00170737
  eigenvalues    EBANDS =        33.91974893
  atomic energy  EATOM  =       927.07761444
  ---------------------------------------------------
  free energy    TOTEN  =        -3.10555743 eV

  energy without entropy =       -3.10385006  energy(sigma->0) =       -3.10470374


--------------------------------------------------------------------------------------------------------




----------------------------------------- Iteration    1(   5)  ---------------------------------------


      LOOP:  VPU time    2.33: CPU time    2.12

 eigenvalue-minimisations  :  2249
 total energy-change (2. order) :-0.9187157E-05  (-0.9186314E-05)
 number of electron   11.0000000 magnetization 
 augmentation part     3.8635445 magnetization 

 Broyden mixing:
  rms(total) = 0.29248E+00    rms(broyden)= 0.29248E+00
  rms(prec ) = 0.12131E+01
  weight for this iteration     100.00

 Free energy of the ion-electron system (eV)
  ---------------------------------------------------
  alpha Z        PSCENC =       123.73329044
  Ewald energy   TEWEN  =     -1017.93440247
  -1/2 Hartree   DENC   =      -108.64682985
  -V(xc)+E(xc)   XCENC  =        15.65807697
  PAW double counting   =       747.65313744     -724.56448596
  entropy T*S    EENTRO =        -0.00170736
  eigenvalues    EBANDS =        33.91973973
  atomic energy  EATOM  =       927.07761444
  ---------------------------------------------------
  free energy    TOTEN  =        -3.10556662 eV

  energy without entropy =       -3.10385926  energy(sigma->0) =       -3.10471294


--------------------------------------------------------------------------------------------------------




----------------------------------------- Iteration    1(   6)  ---------------------------------------


      LOOP:  VPU time    2.01: CPU time    1.94

 eigenvalue-minimisations  :  1989
 total energy-change (2. order) : 0.2135235E+00  (-0.3079186E-01)
 number of electron   11.0000000 magnetization 
 augmentation part     3.9720345 magnetization 

 Broyden mixing:
  rms(total) = 0.92297E-01    rms(broyden)= 0.92291E-01
  rms(prec ) = 0.38193E+00
  weight for this iteration     100.00

 eigenvalues of (default mixing * dielectric matrix)
  average eigenvalue GAMMA=   1.3760
  1.3760

 Free energy of the ion-electron system (eV)
  ---------------------------------------------------
  alpha Z        PSCENC =       123.73329044
  Ewald energy   TEWEN  =     -1017.93440247
  -1/2 Hartree   DENC   =      -101.88465016
  -V(xc)+E(xc)   XCENC  =        15.35063452
  PAW double counting   =       754.95893420     -733.42796436
  entropy T*S    EENTRO =        -0.00153026
  eigenvalues    EBANDS =        29.23603052
  atomic energy  EATOM  =       927.07761444
  ---------------------------------------------------
  free energy    TOTEN  =        -2.89204314 eV

  energy without entropy =       -2.89051287  energy(sigma->0) =       -2.89127801


--------------------------------------------------------------------------------------------------------




----------------------------------------- Iteration    1(   7)  ---------------------------------------


      LOOP:  VPU time    1.95: CPU time    1.95

 eigenvalue-minimisations  :  2094
 total energy-change (2. order) : 0.2917227E-01  (-0.3813173E-02)
 number of electron   11.0000000 magnetization 
 augmentation part     4.0078872 magnetization 

 Broyden mixing:
  rms(total) = 0.25164E-01    rms(broyden)= 0.25158E-01
  rms(prec ) = 0.62417E-01
  weight for this iteration     100.00

 eigenvalues of (default mixing * dielectric matrix)
  average eigenvalue GAMMA=   1.8610
  1.2853  2.4367

 Free energy of the ion-electron system (eV)
  ---------------------------------------------------
  alpha Z        PSCENC =       123.73329044
  Ewald energy   TEWEN  =     -1017.93440247
  -1/2 Hartree   DENC   =       -98.91731053
  -V(xc)+E(xc)   XCENC  =        15.21509030
  PAW double counting   =       766.97039224     -746.61651904
  entropy T*S    EENTRO =        -0.00129356
  eigenvalues    EBANDS =        27.61026732
  atomic energy  EATOM  =       927.07761444
  ---------------------------------------------------
  free energy    TOTEN  =        -2.86287086 eV

  energy without entropy =       -2.86157730  energy(sigma->0) =       -2.86222408


--------------------------------------------------------------------------------------------------------




----------------------------------------- Iteration    1(   8)  ---------------------------------------


      LOOP:  VPU time    1.96: CPU time    1.97

 eigenvalue-minimisations  :  2121
 total energy-change (2. order) : 0.4761077E-02  (-0.1422636E-03)
 number of electron   11.0000000 magnetization 
 augmentation part     4.0060467 magnetization 

 Broyden mixing:
  rms(total) = 0.10322E-02    rms(broyden)= 0.10304E-02
  rms(prec ) = 0.23067E-02
  weight for this iteration     100.00

 eigenvalues of (default mixing * dielectric matrix)
  average eigenvalue GAMMA=   1.8413
  1.2834  2.5037  1.7368

 Free energy of the ion-electron system (eV)
  ---------------------------------------------------
  alpha Z        PSCENC =       123.73329044
  Ewald energy   TEWEN  =     -1017.93440247
  -1/2 Hartree   DENC   =       -98.15827767
  -V(xc)+E(xc)   XCENC  =        15.17841417
  PAW double counting   =       778.94103592     -759.36194606
  entropy T*S    EENTRO =        -0.00128207
  eigenvalues    EBANDS =        27.66744352
  atomic energy  EATOM  =       927.07761444
  ---------------------------------------------------
  free energy    TOTEN  =        -2.85810979 eV

  energy without entropy =       -2.85682771  energy(sigma->0) =       -2.85746875


--------------------------------------------------------------------------------------------------------




----------------------------------------- Iteration    1(   9)  ---------------------------------------


      LOOP:  VPU time    1.37: CPU time    1.38

 eigenvalue-minimisations  :  1273
 total energy-change (2. order) :-0.9356073E-05  (-0.1924884E-05)
 number of electron   11.0000000 magnetization 
 augmentation part     4.0060467 magnetization 

 Free energy of the ion-electron system (eV)
  ---------------------------------------------------
  alpha Z        PSCENC =       123.73329044
  Ewald energy   TEWEN  =     -1017.93440247
  -1/2 Hartree   DENC   =       -98.14942997
  -V(xc)+E(xc)   XCENC  =        15.17789885
  PAW double counting   =       779.50463882     -759.93050064
  entropy T*S    EENTRO =        -0.00128142
  eigenvalues    EBANDS =        27.66405281
  atomic energy  EATOM  =       927.07761444
  ---------------------------------------------------
  free energy    TOTEN  =        -2.85811914 eV

  energy without entropy =       -2.85683772  energy(sigma->0) =       -2.85747843


--------------------------------------------------------------------------------------------------------




 average (electrostatic) potential at core
  the test charge radii are     1.2098
  (the norm of the test charge is              1.0000)
       1 -44.3210



 E-fermi :   7.4819     XC(G=0): -13.4555     alpha+bet :-11.5089
   add alpha+bet to get absolut eigen values

 k-point   1 :       0.0500    0.0500    0.0500
  band No.  band energies     occupation 
      1      -3.6877      2.00000
      2       1.9201      2.00000
      3       1.9935      2.00000
      4       1.9935      2.00000
      5       3.8154      2.00000
      6       3.8154      2.00000
      7      22.8809      0.00000
      8      26.6548      0.00000
      9      27.4765      0.00000

 k-point   2 :       0.1500    0.0500    0.0500
  band No.  band energies     occupation 
      1      -3.1813      2.00000
      2       1.7305      2.00000
      3       2.1604      2.00000
      4       2.1983      2.00000
      5       3.6286      2.00000
      6       3.8743      2.00000
      7      23.4297      0.00000
      8      24.6167      0.00000
      9      27.2709      0.00000

 k-point   3 :       0.2500    0.0500    0.0500
  band No.  band energies     occupation 
      1      -2.1063      2.00000
      2       1.5866      2.00000
      3       2.3377      2.00000
      4       2.3662      2.00000
      5       3.6357      2.00000
      6       4.1332      2.00000
      7      20.9492      0.00000
      8      24.1307      0.00000
      9      27.7802      0.00000

 k-point   4 :       0.3500    0.0500    0.0500
  band No.  band energies     occupation 
      1      -1.2168      2.00000
      2       2.1190      2.00000
      3       2.2201      2.00000
      4       2.3765      2.00000
      5       4.2341      2.00000
      6       4.8254      2.00000
      7      16.8825      0.00000
      8      23.3389      0.00000
      9      26.9135      0.00000

 k-point   5 :       0.4500    0.0500    0.0500
  band No.  band energies     occupation 
      1      -1.0466      2.00000
      2       1.9297      2.00000
      3       2.0152      2.00000
      4       4.0959      2.00000
      5       4.9714      2.00000
      6       5.7853      2.00000
      7      12.9496      0.00000
      8      22.4130      0.00000
      9      25.7995      0.00000

 k-point   6 :      -0.4500    0.0500    0.0500
  band No.  band energies     occupation 
      1      -1.0562      2.00000
      2       1.8486      2.00000
      3       1.9677      2.00000
      4       4.6326      2.00000
      5       5.3247      2.00000
      6       6.5537      2.00000
      7      11.2776      0.00000
      8      22.1598      0.00000
      9      25.8314      0.00000

 k-point   7 :      -0.3500    0.0500    0.0500
  band No.  band energies     occupation 
      1      -1.0594      2.00000
      2       1.9667      2.00000
      3       2.1021      2.00000
      4       3.4485      2.00000
      5       5.0730      2.00000
      6       5.1666      2.00000
      7      14.1693      0.00000
      8      22.6764      0.00000
      9      26.3464      0.00000

 k-point   8 :      -0.2500    0.0500    0.0500
  band No.  band energies     occupation 
      1      -1.4284      2.00000
      2       1.8906      2.00000
      3       2.2361      2.00000
      4       2.3145      2.00000
      5       4.1210      2.00000
      6       4.4526      2.00000
      7      18.2688      0.00000
      8      23.7459      0.00000
      9      27.4926      0.00000

 k-point   9 :      -0.1500    0.0500    0.0500
  band No.  band energies     occupation 
      1      -2.4967      2.00000
      2       1.5727      2.00000
      3       2.3302      2.00000
      4       2.3463      2.00000
      5       3.5830      2.00000
      6       3.9818      2.00000
      7      22.2086      0.00000
      8      24.1399      0.00000
      9      27.7359      0.00000

 k-point  10 :      -0.0500    0.0500    0.0500
  band No.  band energies     occupation 
      1      -3.4296      2.00000
      2       1.7869      2.00000
      3       2.1080      2.00000
      4       2.1147      2.00000
      5       3.6594      2.00000
      6       3.8851      2.00000
      7      23.2018      0.00000
      8      25.7107      0.00000
      9      27.3275      0.00000

 k-point  11 :       0.1500    0.1500    0.0500
  band No.  band energies     occupation 
      1      -2.9305      2.00000
      2       1.5228      2.00000
      3       2.3482      2.00000
      4       2.3530      2.00000
      5       3.3873      2.00000
      6       4.0194      2.00000
      7      23.7793      0.00000
      8      24.8110      0.00000
      9      26.8629      0.00000

 k-point  12 :       0.2500    0.1500    0.0500
  band No.  band energies     occupation 
      1      -2.0320      2.00000
      2       1.2226      2.00000
      3       2.4565      2.00000
      4       2.6860      2.00000
      5       3.3231      2.00000
      6       4.2875      2.00000
      7      22.4903      0.00000
      8      24.2147      0.00000
      9      26.2891      0.00000

 k-point  13 :       0.3500    0.1500    0.0500
  band No.  band energies     occupation 
      1      -0.9767      2.00000
      2       1.3336      2.00000
      3       2.0824      2.00000
      4       2.6918      2.00000
      5       4.1219      2.00000
      6       4.9894      2.00000
      7      18.5189      0.00000
      8      23.6968      0.00000
      9      25.2634      0.00000

 k-point  14 :       0.4500    0.1500    0.0500
  band No.  band energies     occupation 
      1      -0.6384      2.00000
      2       1.7139      2.00000
      3       2.3656      2.00000
      4       2.5558      2.00000
      5       5.0432      2.00000
      6       6.3189      2.00000
      7      14.3390      0.00000
      8      22.8979      0.00000
      9      24.1449      0.00000

 k-point  15 :      -0.4500    0.1500    0.0500
  band No.  band energies     occupation 
      1      -0.6392      2.00000
      2       1.5596      2.00000
      3       2.3250      2.00000
      4       3.3948      2.00000
      5       5.2655      2.00000
      6       8.2275      0.00000
      7      11.2195      0.00000
      8      22.3841      0.00000
      9      23.8246      0.00000

 k-point  16 :      -0.3500    0.1500    0.0500
  band No.  band energies     occupation 
      1      -0.6063      2.00000
      2       1.6589      2.00000
      3       2.3549      2.00000
      4       3.0087      2.00000
      5       4.8675      2.00000
      6       7.1031      2.00000
      7      13.1485      0.00000
      8      22.3342      0.00000
      9      23.9250      0.00000

 k-point  17 :      -0.2500    0.1500    0.0500
  band No.  band energies     occupation 
      1      -0.7375      2.00000
      2       1.6739      2.00000
      3       2.0166      2.00000
      4       2.5854      2.00000
      5       4.0172      2.00000
      6       5.6318      2.00000
      7      17.1316      0.00000
      8      22.7797      0.00000
      9      24.9959      0.00000

 k-point  18 :      -0.1500    0.1500    0.0500
  band No.  band energies     occupation 
      1      -1.6466      2.00000
      2       1.2753      2.00000
      3       2.3257      2.00000
      4       2.7124      2.00000
      5       3.3139      2.00000
      6       4.6051      2.00000
      7      21.0926      0.00000
      8      23.4748      0.00000
      9      26.7743      0.00000

 k-point  19 :      -0.0500    0.1500    0.0500
  band No.  band energies     occupation 
      1      -2.7014      2.00000
      2       1.5276      2.00000
      3       2.3493      2.00000
      4       2.3631      2.00000
      5       3.4364      2.00000
      6       4.0291      2.00000
      7      23.3797      0.00000
      8      24.0082      0.00000
      9      26.8872      0.00000

 k-point  20 :       0.2500    0.2500    0.0500
  band No.  band energies     occupation 
      1      -1.4476      2.00000
      2       0.7926      2.00000
      3       2.6348      2.00000
      4       3.1462      2.00000
      5       3.3766      2.00000
      6       4.4365      2.00000
      7      23.0769      0.00000
      8      24.3654      0.00000
      9      25.0255      0.00000

 k-point  21 :       0.3500    0.2500    0.0500
  band No.  band energies     occupation 
      1      -0.6253      2.00000
      2       0.5253      2.00000
      3       2.3294      2.00000
      4       3.5647      2.00000
      5       4.1658      2.00000
      6       5.0172      2.00000
      7      20.3234      0.00000
      8      22.3647      0.00000
      9      23.9111      0.00000

 k-point  22 :       0.4500    0.2500    0.0500
  band No.  band energies     occupation 
      1      -0.1929      2.00000
      2       0.8321      2.00000
      3       2.0447      2.00000
      4       3.3975      2.00000
      5       5.1543      2.00000
      6       6.6452      2.00000
      7      16.0068      0.00000
      8      21.6837      0.00000
      9      22.1129      0.00000

 k-point  23 :      -0.4500    0.2500    0.0500
  band No.  band energies     occupation 
      1      -0.0745      2.00000
      2       1.1250      2.00000
      3       2.2717      2.00000
      4       3.1516      2.00000
      5       5.3091      2.00000
      6       9.3560      0.00000
      7      12.1815      0.00000
      8      20.3234      0.00000
      9      22.2328      0.00000

 k-point  24 :      -0.3500    0.2500    0.0500
  band No.  band energies     occupation 
      1       0.1392      2.00000
      2       1.2054      2.00000
      3       2.2806      2.00000
      4       3.0226      2.00000
      5       4.8145      2.00000
      6       9.1957      0.00000
      7      12.8030      0.00000
      8      19.1695      0.00000
      9      23.4494      0.00000

 k-point  25 :      -0.2500    0.2500    0.0500
  band No.  band energies     occupation 
      1       0.2847      2.00000
      2       1.3231      2.00000
      3       1.6031      2.00000
      4       3.1182      2.00000
      5       3.9722      2.00000
      6       7.2681      1.99750
      7      16.3874      0.00000
      8      19.1307      0.00000
      9      24.4856      0.00000

 k-point  26 :      -0.1500    0.2500    0.0500
  band No.  band energies     occupation 
      1      -0.5259      2.00000
      2       1.1845      2.00000
      3       1.9838      2.00000
      4       2.9785      2.00000
      5       3.4853      2.00000
      6       5.7453      2.00000
      7      18.6159      0.00000
      8      21.4919      0.00000
      9      25.4305      0.00000

 k-point  27 :      -0.0500    0.2500    0.0500
  band No.  band energies     occupation 
      1      -1.5731      2.00000
      2       1.4963      2.00000
      3       2.2941      2.00000
      4       2.4794      2.00000
      5       3.7111      2.00000
      6       4.5154      2.00000
      7      19.7319      0.00000
      8      24.0114      0.00000
      9      26.7495      0.00000

 k-point  28 :       0.3500    0.3500    0.0500
  band No.  band energies     occupation 
      1      -0.5524      2.00000
      2       0.0722      2.00000
      3       3.3792      2.00000
      4       4.2104      2.00000
      5       4.7059      2.00000
      6       4.9439      2.00000
      7      20.2887      0.00000
      8      21.1799      0.00000
      9      21.6741      0.00000

 k-point  29 :       0.4500    0.3500    0.0500
  band No.  band energies     occupation 
      1      -0.4411      2.00000
      2      -0.0546      2.00000
      3       3.4360      2.00000
      4       4.5688      2.00000
      5       5.1717      2.00000
      6       6.6670      2.00000
      7      17.3379      0.00000
      8      19.4504      0.00000
      9      20.0660      0.00000

 k-point  30 :      -0.4500    0.3500    0.0500
  band No.  band energies     occupation 
      1      -0.2660      2.00000
      2       0.3140      2.00000
      3       3.0056      2.00000
      4       4.1932      2.00000
      5       5.4315      2.00000
      6       9.6066      0.00000
      7      13.7911      0.00000
      8      17.7565      0.00000
      9      20.1391      0.00000

 k-point  31 :      -0.3500    0.3500    0.0500
  band No.  band energies     occupation 
      1       0.0813      2.00000
      2       0.9135      2.00000
      3       2.3519      2.00000
      4       3.7866      2.00000
      5       5.0304      2.00000
      6      10.9687      0.00000
      7      13.1832      0.00000
      8      15.9928      0.00000
      9      21.6539      0.00000

 k-point  32 :      -0.2500    0.3500    0.0500
  band No.  band energies     occupation 
      1       0.4496      2.00000
      2       1.2607      2.00000
      3       1.7597      2.00000
      4       3.3491      2.00000
      5       4.5220      2.00000
      6       9.0409      0.00000
      7      14.7737      0.00000
      8      17.0050      0.00000
      9      23.5273      0.00000

 k-point  33 :      -0.1500    0.3500    0.0500
  band No.  band energies     occupation 
      1      -0.1828      2.00000
      2       1.5374      2.00000
      3       2.1303      2.00000
      4       2.7529      2.00000
      5       4.4117      2.00000
      6       7.2232      1.99975
      7      14.7292      0.00000
      8      20.8871      0.00000
      9      24.1080      0.00000

 k-point  34 :      -0.0500    0.3500    0.0500
  band No.  band energies     occupation 
      1      -0.9473      2.00000
      2       1.9700      2.00000
      3       2.2703      2.00000
      4       2.5483      2.00000
      5       4.5693      2.00000
      6       5.4117      2.00000
      7      15.5767      0.00000
      8      23.0757      0.00000
      9      25.5413      0.00000

 k-point  35 :       0.4500    0.4500    0.0500
  band No.  band energies     occupation 
      1      -0.7684      2.00000
      2      -0.3994      2.00000
      3       5.0177      2.00000
      4       5.0497      2.00000
      5       5.4703      2.00000
      6       7.0642      2.00000
      7      16.1053      0.00000
      8      18.4955      0.00000
      9      18.8118      0.00000

 k-point  36 :      -0.4500    0.4500    0.0500
  band No.  band energies     occupation 
      1      -0.6945      2.00000
      2      -0.3372      2.00000
      3       4.5393      2.00000
      4       4.9843      2.00000
      5       5.6543      2.00000
      6       9.2599      0.00000
      7      14.1200      0.00000
      8      17.4239      0.00000
      9      18.4037      0.00000

 k-point  37 :      -0.3500    0.4500    0.0500
  band No.  band energies     occupation 
      1      -0.3384      2.00000
      2       0.2082      2.00000
      3       3.3449      2.00000
      4       4.4008      2.00000
      5       5.4279      2.00000
      6      11.0987      0.00000
      7      12.9418      0.00000
      8      16.2992      0.00000
      9      19.7553      0.00000

 k-point  38 :      -0.2500    0.4500    0.0500
  band No.  band energies     occupation 
      1       0.0555      2.00000
      2       0.9636      2.00000
      3       2.3028      2.00000
      4       3.5188      2.00000
      5       5.1830      2.00000
      6      11.1832      0.00000
      7      11.4708      0.00000
      8      18.1055      0.00000
      9      21.8472      0.00000

 k-point  39 :      -0.1500    0.4500    0.0500
  band No.  band energies     occupation 
      1      -0.2739      2.00000
      2       1.3456      2.00000
      3       2.6428      2.00000
      4       2.8479      2.00000
      5       5.1084      2.00000
      6       9.1976      0.00000
      7      11.3319      0.00000
      8      21.2137      0.00000
      9      23.3517      0.00000

 k-point  40 :      -0.0500    0.4500    0.0500
  band No.  band energies     occupation 
      1      -0.9040      2.00000
      2       1.7724      2.00000
      3       2.1070      2.00000
      4       3.8837      2.00000
      5       5.2082      2.00000
      6       6.8607      2.00000
      7      11.9360      0.00000
      8      22.3930      0.00000
      9      24.9451      0.00000

 k-point  41 :      -0.4500   -0.4500    0.0500
  band No.  band energies     occupation 
      1      -0.8667      2.00000
      2      -0.4994      2.00000
      3       5.1945      2.00000
      4       5.3833      2.00000
      5       5.6702      2.00000
      6       8.2796      0.00000
      7      14.4496      0.00000
      8      17.8975      0.00000
      9      18.2644      0.00000

 k-point  42 :      -0.3500   -0.4500    0.0500
  band No.  band energies     occupation 
      1      -0.5936      2.00000
      2      -0.2411      2.00000
      3       4.1021      2.00000
      4       4.8998      2.00000
      5       5.4603      2.00000
      6       8.0219      0.00000
      7      15.6005      0.00000
      8      18.1338      0.00000
      9      18.9458      0.00000

 k-point  43 :      -0.2500   -0.4500    0.0500
  band No.  band energies     occupation 
      1      -0.1788      2.00000
      2       0.5301      2.00000
      3       2.5006      2.00000
      4       3.8225      2.00000
      5       5.3684      2.00000
      6       8.0247      0.00000
      7      14.8170      0.00000
      8      19.7794      0.00000
      9      20.8941      0.00000

 k-point  44 :      -0.1500   -0.4500    0.0500
  band No.  band energies     occupation 
      1      -0.3269      2.00000
      2       1.4020      2.00000
      3       2.3056      2.00000
      4       2.7986      2.00000
      5       5.2873      2.00000
      6       7.6789      0.00533
      7      13.1875      0.00000
      8      22.2666      0.00000
      9      22.8144      0.00000

 k-point  45 :      -0.3500   -0.3500    0.0500
  band No.  band energies     occupation 
      1      -0.6205      2.00000
      2      -0.2048      2.00000
      3       4.3019      2.00000
      4       4.7108      2.00000
      5       5.2016      2.00000
      6       5.7153      2.00000
      7      18.3268      0.00000
      8      19.6869      0.00000
      9      19.8242      0.00000

 k-point  46 :      -0.2500   -0.3500    0.0500
  band No.  band energies     occupation 
      1      -0.3696      2.00000
      2       0.2081      2.00000
      3       2.7338      2.00000
      4       4.0799      2.00000
      5       4.7600      2.00000
      6       5.6316      2.00000
      7      18.9174      0.00000
      8      20.9074      0.00000
      9      21.8984      0.00000

 k-point  47 :      -0.1500   -0.3500    0.0500
  band No.  band energies     occupation 
      1      -0.4588      2.00000
      2       1.1252      2.00000
      3       1.8935      2.00000
      4       3.0047      2.00000
      5       4.7165      2.00000
      6       5.6267      2.00000
      7      17.2688      0.00000
      8      22.9262      0.00000
      9      23.7792      0.00000

 k-point  48 :      -0.2500   -0.2500    0.0500
  band No.  band energies     occupation 
      1      -0.8009      2.00000
      2       0.4131      2.00000
      3       2.7422      2.00000
      4       3.6635      2.00000
      5       3.9580      2.00000
      6       4.6873      2.00000
      7      21.8443      0.00000
      8      22.7458      0.00000
      9      23.9111      0.00000

 k-point  49 :      -0.1500   -0.2500    0.0500
  band No.  band energies     occupation 
      1      -1.2691      2.00000
      2       0.8741      2.00000
      3       2.3496      2.00000
      4       3.0916      2.00000
      5       3.6044      2.00000
      6       4.6137      2.00000
      7      21.5079      0.00000
      8      23.6565      0.00000
      9      25.5361      0.00000

 k-point  50 :      -0.1500   -0.1500    0.0500
  band No.  band energies     occupation 
      1      -2.2346      2.00000
      2       1.1762      2.00000
      3       2.6332      2.00000
      4       2.7013      2.00000
      5       3.1394      2.00000
      6       4.2079      2.00000
      7      23.9050      0.00000
      8      24.6575      0.00000
      9      25.8200      0.00000

 k-point  51 :       0.1500    0.1500    0.1500
  band No.  band energies     occupation 
      1      -2.9473      2.00000
      2       1.7101      2.00000
      3       2.2189      2.00000
      4       2.2189      2.00000
      5       3.7530      2.00000
      6       3.7530      2.00000
      7      23.1985      0.00000
      8      23.9767      0.00000
      9      28.3463      0.00000

 k-point  52 :       0.2500    0.1500    0.1500
  band No.  band energies     occupation 
      1      -2.2601      2.00000
      2       1.4593      2.00000
      3       2.3682      2.00000
      4       2.4672      2.00000
      5       3.3673      2.00000
      6       4.2242      2.00000
      7      22.2146      0.00000
      8      23.8853      0.00000
      9      26.8649      0.00000

 k-point  53 :       0.3500    0.1500    0.1500
  band No.  band energies     occupation 
      1      -1.1214      2.00000
      2       1.2711      2.00000
      3       2.2247      2.00000
      4       2.8030      2.00000
      5       3.2564      2.00000
      6       5.1218      2.00000
      7      19.8115      0.00000
      8      22.5655      0.00000
      9      26.4196      0.00000

 k-point  54 :       0.4500    0.1500    0.1500
  band No.  band energies     occupation 
      1      -0.4702      2.00000
      2       1.7292      2.00000
      3       2.1532      2.00000
      4       2.5489      2.00000
      5       4.0803      2.00000
      6       6.3628      2.00000
      7      15.8719      0.00000
      8      21.8338      0.00000
      9      24.6439      0.00000

 k-point  55 :      -0.4500    0.1500    0.1500
  band No.  band energies     occupation 
      1      -0.4856      2.00000
      2       1.5420      2.00000
      3       2.4152      2.00000
      4       3.1283      2.00000
      5       4.9276      2.00000
      6       8.0402      0.00000
      7      12.1392      0.00000
      8      21.7224      0.00000
      9      24.0164      0.00000

 k-point  56 :      -0.3500    0.1500    0.1500
  band No.  band energies     occupation 
      1      -0.5349      2.00000
      2       1.5063      2.00000
      3       2.4759      2.00000
      4       2.9378      2.00000
      5       5.3639      2.00000
      6       7.9692      0.00000
      7      11.9473      0.00000
      8      22.2826      0.00000
      9      24.3919      0.00000

 k-point  57 :      -0.2500    0.1500    0.1500
  band No.  band energies     occupation 
      1      -0.5853      2.00000
      2       1.6251      2.00000
      3       1.9334      2.00000
      4       2.6754      2.00000
      5       5.1791      2.00000
      6       5.6878      2.00000
      7      15.7207      0.00000
      8      23.3009      0.00000
      9      24.2676      0.00000

 k-point  58 :      -0.1500    0.1500    0.1500
  band No.  band energies     occupation 
      1      -1.1643      2.00000
      2       1.0334      2.00000
      3       2.2327      2.00000
      4       2.8430      2.00000
      5       4.0300      2.00000
      6       4.6198      2.00000
      7      20.0247      0.00000
      8      24.5291      0.00000
      9      24.9493      0.00000

 k-point  59 :       0.2500    0.2500    0.1500
  band No.  band energies     occupation 
      1      -1.8719      2.00000
      2       1.3266      2.00000
      3       2.3849      2.00000
      4       2.5532      2.00000
      5       3.5946      2.00000
      6       4.2833      2.00000
      7      21.1399      0.00000
      8      24.4382      0.00000
      9      26.5222      0.00000

 k-point  60 :       0.3500    0.2500    0.1500
  band No.  band energies     occupation 
      1      -0.9417      2.00000
      2       1.0192      2.00000
      3       2.1096      2.00000
      4       3.0530      2.00000
      5       3.5701      2.00000
      6       5.0959      2.00000
      7      19.9817      0.00000
      8      22.6111      0.00000
      9      25.6052      0.00000

 k-point  61 :       0.4500    0.2500    0.1500
  band No.  band energies     occupation 
      1       0.0337      2.00000
      2       1.0536      2.00000
      3       1.6281      2.00000
      4       3.3176      2.00000
      5       3.9483      2.00000
      6       6.4807      2.00000
      7      17.4751      0.00000
      8      20.3078      0.00000
      9      24.1125      0.00000

 k-point  62 :      -0.4500    0.2500    0.1500
  band No.  band energies     occupation 
      1       0.1199      2.00000
      2       1.2302      2.00000
      3       2.0094      2.00000
      4       3.0764      2.00000
      5       4.8005      2.00000
      6       8.3288      0.00000
      7      13.7047      0.00000
      8      19.9992      0.00000
      9      22.7790      0.00000

 k-point  63 :      -0.3500    0.2500    0.1500
  band No.  band energies     occupation 
      1       0.0269      2.00000
      2       1.1203      2.00000
      3       2.4003      2.00000
      4       2.9956      2.00000
      5       5.1654      2.00000
      6      10.0425      0.00000
      7      11.2901      0.00000
      8      20.6942      0.00000
      9      21.7028      0.00000

 k-point  64 :      -0.2500    0.2500    0.1500
  band No.  band energies     occupation 
      1      -0.0207      2.00000
      2       1.2316      2.00000
      3       1.7497      2.00000
      4       3.2338      2.00000
      5       4.9515      2.00000
      6       7.4920      0.88573
      7      14.7552      0.00000
      8      20.9254      0.00000
      9      22.3310      0.00000

 k-point  65 :      -0.1500    0.2500    0.1500
  band No.  band energies     occupation 
      1      -0.3149      2.00000
      2       0.7456      2.00000
      3       1.9068      2.00000
      4       3.4770      2.00000
      5       4.0669      2.00000
      6       5.7057      2.00000
      7      18.8000      0.00000
      8      21.4268      0.00000
      9      23.9492      0.00000

 k-point  66 :       0.3500    0.3500    0.1500
  band No.  band energies     occupation 
      1      -0.5659      2.00000
      2       0.7340      2.00000
      3       2.1527      2.00000
      4       3.2088      2.00000
      5       4.8148      2.00000
      6       4.9511      2.00000
      7      18.7885      0.00000
      8      23.3282      0.00000
      9      23.7799      0.00000

 k-point  67 :       0.4500    0.3500    0.1500
  band No.  band energies     occupation 
      1      -0.0391      2.00000
      2       0.4830      2.00000
      3       2.0525      2.00000
      4       3.9547      2.00000
      5       4.6018      2.00000
      6       6.5337      2.00000
      7      17.5480      0.00000
      8      20.1301      0.00000
      9      22.0919      0.00000

 k-point  68 :      -0.4500    0.3500    0.1500
  band No.  band energies     occupation 
      1       0.3203      2.00000
      2       0.6606      2.00000
      3       1.7956      2.00000
      4       4.0423      2.00000
      5       4.9672      2.00000
      6       8.6346      0.00000
      7      15.4043      0.00000
      8      17.9826      0.00000
      9      20.5068      0.00000

 k-point  69 :      -0.3500    0.3500    0.1500
  band No.  band energies     occupation 
      1       0.5096      2.00000
      2       0.8598      2.00000
      3       1.8093      2.00000
      4       3.6006      2.00000
      5       5.2570      2.00000
      6      11.2726      0.00000
      7      12.3207      0.00000
      8      17.6979      0.00000
      9      19.8018      0.00000

 k-point  70 :      -0.2500    0.3500    0.1500
  band No.  band energies     occupation 
      1       0.7649      2.00000
      2       0.9178      2.00000
      3       1.3822      2.00000
      4       3.6961      2.00000
      5       4.9373      2.00000
      6       9.4668      0.00000
      7      14.7419      0.00000
      8      17.0328      0.00000
      9      20.8986      0.00000

 k-point  71 :      -0.1500    0.3500    0.1500
  band No.  band energies     occupation 
      1       0.3587      2.00000
      2       0.8902      2.00000
      3       1.4787      2.00000
      4       3.7301      2.00000
      5       4.4749      2.00000
      6       7.4133      1.66777
      7      16.3968      0.00000
      8      19.1108      0.00000
      9      22.3900      0.00000

 k-point  72 :       0.4500    0.4500    0.1500
  band No.  band energies     occupation 
      1      -0.3632      2.00000
      2       0.1641      2.00000
      3       3.1024      2.00000
      4       4.0722      2.00000
      5       5.4334      2.00000
      6       7.1918      1.99996
      7      16.0901      0.00000
      8      19.7486      0.00000
      9      20.6235      0.00000

 k-point  73 :      -0.4500    0.4500    0.1500
  band No.  band energies     occupation 
      1      -0.2702      2.00000
      2       0.0699      2.00000
      3       3.1305      2.00000
      4       4.5766      2.00000
      5       5.4146      2.00000
      6       9.1200      0.00000
      7      14.9623      0.00000
      8      17.6377      0.00000
      9      18.9253      0.00000

 k-point  74 :      -0.3500    0.4500    0.1500
  band No.  band energies     occupation 
      1       0.0255      2.00000
      2       0.4374      2.00000
      3       2.5820      2.00000
      4       4.0698      2.00000
      5       5.6477      2.00000
      6      11.7142      0.00000
      7      13.4207      0.00000
      8      16.0639      0.00000
      9      18.1619      0.00000

 k-point  75 :      -0.2500    0.4500    0.1500
  band No.  band energies     occupation 
      1       0.4267      2.00000
      2       0.9844      2.00000
      3       1.7591      2.00000
      4       3.6762      2.00000
      5       5.3737      2.00000
      6      11.5428      0.00000
      7      13.5202      0.00000
      8      15.7858      0.00000
      9      19.3948      0.00000

 k-point  76 :      -0.1500    0.4500    0.1500
  band No.  band energies     occupation 
      1       0.4077      2.00000
      2       0.9329      2.00000
      3       1.8965      2.00000
      4       3.3917      2.00000
      5       5.0753      2.00000
      6       9.7388      0.00000
      7      12.8342      0.00000
      8      19.1030      0.00000
      9      21.0109      0.00000

 k-point  77 :      -0.4500   -0.4500    0.1500
  band No.  band energies     occupation 
      1      -0.5801      2.00000
      2      -0.1398      2.00000
      3       4.1099      2.00000
      4       4.7468      2.00000
      5       5.5185      2.00000
      6      10.0127      0.00000
      7      13.6200      0.00000
      8      16.7603      0.00000
      9      19.2896      0.00000

 k-point  78 :      -0.3500   -0.4500    0.1500
[...]
      6       4.0269      2.00000
      7      19.5834      0.00000
      8      23.9766      0.00000
      9      29.1646      0.00000

 k-point  84 :       0.3500    0.2500    0.2500
  band No.  band energies     occupation 
      1      -1.1763      2.00000
      2       1.6366      2.00000
      3       2.2274      2.00000
      4       2.4613      2.00000
      5       3.7356      2.00000
      6       5.0125      2.00000
      7      18.3997      0.00000
      8      23.4437      0.00000
      9      26.0548      0.00000

 k-point  85 :       0.4500    0.2500    0.2500
  band No.  band energies     occupation 
      1      -0.1004      2.00000
      2       1.3010      2.00000
      3       1.8769      2.00000
      4       2.9191      2.00000
      5       3.6185      2.00000
      6       6.4658      2.00000
      7      17.4211      0.00000
      8      20.3166      0.00000
      9      25.1862      0.00000

 k-point  86 :      -0.4500    0.2500    0.2500
  band No.  band energies     occupation 
      1       0.3961      2.00000
      2       1.3884      2.00000
      3       1.7232      2.00000
      4       3.1122      2.00000
      5       4.1712      2.00000
      6       8.0905      0.00000
      7      15.5134      0.00000
      8      17.9893      0.00000
      9      24.9752      0.00000

 k-point  87 :      -0.3500    0.2500    0.2500
  band No.  band energies     occupation 
      1       0.0860      2.00000
      2       1.1617      2.00000
      3       2.3125      2.00000
      4       3.2003      2.00000
      5       4.9856      2.00000
      6      10.2021      0.00000
      7      11.9784      0.00000
      8      18.5400      0.00000
      9      23.5540      0.00000

 k-point  88 :      -0.2500    0.2500    0.2500
  band No.  band energies     occupation 
      1      -0.1651      2.00000
      2       0.8861      2.00000
      3       2.3614      2.00000
      4       3.3953      2.00000
      5       5.4322      2.00000
      6       8.6310      0.00000
      7      13.3811      0.00000
      8      20.0533      0.00000
      9      22.0487      0.00000

 k-point  89 :       0.3500    0.3500    0.2500
  band No.  band energies     occupation 
      1      -0.9932      2.00000
      2       1.8782      2.00000
      3       2.0339      2.00000
      4       2.4417      2.00000
      5       4.6776      2.00000
      6       4.8539      2.00000
      7      16.9889      0.00000
      8      23.5789      0.00000
      9      25.7914      0.00000

 k-point  90 :       0.4500    0.3500    0.2500
  band No.  band energies     occupation 
      1      -0.3246      2.00000
      2       1.6277      2.00000
      3       1.6845      2.00000
      4       2.8640      2.00000
      5       4.5137      2.00000
      6       6.4138      2.00000
      7      15.9099      0.00000
      8      21.9275      0.00000
      9      23.8521      0.00000

 k-point  91 :      -0.4500    0.3500    0.2500
  band No.  band energies     occupation 
      1       0.6243      2.00000
      2       1.1451      2.00000
      3       1.3724      2.00000
      4       3.4569      2.00000
      5       4.4446      2.00000
      6       8.2382      0.00000
      7      15.5006      0.00000
      8      18.0122      0.00000
      9      22.8790      0.00000

 k-point  92 :      -0.3500    0.3500    0.2500
  band No.  band energies     occupation 
      1       0.4764      2.00000
      2       1.0581      2.00000
      3       1.7741      2.00000
      4       3.5768      2.00000
      5       4.9539      2.00000
      6      10.2115      0.00000
      7      14.0791      0.00000
      8      16.2907      0.00000
      9      21.3807      0.00000

 k-point  93 :      -0.2500    0.3500    0.2500
  band No.  band energies     occupation 
      1       0.0812      2.00000
      2       0.7054      2.00000
      3       2.2763      2.00000
      4       3.8813      2.00000
      5       5.3197      2.00000
      6      10.5326      0.00000
      7      12.9518      0.00000
      8      17.7070      0.00000
      9      20.0287      0.00000

 k-point  94 :       0.4500    0.4500    0.2500
  band No.  band energies     occupation 
      1      -0.2929      2.00000
      2       1.2255      2.00000
      3       2.0725      2.00000
      4       3.0027      2.00000
      5       5.3815      2.00000
      6       7.0345      2.00000
      7      14.4906      0.00000
      8      22.0962      0.00000
      9      23.0055      0.00000

 k-point  95 :      -0.4500    0.4500    0.2500
  band No.  band energies     occupation 
      1       0.1055      2.00000
      2       0.9025      2.00000
      3       1.9684      2.00000
      4       3.6109      2.00000
      5       5.2006      2.00000
      6       8.9045      0.00000
      7      13.7325      0.00000
      8      19.6142      0.00000
      9      20.8135      0.00000

 k-point  96 :      -0.3500    0.4500    0.2500
  band No.  band energies     occupation 
      1       0.5010      2.00000
      2       1.0050      2.00000
      3       1.5541      2.00000
      4       3.7429      2.00000
      5       5.3754      2.00000
      6      10.9368      0.00000
      7      14.1230      0.00000
      8      16.1414      0.00000
      9      19.1045      0.00000

 k-point  97 :      -0.2500    0.4500    0.2500
  band No.  band energies     occupation 
      1       0.3539      2.00000
      2       1.0113      2.00000
      3       1.7353      2.00000
      4       3.6905      2.00000
      5       5.6474      2.00000
      6      12.3910      0.00000
      7      13.7067      0.00000
      8      15.1757      0.00000
      9      18.0640      0.00000

 k-point  98 :      -0.4500   -0.4500    0.2500
  band No.  band energies     occupation 
      1      -0.1615      2.00000
      2       0.6618      2.00000
      3       2.6989      2.00000
      4       3.8024      2.00000
      5       5.3393      2.00000
      6      10.3682      0.00000
      7      12.5253      0.00000
      8      17.8722      0.00000
      9      21.4146      0.00000

 k-point  99 :      -0.3500   -0.4500    0.2500
  band No.  band energies     occupation 
      1       0.0238      2.00000
      2       0.6243      2.00000
      3       2.5139      2.00000
      4       3.9802      2.00000
      5       5.3868      2.00000
      6      11.9178      0.00000
      7      12.6653      0.00000
      8      15.9449      0.00000
      9      19.7008      0.00000

 k-point 100 :      -0.3500   -0.3500    0.2500
  band No.  band energies     occupation 
      1      -0.1925      2.00000
      2       0.5575      2.00000
      3       2.9269      2.00000
      4       4.1139      2.00000
      5       5.1894      2.00000
      6      11.7141      0.00000
      7      12.2858      0.00000
      8      16.0386      0.00000
      9      21.1012      0.00000

 k-point 101 :       0.3500    0.3500    0.3500
  band No.  band energies     occupation 
      1      -1.1860      2.00000
      2       2.0982      2.00000
      3       2.0982      2.00000
      4       3.0966      2.00000
      5       4.6981      2.00000
      6       4.6981      2.00000
      7      15.4658      0.00000
      8      22.9169      0.00000
      9      27.7499      0.00000

 k-point 102 :       0.4500    0.3500    0.3500
  band No.  band energies     occupation 
      1      -0.8197      2.00000
      2       1.8714      2.00000
      3       2.2289      2.00000
      4       3.0083      2.00000
      5       4.5635      2.00000
      6       6.1430      2.00000
      7      14.2994      0.00000
      8      22.6782      0.00000
      9      24.7459      0.00000

 k-point 103 :      -0.4500    0.3500    0.3500
  band No.  band energies     occupation 
      1      -0.0341      2.00000
      2       1.4067      2.00000
      3       2.3712      2.00000
      4       2.7738      2.00000
      5       4.5362      2.00000
      6       8.1122      0.00000
      7      13.7044      0.00000
      8      19.9467      0.00000
      9      24.4852      0.00000

 k-point 104 :      -0.3500    0.3500    0.3500
  band No.  band energies     occupation 
      1       0.2235      2.00000
      2       1.1946      2.00000
      3       2.0817      2.00000
      4       3.5235      2.00000
      5       4.7207      2.00000
      6       9.9209      0.00000
      7      14.0244      0.00000
      8      16.3038      0.00000
      9      23.4257      0.00000

 k-point 105 :       0.4500    0.4500    0.3500
  band No.  band energies     occupation 
      1      -0.8363      2.00000
      2       1.7589      2.00000
      3       2.2316      2.00000
      4       3.2538      2.00000
      5       5.3066      2.00000
      6       6.3965      2.00000
      7      12.9895      0.00000
      8      22.6359      0.00000
      9      25.2172      0.00000

 k-point 106 :      -0.4500    0.4500    0.3500
  band No.  band energies     occupation 
      1      -0.3155      2.00000
      2       1.3831      2.00000
      3       2.5700      2.00000
      4       2.8036      2.00000
      5       5.1202      2.00000
      6       8.4204      0.00000
      7      12.1283      0.00000
      8      21.9468      0.00000
      9      22.6855      0.00000

 k-point 107 :      -0.3500    0.4500    0.3500
  band No.  band energies     occupation 
      1       0.3444      2.00000
      2       0.9732      2.00000
      3       2.0721      2.00000
      4       3.3346      2.00000
      5       5.0693      2.00000
      6      10.5481      0.00000
      7      12.0297      0.00000
      8      18.5259      0.00000
      9      21.4774      0.00000

 k-point 108 :      -0.4500   -0.4500    0.3500
  band No.  band energies     occupation 
      1      -0.1987      2.00000
      2       1.2766      2.00000
      3       2.6165      2.00000
      4       2.8139      2.00000
      5       5.2422      2.00000
      6       9.6815      0.00000
      7      11.1610      0.00000
      8      20.6902      0.00000
      9      23.8557      0.00000

 k-point 109 :       0.4500    0.4500    0.4500
  band No.  band energies     occupation 
      1      -1.1273      2.00000
      2       1.9264      2.00000
      3       1.9264      2.00000
      4       5.2400      2.00000
      5       5.2400      2.00000
      6       5.3474      2.00000
      7      11.9118      0.00000
      8      22.1508      0.00000
      9      26.3372      0.00000

 k-point 110 :      -0.4500    0.4500    0.4500
  band No.  band energies     occupation 
      1      -0.8377      2.00000
      2       1.7078      2.00000
      3       2.1354      2.00000
      4       3.9006      2.00000
      5       5.2119      2.00000
      6       7.5698      0.21377
      7      11.2617      0.00000
      8      22.3247      0.00000
      9      24.6266      0.00000


--------------------------------------------------------------------------------------------------------


 soft charge-density along one line, spin component                        1
         0         1         2         3         4         5         6         7         8         9
x     6.9940    0.9405   -0.3136    0.0143    0.0113    0.0000    0.0000    0.0000
y     6.9940    0.0000    0.0086    0.0007    0.0000    0.0000    0.0000    0.0302
z     6.9940    0.0000    0.0000    0.0044    0.0000    0.0000    0.0000   -0.0001
 total charge-density along one line
x    11.0000    3.4578    0.1765   -0.0060    0.0142   -0.0012    0.0005   -0.0002    0.0001   -0.0001
x     0.0000    0.0000    0.0000    0.0000    0.0000
y    11.0000    3.4578    0.1765   -0.0060    0.0142   -0.0012    0.0005   -0.0002    0.0001   -0.0001
y     0.0000    0.0000    0.0000    0.0000    0.0000
z    11.0000    3.4578    0.1765   -0.0060    0.0142   -0.0012    0.0005   -0.0002    0.0001   -0.0001
z     0.0000    0.0000    0.0000    0.0000    0.0000

 pseudopotential strength for first ion, spin component: 
                        1
 -9.251   0.000   0.000   0.000   0.000  -0.182   0.000   0.000
  0.000  -9.251   0.000   0.000   0.000   0.000  -0.182   0.000
  0.000   0.000  -9.234   0.000   0.000   0.000   0.000  -0.184
  0.000   0.000   0.000  -9.251   0.000   0.000   0.000   0.000
  0.000   0.000   0.000   0.000  -9.234   0.000   0.000   0.000
 -0.182   0.000   0.000   0.000   0.000   0.296   0.000   0.000
  0.000  -0.182   0.000   0.000   0.000   0.000   0.296   0.000
  0.000   0.000  -0.184   0.000   0.000   0.000   0.000   0.296
  0.000   0.000   0.000  -0.182   0.000   0.000   0.000   0.000
  0.000   0.000   0.000   0.000  -0.184   0.000   0.000   0.000
  0.000   0.000   0.000   0.000   0.000   0.000   0.000   0.000
  0.000   0.000   0.000   0.000   0.000   0.000   0.000   0.000
  0.000   0.000   0.000   0.000   0.000   0.000   0.000   0.000
  0.000   0.000   0.000   0.000   0.000   0.000   0.000   0.000
  0.000   0.000   0.000   0.000   0.000   0.000   0.000   0.000
  0.000   0.000   0.000   0.000   0.000   0.000   0.000   0.000
  0.000   0.000   0.000   0.000   0.000   0.000   0.000   0.000
  0.000   0.000   0.000   0.000   0.000   0.000   0.000   0.000
 total augmentation occupancy for first ion, spin component: 
                        1
  1.889   0.000  -0.015  -0.053   0.015   0.426  -0.001  -0.139   0.138  -0.008   0.111  -0.133   0.000   0.000   0.000   0.000
  0.000   1.849  -0.017   0.054   0.012  -0.001   0.026  -0.065  -0.139   0.118  -0.113   0.132   0.000   0.000   0.000   0.000
 -0.015  -0.017   1.885  -0.006   0.057  -0.139  -0.065   0.244   0.005  -0.152  -0.146   0.120   0.000   0.000   0.000   0.000
 -0.053   0.054  -0.006   1.996   0.004   0.138  -0.139   0.005  -0.438  -0.002   0.002  -0.001   0.000   0.000   0.000   0.000
  0.015   0.012   0.057   0.004   2.035  -0.008   0.118  -0.152  -0.002  -0.344  -0.092   0.016   0.000   0.000   0.000   0.000
  0.426  -0.001  -0.139   0.138  -0.008   0.369   0.000   0.055   0.003  -0.005   0.180  -0.037   0.000   0.000   0.000   0.000
 -0.001   0.026  -0.065  -0.139   0.118   0.000   0.280   0.031  -0.001  -0.036  -0.176   0.042   0.000   0.000   0.000   0.000
 -0.139  -0.065   0.244   0.005  -0.152   0.055   0.031   0.308  -0.001  -0.040  -0.144   0.081   0.000   0.000   0.000   0.000
  0.138  -0.139   0.005  -0.438  -0.002   0.003  -0.001  -0.001   0.330   0.001   0.000  -0.002   0.000   0.000   0.000   0.000
 -0.008   0.118  -0.152  -0.002  -0.344  -0.005  -0.036  -0.040   0.001   0.209  -0.002   0.024   0.000   0.000   0.000   0.000
  0.111  -0.113  -0.146   0.002  -0.092   0.180  -0.176  -0.144   0.000  -0.002   1.156  -0.489   0.000   0.000   0.000   0.000
 -0.133   0.132   0.120  -0.001   0.016  -0.037   0.042   0.081  -0.002   0.024  -0.489   0.367   0.000   0.000   0.000   0.000
  0.000   0.000   0.000   0.000   0.000   0.000   0.000   0.000   0.000   0.000   0.000   0.000   0.152   0.066  -0.067  -0.012
  0.000   0.000   0.000   0.000   0.000   0.000   0.000   0.000   0.000   0.000   0.000   0.000   0.066   0.304  -0.001  -0.005
  0.000   0.000   0.000   0.000   0.000   0.000   0.000   0.000   0.000   0.000   0.000   0.000  -0.067  -0.001   0.187   0.005
  0.000   0.000   0.000   0.000   0.000   0.000   0.000   0.000   0.000   0.000   0.000   0.000  -0.012  -0.005   0.005   0.001
  0.000   0.000   0.000   0.000   0.000   0.000   0.000   0.000   0.000   0.000   0.000   0.000  -0.005  -0.021   0.000   0.000
  0.000   0.000   0.000   0.000   0.000   0.000   0.000   0.000   0.000   0.000   0.000   0.000   0.005   0.000  -0.014   0.000


------------------------ aborting loop because EDIFF is reached ----------------------------------------





 total charge     

# of ion     s       p       d       tot
----------------------------------------
  1        0.588   0.479   8.798   9.865



--------------------------------------------------------------------------------------------------------




--------------------------------------------------------------------------------------------------------



  FREE ENERGIE OF THE ION-ELECTRON SYSTEM (eV)
  ---------------------------------------------------
  free  energy   TOTEN  =        -2.858119 eV

  energy  without entropy=       -2.856838  energy(sigma->0) =       -2.857478


  FORCE on cell =-STRESS in cart. coord.  units (eV/reduce length):
  Direction    X        Y        Z        XY       YZ       ZX
  --------------------------------------------------------------------------------------
  Alpha Z    123.73    123.73    123.73
  Ewald     -339.31   -339.31   -339.31      0.00      0.00      0.00
  Hartree     32.72     32.72     32.72      0.00      0.00      0.00
  E(xc)      -50.37    -50.37    -50.37      0.00      0.00      0.00
  Local       86.35     86.35     86.35      0.00      0.00      0.00
  n-local    -46.87    -43.76    -47.60      0.61     -0.66      0.02
  augment     42.49     42.49     42.49      0.00      0.00      0.00
  Kinetic    154.47    153.52    155.60     -0.28      0.09      0.02
  -------------------------------------------------------------------------------------
  Total        4.07      4.07      4.07      0.00      0.00      0.00
  in kB      432.07    432.07    432.07      0.00      0.00      0.00
  external pressure =      432.07 kB  Pullay stress =        0.00 kB


 VOLUME and BASIS-vectors are now :
 -----------------------------------------------------------------------------
  energy-cutoff  :      350.00
  volume of cell :       15.10
      direct lattice vectors                 reciprocal lattice vectors
     0.000000000  1.961950000  1.961950000    -0.254848493  0.254848493  0.254848493
     1.961950000  0.000000000  1.961950000     0.254848493 -0.254848493  0.254848493
     1.961950000  1.961950000  0.000000000     0.254848493  0.254848493 -0.254848493

  length of vectors
     2.774616299  2.774616299  2.774616299     0.441410537  0.441410537  0.441410537


 FORCES acting on ions
    electron-ion (+dipol)            ewald-force                    non-local-force                 convergence-correction
 -----------------------------------------------------------------------------------------------
   0.732E-14 -.410E-14 -.759E-14   0.236E-15 0.231E-14 0.325E-14   0.000E+00 0.000E+00 -.132E-22   0.395E-14 0.711E-15 -.105E-13
 -----------------------------------------------------------------------------------------------
   0.732E-14 -.410E-14 -.759E-14   0.236E-15 0.231E-14 0.325E-14   0.000E+00 0.000E+00 -.132E-22   0.395E-14 0.711E-15 -.105E-13


 POSITION                                       TOTAL-FORCE (eV/Angst)
 -----------------------------------------------------------------------------------
      0.00000      0.00000      0.00000         0.000000      0.000000      0.000000
 -----------------------------------------------------------------------------------
    total drift:                                0.000000      0.000000      0.000000


--------------------------------------------------------------------------------------------------------



 mean value of Nose-termostat <S>:     1.000 mean value of <T> :     0.000
 mean temperature <T/S>/<1/S>  :     0.000

     LOOP+:  VPU time   20.24: CPU time   19.22



 total charge     

# of ion     s       p       d       tot
----------------------------------------
  1        0.588   0.479   8.798   9.865

  
  
 General timing and accounting informations for this job:
 ========================================================
  
                  Total CPU time used (sec):       21.605
                            User time (sec):       16.958
                          System time (sec):        4.646
                         Elapsed time (sec):       20.700
  
                   Maximum memory used (kb):           0.
                   Average memory used (kb):           0.
  
                          Minor page faults:       263082
                          Major page faults:            0
                 Voluntary context switches:       975342
