PROCAR lm decomposed
# of k-points:  110         # of bands:   9         # of ions:   1

 k-point    1 :    0.05000000 0.05000000 0.05000000     weight = 0.00200000

band   1 # energy   -3.68765710 # occ.  2.00000000

ion      s     py     pz     px    dxy    dyz    dz2    dxz    dx2    tot
  1  0.684  0.002  0.002  0.002  0.000  0.000  0.000  0.000  0.000  0.688

band   2 # energy    1.92005033 # occ.  2.00000000

ion      s     py     pz     px    dxy    dyz    dz2    dxz    dx2    tot
  1  0.000  0.000  0.000  0.000  0.314  0.314  0.000  0.314  0.000  0.943

band   3 # energy    1.99353046 # occ.  2.00000000

ion      s     py     pz     px    dxy    dyz    dz2    dxz    dx2    tot
  1  0.000  0.000  0.000  0.000  0.470  0.000  0.000  0.474  0.000  0.946

band   4 # energy    1.99353079 # occ.  2.00000000

ion      s     py     pz     px    dxy    dyz    dz2    dxz    dx2    tot
  1  0.000  0.000  0.000  0.000  0.160  0.630  0.000  0.155  0.000  0.946

band   5 # energy    3.81536691 # occ.  2.00000000

ion      s     py     pz     px    dxy    dyz    dz2    dxz    dx2    tot
  1  0.000  0.000  0.000  0.000  0.000  0.000  0.228  0.000  0.742  0.971

band   6 # energy    3.81536709 # occ.  2.00000000

ion      s     py     pz     px    dxy    dyz    dz2    dxz    dx2    tot
  1  0.000  0.000  0.000  0.000  0.000  0.000  0.742  0.000  0.228  0.971

band   7 # energy   22.88085947 # occ.  0.00000000

ion      s     py     pz     px    dxy    dyz    dz2    dxz    dx2    tot
  1  0.000  0.000  0.000  0.000  0.004  0.004  0.000  0.004  0.000  0.013

band   8 # energy   26.65481075 # occ.  0.00000000

ion      s     py     pz     px    dxy    dyz    dz2    dxz    dx2    tot
  1  0.013  0.053  0.053  0.053  0.005  0.005  0.000  0.005  0.000  0.189

band   9 # energy   27.47648118 # occ.  0.00000000

ion      s     py     pz     px    dxy    dyz    dz2    dxz    dx2    tot
  1  0.000  0.076  0.022  0.075  0.001  0.002  0.001  0.002  0.005  0.185


 k-point    2 :    0.15000000 0.05000000 0.05000000     weight = 0.00600000

band   1 # energy   -3.18130804 # occ.  2.00000000

ion      s     py     pz     px    dxy    dyz    dz2    dxz    dx2    tot
  1  0.657  0.013  0.013  0.001  0.000  0.003  0.000  0.000  0.000  0.689

band   2 # energy    1.73050057 # occ.  2.00000000

ion      s     py     pz     px    dxy    dyz    dz2    dxz    dx2    tot
  1  0.001  0.001  0.001  0.005  0.447  0.031  0.000  0.447  0.000  0.932

band   3 # energy    2.16039691 # occ.  2.00000000

ion      s     py     pz     px    dxy    dyz    dz2    dxz    dx2    tot
  1  0.000  0.000  0.000  0.000  0.470  0.000  0.004  0.470  0.001  0.945

band   4 # energy    2.19832151 # occ.  2.00000000

ion      s     py     pz     px    dxy    dyz    dz2    dxz    dx2    tot
  1  0.001  0.002  0.002  0.000  0.016  0.879  0.007  0.016  0.021  0.944

band   5 # energy    3.62858925 # occ.  2.00000000

ion      s     py     pz     px    dxy    dyz    dz2    dxz    dx2    tot
  1  0.000  0.000  0.000  0.000  0.003  0.000  0.717  0.003  0.239  0.962

band   6 # energy    3.87426440 # occ.  2.00000000

ion      s     py     pz     px    dxy    dyz    dz2    dxz    dx2    tot
  1  0.000  0.000  0.000  0.000  0.001  0.027  0.235  0.001  0.704  0.968

band   7 # energy   23.42973901 # occ.  0.00000000

ion      s     py     pz     px    dxy    dyz    dz2    dxz    dx2    tot
  1  0.001  0.003  0.003  0.009  0.046  0.008  0.000  0.046  0.000  0.116

band   8 # energy   24.61670731 # occ.  0.00000000

ion      s     py     pz     px    dxy    dyz    dz2    dxz    dx2    tot
  1  0.043  0.067  0.067  0.017  0.003  0.037  0.002  0.003  0.006  0.243

band   9 # energy   27.27087676 # occ.  0.00000000

ion      s     py     pz     px    dxy    dyz    dz2    dxz    dx2    tot
  1  0.000  0.008  0.008  0.216  0.030  0.009  0.002  0.030  0.007  0.309


 k-point    3 :    0.25000000 0.05000000 0.05000000     weight = 0.00600000

band   1 # energy   -2.10634499 # occ.  2.00000000

ion      s     py     pz     px    dxy    dyz    dz2    dxz    dx2    tot
  1  0.572  0.028  0.028  0.008  0.017  0.031  0.000  0.017  0.001  0.703

band   2 # energy    1.58656130 # occ.  2.00000000

ion      s     py     pz     px    dxy    dyz    dz2    dxz    dx2    tot
  1  0.019  0.010  0.010  0.020  0.389  0.061  0.000  0.389  0.000  0.898

band   3 # energy    2.33766944 # occ.  2.00000000

ion      s     py     pz     px    dxy    dyz    dz2    dxz    dx2    tot
  1  0.002  0.004  0.004  0.000  0.033  0.637  0.056  0.033  0.169  0.939

band   4 # energy    2.36616341 # occ.  2.00000000

ion      s     py     pz     px    dxy    dyz    dz2    dxz    dx2    tot
  1  0.000  0.000  0.000  0.000  0.381  0.000  0.136  0.381  0.045  0.944

band   5 # energy    3.63566693 # occ.  2.00000000

ion      s     py     pz     px    dxy    dyz    dz2    dxz    dx2    tot
  1  0.000  0.001  0.001  0.000  0.092  0.000  0.577  0.092  0.192  0.955

band   6 # energy    4.13316342 # occ.  2.00000000

ion      s     py     pz     px    dxy    dyz    dz2    dxz    dx2    tot
  1  0.004  0.002  0.002  0.000  0.012  0.200  0.183  0.012  0.549  0.963

band   7 # energy   20.94919698 # occ.  0.00000000

ion      s     py     pz     px    dxy    dyz    dz2    dxz    dx2    tot
  1  0.101  0.082  0.082  0.078  0.058  0.073  0.001  0.058  0.003  0.536

band   8 # energy   24.13071896 # occ.  0.00000000

ion      s     py     pz     px    dxy    dyz    dz2    dxz    dx2    tot
  1  0.001  0.000  0.000  0.020  0.069  0.006  0.001  0.069  0.003  0.170

band   9 # energy   27.78021246 # occ.  0.00000000

ion      s     py     pz     px    dxy    dyz    dz2    dxz    dx2    tot
  1  0.003  0.046  0.046  0.238  0.032  0.093  0.008  0.032  0.022  0.520


 k-point    4 :    0.35000000 0.05000000 0.05000000     weight = 0.00600000

band   1 # energy   -1.21682554 # occ.  2.00000000

ion      s     py     pz     px    dxy    dyz    dz2    dxz    dx2    tot
  1  0.373  0.020  0.020  0.004  0.114  0.127  0.000  0.114  0.001  0.774

band   2 # energy    2.11897560 # occ.  2.00000000

ion      s     py     pz     px    dxy    dyz    dz2    dxz    dx2    tot
  1  0.014  0.003  0.003  0.013  0.172  0.234  0.079  0.172  0.236  0.925

band   3 # energy    2.22005217 # occ.  2.00000000

ion      s     py     pz     px    dxy    dyz    dz2    dxz    dx2    tot
  1  0.000  0.000  0.000  0.000  0.239  0.000  0.345  0.239  0.115  0.938

band   4 # energy    2.37654825 # occ.  2.00000000

ion      s     py     pz     px    dxy    dyz    dz2    dxz    dx2    tot
  1  0.096  0.055  0.055  0.047  0.122  0.166  0.037  0.122  0.112  0.813

band   5 # energy    4.23411327 # occ.  2.00000000

ion      s     py     pz     px    dxy    dyz    dz2    dxz    dx2    tot
  1  0.000  0.001  0.001  0.000  0.237  0.000  0.363  0.237  0.121  0.960

band   6 # energy    4.82538363 # occ.  2.00000000

ion      s     py     pz     px    dxy    dyz    dz2    dxz    dx2    tot
  1  0.015  0.008  0.008  0.001  0.024  0.394  0.122  0.024  0.365  0.960

band   7 # energy   16.88249494 # occ.  0.00000000

ion      s     py     pz     px    dxy    dyz    dz2    dxz    dx2    tot
  1  0.202  0.087  0.087  0.095  0.080  0.080  0.001  0.080  0.002  0.713

band   8 # energy   23.33887816 # occ.  0.00000000

ion      s     py     pz     px    dxy    dyz    dz2    dxz    dx2    tot
  1  0.000  0.005  0.005  0.027  0.041  0.003  0.002  0.041  0.006  0.129

band   9 # energy   26.91351724 # occ.  0.00000000

ion      s     py     pz     px    dxy    dyz    dz2    dxz    dx2    tot
  1  0.011  0.092  0.093  0.257  0.048  0.066  0.002  0.047  0.005  0.620


 k-point    5 :    0.45000000 0.05000000 0.05000000     weight = 0.00600000

band   1 # energy   -1.04660144 # occ.  2.00000000

ion      s     py     pz     px    dxy    dyz    dz2    dxz    dx2    tot
  1  0.230  0.005  0.005  0.000  0.195  0.200  0.000  0.195  0.000  0.830

band   2 # energy    1.92973049 # occ.  2.00000000

ion      s     py     pz     px    dxy    dyz    dz2    dxz    dx2    tot
  1  0.000  0.001  0.001  0.000  0.063  0.274  0.132  0.063  0.397  0.931

band   3 # energy    2.01519372 # occ.  2.00000000

ion      s     py     pz     px    dxy    dyz    dz2    dxz    dx2    tot
  1  0.000  0.000  0.000  0.000  0.193  0.000  0.411  0.193  0.137  0.934

band   4 # energy    4.09592702 # occ.  2.00000000

ion      s     py     pz     px    dxy    dyz    dz2    dxz    dx2    tot
  1  0.066  0.088  0.088  0.092  0.132  0.041  0.034  0.132  0.101  0.774

band   5 # energy    4.97136152 # occ.  2.00000000

ion      s     py     pz     px    dxy    dyz    dz2    dxz    dx2    tot
  1  0.000  0.001  0.001  0.000  0.289  0.000  0.296  0.289  0.099  0.974

band   6 # energy    5.78525119 # occ.  2.00000000

ion      s     py     pz     px    dxy    dyz    dz2    dxz    dx2    tot
  1  0.051  0.053  0.053  0.036  0.010  0.389  0.071  0.010  0.212  0.884

band   7 # energy   12.94956843 # occ.  0.00000000

ion      s     py     pz     px    dxy    dyz    dz2    dxz    dx2    tot
  1  0.354  0.049  0.049  0.062  0.109  0.092  0.001  0.109  0.002  0.825

band   8 # energy   22.41302196 # occ.  0.00000000

ion      s     py     pz     px    dxy    dyz    dz2    dxz    dx2    tot
  1  0.000  0.006  0.006  0.016  0.011  0.000  0.002  0.011  0.007  0.059

band   9 # energy   25.79945442 # occ.  0.00000000

ion      s     py     pz     px    dxy    dyz    dz2    dxz    dx2    tot
  1  0.009  0.084  0.082  0.291  0.027  0.007  0.002  0.027  0.005  0.535


 k-point    6 :   -0.45000000 0.05000000 0.05000000     weight = 0.00600000

band   1 # energy   -1.05620134 # occ.  2.00000000

ion      s     py     pz     px    dxy    dyz    dz2    dxz    dx2    tot
  1  0.203  0.000  0.000  0.003  0.207  0.220  0.000  0.207  0.000  0.840

band   2 # energy    1.84858702 # occ.  2.00000000

ion      s     py     pz     px    dxy    dyz    dz2    dxz    dx2    tot
  1  0.000  0.001  0.001  0.000  0.066  0.234  0.140  0.066  0.421  0.929

band   3 # energy    1.96766356 # occ.  2.00000000

ion      s     py     pz     px    dxy    dyz    dz2    dxz    dx2    tot
  1  0.000  0.000  0.000  0.000  0.189  0.000  0.415  0.189  0.138  0.933

band   4 # energy    4.63262904 # occ.  2.00000000

ion      s     py     pz     px    dxy    dyz    dz2    dxz    dx2    tot
  1  0.002  0.062  0.062  0.058  0.057  0.314  0.060  0.057  0.180  0.853

band   5 # energy    5.32467425 # occ.  2.00000000

ion      s     py     pz     px    dxy    dyz    dz2    dxz    dx2    tot
  1  0.000  0.000  0.000  0.000  0.295  0.000  0.295  0.295  0.098  0.982

band   6 # energy    6.55367578 # occ.  2.00000000

ion      s     py     pz     px    dxy    dyz    dz2    dxz    dx2    tot
  1  0.007  0.128  0.128  0.142  0.049  0.084  0.036  0.049  0.108  0.731

band   7 # energy   11.27756649 # occ.  0.00000000

ion      s     py     pz     px    dxy    dyz    dz2    dxz    dx2    tot
  1  0.488  0.006  0.006  0.002  0.130  0.138  0.000  0.130  0.000  0.900

band   8 # energy   22.15977676 # occ.  0.00000000

ion      s     py     pz     px    dxy    dyz    dz2    dxz    dx2    tot
  1  0.000  0.006  0.006  0.012  0.001  0.007  0.002  0.001  0.007  0.042

band   9 # energy   25.83141533 # occ.  0.00000000

ion      s     py     pz     px    dxy    dyz    dz2    dxz    dx2    tot
  1  0.007  0.012  0.175  0.266  0.004  0.007  0.001  0.010  0.016  0.500


 k-point    7 :   -0.35000000 0.05000000 0.05000000     weight = 0.00600000

band   1 # energy   -1.05944204 # occ.  2.00000000

ion      s     py     pz     px    dxy    dyz    dz2    dxz    dx2    tot
  1  0.260  0.002  0.002  0.014  0.174  0.191  0.000  0.174  0.001  0.818

band   2 # energy    1.96666947 # occ.  2.00000000

ion      s     py     pz     px    dxy    dyz    dz2    dxz    dx2    tot
  1  0.000  0.000  0.000  0.000  0.079  0.236  0.134  0.079  0.402  0.931

band   3 # energy    2.10208942 # occ.  2.00000000

ion      s     py     pz     px    dxy    dyz    dz2    dxz    dx2    tot
  1  0.000  0.001  0.001  0.000  0.216  0.000  0.377  0.216  0.126  0.936

band   4 # energy    3.44847573 # occ.  2.00000000

ion      s     py     pz     px    dxy    dyz    dz2    dxz    dx2    tot
  1  0.100  0.083  0.083  0.078  0.005  0.327  0.023  0.005  0.068  0.773

band   5 # energy    5.07297677 # occ.  2.00000000

ion      s     py     pz     px    dxy    dyz    dz2    dxz    dx2    tot
  1  0.000  0.001  0.001  0.000  0.264  0.000  0.336  0.264  0.112  0.977

band   6 # energy    5.16658557 # occ.  2.00000000

ion      s     py     pz     px    dxy    dyz    dz2    dxz    dx2    tot
  1  0.045  0.021  0.021  0.044  0.168  0.132  0.078  0.168  0.235  0.912

band   7 # energy   14.16932998 # occ.  0.00000000

ion      s     py     pz     px    dxy    dyz    dz2    dxz    dx2    tot
  1  0.295  0.076  0.076  0.063  0.089  0.100  0.000  0.089  0.001  0.789

band   8 # energy   22.67642056 # occ.  0.00000000

ion      s     py     pz     px    dxy    dyz    dz2    dxz    dx2    tot
  1  0.000  0.009  0.009  0.010  0.003  0.025  0.002  0.003  0.007  0.069

band   9 # energy   26.34641764 # occ.  0.00000000

ion      s     py     pz     px    dxy    dyz    dz2    dxz    dx2    tot
  1  0.000  0.237  0.230  0.000  0.042  0.000  0.007  0.042  0.002  0.561


 k-point    8 :   -0.25000000 0.05000000 0.05000000     weight = 0.00600000

band   1 # energy   -1.42835839 # occ.  2.00000000

ion      s     py     pz     px    dxy    dyz    dz2    dxz    dx2    tot
  1  0.447  0.012  0.012  0.035  0.080  0.075  0.001  0.080  0.002  0.745

band   2 # energy    1.89063799 # occ.  2.00000000

ion      s     py     pz     px    dxy    dyz    dz2    dxz    dx2    tot
  1  0.071  0.036  0.036  0.032  0.060  0.554  0.000  0.060  0.001  0.850

band   3 # energy    2.23607515 # occ.  2.00000000

ion      s     py     pz     px    dxy    dyz    dz2    dxz    dx2    tot
  1  0.004  0.004  0.004  0.005  0.171  0.127  0.110  0.171  0.331  0.927

band   4 # energy    2.31453798 # occ.  2.00000000

ion      s     py     pz     px    dxy    dyz    dz2    dxz    dx2    tot
  1  0.000  0.002  0.002  0.000  0.290  0.000  0.267  0.290  0.089  0.941

band   5 # energy    4.12103075 # occ.  2.00000000

ion      s     py     pz     px    dxy    dyz    dz2    dxz    dx2    tot
  1  0.012  0.001  0.001  0.011  0.136  0.154  0.125  0.136  0.374  0.950

band   6 # energy    4.45259225 # occ.  2.00000000

ion      s     py     pz     px    dxy    dyz    dz2    dxz    dx2    tot
  1  0.000  0.001  0.001  0.000  0.183  0.000  0.449  0.183  0.150  0.967

band   7 # energy   18.26879946 # occ.  0.00000000

ion      s     py     pz     px    dxy    dyz    dz2    dxz    dx2    tot
  1  0.163  0.095  0.095  0.084  0.077  0.073  0.001  0.077  0.002  0.665

band   8 # energy   23.74593465 # occ.  0.00000000

ion      s     py     pz     px    dxy    dyz    dz2    dxz    dx2    tot
  1  0.000  0.012  0.012  0.005  0.019  0.066  0.002  0.019  0.006  0.141

band   9 # energy   27.49255275 # occ.  0.00000000

ion      s     py     pz     px    dxy    dyz    dz2    dxz    dx2    tot
  1  0.000  0.216  0.217  0.000  0.103  0.000  0.016  0.103  0.005  0.661


 k-point    9 :   -0.15000000 0.05000000 0.05000000     weight = 0.00600000

band   1 # energy   -2.49673519 # occ.  2.00000000

ion      s     py     pz     px    dxy    dyz    dz2    dxz    dx2    tot
  1  0.610  0.011  0.011  0.033  0.011  0.006  0.000  0.011  0.001  0.695

band   2 # energy    1.57273558 # occ.  2.00000000

ion      s     py     pz     px    dxy    dyz    dz2    dxz    dx2    tot
  1  0.008  0.009  0.009  0.005  0.129  0.627  0.000  0.129  0.000  0.914

band   3 # energy    2.33019553 # occ.  2.00000000

ion      s     py     pz     px    dxy    dyz    dz2    dxz    dx2    tot
  1  0.001  0.001  0.001  0.003  0.281  0.254  0.030  0.281  0.091  0.942

band   4 # energy    2.34633417 # occ.  2.00000000

ion      s     py     pz     px    dxy    dyz    dz2    dxz    dx2    tot
  1  0.000  0.002  0.002  0.000  0.417  0.000  0.080  0.417  0.027  0.944

band   5 # energy    3.58299202 # occ.  2.00000000

ion      s     py     pz     px    dxy    dyz    dz2    dxz    dx2    tot
  1  0.003  0.000  0.000  0.002  0.041  0.039  0.208  0.041  0.623  0.955

band   6 # energy    3.98177735 # occ.  2.00000000

ion      s     py     pz     px    dxy    dyz    dz2    dxz    dx2    tot
  1  0.000  0.000  0.000  0.000  0.054  0.000  0.643  0.054  0.214  0.966

band   7 # energy   22.20855582 # occ.  0.00000000

ion      s     py     pz     px    dxy    dyz    dz2    dxz    dx2    tot
  1  0.073  0.074  0.074  0.068  0.061  0.053  0.001  0.061  0.003  0.467

band   8 # energy   24.13989365 # occ.  0.00000000

ion      s     py     pz     px    dxy    dyz    dz2    dxz    dx2    tot
  1  0.003  0.001  0.001  0.001  0.014  0.070  0.001  0.014  0.002  0.107

band   9 # energy   27.73592909 # occ.  0.00000000

ion      s     py     pz     px    dxy    dyz    dz2    dxz    dx2    tot
  1  0.000  0.150  0.148  0.000  0.076  0.000  0.024  0.075  0.008  0.481


 k-point   10 :   -0.05000000 0.05000000 0.05000000     weight = 0.00600000

band   1 # energy   -3.42961048 # occ.  2.00000000

ion      s     py     pz     px    dxy    dyz    dz2    dxz    dx2    tot
  1  0.670  0.001  0.001  0.014  0.000  0.000  0.000  0.000  0.000  0.688

band   2 # energy    1.78690663 # occ.  2.00000000

ion      s     py     pz     px    dxy    dyz    dz2    dxz    dx2    tot
  1  0.000  0.001  0.001  0.000  0.051  0.833  0.000  0.051  0.000  0.938

band   3 # energy    2.10795451 # occ.  2.00000000

ion      s     py     pz     px    dxy    dyz    dz2    dxz    dx2    tot
  1  0.000  0.001  0.001  0.001  0.418  0.105  0.001  0.418  0.002  0.945

band   4 # energy    2.11467407 # occ.  2.00000000

ion      s     py     pz     px    dxy    dyz    dz2    dxz    dx2    tot
  1  0.000  0.001  0.001  0.000  0.469  0.000  0.003  0.469  0.001  0.945

band   5 # energy    3.65936098 # occ.  2.00000000

ion      s     py     pz     px    dxy    dyz    dz2    dxz    dx2    tot
  1  0.000  0.000  0.000  0.000  0.001  0.000  0.240  0.001  0.721  0.964

band   6 # energy    3.88513100 # occ.  2.00000000

ion      s     py     pz     px    dxy    dyz    dz2    dxz    dx2    tot
  1  0.000  0.000  0.000  0.000  0.002  0.000  0.725  0.002  0.242  0.971

band   7 # energy   23.20180417 # occ.  0.00000000

ion      s     py     pz     px    dxy    dyz    dz2    dxz    dx2    tot
  1  0.000  0.001  0.001  0.000  0.005  0.039  0.000  0.005  0.000  0.050

band   8 # energy   25.71066929 # occ.  0.00000000

ion      s     py     pz     px    dxy    dyz    dz2    dxz    dx2    tot
  1  0.030  0.035  0.035  0.075  0.014  0.002  0.003  0.014  0.009  0.215

band   9 # energy   27.32750382 # occ.  0.00000000

ion      s     py     pz     px    dxy    dyz    dz2    dxz    dx2    tot
  1  0.000  0.111  0.098  0.000  0.025  0.000  0.004  0.023  0.002  0.263


 k-point   11 :    0.15000000 0.15000000 0.05000000     weight = 0.00600000

band   1 # energy   -2.93046557 # occ.  2.00000000

ion      s     py     pz     px    dxy    dyz    dz2    dxz    dx2    tot
  1  0.642  0.001  0.037  0.001  0.000  0.001  0.004  0.001  0.000  0.689

band   2 # energy    1.52281700 # occ.  2.00000000

ion      s     py     pz     px    dxy    dyz    dz2    dxz    dx2    tot
  1  0.000  0.001  0.000  0.001  0.894  0.017  0.000  0.017  0.000  0.929

band   3 # energy    2.34815372 # occ.  2.00000000

ion      s     py     pz     px    dxy    dyz    dz2    dxz    dx2    tot
  1  0.000  0.003  0.001  0.003  0.035  0.443  0.015  0.443  0.000  0.944

band   4 # energy    2.35302554 # occ.  2.00000000

ion      s     py     pz     px    dxy    dyz    dz2    dxz    dx2    tot
  1  0.000  0.003  0.000  0.003  0.000  0.464  0.000  0.464  0.011  0.944

band   5 # energy    3.38727061 # occ.  2.00000000

ion      s     py     pz     px    dxy    dyz    dz2    dxz    dx2    tot
  1  0.003  0.000  0.001  0.000  0.001  0.007  0.933  0.007  0.000  0.953

band   6 # energy    4.01938708 # occ.  2.00000000

ion      s     py     pz     px    dxy    dyz    dz2    dxz    dx2    tot
  1  0.000  0.000  0.000  0.000  0.000  0.006  0.000  0.006  0.960  0.971

band   7 # energy   23.77928242 # occ.  0.00000000

ion      s     py     pz     px    dxy    dyz    dz2    dxz    dx2    tot
  1  0.001  0.005  0.001  0.005  0.108  0.009  0.000  0.009  0.000  0.139

band   8 # energy   24.81101186 # occ.  0.00000000

ion      s     py     pz     px    dxy    dyz    dz2    dxz    dx2    tot
  1  0.045  0.035  0.058  0.035  0.000  0.019  0.038  0.019  0.000  0.249

band   9 # energy   26.86290347 # occ.  0.00000000

ion      s     py     pz     px    dxy    dyz    dz2    dxz    dx2    tot
  1  0.000  0.163  0.001  0.114  0.000  0.073  0.002  0.053  0.004  0.411


 k-point   12 :    0.25000000 0.15000000 0.05000000     weight = 0.01200000

band   1 # energy   -2.03195133 # occ.  2.00000000

ion      s     py     pz     px    dxy    dyz    dz2    dxz    dx2    tot
  1  0.579  0.011  0.065  0.001  0.001  0.017  0.017  0.002  0.000  0.694

band   2 # energy    1.22264129 # occ.  2.00000000

ion      s     py     pz     px    dxy    dyz    dz2    dxz    dx2    tot
  1  0.001  0.001  0.001  0.008  0.827  0.005  0.000  0.072  0.000  0.915

band   3 # energy    2.45650122 # occ.  2.00000000

ion      s     py     pz     px    dxy    dyz    dz2    dxz    dx2    tot
  1  0.000  0.008  0.000  0.000  0.014  0.565  0.283  0.022  0.043  0.936

band   4 # energy    2.68599372 # occ.  2.00000000

ion      s     py     pz     px    dxy    dyz    dz2    dxz    dx2    tot
  1  0.000  0.001  0.000  0.007  0.063  0.058  0.015  0.762  0.038  0.945

band   5 # energy    3.32313849 # occ.  2.00000000

ion      s     py     pz     px    dxy    dyz    dz2    dxz    dx2    tot
  1  0.015  0.002  0.009  0.001  0.012  0.157  0.600  0.064  0.082  0.941

band   6 # energy    4.28750352 # occ.  2.00000000

ion      s     py     pz     px    dxy    dyz    dz2    dxz    dx2    tot
  1  0.003  0.002  0.001  0.000  0.000  0.130  0.023  0.006  0.804  0.969

band   7 # energy   22.49034768 # occ.  0.00000000

ion      s     py     pz     px    dxy    dyz    dz2    dxz    dx2    tot
  1  0.079  0.116  0.059  0.042  0.025  0.082  0.027  0.029  0.004  0.463

band   8 # energy   24.21473049 # occ.  0.00000000

ion      s     py     pz     px    dxy    dyz    dz2    dxz    dx2    tot
  1  0.004  0.007  0.002  0.103  0.169  0.003  0.009  0.089  0.002  0.389

band   9 # energy   26.28908256 # occ.  0.00000000

ion      s     py     pz     px    dxy    dyz    dz2    dxz    dx2    tot
  1  0.000  0.052  0.002  0.209  0.011  0.036  0.002  0.073  0.004  0.388


 k-point   13 :    0.35000000 0.15000000 0.05000000     weight = 0.01200000

band   1 # energy   -0.97665649 # occ.  2.00000000

ion      s     py     pz     px    dxy    dyz    dz2    dxz    dx2    tot
  1  0.417  0.014  0.067  0.002  0.073  0.088  0.032  0.050  0.000  0.743

band   2 # energy    1.33364899 # occ.  2.00000000

ion      s     py     pz     px    dxy    dyz    dz2    dxz    dx2    tot
  1  0.045  0.018  0.020  0.029  0.671  0.002  0.020  0.066  0.000  0.869

band   3 # energy    2.08235608 # occ.  2.00000000

ion      s     py     pz     px    dxy    dyz    dz2    dxz    dx2    tot
  1  0.001  0.006  0.000  0.001  0.055  0.260  0.527  0.037  0.034  0.921

band   4 # energy    2.69180317 # occ.  2.00000000

ion      s     py     pz     px    dxy    dyz    dz2    dxz    dx2    tot
  1  0.002  0.003  0.002  0.003  0.035  0.153  0.039  0.385  0.318  0.941

band   5 # energy    4.12186552 # occ.  2.00000000

ion      s     py     pz     px    dxy    dyz    dz2    dxz    dx2    tot
  1  0.026  0.003  0.020  0.007  0.062  0.033  0.232  0.372  0.183  0.938

band   6 # energy    4.98939554 # occ.  2.00000000

ion      s     py     pz     px    dxy    dyz    dz2    dxz    dx2    tot
  1  0.027  0.009  0.013  0.001  0.005  0.394  0.077  0.009  0.425  0.959

band   7 # energy   18.51885733 # occ.  0.00000000

ion      s     py     pz     px    dxy    dyz    dz2    dxz    dx2    tot
  1  0.162  0.116  0.077  0.101  0.062  0.075  0.010  0.064  0.003  0.671

band   8 # energy   23.69680248 # occ.  0.00000000

ion      s     py     pz     px    dxy    dyz    dz2    dxz    dx2    tot
  1  0.002  0.014  0.000  0.138  0.118  0.008  0.040  0.074  0.011  0.405

band   9 # energy   25.26342570 # occ.  0.00000000

ion      s     py     pz     px    dxy    dyz    dz2    dxz    dx2    tot
  1  0.017  0.122  0.065  0.140  0.000  0.041  0.045  0.049  0.008  0.487


 k-point   14 :    0.45000000 0.15000000 0.05000000     weight = 0.01200000

band   1 # energy   -0.63844767 # occ.  2.00000000

ion      s     py     pz     px    dxy    dyz    dz2    dxz    dx2    tot
  1  0.225  0.002  0.031  0.001  0.244  0.169  0.017  0.134  0.000  0.822

band   2 # energy    1.71390559 # occ.  2.00000000

ion      s     py     pz     px    dxy    dyz    dz2    dxz    dx2    tot
  1  0.000  0.009  0.000  0.002  0.073  0.175  0.579  0.029  0.042  0.908

band   3 # energy    2.36555537 # occ.  2.00000000

ion      s     py     pz     px    dxy    dyz    dz2    dxz    dx2    tot
  1  0.035  0.019  0.024  0.043  0.199  0.136  0.113  0.136  0.174  0.876

band   4 # energy    2.55577300 # occ.  2.00000000

ion      s     py     pz     px    dxy    dyz    dz2    dxz    dx2    tot
  1  0.036  0.031  0.035  0.011  0.301  0.014  0.000  0.154  0.302  0.884

band   5 # energy    5.04319615 # occ.  2.00000000

ion      s     py     pz     px    dxy    dyz    dz2    dxz    dx2    tot
  1  0.005  0.001  0.009  0.006  0.035  0.073  0.057  0.429  0.350  0.966

band   6 # energy    6.31893721 # occ.  2.00000000

ion      s     py     pz     px    dxy    dyz    dz2    dxz    dx2    tot
  1  0.098  0.036  0.074  0.025  0.022  0.364  0.157  0.028  0.082  0.887

band   7 # energy   14.33896699 # occ.  0.00000000

ion      s     py     pz     px    dxy    dyz    dz2    dxz    dx2    tot
  1  0.282  0.086  0.059  0.097  0.098  0.062  0.007  0.076  0.004  0.771

band   8 # energy   22.89790873 # occ.  0.00000000

ion      s     py     pz     px    dxy    dyz    dz2    dxz    dx2    tot
  1  0.000  0.008  0.018  0.054  0.055  0.011  0.073  0.011  0.013  0.244

band   9 # energy   24.14486849 # occ.  0.00000000

ion      s     py     pz     px    dxy    dyz    dz2    dxz    dx2    tot
  1  0.027  0.076  0.103  0.248  0.023  0.003  0.025  0.062  0.026  0.594


 k-point   15 :   -0.45000000 0.15000000 0.05000000     weight = 0.01200000

band   1 # energy   -0.63916206 # occ.  2.00000000

ion      s     py     pz     px    dxy    dyz    dz2    dxz    dx2    tot
  1  0.174  0.000  0.013  0.006  0.269  0.212  0.003  0.165  0.000  0.844

band   2 # energy    1.55959886 # occ.  2.00000000

ion      s     py     pz     px    dxy    dyz    dz2    dxz    dx2    tot
  1  0.000  0.008  0.000  0.001  0.138  0.137  0.545  0.013  0.063  0.906

band   3 # energy    2.32496915 # occ.  2.00000000

ion      s     py     pz     px    dxy    dyz    dz2    dxz    dx2    tot
  1  0.000  0.000  0.001  0.004  0.011  0.084  0.065  0.254  0.513  0.933

band   4 # energy    3.39480955 # occ.  2.00000000

ion      s     py     pz     px    dxy    dyz    dz2    dxz    dx2    tot
  1  0.003  0.060  0.062  0.059  0.321  0.162  0.141  0.014  0.018  0.840

band   5 # energy    5.26553072 # occ.  2.00000000

ion      s     py     pz     px    dxy    dyz    dz2    dxz    dx2    tot
  1  0.001  0.000  0.000  0.000  0.038  0.173  0.035  0.406  0.327  0.980

band   6 # energy    8.22746729 # occ.  0.00000000

ion      s     py     pz     px    dxy    dyz    dz2    dxz    dx2    tot
  1  0.012  0.113  0.152  0.121  0.067  0.111  0.148  0.015  0.019  0.758

band   7 # energy   11.21948318 # occ.  0.00000000

ion      s     py     pz     px    dxy    dyz    dz2    dxz    dx2    tot
  1  0.491  0.008  0.000  0.018  0.137  0.105  0.000  0.118  0.001  0.879

band   8 # energy   22.38409723 # occ.  0.00000000

ion      s     py     pz     px    dxy    dyz    dz2    dxz    dx2    tot
  1  0.003  0.008  0.075  0.004  0.018  0.028  0.090  0.004  0.006  0.237

band   9 # energy   23.82457812 # occ.  0.00000000

ion      s     py     pz     px    dxy    dyz    dz2    dxz    dx2    tot
  1  0.038  0.001  0.172  0.252  0.040  0.008  0.010  0.043  0.045  0.610


 k-point   16 :   -0.35000000 0.15000000 0.05000000     weight = 0.01200000

band   1 # energy   -0.60631274 # occ.  2.00000000

ion      s     py     pz     px    dxy    dyz    dz2    dxz    dx2    tot
  1  0.200  0.005  0.005  0.018  0.230  0.217  0.000  0.157  0.002  0.834

band   2 # energy    1.65890489 # occ.  2.00000000

ion      s     py     pz     px    dxy    dyz    dz2    dxz    dx2    tot
  1  0.000  0.006  0.000  0.001  0.215  0.117  0.481  0.005  0.087  0.912

band   3 # energy    2.35492721 # occ.  2.00000000

ion      s     py     pz     px    dxy    dyz    dz2    dxz    dx2    tot
  1  0.000  0.001  0.005  0.000  0.034  0.036  0.053  0.278  0.525  0.932

band   4 # energy    3.00868503 # occ.  2.00000000

ion      s     py     pz     px    dxy    dyz    dz2    dxz    dx2    tot
  1  0.042  0.063  0.060  0.065  0.079  0.344  0.148  0.012  0.006  0.818

band   5 # energy    4.86749294 # occ.  2.00000000

ion      s     py     pz     px    dxy    dyz    dz2    dxz    dx2    tot
  1  0.001  0.000  0.002  0.006  0.030  0.144  0.047  0.433  0.304  0.967

band   6 # energy    7.10313931 # occ.  1.99999991

ion      s     py     pz     px    dxy    dyz    dz2    dxz    dx2    tot
  1  0.112  0.057  0.038  0.081  0.349  0.008  0.202  0.003  0.011  0.862

band   7 # energy   13.14851284 # occ.  0.00000000

ion      s     py     pz     px    dxy    dyz    dz2    dxz    dx2    tot
  1  0.328  0.059  0.090  0.047  0.056  0.110  0.019  0.094  0.000  0.803

band   8 # energy   22.33421997 # occ.  0.00000000
