<?xml version="1.0" encoding="ISO-8859-1"?>
<modeling>
 <generator>
  <i name="program"" type=""stringvasp</i>
  <i name="version"" type=""string4.6.26 </i>
  <i name="subversion"" type=""string15Dec04 complex  serial</i>
  <i name="platform"" type=""stringLinuxPgi</i>
  <i name="date"" type=""string2009 11 29</i>
  <i name="time"" type=""string22:42:35</i>
 </generator>
 <incar>
  <i type=""string"" nameSYSTEM"" Au, FCC</i>
  <i type=""int"" nameISTART""     0</i>
  <i type=""string"" namePREC""normal ! set fft mesh, cutoffs</i>
  <i type=""string"" nameALGO"" Fast   ! use fast algorithm for electro</i>
  <i type=""int"" nameISPIN""     1</i>
  <i name="EDIFF""      0.00010000</i>
  <i name="ENCUT""    350.00000000</i>
  <i type=""int"" nameISMEAR""     0</i>
  <i name="SIGMA""      0.10000000</i>
  <i type=""int"" nameNWRITE""     1</i>
  <i type=""logical"" nameLWAVE"" F  </i>
  <i type=""logical"" nameLCHARG"" T  </i>
  <i type=""logical"" nameLVTOT"" F  </i>
  <i type=""logical"" nameLORBIT"" F  </i>
 </incar>
 <kpoints>
  <generation param="Monkhorst-Pack">
   <v type=""int"" namedivisions""      10      10      10</v>
   <v name="usershift""      0.00000000      0.00000000      0.00000000</v>
   <v name="genvec1""      0.10000000      0.00000000      0.00000000</v>
   <v name="genvec2""      0.00000000      0.10000000      0.00000000</v>
   <v name="genvec3""      0.00000000      0.00000000      0.10000000</v>
   <v name="shift""      0.50000000      0.50000000      0.50000000</v>
  </generation>
  <varray name="kpointlist"">
   <v>       0.05000000      0.05000000      0.05000000</v>
   <v>       0.15000000      0.05000000      0.05000000</v>
   <v>       0.25000000      0.05000000      0.05000000</v>
   <v>       0.35000000      0.05000000      0.05000000</v>
   <v>       0.45000000      0.05000000      0.05000000</v>
   <v>      -0.45000000      0.05000000      0.05000000</v>
   <v>      -0.35000000      0.05000000      0.05000000</v>
   <v>      -0.25000000      0.05000000      0.05000000</v>
   <v>      -0.15000000      0.05000000      0.05000000</v>
   <v>      -0.05000000      0.05000000      0.05000000</v>
   <v>       0.15000000      0.15000000      0.05000000</v>
   <v>       0.25000000      0.15000000      0.05000000</v>
   <v>       0.35000000      0.15000000      0.05000000</v>
   <v>       0.45000000      0.15000000      0.05000000</v>
   <v>      -0.45000000      0.15000000      0.05000000</v>
   <v>      -0.35000000      0.15000000      0.05000000</v>
   <v>      -0.25000000      0.15000000      0.05000000</v>
   <v>      -0.15000000      0.15000000      0.05000000</v>
   <v>      -0.05000000      0.15000000      0.05000000</v>
   <v>       0.25000000      0.25000000      0.05000000</v>
   <v>       0.35000000      0.25000000      0.05000000</v>
   <v>       0.45000000      0.25000000      0.05000000</v>
   <v>      -0.45000000      0.25000000      0.05000000</v>
   <v>      -0.35000000      0.25000000      0.05000000</v>
   <v>      -0.25000000      0.25000000      0.05000000</v>
   <v>      -0.15000000      0.25000000      0.05000000</v>
   <v>      -0.05000000      0.25000000      0.05000000</v>
   <v>       0.35000000      0.35000000      0.05000000</v>
   <v>       0.45000000      0.35000000      0.05000000</v>
   <v>      -0.45000000      0.35000000      0.05000000</v>
   <v>      -0.35000000      0.35000000      0.05000000</v>
   <v>      -0.25000000      0.35000000      0.05000000</v>
   <v>      -0.15000000      0.35000000      0.05000000</v>
   <v>      -0.05000000      0.35000000      0.05000000</v>
   <v>       0.45000000      0.45000000      0.05000000</v>
   <v>      -0.45000000      0.45000000      0.05000000</v>
   <v>      -0.35000000      0.45000000      0.05000000</v>
   <v>      -0.25000000      0.45000000      0.05000000</v>
   <v>      -0.15000000      0.45000000      0.05000000</v>
   <v>      -0.05000000      0.45000000      0.05000000</v>
   <v>      -0.45000000     -0.45000000      0.05000000</v>
   <v>      -0.35000000     -0.45000000      0.05000000</v>
   <v>      -0.25000000     -0.45000000      0.05000000</v>
   <v>      -0.15000000     -0.45000000      0.05000000</v>
   <v>      -0.35000000     -0.35000000      0.05000000</v>
   <v>      -0.25000000     -0.35000000      0.05000000</v>
   <v>      -0.15000000     -0.35000000      0.05000000</v>
   <v>      -0.25000000     -0.25000000      0.05000000</v>
   <v>      -0.15000000     -0.25000000      0.05000000</v>
   <v>      -0.15000000     -0.15000000      0.05000000</v>
   <v>       0.15000000      0.15000000      0.15000000</v>
   <v>       0.25000000      0.15000000      0.15000000</v>
   <v>       0.35000000      0.15000000      0.15000000</v>
   <v>       0.45000000      0.15000000      0.15000000</v>
   <v>      -0.45000000      0.15000000      0.15000000</v>
   <v>      -0.35000000      0.15000000      0.15000000</v>
   <v>      -0.25000000      0.15000000      0.15000000</v>
   <v>      -0.15000000      0.15000000      0.15000000</v>
   <v>       0.25000000      0.25000000      0.15000000</v>
   <v>       0.35000000      0.25000000      0.15000000</v>
   <v>       0.45000000      0.25000000      0.15000000</v>
   <v>      -0.45000000      0.25000000      0.15000000</v>
   <v>      -0.35000000      0.25000000      0.15000000</v>
   <v>      -0.25000000      0.25000000      0.15000000</v>
   <v>      -0.15000000      0.25000000      0.15000000</v>
   <v>       0.35000000      0.35000000      0.15000000</v>
   <v>       0.45000000      0.35000000      0.15000000</v>
   <v>      -0.45000000      0.35000000      0.15000000</v>
   <v>      -0.35000000      0.35000000      0.15000000</v>
   <v>      -0.25000000      0.35000000      0.15000000</v>
   <v>      -0.15000000      0.35000000      0.15000000</v>
   <v>       0.45000000      0.45000000      0.15000000</v>
   <v>      -0.45000000      0.45000000      0.15000000</v>
   <v>      -0.35000000      0.45000000      0.15000000</v>
   <v>      -0.25000000      0.45000000      0.15000000</v>
   <v>      -0.15000000      0.45000000      0.15000000</v>
   <v>      -0.45000000     -0.45000000      0.15000000</v>
   <v>      -0.35000000     -0.45000000      0.15000000</v>
   <v>      -0.25000000     -0.45000000      0.15000000</v>
   <v>      -0.35000000     -0.35000000      0.15000000</v>
   <v>      -0.25000000     -0.35000000      0.15000000</v>
   <v>      -0.25000000     -0.25000000      0.15000000</v>
   <v>       0.25000000      0.25000000      0.25000000</v>
   <v>       0.35000000      0.25000000      0.25000000</v>
   <v>       0.45000000      0.25000000      0.25000000</v>
   <v>      -0.45000000      0.25000000      0.25000000</v>
   <v>      -0.35000000      0.25000000      0.25000000</v>
   <v>      -0.25000000      0.25000000      0.25000000</v>
   <v>       0.35000000      0.35000000      0.25000000</v>
   <v>       0.45000000      0.35000000      0.25000000</v>
   <v>      -0.45000000      0.35000000      0.25000000</v>
   <v>      -0.35000000      0.35000000      0.25000000</v>
   <v>      -0.25000000      0.35000000      0.25000000</v>
   <v>       0.45000000      0.45000000      0.25000000</v>
   <v>      -0.45000000      0.45000000      0.25000000</v>
   <v>      -0.35000000      0.45000000      0.25000000</v>
   <v>      -0.25000000      0.45000000      0.25000000</v>
   <v>      -0.45000000     -0.45000000      0.25000000</v>
   <v>      -0.35000000     -0.45000000      0.25000000</v>
   <v>      -0.35000000     -0.35000000      0.25000000</v>
   <v>       0.35000000      0.35000000      0.35000000</v>
   <v>       0.45000000      0.35000000      0.35000000</v>
   <v>      -0.45000000      0.35000000      0.35000000</v>
   <v>      -0.35000000      0.35000000      0.35000000</v>
   <v>       0.45000000      0.45000000      0.35000000</v>
   <v>      -0.45000000      0.45000000      0.35000000</v>
   <v>      -0.35000000      0.45000000      0.35000000</v>
   <v>      -0.45000000     -0.45000000      0.35000000</v>
   <v>       0.45000000      0.45000000      0.45000000</v>
   <v>      -0.45000000      0.45000000      0.45000000</v>
  </varray>
  <varray name="weights"">
   <v>       0.00200000</v>
   <v>       0.00600000</v>
   <v>       0.00600000</v>
   <v>       0.00600000</v>
   <v>       0.00600000</v>
   <v>       0.00600000</v>
   <v>       0.00600000</v>
   <v>       0.00600000</v>
   <v>       0.00600000</v>
   <v>       0.00600000</v>
   <v>       0.00600000</v>
   <v>       0.01200000</v>
   <v>       0.01200000</v>
   <v>       0.01200000</v>
   <v>       0.01200000</v>
   <v>       0.01200000</v>
   <v>       0.01200000</v>
   <v>       0.01200000</v>
   <v>       0.01200000</v>
   <v>       0.00600000</v>
   <v>       0.01200000</v>
   <v>       0.01200000</v>
   <v>       0.01200000</v>
   <v>       0.01200000</v>
   <v>       0.01200000</v>
   <v>       0.01200000</v>
   <v>       0.01200000</v>
   <v>       0.00600000</v>
   <v>       0.01200000</v>
   <v>       0.01200000</v>
   <v>       0.01200000</v>
   <v>       0.01200000</v>
   <v>       0.01200000</v>
   <v>       0.01200000</v>
   <v>       0.00600000</v>
   <v>       0.01200000</v>
   <v>       0.01200000</v>
   <v>       0.01200000</v>
   <v>       0.01200000</v>
   <v>       0.01200000</v>
   <v>       0.00600000</v>
   <v>       0.01200000</v>
   <v>       0.01200000</v>
   <v>       0.01200000</v>
   <v>       0.00600000</v>
   <v>       0.01200000</v>
   <v>       0.01200000</v>
   <v>       0.00600000</v>
   <v>       0.01200000</v>
   <v>       0.00600000</v>
   <v>       0.00200000</v>
   <v>       0.00600000</v>
   <v>       0.00600000</v>
   <v>       0.00600000</v>
   <v>       0.00600000</v>
   <v>       0.00600000</v>
   <v>       0.00600000</v>
   <v>       0.00600000</v>
   <v>       0.00600000</v>
   <v>       0.01200000</v>
   <v>       0.01200000</v>
   <v>       0.01200000</v>
   <v>       0.01200000</v>
   <v>       0.01200000</v>
   <v>       0.01200000</v>
   <v>       0.00600000</v>
   <v>       0.01200000</v>
   <v>       0.01200000</v>
   <v>       0.01200000</v>
   <v>       0.01200000</v>
   <v>       0.01200000</v>
   <v>       0.00600000</v>
   <v>       0.01200000</v>
   <v>       0.01200000</v>
   <v>       0.01200000</v>
   <v>       0.01200000</v>
   <v>       0.00600000</v>
   <v>       0.01200000</v>
   <v>       0.01200000</v>
   <v>       0.00600000</v>
   <v>       0.01200000</v>
   <v>       0.00600000</v>
   <v>       0.00200000</v>
   <v>       0.00600000</v>
   <v>       0.00600000</v>
   <v>       0.00600000</v>
   <v>       0.00600000</v>
   <v>       0.00600000</v>
   <v>       0.00600000</v>
   <v>       0.01200000</v>
   <v>       0.01200000</v>
   <v>       0.01200000</v>
   <v>       0.01200000</v>
   <v>       0.00600000</v>
   <v>       0.01200000</v>
   <v>       0.01200000</v>
   <v>       0.01200000</v>
   <v>       0.00600000</v>
   <v>       0.01200000</v>
   <v>       0.00600000</v>
   <v>       0.00200000</v>
   <v>       0.00600000</v>
   <v>       0.00600000</v>
   <v>       0.00600000</v>
   <v>       0.00600000</v>
   <v>       0.01200000</v>
   <v>       0.01200000</v>
   <v>       0.00600000</v>
   <v>       0.00200000</v>
   <v>       0.00600000</v>
  </varray>
 </kpoints>
 <parameters>
  <separator name="general"">
   <i type=""string"" nameSYSTEM""Au, FCC</i>
   <i type=""logical"" nameLCOMPAT"" F  </i>
  </separator>
  <separator name="electronic"">
   <i type=""string"" namePREC""normal</i>
   <i name="ENMAX""    350.00000000</i>
   <i name="ENAUG""    356.67000000</i>
   <i name="EDIFF""      0.00010000</i>
   <i type=""int"" nameIALGO""    68</i>
   <i type=""int"" nameIWAVPR""     0</i>
   <i type=""int"" nameNBANDS""     9</i>
   <i name="NELECT""     11.00000000</i>
   <separator name="electronic smearing"">
    <i type=""int"" nameISMEAR""     0</i>
    <i name="SIGMA""      0.10000000</i>
   </separator>
   <separator name="electronic projectors"">
    <i type=""logical"" nameLREAL"" F  </i>
    <v name="ROPT""      0.00000000</v>
    <i type=""int"" nameLMAXPAW""  -100</i>
    <i type=""int"" nameLMAXMIX""     2</i>
   </separator>
   <separator name="electronic startup"">
    <i type=""int"" nameISTART""     0</i>
    <i type=""int"" nameICHARG""     2</i>
    <i type=""int"" nameINIWAV""     1</i>
   </separator>
   <separator name="electronic spin"">
    <i type=""int"" nameISPIN""     1</i>
    <i type=""logical"" nameLNONCOLLINEAR"" F  </i>
    <v name="MAGMOM""      1.00000000</v>
    <i name="NUPDOWN""     -1.00000000</i>
    <i type=""logical"" nameLSORBIT"" F  </i>
    <v name="SAXIS""      0.00000000      0.00000000      1.00000000</v>
    <i type=""logical"" nameLSPIRAL"" F  </i>
    <v name="QSPIRAL""      0.00000000      0.00000000      0.00000000</v>
    <i type=""logical"" nameLZEROZ"" F  </i>
   </separator>
   <separator name="electronic exchange-correlation"">
    <i type=""string"" nameGGA""--</i>
    <i type=""int"" nameVOSKOWN""     0</i>
    <i type=""logical"" nameLASPH"" F  </i>
    <i type=""logical"" nameLMETAGGA"" F  </i>
    <i type=""string"" nameGGA2""--</i>
   </separator>
   <separator name="electronic convergence"">
    <i type=""int"" nameNELM""    60</i>
    <i type=""int"" nameNELMDL""    -5</i>
    <i type=""int"" nameNELMIN""     2</i>
    <i name="ENINI""    350.00000000</i>
    <separator name="electronic convergence detail"">
     <i type=""logical"" nameLDIAG"" T  </i>
     <i name="WEIMIN""      0.00000000</i>
     <i name="EBREAK""      0.00000278</i>
     <i name="DEPER""      0.30000000</i>
     <i type=""int"" nameNRMM""     4</i>
     <i name="TIME""      0.10000000</i>
    </separator>
   </separator>
   <separator name="electronic mixer"">
    <i name="AMIX""      0.40000000</i>
    <i name="BMIX""      1.00000000</i>
    <i name="AMIN""      0.10000000</i>
    <i name="AMIX_MAG""      1.60000000</i>
    <i name="BMIX_MAG""      1.00000000</i>
    <separator name="electronic mixer details"">
     <i type=""int"" nameIMIX""     4</i>
     <i type=""int"" nameMAXMIX""   -45</i>
     <i name="WC""    100.00000000</i>
     <i type=""int"" nameINIMIX""     1</i>
     <i type=""int"" nameMIXPRE""     1</i>
     <i type=""int"" nameMREMOVE""     5</i>
    </separator>
   </separator>
   <separator name="electronic dipolcorrection"">
    <i type=""int"" nameIDIPOL""     0</i>
    <i type=""logical"" nameLDIPOL"" F  </i>
    <v name="DIPOL""   -100.00000000</v>
    <i name="EFIELD""      0.00000000</i>
   </separator>
  </separator>
  <separator name="grids"">
   <i type=""int"" nameNGX""    14</i>
   <i type=""int"" nameNGY""    14</i>
   <i type=""int"" nameNGZ""    14</i>
   <i type=""int"" nameNGXF""    28</i>
   <i type=""int"" nameNGYF""    28</i>
   <i type=""int"" nameNGZF""    28</i>
   <i type=""logical"" nameADDGRID"" F  </i>
  </separator>
  <separator name="ionic"">
   <i type=""int"" nameNSW""     0</i>
   <i type=""int"" nameIBRION""    -1</i>
   <i type=""int"" nameISIF""     2</i>
   <i name="PSTRESS""      0.00000000</i>
   <i name="EDIFFG""      0.00100000</i>
   <i type=""int"" nameNFREE""     0</i>
   <i name="POTIM""      0.50000000</i>
   <i name="SMASS""     -3.00000000</i>
  </separator>
  <separator name="ionic md"">
   <i name="TEBEG""      0.00010000</i>
   <i name="TEEND""      0.00010000</i>
   <i type=""int"" nameNBLOCK""     1</i>
   <i type=""int"" nameKBLOCK""     1</i>
   <i type=""int"" nameNPACO""   256</i>
   <i name="APACO""     16.00000000</i>
  </separator>
  <separator name="symmetry"">
   <i type=""int"" nameISYM""     2</i>
   <i name="SYMPREC""      0.00001000</i>
  </separator>
  <separator name="dos"">
   <i type=""logical"" nameLORBIT"" F  </i>
   <v name="RWIGS""     -1.00000000</v>
   <i type=""int"" nameNEDOS""   301</i>
   <i name="EMIN""     10.00000000</i>
   <i name="EMAX""    -10.00000000</i>
  </separator>
  <separator name="writing"">
   <i type=""int"" nameNWRITE""     1</i>
   <i type=""logical"" nameLWAVE"" F  </i>
   <i type=""logical"" nameLCHARG"" T  </i>
   <i type=""logical"" nameLPARD"" F  </i>
   <i type=""logical"" nameLVTOT"" F  </i>
   <i type=""logical"" nameLELF"" F  </i>
   <i type=""logical"" nameLOPTICS"" F  </i>
   <i name="STM""      0.00000000</i>
  </separator>
  <separator name="performance"">
   <i type=""int"" nameNPAR""     1</i>
   <i type=""int"" nameNSIM""     4</i>
   <i type=""int"" nameNBLK""    32</i>
   <i type=""logical"" nameLPLANE"" T  </i>
   <i type=""logical"" nameLCRITICAL_MEM"" F  </i>
   <i type=""logical"" nameLSCALAPACK"" F  </i>
   <i type=""logical"" nameLSCALU"" F  </i>
   <i type=""logical"" nameLASYNC"" F  </i>
  </separator>
  <separator name="miscellaneous"">
   <i type=""int"" nameIDIOT""     3</i>
   <i type=""logical"" nameLMUSIC"" F  </i>
   <v name="POMASS""    196.96600000</v>
   <i type=""logical"" nameLCORR"" T  </i>
  </separator>
  <i type=""logical"" nameLREAL_COMPAT"" F  </i>
  <i type=""logical"" nameGGA_COMPAT"" T  </i>
  <i type=""logical"" nameLBERRY"" F  </i>
  <i type=""int"" nameICORELEVEL""     0</i>
  <i type=""logical"" nameLDAU"" F  </i>
  <i type=""int"" nameI_CONSTRAINED_M""     0</i>
 </parameters>
 <atominfo>
  <atoms>       1</atoms>
  <types>       1</types>
  <array name="atoms"">
   <dimension dim="1">ion</dimension>
   <field type="string">element</field>
   <field type="int">atomtype</field>
   <set>
    <rc><c>Au</c><c>   1</c></rc>
   </set>
  </array>
  <array name="atomtypes"">
   <dimension dim="1">type</dimension>
   <field type="int">atomspertype</field>
   <field type="string">element</field>
   <field>mass</field>
   <field>valence</field>
   <field type="string">pseudopotential</field>
   <set>
    <rc><c>   1</c><c>Au</c><c>    196.96600000</c><c>     11.00000000</c><c> PAW_GGA Au 18Jul2000                   </c></rc>
   </set>
  </array>
 </atominfo>
 <structure name="initialpos"">
  <crystal>
   <varray name="basis"">
    <v>       0.00000000      1.96195000      1.96195000</v>
    <v>       1.96195000      0.00000000      1.96195000</v>
    <v>       1.96195000      1.96195000      0.00000000</v>
   </varray>
   <i name="volume""     15.10406345</i>
   <varray name="rec_basis"">
    <v>      -0.25484849      0.25484849      0.25484849</v>
    <v>       0.25484849     -0.25484849      0.25484849</v>
    <v>       0.25484849      0.25484849     -0.25484849</v>
   </varray>
  </crystal>
  <varray name="positions"">
   <v>       0.00000000      0.00000000      0.00000000</v>
  </varray>
 </structure>
 <calculation>
  <scstep>
   <time name="dav""    2.57    2.34</time>
   <time name="total""    2.63    2.40</time>
   <energy>
    <i name="alphaZ""    123.73329044</i>
    <i name="ewald""  -1017.93440247</i>
    <i name="hartreedc""   -108.64682985</i>
    <i name="XCdc""     15.65807697</i>
    <i name="pawpsdc""    747.65313744</i>
    <i name="pawaedc""   -724.56448596</i>
    <i name="eentropy""     -0.00398465</i>
    <i name="bandstr""     75.11413474</i>
    <i name="atom""    927.07761444</i>
    <i name="e_fr_energy""     38.08655110</i>
    <i name="e_wo_entrp""     38.09053575</i>
    <i name="e_0_energy""     38.08854343</i>
   </energy>
  </scstep>
  <scstep>
   <time name="dav""    1.97    1.81</time>
   <time name="total""    1.98    1.82</time>
   <energy>
    <i name="e_fr_energy""     -2.65186917</i>
    <i name="e_wo_entrp""     -2.65017714</i>
    <i name="e_0_energy""     -2.65102315</i>
   </energy>
  </scstep>
  <scstep>
   <time name="dav""    2.35    2.14</time>
   <time name="total""    2.35    2.15</time>
   <energy>
    <i name="e_fr_energy""     -3.10430636</i>
    <i name="e_wo_entrp""     -3.10259841</i>
    <i name="e_0_energy""     -3.10345239</i>
   </energy>
  </scstep>
  <scstep>
   <time name="dav""    2.23    2.04</time>
   <time name="total""    2.23    2.05</time>
   <energy>
    <i name="e_fr_energy""     -3.10555743</i>
    <i name="e_wo_entrp""     -3.10385006</i>
    <i name="e_0_energy""     -3.10470374</i>
   </energy>
  </scstep>
  <scstep>
   <time name="dav""    2.24    2.03</time>
   <time name="total""    2.33    2.12</time>
   <energy>
    <i name="e_fr_energy""     -3.10556662</i>
    <i name="e_wo_entrp""     -3.10385926</i>
    <i name="e_0_energy""     -3.10471294</i>
   </energy>
  </scstep>
  <scstep>
   <time name="diag""    0.35    0.34</time>
   <time name="diis""    1.48    1.42</time>
   <time name="orth""    0.04    0.04</time>
   <time name="total""    2.01    1.94</time>
   <energy>
    <i name="e_fr_energy""     -2.89204314</i>
    <i name="e_wo_entrp""     -2.89051287</i>
    <i name="e_0_energy""     -2.89127801</i>
   </energy>
  </scstep>
  <scstep>
   <time name="diag""    0.33    0.32</time>
   <time name="diis""    1.45    1.45</time>
   <time name="orth""    0.03    0.03</time>
   <time name="total""    1.95    1.95</time>
   <energy>
    <i name="e_fr_energy""     -2.86287086</i>
    <i name="e_wo_entrp""     -2.86157730</i>
    <i name="e_0_energy""     -2.86222408</i>
   </energy>
  </scstep>
  <scstep>
   <time name="diag""    0.31    0.31</time>
   <time name="diis""    1.48    1.48</time>
   <time name="orth""    0.03    0.03</time>
   <time name="total""    1.96    1.97</time>
   <energy>
    <i name="e_fr_energy""     -2.85810979</i>
    <i name="e_wo_entrp""     -2.85682771</i>
    <i name="e_0_energy""     -2.85746875</i>
   </energy>
  </scstep>
  <scstep>
   <time name="diag""    0.31    0.31</time>
   <time name="diis""    0.97    0.97</time>
   <time name="orth""    0.03    0.03</time>
   <time name="total""    1.37    1.38</time>
   <energy>
    <i name="alphaZ""    123.73329044</i>
    <i name="ewald""  -1017.93440247</i>
    <i name="hartreedc""    -98.14942997</i>
    <i name="XCdc""     15.17789885</i>
    <i name="pawpsdc""    779.50463882</i>
    <i name="pawaedc""   -759.93050064</i>
    <i name="eentropy""     -0.00128142</i>
    <i name="bandstr""     27.66405281</i>
    <i name="atom""    927.07761444</i>
    <i name="e_fr_energy""     -2.85811914</i>
    <i name="e_wo_entrp""     -2.85683772</i>
    <i name="e_0_energy""     -2.85747843</i>
   </energy>
  </scstep>
  <structure>
   <crystal>
    <varray name="basis"">
     <v>       0.00000000      1.96195000      1.96195000</v>
     <v>       1.96195000      0.00000000      1.96195000</v>
     <v>       1.96195000      1.96195000      0.00000000</v>
    </varray>
    <i name="volume""     15.10406345</i>
    <varray name="rec_basis"">
     <v>      -0.25484849      0.25484849      0.25484849</v>
     <v>       0.25484849     -0.25484849      0.25484849</v>
     <v>       0.25484849      0.25484849     -0.25484849</v>
    </varray>
   </crystal>
   <varray name="positions"">
    <v>       0.00000000      0.00000000      0.00000000</v>
   </varray>
  </structure>
  <varray name="forces"">
   <v>       0.00000000      0.00000000      0.00000000</v>
  </varray>
  <varray name="stress"">
   <v>     432.06978011      0.00000000      0.00000000</v>
   <v>       0.00000000    432.06978011      0.00000000</v>
   <v>       0.00000000      0.00000000    432.06978011</v>
  </varray>
  <energy>
   <i name="e_fr_energy""     -2.85811914</i>
   <i name="e_wo_entrp""     -2.85747843</i>
   <i name="e_0_energy""     -0.00128142</i>
  </energy>
  <eigenvalues>
   <array>
    <dimension dim="1">band</dimension>
    <dimension dim="2">kpoint</dimension>
    <dimension dim="3">spin</dimension>
    <field>eigene</field>
    <field>occ</field>
    <set>
     <set comment="spin 1">
      <set comment="kpoint 1">
       <r>  -3.6877  1.0000</r>
       <r>   1.9201  1.0000</r>
       <r>   1.9935  1.0000</r>
       <r>   1.9935  1.0000</r>
       <r>   3.8154  1.0000</r>
       <r>   3.8154  1.0000</r>
       <r>  22.8809  0.0000</r>
       <r>  26.6548  0.0000</r>
       <r>  27.4765  0.0000</r>
      </set>
      <set comment="kpoint 2">
       <r>  -3.1813  1.0000</r>
       <r>   1.7305  1.0000</r>
       <r>   2.1604  1.0000</r>
       <r>   2.1983  1.0000</r>
       <r>   3.6286  1.0000</r>
       <r>   3.8743  1.0000</r>
       <r>  23.4297  0.0000</r>
       <r>  24.6167  0.0000</r>
       <r>  27.2709  0.0000</r>
      </set>
      <set comment="kpoint 3">
       <r>  -2.1063  1.0000</r>
       <r>   1.5866  1.0000</r>
       <r>   2.3377  1.0000</r>
       <r>   2.3662  1.0000</r>
       <r>   3.6357  1.0000</r>
       <r>   4.1332  1.0000</r>
       <r>  20.9492  0.0000</r>
       <r>  24.1307  0.0000</r>
       <r>  27.7802  0.0000</r>
      </set>
      <set comment="kpoint 4">
       <r>  -1.2168  1.0000</r>
       <r>   2.1190  1.0000</r>
       <r>   2.2201  1.0000</r>
       <r>   2.3765  1.0000</r>
       <r>   4.2341  1.0000</r>
       <r>   4.8254  1.0000</r>
       <r>  16.8825  0.0000</r>
       <r>  23.3389  0.0000</r>
       <r>  26.9135  0.0000</r>
      </set>
      <set comment="kpoint 5">
       <r>  -1.0466  1.0000</r>
       <r>   1.9297  1.0000</r>
       <r>   2.0152  1.0000</r>
       <r>   4.0959  1.0000</r>
       <r>   4.9714  1.0000</r>
       <r>   5.7853  1.0000</r>
       <r>  12.9496  0.0000</r>
       <r>  22.4130  0.0000</r>
       <r>  25.7995  0.0000</r>
      </set>
      <set comment="kpoint 6">
       <r>  -1.0562  1.0000</r>
       <r>   1.8486  1.0000</r>
       <r>   1.9677  1.0000</r>
       <r>   4.6326  1.0000</r>
       <r>   5.3247  1.0000</r>
       <r>   6.5537  1.0000</r>
       <r>  11.2776  0.0000</r>
       <r>  22.1598  0.0000</r>
       <r>  25.8314  0.0000</r>
      </set>
      <set comment="kpoint 7">
       <r>  -1.0594  1.0000</r>
       <r>   1.9667  1.0000</r>
       <r>   2.1021  1.0000</r>
       <r>   3.4485  1.0000</r>
       <r>   5.0730  1.0000</r>
       <r>   5.1666  1.0000</r>
       <r>  14.1693  0.0000</r>
       <r>  22.6764  0.0000</r>
       <r>  26.3464  0.0000</r>
      </set>
      <set comment="kpoint 8">
       <r>  -1.4284  1.0000</r>
       <r>   1.8906  1.0000</r>
       <r>   2.2361  1.0000</r>
       <r>   2.3145  1.0000</r>
       <r>   4.1210  1.0000</r>
       <r>   4.4526  1.0000</r>
       <r>  18.2688  0.0000</r>
       <r>  23.7459  0.0000</r>
       <r>  27.4926  0.0000</r>
      </set>
      <set comment="kpoint 9">
       <r>  -2.4967  1.0000</r>
       <r>   1.5727  1.0000</r>
       <r>   2.3302  1.0000</r>
       <r>   2.3463  1.0000</r>
       <r>   3.5830  1.0000</r>
       <r>   3.9818  1.0000</r>
       <r>  22.2086  0.0000</r>
       <r>  24.1399  0.0000</r>
       <r>  27.7359  0.0000</r>
      </set>
      <set comment="kpoint 10">
       <r>  -3.4296  1.0000</r>
       <r>   1.7869  1.0000</r>
       <r>   2.1080  1.0000</r>
       <r>   2.1147  1.0000</r>
       <r>   3.6594  1.0000</r>
       <r>   3.8851  1.0000</r>
       <r>  23.2018  0.0000</r>
       <r>  25.7107  0.0000</r>
       <r>  27.3275  0.0000</r>
      </set>
      <set comment="kpoint 11">
       <r>  -2.9305  1.0000</r>
       <r>   1.5228  1.0000</r>
       <r>   2.3482  1.0000</r>
       <r>   2.3530  1.0000</r>
       <r>   3.3873  1.0000</r>
       <r>   4.0194  1.0000</r>
       <r>  23.7793  0.0000</r>
       <r>  24.8110  0.0000</r>
       <r>  26.8629  0.0000</r>
      </set>
      <set comment="kpoint 12">
       <r>  -2.0320  1.0000</r>
       <r>   1.2226  1.0000</r>
       <r>   2.4565  1.0000</r>
       <r>   2.6860  1.0000</r>
       <r>   3.3231  1.0000</r>
       <r>   4.2875  1.0000</r>
       <r>  22.4903  0.0000</r>
       <r>  24.2147  0.0000</r>
       <r>  26.2891  0.0000</r>
      </set>
      <set comment="kpoint 13">
       <r>  -0.9767  1.0000</r>
       <r>   1.3336  1.0000</r>
       <r>   2.0824  1.0000</r>
       <r>   2.6918  1.0000</r>
       <r>   4.1219  1.0000</r>
       <r>   4.9894  1.0000</r>
       <r>  18.5189  0.0000</r>
       <r>  23.6968  0.0000</r>
       <r>  25.2634  0.0000</r>
      </set>
      <set comment="kpoint 14">
       <r>  -0.6384  1.0000</r>
       <r>   1.7139  1.0000</r>
       <r>   2.3656  1.0000</r>
       <r>   2.5558  1.0000</r>
       <r>   5.0432  1.0000</r>
       <r>   6.3189  1.0000</r>
       <r>  14.3390  0.0000</r>
       <r>  22.8979  0.0000</r>
       <r>  24.1449  0.0000</r>
      </set>
      <set comment="kpoint 15">
       <r>  -0.6392  1.0000</r>
       <r>   1.5596  1.0000</r>
       <r>   2.3250  1.0000</r>
       <r>   3.3948  1.0000</r>
       <r>   5.2655  1.0000</r>
       <r>   8.2275  0.0000</r>
       <r>  11.2195  0.0000</r>
       <r>  22.3841  0.0000</r>
       <r>  23.8246  0.0000</r>
      </set>
      <set comment="kpoint 16">
       <r>  -0.6063  1.0000</r>
       <r>   1.6589  1.0000</r>
       <r>   2.3549  1.0000</r>
       <r>   3.0087  1.0000</r>
       <r>   4.8675  1.0000</r>
       <r>   7.1031  1.0000</r>
       <r>  13.1485  0.0000</r>
       <r>  22.3342  0.0000</r>
       <r>  23.9250  0.0000</r>
      </set>
      <set comment="kpoint 17">
       <r>  -0.7375  1.0000</r>
       <r>   1.6739  1.0000</r>
       <r>   2.0166  1.0000</r>
       <r>   2.5854  1.0000</r>
       <r>   4.0172  1.0000</r>
       <r>   5.6318  1.0000</r>
       <r>  17.1316  0.0000</r>
       <r>  22.7797  0.0000</r>
       <r>  24.9959  0.0000</r>
      </set>
      <set comment="kpoint 18">
       <r>  -1.6466  1.0000</r>
       <r>   1.2753  1.0000</r>
       <r>   2.3257  1.0000</r>
       <r>   2.7124  1.0000</r>
       <r>   3.3139  1.0000</r>
       <r>   4.6051  1.0000</r>
       <r>  21.0926  0.0000</r>
       <r>  23.4748  0.0000</r>
       <r>  26.7743  0.0000</r>
      </set>
      <set comment="kpoint 19">
       <r>  -2.7014  1.0000</r>
       <r>   1.5276  1.0000</r>
       <r>   2.3493  1.0000</r>
       <r>   2.3631  1.0000</r>
       <r>   3.4364  1.0000</r>
       <r>   4.0291  1.0000</r>
       <r>  23.3797  0.0000</r>
       <r>  24.0082  0.0000</r>
       <r>  26.8872  0.0000</r>
      </set>
      <set comment="kpoint 20">
       <r>  -1.4476  1.0000</r>
       <r>   0.7926  1.0000</r>
       <r>   2.6348  1.0000</r>
       <r>   3.1462  1.0000</r>
       <r>   3.3766  1.0000</r>
       <r>   4.4365  1.0000</r>
       <r>  23.0769  0.0000</r>
       <r>  24.3654  0.0000</r>
       <r>  25.0255  0.0000</r>
      </set>
      <set comment="kpoint 21">
       <r>  -0.6253  1.0000</r>
       <r>   0.5253  1.0000</r>
       <r>   2.3294  1.0000</r>
       <r>   3.5647  1.0000</r>
       <r>   4.1658  1.0000</r>
       <r>   5.0172  1.0000</r>
       <r>  20.3234  0.0000</r>
       <r>  22.3647  0.0000</r>
       <r>  23.9111  0.0000</r>
      </set>
      <set comment="kpoint 22">
       <r>  -0.1929  1.0000</r>
       <r>   0.8321  1.0000</r>
       <r>   2.0447  1.0000</r>
       <r>   3.3975  1.0000</r>
       <r>   5.1543  1.0000</r>
       <r>   6.6452  1.0000</r>
       <r>  16.0068  0.0000</r>
       <r>  21.6837  0.0000</r>
       <r>  22.1129  0.0000</r>
      </set>
      <set comment="kpoint 23">
       <r>  -0.0745  1.0000</r>
       <r>   1.1250  1.0000</r>
       <r>   2.2717  1.0000</r>
       <r>   3.1516  1.0000</r>
       <r>   5.3091  1.0000</r>
       <r>   9.3560  0.0000</r>
       <r>  12.1815  0.0000</r>
       <r>  20.3234  0.0000</r>
       <r>  22.2328  0.0000</r>
      </set>
      <set comment="kpoint 24">
       <r>   0.1392  1.0000</r>
       <r>   1.2054  1.0000</r>
       <r>   2.2806  1.0000</r>
       <r>   3.0226  1.0000</r>
       <r>   4.8145  1.0000</r>
       <r>   9.1957  0.0000</r>
       <r>  12.8030  0.0000</r>
       <r>  19.1695  0.0000</r>
       <r>  23.4494  0.0000</r>
      </set>
      <set comment="kpoint 25">
       <r>   0.2847  1.0000</r>
       <r>   1.3231  1.0000</r>
       <r>   1.6031  1.0000</r>
       <r>   3.1182  1.0000</r>
       <r>   3.9722  1.0000</r>
       <r>   7.2681  0.9988</r>
       <r>  16.3874  0.0000</r>
       <r>  19.1307  0.0000</r>
       <r>  24.4856  0.0000</r>
      </set>
      <set comment="kpoint 26">
       <r>  -0.5259  1.0000</r>
       <r>   1.1845  1.0000</r>
       <r>   1.9838  1.0000</r>
       <r>   2.9785  1.0000</r>
       <r>   3.4853  1.0000</r>
       <r>   5.7453  1.0000</r>
       <r>  18.6159  0.0000</r>
       <r>  21.4919  0.0000</r>
       <r>  25.4305  0.0000</r>
      </set>
      <set comment="kpoint 27">
       <r>  -1.5731  1.0000</r>
       <r>   1.4963  1.0000</r>
       <r>   2.2941  1.0000</r>
       <r>   2.4794  1.0000</r>
       <r>   3.7111  1.0000</r>
       <r>   4.5154  1.0000</r>
       <r>  19.7319  0.0000</r>
       <r>  24.0114  0.0000</r>
       <r>  26.7495  0.0000</r>
      </set>
      <set comment="kpoint 28">
       <r>  -0.5524  1.0000</r>
       <r>   0.0722  1.0000</r>
       <r>   3.3792  1.0000</r>
       <r>   4.2104  1.0000</r>
       <r>   4.7059  1.0000</r>
       <r>   4.9439  1.0000</r>
       <r>  20.2887  0.0000</r>
       <r>  21.1799  0.0000</r>
       <r>  21.6741  0.0000</r>
      </set>
      <set comment="kpoint 29">
       <r>  -0.4411  1.0000</r>
       <r>  -0.0546  1.0000</r>
       <r>   3.4360  1.0000</r>
       <r>   4.5688  1.0000</r>
       <r>   5.1717  1.0000</r>
       <r>   6.6670  1.0000</r>
       <r>  17.3379  0.0000</r>
       <r>  19.4504  0.0000</r>
       <r>  20.0660  0.0000</r>
      </set>
      <set comment="kpoint 30">
       <r>  -0.2660  1.0000</r>
       <r>   0.3140  1.0000</r>
       <r>   3.0056  1.0000</r>
       <r>   4.1932  1.0000</r>
       <r>   5.4315  1.0000</r>
       <r>   9.6066  0.0000</r>
       <r>  13.7911  0.0000</r>
       <r>  17.7565  0.0000</r>
       <r>  20.1391  0.0000</r>
      </set>
      <set comment="kpoint 31">
       <r>   0.0813  1.0000</r>
       <r>   0.9135  1.0000</r>
       <r>   2.3519  1.0000</r>
       <r>   3.7866  1.0000</r>
       <r>   5.0304  1.0000</r>
       <r>  10.9687  0.0000</r>
       <r>  13.1832  0.0000</r>
       <r>  15.9928  0.0000</r>
       <r>  21.6539  0.0000</r>
      </set>
      <set comment="kpoint 32">
       <r>   0.4496  1.0000</r>
       <r>   1.2607  1.0000</r>
       <r>   1.7597  1.0000</r>
       <r>   3.3491  1.0000</r>
       <r>   4.5220  1.0000</r>
       <r>   9.0409  0.0000</r>
       <r>  14.7737  0.0000</r>
       <r>  17.0050  0.0000</r>
       <r>  23.5273  0.0000</r>
      </set>
      <set comment="kpoint 33">
       <r>  -0.1828  1.0000</r>
       <r>   1.5374  1.0000</r>
       <r>   2.1303  1.0000</r>
       <r>   2.7529  1.0000</r>
       <r>   4.4117  1.0000</r>
       <r>   7.2232  0.9999</r>
       <r>  14.7292  0.0000</r>
       <r>  20.8871  0.0000</r>
       <r>  24.1080  0.0000</r>
      </set>
      <set comment="kpoint 34">
       <r>  -0.9473  1.0000</r>
       <r>   1.9700  1.0000</r>
       <r>   2.2703  1.0000</r>
       <r>   2.5483  1.0000</r>
       <r>   4.5693  1.0000</r>
       <r>   5.4117  1.0000</r>
       <r>  15.5767  0.0000</r>
       <r>  23.0757  0.0000</r>
       <r>  25.5413  0.0000</r>
      </set>
      <set comment="kpoint 35">
       <r>  -0.7684  1.0000</r>
       <r>  -0.3994  1.0000</r>
       <r>   5.0177  1.0000</r>
       <r>   5.0497  1.0000</r>
       <r>   5.4703  1.0000</r>
       <r>   7.0642  1.0000</r>
       <r>  16.1053  0.0000</r>
       <r>  18.4955  0.0000</r>
       <r>  18.8118  0.0000</r>
      </set>
      <set comment="kpoint 36">
       <r>  -0.6945  1.0000</r>
       <r>  -0.3372  1.0000</r>
       <r>   4.5393  1.0000</r>
       <r>   4.9843  1.0000</r>
       <r>   5.6543  1.0000</r>
       <r>   9.2599  0.0000</r>
       <r>  14.1200  0.0000</r>
       <r>  17.4239  0.0000</r>
       <r>  18.4037  0.0000</r>
      </set>
      <set comment="kpoint 37">
       <r>  -0.3384  1.0000</r>
       <r>   0.2082  1.0000</r>
       <r>   3.3449  1.0000</r>
       <r>   4.4008  1.0000</r>
       <r>   5.4279  1.0000</r>
       <r>  11.0987  0.0000</r>
       <r>  12.9418  0.0000</r>
       <r>  16.2992  0.0000</r>
       <r>  19.7553  0.0000</r>
      </set>
      <set comment="kpoint 38">
       <r>   0.0555  1.0000</r>
       <r>   0.9636  1.0000</r>
       <r>   2.3028  1.0000</r>
       <r>   3.5188  1.0000</r>
       <r>   5.1830  1.0000</r>
       <r>  11.1832  0.0000</r>
       <r>  11.4708  0.0000</r>
       <r>  18.1055  0.0000</r>
       <r>  21.8472  0.0000</r>
      </set>
      <set comment="kpoint 39">
       <r>  -0.2739  1.0000</r>
       <r>   1.3456  1.0000</r>
       <r>   2.6428  1.0000</r>
       <r>   2.8479  1.0000</r>
       <r>   5.1084  1.0000</r>
       <r>   9.1976  0.0000</r>
       <r>  11.3319  0.0000</r>
       <r>  21.2137  0.0000</r>
       <r>  23.3517  0.0000</r>
      </set>
      <set comment="kpoint 40">
       <r>  -0.9040  1.0000</r>
       <r>   1.7724  1.0000</r>
       <r>   2.1070  1.0000</r>
       <r>   3.8837  1.0000</r>
       <r>   5.2082  1.0000</r>
       <r>   6.8607  1.0000</r>
       <r>  11.9360  0.0000</r>
       <r>  22.3930  0.0000</r>
       <r>  24.9451  0.0000</r>
      </set>
      <set comment="kpoint 41">
       <r>  -0.8667  1.0000</r>
       <r>  -0.4994  1.0000</r>
       <r>   5.1945  1.0000</r>
       <r>   5.3833  1.0000</r>
       <r>   5.6702  1.0000</r>
       <r>   8.2796  0.0000</r>
       <r>  14.4496  0.0000</r>
       <r>  17.8975  0.0000</r>
       <r>  18.2644  0.0000</r>
      </set>
      <set comment="kpoint 42">
       <r>  -0.5936  1.0000</r>
       <r>  -0.2411  1.0000</r>
       <r>   4.1021  1.0000</r>
       <r>   4.8998  1.0000</r>
       <r>   5.4603  1.0000</r>
       <r>   8.0219  0.0000</r>
       <r>  15.6005  0.0000</r>
       <r>  18.1338  0.0000</r>
       <r>  18.9458  0.0000</r>
      </set>
      <set comment="kpoint 43">
       <r>  -0.1788  1.0000</r>
       <r>   0.5301  1.0000</r>
       <r>   2.5006  1.0000</r>
       <r>   3.8225  1.0000</r>
       <r>   5.3684  1.0000</r>
       <r>   8.0247  0.0000</r>
       <r>  14.8170  0.0000</r>
       <r>  19.7794  0.0000</r>
       <r>  20.8941  0.0000</r>
      </set>
      <set comment="kpoint 44">
       <r>  -0.3269  1.0000</r>
       <r>   1.4020  1.0000</r>
       <r>   2.3056  1.0000</r>
       <r>   2.7986  1.0000</r>
       <r>   5.2873  1.0000</r>
       <r>   7.6789  0.0027</r>
       <r>  13.1875  0.0000</r>
       <r>  22.2666  0.0000</r>
       <r>  22.8144  0.0000</r>
      </set>
      <set comment="kpoint 45">
       <r>  -0.6205  1.0000</r>
       <r>  -0.2048  1.0000</r>
       <r>   4.3019  1.0000</r>
       <r>   4.7108  1.0000</r>
       <r>   5.2016  1.0000</r>
       <r>   5.7153  1.0000</r>
       <r>  18.3268  0.0000</r>
       <r>  19.6869  0.0000</r>
       <r>  19.8242  0.0000</r>
      </set>
      <set comment="kpoint 46">
       <r>  -0.3696  1.0000</r>
       <r>   0.2081  1.0000</r>
       <r>   2.7338  1.0000</r>
       <r>   4.0799  1.0000</r>
       <r>   4.7600  1.0000</r>
       <r>   5.6316  1.0000</r>
       <r>  18.9174  0.0000</r>
       <r>  20.9074  0.0000</r>
       <r>  21.8984  0.0000</r>
      </set>
      <set comment="kpoint 47">
       <r>  -0.4588  1.0000</r>
       <r>   1.1252  1.0000</r>
       <r>   1.8935  1.0000</r>
       <r>   3.0047  1.0000</r>
       <r>   4.7165  1.0000</r>
       <r>   5.6267  1.0000</r>
       <r>  17.2688  0.0000</r>
       <r>  22.9262  0.0000</r>
       <r>  23.7792  0.0000</r>
      </set>
      <set comment="kpoint 48">
       <r>  -0.8009  1.0000</r>
       <r>   0.4131  1.0000</r>
       <r>   2.7422  1.0000</r>
       <r>   3.6635  1.0000</r>
       <r>   3.9580  1.0000</r>
       <r>   4.6873  1.0000</r>
       <r>  21.8443  0.0000</r>
       <r>  22.7458  0.0000</r>
       <r>  23.9111  0.0000</r>
      </set>
      <set comment="kpoint 49">
       <r>  -1.2691  1.0000</r>
       <r>   0.8741  1.0000</r>
       <r>   2.3496  1.0000</r>
       <r>   3.0916  1.0000</r>
       <r>   3.6044  1.0000</r>
       <r>   4.6137  1.0000</r>
       <r>  21.5079  0.0000</r>
       <r>  23.6565  0.0000</r>
       <r>  25.5361  0.0000</r>
      </set>
      <set comment="kpoint 50">
       <r>  -2.2346  1.0000</r>
       <r>   1.1762  1.0000</r>
       <r>   2.6332  1.0000</r>
       <r>   2.7013  1.0000</r>
       <r>   3.1394  1.0000</r>
       <r>   4.2079  1.0000</r>
       <r>  23.9050  0.0000</r>
       <r>  24.6575  0.0000</r>
       <r>  25.8200  0.0000</r>
      </set>
      <set comment="kpoint 51">
       <r>  -2.9473  1.0000</r>
       <r>   1.7101  1.0000</r>
       <r>   2.2189  1.0000</r>
       <r>   2.2189  1.0000</r>
       <r>   3.7530  1.0000</r>
       <r>   3.7530  1.0000</r>
       <r>  23.1985  0.0000</r>
       <r>  23.9767  0.0000</r>
       <r>  28.3463  0.0000</r>
      </set>
      <set comment="kpoint 52">
       <r>  -2.2601  1.0000</r>
       <r>   1.4593  1.0000</r>
       <r>   2.3682  1.0000</r>
       <r>   2.4672  1.0000</r>
       <r>   3.3673  1.0000</r>
       <r>   4.2242  1.0000</r>
       <r>  22.2146  0.0000</r>
       <r>  23.8853  0.0000</r>
       <r>  26.8649  0.0000</r>
      </set>
      <set comment="kpoint 53">
       <r>  -1.1214  1.0000</r>
       <r>   1.2711  1.0000</r>
       <r>   2.2247  1.0000</r>
       <r>   2.8030  1.0000</r>
       <r>   3.2564  1.0000</r>
       <r>   5.1218  1.0000</r>
       <r>  19.8115  0.0000</r>
       <r>  22.5655  0.0000</r>
       <r>  26.4196  0.0000</r>
      </set>
      <set comment="kpoint 54">
       <r>  -0.4702  1.0000</r>
       <r>   1.7292  1.0000</r>
       <r>   2.1532  1.0000</r>
       <r>   2.5489  1.0000</r>
       <r>   4.0803  1.0000</r>
       <r>   6.3628  1.0000</r>
       <r>  15.8719  0.0000</r>
       <r>  21.8338  0.0000</r>
       <r>  24.6439  0.0000</r>
      </set>
      <set comment="kpoint 55">
       <r>  -0.4856  1.0000</r>
       <r>   1.5420  1.0000</r>
       <r>   2.4152  1.0000</r>
       <r>   3.1283  1.0000</r>
       <r>   4.9276  1.0000</r>
       <r>   8.0402  0.0000</r>
       <r>  12.1392  0.0000</r>
       <r>  21.7224  0.0000</r>
       <r>  24.0164  0.0000</r>
      </set>
      <set comment="kpoint 56">
       <r>  -0.5349  1.0000</r>
       <r>   1.5063  1.0000</r>
       <r>   2.4759  1.0000</r>
       <r>   2.9378  1.0000</r>
       <r>   5.3639  1.0000</r>
       <r>   7.9692  0.0000</r>
       <r>  11.9473  0.0000</r>
       <r>  22.2826  0.0000</r>
       <r>  24.3919  0.0000</r>
      </set>
      <set comment="kpoint 57">
       <r>  -0.5853  1.0000</r>
       <r>   1.6251  1.0000</r>
       <r>   1.9334  1.0000</r>
       <r>   2.6754  1.0000</r>
       <r>   5.1791  1.0000</r>
       <r>   5.6878  1.0000</r>
       <r>  15.7207  0.0000</r>
       <r>  23.3009  0.0000</r>
       <r>  24.2676  0.0000</r>
      </set>
      <set comment="kpoint 58">
       <r>  -1.1643  1.0000</r>
       <r>   1.0334  1.0000</r>
       <r>   2.2327  1.0000</r>
       <r>   2.8430  1.0000</r>
       <r>   4.0300  1.0000</r>
       <r>   4.6198  1.0000</r>
       <r>  20.0247  0.0000</r>
       <r>  24.5291  0.0000</r>
       <r>  24.9493  0.0000</r>
      </set>
      <set comment="kpoint 59">
       <r>  -1.8719  1.0000</r>
       <r>   1.3266  1.0000</r>
       <r>   2.3849  1.0000</r>
       <r>   2.5532  1.0000</r>
       <r>   3.5946  1.0000</r>
       <r>   4.2833  1.0000</r>
       <r>  21.1399  0.0000</r>
       <r>  24.4382  0.0000</r>
       <r>  26.5222  0.0000</r>
      </set>
      <set comment="kpoint 60">
       <r>  -0.9417  1.0000</r>
       <r>   1.0192  1.0000</r>
       <r>   2.1096  1.0000</r>
       <r>   3.0530  1.0000</r>
       <r>   3.5701  1.0000</r>
       <r>   5.0959  1.0000</r>
       <r>  19.9817  0.0000</r>
       <r>  22.6111  0.0000</r>
       <r>  25.6052  0.0000</r>
      </set>
      <set comment="kpoint 61">
       <r>   0.0337  1.0000</r>
       <r>   1.0536  1.0000</r>
       <r>   1.6281  1.0000</r>
       <r>   3.3176  1.0000</r>
       <r>   3.9483  1.0000</r>
       <r>   6.4807  1.0000</r>
       <r>  17.4751  0.0000</r>
       <r>  20.3078  0.0000</r>
       <r>  24.1125  0.0000</r>
      </set>
      <set comment="kpoint 62">
       <r>   0.1199  1.0000</r>
       <r>   1.2302  1.0000</r>
       <r>   2.0094  1.0000</r>
       <r>   3.0764  1.0000</r>
       <r>   4.8005  1.0000</r>
       <r>   8.3288  0.0000</r>
       <r>  13.7047  0.0000</r>
       <r>  19.9992  0.0000</r>
       <r>  22.7790  0.0000</r>
      </set>
      <set comment="kpoint 63">
       <r>   0.0269  1.0000</r>
       <r>   1.1203  1.0000</r>
       <r>   2.4003  1.0000</r>
       <r>   2.9956  1.0000</r>
       <r>   5.1654  1.0000</r>
       <r>  10.0425  0.0000</r>
       <r>  11.2901  0.0000</r>
       <r>  20.6942  0.0000</r>
       <r>  21.7028  0.0000</r>
      </set>
      <set comment="kpoint 64">
       <r>  -0.0207  1.0000</r>
       <r>   1.2316  1.0000</r>
       <r>   1.7497  1.0000</r>
       <r>   3.2338  1.0000</r>
       <r>   4.9515  1.0000</r>
       <r>   7.4920  0.4429</r>
       <r>  14.7552  0.0000</r>
       <r>  20.9254  0.0000</r>
       <r>  22.3310  0.0000</r>
      </set>
      <set comment="kpoint 65">
       <r>  -0.3149  1.0000</r>
       <r>   0.7456  1.0000</r>
       <r>   1.9068  1.0000</r>
       <r>   3.4770  1.0000</r>
       <r>   4.0669  1.0000</r>
       <r>   5.7057  1.0000</r>
       <r>  18.8000  0.0000</r>
       <r>  21.4268  0.0000</r>
       <r>  23.9492  0.0000</r>
      </set>
      <set comment="kpoint 66">
       <r>  -0.5659  1.0000</r>
       <r>   0.7340  1.0000</r>
       <r>   2.1527  1.0000</r>
       <r>   3.2088  1.0000</r>
       <r>   4.8148  1.0000</r>
       <r>   4.9511  1.0000</r>
       <r>  18.7885  0.0000</r>
       <r>  23.3282  0.0000</r>
       <r>  23.7799  0.0000</r>
      </set>
      <set comment="kpoint 67">
       <r>  -0.0391  1.0000</r>
       <r>   0.4830  1.0000</r>
       <r>   2.0525  1.0000</r>
       <r>   3.9547  1.0000</r>
       <r>   4.6018  1.0000</r>
       <r>   6.5337  1.0000</r>
       <r>  17.5480  0.0000</r>
       <r>  20.1301  0.0000</r>
       <r>  22.0919  0.0000</r>
      </set>
      <set comment="kpoint 68">
       <r>   0.3203  1.0000</r>
       <r>   0.6606  1.0000</r>
       <r>   1.7956  1.0000</r>
       <r>   4.0423  1.0000</r>
       <r>   4.9672  1.0000</r>
       <r>   8.6346  0.0000</r>
       <r>  15.4043  0.0000</r>
       <r>  17.9826  0.0000</r>
       <r>  20.5068  0.0000</r>
      </set>
      <set comment="kpoint 69">
       <r>   0.5096  1.0000</r>
       <r>   0.8598  1.0000</r>
       <r>   1.8093  1.0000</r>
       <r>   3.6006  1.0000</r>
       <r>   5.2570  1.0000</r>
       <r>  11.2726  0.0000</r>
       <r>  12.3207  0.0000</r>
       <r>  17.6979  0.0000</r>
       <r>  19.8018  0.0000</r>
      </set>
      <set comment="kpoint 70">
       <r>   0.7649  1.0000</r>
       <r>   0.9178  1.0000</r>
       <r>   1.3822  1.0000</r>
       <r>   3.6961  1.0000</r>
       <r>   4.9373  1.0000</r>
       <r>   9.4668  0.0000</r>
       <r>  14.7419  0.0000</r>
       <r>  17.0328  0.0000</r>
       <r>  20.8986  0.0000</r>
      </set>
      <set comment="kpoint 71">
       <r>   0.3587  1.0000</r>
       <r>   0.8902  1.0000</r>
       <r>   1.4787  1.0000</r>
       <r>   3.7301  1.0000</r>
       <r>   4.4749  1.0000</r>
       <r>   7.4133  0.8339</r>
       <r>  16.3968  0.0000</r>
       <r>  19.1108  0.0000</r>
       <r>  22.3900  0.0000</r>
      </set>
      <set comment="kpoint 72">
       <r>  -0.3632  1.0000</r>
       <r>   0.1641  1.0000</r>
       <r>   3.1024  1.0000</r>
       <r>   4.0722  1.0000</r>
       <r>   5.4334  1.0000</r>
       <r>   7.1918  1.0000</r>
       <r>  16.0901  0.0000</r>
       <r>  19.7486  0.0000</r>
       <r>  20.6235  0.0000</r>
      </set>
      <set comment="kpoint 73">
       <r>  -0.2702  1.0000</r>
       <r>   0.0699  1.0000</r>
       <r>   3.1305  1.0000</r>
       <r>   4.5766  1.0000</r>
       <r>   5.4146  1.0000</r>
       <r>   9.1200  0.0000</r>
       <r>  14.9623  0.0000</r>
       <r>  17.6377  0.0000</r>
       <r>  18.9253  0.0000</r>
      </set>
      <set comment="kpoint 74">
       <r>   0.0255  1.0000</r>
       <r>   0.4374  1.0000</r>
       <r>   2.5820  1.0000</r>
       <r>   4.0698  1.0000</r>
       <r>   5.6477  1.0000</r>
       <r>  11.7142  0.0000</r>
       <r>  13.4207  0.0000</r>
       <r>  16.0639  0.0000</r>
       <r>  18.1619  0.0000</r>
      </set>
      <set comment="kpoint 75">
       <r>   0.4267  1.0000</r>
       <r>   0.9844  1.0000</r>
       <r>   1.7591  1.0000</r>
       <r>   3.6762  1.0000</r>
       <r>   5.3737  1.0000</r>
       <r>  11.5428  0.0000</r>
       <r>  13.5202  0.0000</r>
       <r>  15.7858  0.0000</r>
       <r>  19.3948  0.0000</r>
      </set>
      <set comment="kpoint 76">
       <r>   0.4077  1.0000</r>
       <r>   0.9329  1.0000</r>
       <r>   1.8965  1.0000</r>
       <r>   3.3917  1.0000</r>
       <r>   5.0753  1.0000</r>
       <r>   9.7388  0.0000</r>
       <r>  12.8342  0.0000</r>
       <r>  19.1030  0.0000</r>
       <r>  21.0109  0.0000</r>
      </set>
      <set comment="kpoint 77">
       <r>  -0.5801  1.0000</r>
       <r>  -0.1398  1.0000</r>
       <r>   4.1099  1.0000</r>
       <r>   4.7468  1.0000</r>
       <r>   5.5185  1.0000</r>
       <r>  10.0127  0.0000</r>
       <r>  13.6200  0.0000</r>
       <r>  16.7603  0.0000</r>
       <r>  19.2896  0.0000</r>
      </set>
      <set comment="kpoint 78">
       <r>  -0.3762  1.0000</r>
       <r>  -0.0185  1.0000</r>
       <r>   3.5381  1.0000</r>
       <r>   4.5702  1.0000</r>
       <r>   5.6493  1.0000</r>
       <r>  10.5111  0.0000</r>
       <r>  13.6845  0.0000</r>
       <r>  16.8405  0.0000</r>
       <r>  18.3175  0.0000</r>
      </set>
      <set comment="kpoint 79">
       <r>   0.1457  1.0000</r>
       <r>   0.5074  1.0000</r>
       <r>   2.2486  1.0000</r>
       <r>   4.1305  1.0000</r>
       <r>   5.3880  1.0000</r>
       <r>  10.1281  0.0000</r>
       <r>  14.4725  0.0000</r>
       <r>  16.9133  0.0000</r>
       <r>  18.9457  0.0000</r>
      </set>
      <set comment="kpoint 80">
       <r>  -0.4913  1.0000</r>
       <r>  -0.0372  1.0000</r>
       <r>   3.7291  1.0000</r>
       <r>   4.4761  1.0000</r>
       <r>   5.5207  1.0000</r>
       <r>   8.6793  0.0000</r>
       <r>  14.7754  0.0000</r>
       <r>  17.8697  0.0000</r>
       <r>  19.7477  0.0000</r>
      </set>
      <set comment="kpoint 81">
       <r>  -0.1105  1.0000</r>
       <r>   0.2444  1.0000</r>
       <r>   2.5597  1.0000</r>
       <r>   4.3735  1.0000</r>
       <r>   5.0493  1.0000</r>
       <r>   7.6870  0.0019</r>
       <r>  16.2733  0.0000</r>
       <r>  18.8530  0.0000</r>
       <r>  20.2516  0.0000</r>
      </set>
      <set comment="kpoint 82">
       <r>  -0.3164  1.0000</r>
       <r>   0.4376  1.0000</r>
       <r>   2.4690  1.0000</r>
       <r>   3.6306  1.0000</r>
       <r>   5.2355  1.0000</r>
       <r>   5.8774  1.0000</r>
       <r>  17.4479  0.0000</r>
       <r>  21.8469  0.0000</r>
       <r>  21.9019  0.0000</r>
      </set>
      <set comment="kpoint 83">
       <r>  -1.8172  1.0000</r>
       <r>   1.7796  1.0000</r>
       <r>   2.2948  1.0000</r>
       <r>   2.2948  1.0000</r>
       <r>   4.0269  1.0000</r>
       <r>   4.0269  1.0000</r>
       <r>  19.5834  0.0000</r>
       <r>  23.9766  0.0000</r>
       <r>  29.1646  0.0000</r>
      </set>
      <set comment="kpoint 84">
       <r>  -1.1763  1.0000</r>
       <r>   1.6366  1.0000</r>
       <r>   2.2274  1.0000</r>
       <r>   2.4613  1.0000</r>
       <r>   3.7356  1.0000</r>
       <r>   5.0125  1.0000</r>
       <r>  18.3997  0.0000</r>
       <r>  23.4437  0.0000</r>
       <r>  26.0548  0.0000</r>
      </set>
      <set comment="kpoint 85">
       <r>  -0.1004  1.0000</r>
       <r>   1.3010  1.0000</r>
       <r>   1.8769  1.0000</r>
       <r>   2.9191  1.0000</r>
       <r>   3.6185  1.0000</r>
       <r>   6.4658  1.0000</r>
       <r>  17.4211  0.0000</r>
       <r>  20.3166  0.0000</r>
       <r>  25.1862  0.0000</r>
      </set>
      <set comment="kpoint 86">
       <r>   0.3961  1.0000</r>
       <r>   1.3884  1.0000</r>
       <r>   1.7232  1.0000</r>
       <r>   3.1122  1.0000</r>
       <r>   4.1712  1.0000</r>
       <r>   8.0905  0.0000</r>
       <r>  15.5134  0.0000</r>
       <r>  17.9893  0.0000</r>
       <r>  24.9752  0.0000</r>
      </set>
      <set comment="kpoint 87">
       <r>   0.0860  1.0000</r>
       <r>   1.1617  1.0000</r>
       <r>   2.3125  1.0000</r>
       <r>   3.2003  1.0000</r>
       <r>   4.9856  1.0000</r>
       <r>  10.2021  0.0000</r>
       <r>  11.9784  0.0000</r>
       <r>  18.5400  0.0000</r>
       <r>  23.5540  0.0000</r>
      </set>
      <set comment="kpoint 88">
       <r>  -0.1651  1.0000</r>
       <r>   0.8861  1.0000</r>
       <r>   2.3614  1.0000</r>
       <r>   3.3953  1.0000</r>
       <r>   5.4322  1.0000</r>
       <r>   8.6310  0.0000</r>
       <r>  13.3811  0.0000</r>
       <r>  20.0533  0.0000</r>
       <r>  22.0487  0.0000</r>
      </set>
      <set comment="kpoint 89">
       <r>  -0.9932  1.0000</r>
       <r>   1.8782  1.0000</r>
       <r>   2.0339  1.0000</r>
       <r>   2.4417  1.0000</r>
       <r>   4.6776  1.0000</r>
       <r>   4.8539  1.0000</r>
       <r>  16.9889  0.0000</r>
       <r>  23.5789  0.0000</r>
       <r>  25.7914  0.0000</r>
      </set>
      <set comment="kpoint 90">
       <r>  -0.3246  1.0000</r>
       <r>   1.6277  1.0000</r>
       <r>   1.6845  1.0000</r>
       <r>   2.8640  1.0000</r>
       <r>   4.5137  1.0000</r>
       <r>   6.4138  1.0000</r>
       <r>  15.9099  0.0000</r>
       <r>  21.9275  0.0000</r>
       <r>  23.8521  0.0000</r>
      </set>
      <set comment="kpoint 91">
       <r>   0.6243  1.0000</r>
       <r>   1.1451  1.0000</r>
       <r>   1.3724  1.0000</r>
       <r>   3.4569  1.0000</r>
       <r>   4.4446  1.0000</r>
       <r>   8.2382  0.0000</r>
       <r>  15.5006  0.0000</r>
       <r>  18.0122  0.0000</r>
       <r>  22.8790  0.0000</r>
      </set>
      <set comment="kpoint 92">
       <r>   0.4764  1.0000</r>
       <r>   1.0581  1.0000</r>
       <r>   1.7741  1.0000</r>
       <r>   3.5768  1.0000</r>
       <r>   4.9539  1.0000</r>
       <r>  10.2115  0.0000</r>
       <r>  14.0791  0.0000</r>
       <r>  16.2907  0.0000</r>
       <r>  21.3807  0.0000</r>
      </set>
      <set comment="kpoint 93">
       <r>   0.0812  1.0000</r>
       <r>   0.7054  1.0000</r>
       <r>   2.2763  1.0000</r>
       <r>   3.8813  1.0000</r>
       <r>   5.3197  1.0000</r>
       <r>  10.5326  0.0000</r>
       <r>  12.9518  0.0000</r>
       <r>  17.7070  0.0000</r>
       <r>  20.0287  0.0000</r>
      </set>
      <set comment="kpoint 94">
       <r>  -0.2929  1.0000</r>
       <r>   1.2255  1.0000</r>
       <r>   2.0725  1.0000</r>
       <r>   3.0027  1.0000</r>
       <r>   5.3815  1.0000</r>
       <r>   7.0345  1.0000</r>
       <r>  14.4906  0.0000</r>
       <r>  22.0962  0.0000</r>
       <r>  23.0055  0.0000</r>
      </set>
      <set comment="kpoint 95">
       <r>   0.1055  1.0000</r>
       <r>   0.9025  1.0000</r>
       <r>   1.9684  1.0000</r>
       <r>   3.6109  1.0000</r>
       <r>   5.2006  1.0000</r>
       <r>   8.9045  0.0000</r>
       <r>  13.7325  0.0000</r>
       <r>  19.6142  0.0000</r>
       <r>  20.8135  0.0000</r>
      </set>
      <set comment="kpoint 96">
       <r>   0.5010  1.0000</r>
       <r>   1.0050  1.0000</r>
       <r>   1.5541  1.0000</r>
       <r>   3.7429  1.0000</r>
       <r>   5.3754  1.0000</r>
       <r>  10.9368  0.0000</r>
       <r>  14.1230  0.0000</r>
       <r>  16.1414  0.0000</r>
       <r>  19.1045  0.0000</r>
      </set>
      <set comment="kpoint 97">
       <r>   0.3539  1.0000</r>
       <r>   1.0113  1.0000</r>
       <r>   1.7353  1.0000</r>
       <r>   3.6905  1.0000</r>
       <r>   5.6474  1.0000</r>
       <r>  12.3910  0.0000</r>
       <r>  13.7067  0.0000</r>
       <r>  15.1757  0.0000</r>
       <r>  18.0640  0.0000</r>
      </set>
      <set comment="kpoint 98">
       <r>  -0.1615  1.0000</r>
       <r>   0.6618  1.0000</r>
       <r>   2.6989  1.0000</r>
       <r>   3.8024  1.0000</r>
       <r>   5.3393  1.0000</r>
       <r>  10.3682  0.0000</r>
       <r>  12.5253  0.0000</r>
       <r>  17.8722  0.0000</r>
       <r>  21.4146  0.0000</r>
      </set>
      <set comment="kpoint 99">
       <r>   0.0238  1.0000</r>
       <r>   0.6243  1.0000</r>
       <r>   2.5139  1.0000</r>
       <r>   3.9802  1.0000</r>
       <r>   5.3868  1.0000</r>
       <r>  11.9178  0.0000</r>
       <r>  12.6653  0.0000</r>
       <r>  15.9449  0.0000</r>
       <r>  19.7008  0.0000</r>
      </set>
      <set comment="kpoint 100">
       <r>  -0.1925  1.0000</r>
       <r>   0.5575  1.0000</r>
       <r>   2.9269  1.0000</r>
       <r>   4.1139  1.0000</r>
       <r>   5.1894  1.0000</r>
       <r>  11.7141  0.0000</r>
       <r>  12.2858  0.0000</r>
       <r>  16.0386  0.0000</r>
       <r>  21.1012  0.0000</r>
      </set>
      <set comment="kpoint 101">
       <r>  -1.1860  1.0000</r>
       <r>   2.0982  1.0000</r>
       <r>   2.0982  1.0000</r>
       <r>   3.0966  1.0000</r>
       <r>   4.6981  1.0000</r>
       <r>   4.6981  1.0000</r>
       <r>  15.4658  0.0000</r>
       <r>  22.9169  0.0000</r>
       <r>  27.7499  0.0000</r>
      </set>
      <set comment="kpoint 102">
       <r>  -0.8197  1.0000</r>
       <r>   1.8714  1.0000</r>
       <r>   2.2289  1.0000</r>
       <r>   3.0083  1.0000</r>
       <r>   4.5635  1.0000</r>
       <r>   6.1430  1.0000</r>
       <r>  14.2994  0.0000</r>
       <r>  22.6782  0.0000</r>
       <r>  24.7459  0.0000</r>
      </set>
      <set comment="kpoint 103">
       <r>  -0.0341  1.0000</r>
       <r>   1.4067  1.0000</r>
       <r>   2.3712  1.0000</r>
       <r>   2.7738  1.0000</r>
       <r>   4.5362  1.0000</r>
       <r>   8.1122  0.0000</r>
       <r>  13.7044  0.0000</r>
       <r>  19.9467  0.0000</r>
       <r>  24.4852  0.0000</r>
      </set>
      <set comment="kpoint 104">
       <r>   0.2235  1.0000</r>
       <r>   1.1946  1.0000</r>
       <r>   2.0817  1.0000</r>
       <r>   3.5235  1.0000</r>
       <r>   4.7207  1.0000</r>
       <r>   9.9209  0.0000</r>
       <r>  14.0244  0.0000</r>
       <r>  16.3038  0.0000</r>
       <r>  23.4257  0.0000</r>
      </set>
      <set comment="kpoint 105">
       <r>  -0.8363  1.0000</r>
       <r>   1.7589  1.0000</r>
       <r>   2.2316  1.0000</r>
       <r>   3.2538  1.0000</r>
       <r>   5.3066  1.0000</r>
       <r>   6.3965  1.0000</r>
       <r>  12.9895  0.0000</r>
       <r>  22.6359  0.0000</r>
       <r>  25.2172  0.0000</r>
      </set>
      <set comment="kpoint 106">
       <r>  -0.3155  1.0000</r>
       <r>   1.3831  1.0000</r>
       <r>   2.5700  1.0000</r>
       <r>   2.8036  1.0000</r>
       <r>   5.1202  1.0000</r>
       <r>   8.4204  0.0000</r>
       <r>  12.1283  0.0000</r>
       <r>  21.9468  0.0000</r>
       <r>  22.6855  0.0000</r>
      </set>
      <set comment="kpoint 107">
       <r>   0.3444  1.0000</r>
       <r>   0.9732  1.0000</r>
       <r>   2.0721  1.0000</r>
       <r>   3.3346  1.0000</r>
       <r>   5.0693  1.0000</r>
       <r>  10.5481  0.0000</r>
       <r>  12.0297  0.0000</r>
       <r>  18.5259  0.0000</r>
       <r>  21.4774  0.0000</r>
      </set>
      <set comment="kpoint 108">
       <r>  -0.1987  1.0000</r>
       <r>   1.2766  1.0000</r>
       <r>   2.6165  1.0000</r>
       <r>   2.8139  1.0000</r>
       <r>   5.2422  1.0000</r>
       <r>   9.6815  0.0000</r>
       <r>  11.1610  0.0000</r>
       <r>  20.6902  0.0000</r>
       <r>  23.8557  0.0000</r>
      </set>
      <set comment="kpoint 109">
       <r>  -1.1273  1.0000</r>
       <r>   1.9264  1.0000</r>
       <r>   1.9264  1.0000</r>
       <r>   5.2400  1.0000</r>
       <r>   5.2400  1.0000</r>
       <r>   5.3474  1.0000</r>
       <r>  11.9118  0.0000</r>
       <r>  22.1508  0.0000</r>
       <r>  26.3372  0.0000</r>
      </set>
      <set comment="kpoint 110">
       <r>  -0.8377  1.0000</r>
       <r>   1.7078  1.0000</r>
       <r>   2.1354  1.0000</r>
       <r>   3.9006  1.0000</r>
       <r>   5.2119  1.0000</r>
       <r>   7.5698  0.1069</r>
       <r>  11.2617  0.0000</r>
       <r>  22.3247  0.0000</r>
       <r>  24.6266  0.0000</r>
      </set>
     </set>
    </set>
   </array>
  </eigenvalues>
  <dos>
   <i name="efermi""      7.48187322</i>
   <total>
    <array>
     <dimension dim="1">gridpoints</dimension>
     <dimension dim="2">spin</dimension>
     <field>energy</field>
     <field>total</field>
     <field>integrated</field>
     <set>
      <set comment="spin 1">
       <r>  -5.3303   0.0000   0.0000 </r>
       <r>  -5.2098   0.0000   0.0000 </r>
       <r>  -5.0894   0.0000   0.0000 </r>
       <r>  -4.9689   0.0000   0.0000 </r>
       <r>  -4.8484   0.0000   0.0000 </r>
       <r>  -4.7280   0.0000   0.0000 </r>
       <r>  -4.6075   0.0000   0.0000 </r>
       <r>  -4.4871   0.0000   0.0000 </r>
       <r>  -4.3666   0.0000   0.0000 </r>
       <r>  -4.2461   0.0000   0.0000 </r>
       <r>  -4.1257   0.0000   0.0000 </r>
       <r>  -4.0052   0.0000   0.0000 </r>
       <r>  -3.8848   0.0001   0.0000 </r>
       <r>  -3.7643   0.0045   0.0006 </r>
       <r>  -3.6439   0.0198   0.0029 </r>
       <r>  -3.5234   0.0176   0.0051 </r>
       <r>  -3.4029   0.0557   0.0118 </r>
       <r>  -3.2825   0.0408   0.0167 </r>
       <r>  -3.1620   0.0549   0.0233 </r>
       <r>  -3.0416   0.0454   0.0288 </r>
       <r>  -2.9211   0.0702   0.0372 </r>
       <r>  -2.8006   0.0682   0.0454 </r>
       <r>  -2.6802   0.1115   0.0589 </r>
       <r>  -2.5597   0.0898   0.0697 </r>
       <r>  -2.4393   0.0655   0.0776 </r>
       <r>  -2.3188   0.0515   0.0838 </r>
       <r>  -2.1984   0.1299   0.0994 </r>
       <r>  -2.0779   0.1530   0.1179 </r>
       <r>  -1.9574   0.1650   0.1377 </r>
       <r>  -1.8370   0.1005   0.1498 </r>
       <r>  -1.7165   0.0835   0.1599 </r>
       <r>  -1.5961   0.1964   0.1836 </r>
       <r>  -1.4756   0.2113   0.2090 </r>
       <r>  -1.3551   0.1590   0.2282 </r>
       <r>  -1.2347   0.2286   0.2557 </r>
       <r>  -1.1142   0.3884   0.3025 </r>
       <r>  -0.9938   0.5341   0.3668 </r>
       <r>  -0.8733   0.7156   0.4530 </r>
       <r>  -0.7529   0.6360   0.5296 </r>
       <r>  -0.6324   0.8834   0.6361 </r>
       <r>  -0.5119   1.2267   0.7838 </r>
       <r>  -0.3915   1.2175   0.9305 </r>
       <r>  -0.2710   1.7303   1.1389 </r>
       <r>  -0.1506   1.5723   1.3283 </r>
       <r>  -0.0301   1.4457   1.5025 </r>
       <r>   0.0904   1.8216   1.7219 </r>
       <r>   0.2108   1.4391   1.8952 </r>
       <r>   0.3313   1.1495   2.0337 </r>
       <r>   0.4517   1.4894   2.2131 </r>
       <r>   0.5722   1.4352   2.3860 </r>
       <r>   0.6926   0.9119   2.4958 </r>
       <r>   0.8131   0.8896   2.6030 </r>
       <r>   0.9336   1.3555   2.7663 </r>
       <r>   1.0540   1.5416   2.9520 </r>
       <r>   1.1745   1.4491   3.1265 </r>
       <r>   1.2949   1.6675   3.3274 </r>
       <r>   1.4154   1.5184   3.5103 </r>
       <r>   1.5359   1.3716   3.6755 </r>
       <r>   1.6563   1.6664   3.8763 </r>
       <r>   1.7768   1.9636   4.1128 </r>
       <r>   1.8972   1.7388   4.3222 </r>
       <r>   2.0177   1.8367   4.5435 </r>
       <r>   2.1381   2.0350   4.7886 </r>
       <r>   2.2586   2.1660   5.0495 </r>
       <r>   2.3791   3.1288   5.4264 </r>
       <r>   2.4995   2.2542   5.6979 </r>
       <r>   2.6200   1.7332   5.9067 </r>
       <r>   2.7404   1.5060   6.0881 </r>
       <r>   2.8609   1.2477   6.2384 </r>
       <r>   2.9814   1.1372   6.3754 </r>
       <r>   3.1018   1.5619   6.5636 </r>
       <r>   3.2223   1.2683   6.7163 </r>
       <r>   3.3427   1.3526   6.8793 </r>
       <r>   3.4632   1.8387   7.1008 </r>
       <r>   3.5836   1.7557   7.3122 </r>
       <r>   3.7041   1.8101   7.5303 </r>
       <r>   3.8246   1.3485   7.6927 </r>
       <r>   3.9450   1.2351   7.8415 </r>
       <r>   4.0655   1.7979   8.0581 </r>
       <r>   4.1859   1.7652   8.2707 </r>
       <r>   4.3064   0.9556   8.3858 </r>
       <r>   4.4269   0.8727   8.4910 </r>
       <r>   4.5473   1.5415   8.6766 </r>
       <r>   4.6678   1.6321   8.8732 </r>
       <r>   4.7882   1.1479   9.0115 </r>
       <r>   4.9087   1.2273   9.1593 </r>
       <r>   5.0291   1.9355   9.3925 </r>
       <r>   5.1496   2.1207   9.6479 </r>
       <r>   5.2701   2.0270   9.8921 </r>
       <r>   5.3905   2.0174  10.1351 </r>
       <r>   5.5110   1.5464  10.3214 </r>
       <r>   5.6314   0.9956  10.4413 </r>
       <r>   5.7519   1.1303  10.5775 </r>
       <r>   5.8723   0.3772  10.6229 </r>
       <r>   5.9928   0.0717  10.6316 </r>
       <r>   6.1133   0.0376  10.6361 </r>
       <r>   6.2337   0.0841  10.6462 </r>
       <r>   6.3542   0.2456  10.6758 </r>
       <r>   6.4746   0.4762  10.7332 </r>
       <r>   6.5951   0.4523  10.7877 </r>
       <r>   6.7156   0.3222  10.8265 </r>
       <r>   6.8360   0.1495  10.8445 </r>
       <r>   6.9565   0.1350  10.8607 </r>
       <r>   7.0769   0.2034  10.8852 </r>
       <r>   7.1974   0.3228  10.9241 </r>
       <r>   7.3178   0.3133  10.9619 </r>
       <r>   7.4383   0.2240  10.9889 </r>
       <r>   7.5588   0.2465  11.0185 </r>
       <r>   7.6792   0.2625  11.0502 </r>
       <r>   7.7997   0.1958  11.0738 </r>
       <r>   7.9201   0.0772  11.0831 </r>
       <r>   8.0406   0.3540  11.1257 </r>
       <r>   8.1611   0.3977  11.1736 </r>
       <r>   8.2815   0.3918  11.2208 </r>
       <r>   8.4020   0.3340  11.2610 </r>
       <r>   8.5224   0.1607  11.2804 </r>
       <r>   8.6429   0.1922  11.3035 </r>
       <r>   8.7633   0.1861  11.3260 </r>
       <r>   8.8838   0.0962  11.3375 </r>
       <r>   9.0043   0.1760  11.3587 </r>
       <r>   9.1247   0.2917  11.3939 </r>
       <r>   9.2452   0.4380  11.4466 </r>
       <r>   9.3656   0.3193  11.4851 </r>
       <r>   9.4861   0.2139  11.5109 </r>
       <r>   9.6066   0.1910  11.5339 </r>
       <r>   9.7270   0.2356  11.5623 </r>
       <r>   9.8475   0.1503  11.5804 </r>
       <r>   9.9679   0.1290  11.5959 </r>
       <r>  10.0884   0.2707  11.6285 </r>
       <r>  10.2088   0.3191  11.6669 </r>
       <r>  10.3293   0.1919  11.6901 </r>
       <r>  10.4498   0.1490  11.7080 </r>
       <r>  10.5702   0.3566  11.7510 </r>
       <r>  10.6907   0.1667  11.7710 </r>
       <r>  10.8111   0.0180  11.7732 </r>
       <r>  10.9316   0.1453  11.7907 </r>
       <r>  11.0521   0.2746  11.8238 </r>
       <r>  11.1725   0.3769  11.8692 </r>
       <r>  11.2930   0.6530  11.9479 </r>
       <r>  11.4134   0.4386  12.0007 </r>
       <r>  11.5339   0.2471  12.0305 </r>
       <r>  11.6543   0.1927  12.0537 </r>
       <r>  11.7748   0.2016  12.0780 </r>
       <r>  11.8953   0.2339  12.1061 </r>
       <r>  12.0157   0.4571  12.1612 </r>
       <r>  12.1362   0.3849  12.2076 </r>
       <r>  12.2566   0.3378  12.2483 </r>
       <r>  12.3771   0.2966  12.2840 </r>
       <r>  12.4976   0.1880  12.3066 </r>
       <r>  12.6180   0.1194  12.3210 </r>
       <r>  12.7385   0.1818  12.3429 </r>
       <r>  12.8589   0.3146  12.3808 </r>
       <r>  12.9794   0.4369  12.4334 </r>
       <r>  13.0998   0.3009  12.4697 </r>
       <r>  13.2203   0.3642  12.5136 </r>
       <r>  13.3408   0.2020  12.5379 </r>
       <r>  13.4612   0.2224  12.5647 </r>
       <r>  13.5817   0.2533  12.5952 </r>
       <r>  13.7021   0.5061  12.6562 </r>
       <r>  13.8226   0.5480  12.7222 </r>
       <r>  13.9431   0.1315  12.7380 </r>
       <r>  14.0635   0.2252  12.7651 </r>
       <r>  14.1840   0.4313  12.8171 </r>
       <r>  14.3044   0.2380  12.8458 </r>
       <r>  14.4249   0.2621  12.8773 </r>
       <r>  14.5453   0.2618  12.9089 </r>
       <r>  14.6658   0.1652  12.9288 </r>
       <r>  14.7863   0.5683  12.9972 </r>
       <r>  14.9067   0.4287  13.0489 </r>
       <r>  15.0272   0.1595  13.0681 </r>
       <r>  15.1476   0.1006  13.0802 </r>
       <r>  15.2681   0.1177  13.0944 </r>
       <r>  15.3886   0.1160  13.1084 </r>
       <r>  15.5090   0.3169  13.1465 </r>
       <r>  15.6295   0.3973  13.1944 </r>
       <r>  15.7499   0.2421  13.2235 </r>
       <r>  15.8704   0.2958  13.2592 </r>
       <r>  15.9908   0.5414  13.3244 </r>
       <r>  16.1113   0.6233  13.3995 </r>
       <r>  16.2318   0.4248  13.4506 </r>
       <r>  16.3522   0.5555  13.5175 </r>
       <r>  16.4727   0.3643  13.5614 </r>
       <r>  16.5931   0.0547  13.5680 </r>
       <r>  16.7136   0.0339  13.5721 </r>
       <r>  16.8341   0.1975  13.5959 </r>
       <r>  16.9545   0.3907  13.6429 </r>
       <r>  17.0750   0.4157  13.6930 </r>
       <r>  17.1954   0.2520  13.7234 </r>
       <r>  17.3159   0.2534  13.7539 </r>
       <r>  17.4363   0.4173  13.8042 </r>
       <r>  17.5568   0.4338  13.8564 </r>
       <r>  17.6773   0.4014  13.9048 </r>
       <r>  17.7977   0.4371  13.9574 </r>
       <r>  17.9182   0.3371  13.9980 </r>
       <r>  18.0386   0.5049  14.0589 </r>
       <r>  18.1591   0.5797  14.1287 </r>
       <r>  18.2796   0.4222  14.1796 </r>
       <r>  18.4000   0.4309  14.2315 </r>
       <r>  18.5205   0.4707  14.2882 </r>
       <r>  18.6409   0.4015  14.3365 </r>
       <r>  18.7614   0.2339  14.3647 </r>
       <r>  18.8818   0.5293  14.4285 </r>
       <r>  19.0023   0.6387  14.5054 </r>
       <r>  19.1228   0.5814  14.5754 </r>
       <r>  19.2432   0.4753  14.6327 </r>
       <r>  19.3637   0.1993  14.6567 </r>
       <r>  19.4841   0.2520  14.6871 </r>
       <r>  19.6046   0.2267  14.7144 </r>
       <r>  19.7251   0.5878  14.7852 </r>
       <r>  19.8455   0.7934  14.8808 </r>
       <r>  19.9660   0.4795  14.9385 </r>
       <r>  20.0864   0.7037  15.0233 </r>
       <r>  20.2069   0.5405  15.0884 </r>
       <r>  20.3273   0.5901  15.1595 </r>
       <r>  20.4478   0.3853  15.2059 </r>
       <r>  20.5683   0.1785  15.2274 </r>
       <r>  20.6887   0.2375  15.2560 </r>
       <r>  20.8092   0.3449  15.2975 </r>
       <r>  20.9296   0.7218  15.3845 </r>
       <r>  21.0501   0.6016  15.4570 </r>
       <r>  21.1706   0.4106  15.5064 </r>
       <r>  21.2910   0.2746  15.5395 </r>
       <r>  21.4115   0.3451  15.5811 </r>
       <r>  21.5319   0.5749  15.6503 </r>
       <r>  21.6524   0.4385  15.7031 </r>
       <r>  21.7728   0.5386  15.7680 </r>
       <r>  21.8933   0.6236  15.8431 </r>
       <r>  22.0138   0.5847  15.9136 </r>
       <r>  22.1342   0.5142  15.9755 </r>
       <r>  22.2547   0.6742  16.0567 </r>
       <r>  22.3751   0.9669  16.1732 </r>
       <r>  22.4956   0.7267  16.2607 </r>
       <r>  22.6161   0.4174  16.3110 </r>
       <r>  22.7365   0.5913  16.3823 </r>
       <r>  22.8570   0.6797  16.4641 </r>
       <r>  22.9774   0.5540  16.5309 </r>
       <r>  23.0979   0.3259  16.5701 </r>
       <r>  23.2183   0.2189  16.5965 </r>
       <r>  23.3388   0.3883  16.6433 </r>
       <r>  23.4593   0.7234  16.7304 </r>
       <r>  23.5797   0.5924  16.8018 </r>
       <r>  23.7002   0.4511  16.8561 </r>
       <r>  23.8206   0.7020  16.9407 </r>
       <r>  23.9411   0.9722  17.0578 </r>
       <r>  24.0615   0.8529  17.1605 </r>
       <r>  24.1820   0.6921  17.2439 </r>
       <r>  24.3025   0.3744  17.2890 </r>
       <r>  24.4229   0.2737  17.3220 </r>
       <r>  24.5434   0.3762  17.3673 </r>
       <r>  24.6638   0.3404  17.4083 </r>
       <r>  24.7843   0.2317  17.4362 </r>
       <r>  24.9048   0.2104  17.4615 </r>
       <r>  25.0252   0.4052  17.5104 </r>
       <r>  25.1457   0.2236  17.5373 </r>
       <r>  25.2661   0.2227  17.5641 </r>
       <r>  25.3866   0.1824  17.5861 </r>
       <r>  25.5070   0.2680  17.6184 </r>
       <r>  25.6275   0.3754  17.6636 </r>
       <r>  25.7480   0.2452  17.6931 </r>
       <r>  25.8684   0.2704  17.7257 </r>
       <r>  25.9889   0.1002  17.7378 </r>
       <r>  26.1093   0.0641  17.7455 </r>
       <r>  26.2298   0.0676  17.7536 </r>
       <r>  26.3503   0.2019  17.7780 </r>
       <r>  26.4707   0.1771  17.7993 </r>
       <r>  26.5912   0.0979  17.8111 </r>
       <r>  26.7116   0.1344  17.8273 </r>
       <r>  26.8321   0.3601  17.8707 </r>
       <r>  26.9525   0.3560  17.9135 </r>
       <r>  27.0730   0.0847  17.9237 </r>
       <r>  27.1935   0.0186  17.9260 </r>
       <r>  27.3139   0.0992  17.9379 </r>
       <r>  27.4344   0.1056  17.9507 </r>
       <r>  27.5548   0.0881  17.9613 </r>
       <r>  27.6753   0.0533  17.9677 </r>
       <r>  27.7958   0.1323  17.9836 </r>
       <r>  27.9162   0.0660  17.9916 </r>
       <r>  28.0367   0.0035  17.9920 </r>
       <r>  28.1571   0.0001  17.9920 </r>
       <r>  28.2776   0.0054  17.9927 </r>
       <r>  28.3980   0.0200  17.9951 </r>
       <r>  28.5185   0.0075  17.9960 </r>
       <r>  28.6390   0.0002  17.9960 </r>
       <r>  28.7594   0.0000  17.9960 </r>
       <r>  28.8799   0.0000  17.9960 </r>
       <r>  29.0003   0.0003  17.9960 </r>
       <r>  29.1208   0.0086  17.9971 </r>
       <r>  29.2413   0.0197  17.9994 </r>
       <r>  29.3617   0.0045  18.0000 </r>
       <r>  29.4822   0.0001  18.0000 </r>
       <r>  29.6026   0.0000  18.0000 </r>
       <r>  29.7231   0.0000  18.0000 </r>
       <r>  29.8435   0.0000  18.0000 </r>
       <r>  29.9640   0.0000  18.0000 </r>
       <r>  30.0845   0.0000  18.0000 </r>
       <r>  30.2049   0.0000  18.0000 </r>
       <r>  30.3254   0.0000  18.0000 </r>
       <r>  30.4458   0.0000  18.0000 </r>
       <r>  30.5663   0.0000  18.0000 </r>
       <r>  30.6868   0.0000  18.0000 </r>
       <r>  30.8072   0.0000  18.0000 </r>
      </set>
     </set>
    </array>
   </total>
   <partial>
    <array>
     <dimension dim="1">gridpoints</dimension>
     <dimension dim="2">spin</dimension>
     <dimension dim="3">ion</dimension>
     <field>energy</field>
     <field>  s</field>
     <field> py</field>
     <field> pz</field>
     <field> px</field>
     <field>dxy</field>
     <field>dyz</field>
     <field>dz2</field>
     <field>dxz</field>
     <field>dx2</field>
     <set>
      <set comment="ion 1">
       <set comment="spin 1">
        <r>  -5.3303   0.0000   0.0000   0.0000   0.0000   0.0000   0.0000   0.0000   0.0000   0.0000 </r>
        <r>  -5.2098   0.0000   0.0000   0.0000   0.0000   0.0000   0.0000   0.0000   0.0000   0.0000 </r>
        <r>  -5.0894   0.0000   0.0000   0.0000   0.0000   0.0000   0.0000   0.0000   0.0000   0.0000 </r>
        <r>  -4.9689   0.0000   0.0000   0.0000   0.0000   0.0000   0.0000   0.0000   0.0000   0.0000 </r>
        <r>  -4.8484   0.0000   0.0000   0.0000   0.0000   0.0000   0.0000   0.0000   0.0000   0.0000 </r>
        <r>  -4.7280   0.0000   0.0000   0.0000   0.0000   0.0000   0.0000   0.0000   0.0000   0.0000 </r>
        <r>  -4.6075   0.0000   0.0000   0.0000   0.0000   0.0000   0.0000   0.0000   0.0000   0.0000 </r>
        <r>  -4.4871   0.0000   0.0000   0.0000   0.0000   0.0000   0.0000   0.0000   0.0000   0.0000 </r>
        <r>  -4.3666   0.0000   0.0000   0.0000   0.0000   0.0000   0.0000   0.0000   0.0000   0.0000 </r>
        <r>  -4.2461   0.0000   0.0000   0.0000   0.0000   0.0000   0.0000   0.0000   0.0000   0.0000 </r>
        <r>  -4.1257   0.0000   0.0000   0.0000   0.0000   0.0000   0.0000   0.0000   0.0000   0.0000 </r>
        <r>  -4.0052   0.0000   0.0000   0.0000   0.0000   0.0000   0.0000   0.0000   0.0000   0.0000 </r>
        <r>  -3.8848   0.0001   0.0000   0.0000   0.0000   0.0000   0.0000   0.0000   0.0000   0.0000 </r>
        <r>  -3.7643   0.0031   0.0000   0.0000   0.0000   0.0000   0.0000   0.0000   0.0000   0.0000 </r>
        <r>  -3.6439   0.0135   0.0000   0.0000   0.0000   0.0000   0.0000   0.0000   0.0000   0.0000 </r>
        <r>  -3.5234   0.0119   0.0000   0.0000   0.0001   0.0000   0.0000   0.0000   0.0000   0.0000 </r>
        <r>  -3.4029   0.0373   0.0001   0.0001   0.0008   0.0000   0.0000   0.0000   0.0000   0.0000 </r>
        <r>  -3.2825   0.0273   0.0001   0.0001   0.0005   0.0000   0.0000   0.0000   0.0000   0.0000 </r>
        <r>  -3.1620   0.0361   0.0007   0.0007   0.0001   0.0000   0.0002   0.0000   0.0000   0.0000 </r>
        <r>  -3.0416   0.0297   0.0005   0.0007   0.0001   0.0000   0.0001   0.0000   0.0000   0.0000 </r>
        <r>  -2.9211   0.0451   0.0003   0.0021   0.0003   0.0001   0.0001   0.0002   0.0001   0.0000 </r>
        <r>  -2.8006   0.0436   0.0004   0.0017   0.0008   0.0002   0.0001   0.0002   0.0001   0.0000 </r>
        <r>  -2.6802   0.0700   0.0013   0.0003   0.0039   0.0010   0.0001   0.0002   0.0001   0.0002 </r>
        <r>  -2.5597   0.0561   0.0011   0.0003   0.0032   0.0008   0.0002   0.0001   0.0003   0.0001 </r>
        <r>  -2.4393   0.0400   0.0007   0.0007   0.0022   0.0007   0.0004   0.0000   0.0007   0.0001 </r>
        <r>  -2.3188   0.0309   0.0009   0.0016   0.0007   0.0003   0.0006   0.0003   0.0003   0.0001 </r>
        <r>  -2.1984   0.0772   0.0023   0.0063   0.0002   0.0003   0.0020   0.0013   0.0004   0.0001 </r>
        <r>  -2.0779   0.0890   0.0027   0.0074   0.0006   0.0011   0.0031   0.0015   0.0012   0.0001 </r>
        <r>  -1.9574   0.0950   0.0023   0.0095   0.0005   0.0009   0.0033   0.0022   0.0011   0.0000 </r>
        <r>  -1.8370   0.0562   0.0011   0.0056   0.0008   0.0014   0.0023   0.0013   0.0019   0.0000 </r>
        <r>  -1.7165   0.0454   0.0016   0.0022   0.0027   0.0030   0.0017   0.0006   0.0017   0.0002 </r>
        <r>  -1.5961   0.1045   0.0049   0.0007   0.0107   0.0104   0.0030   0.0011   0.0030   0.0008 </r>
        <r>  -1.4756   0.1079   0.0039   0.0040   0.0090   0.0107   0.0056   0.0035   0.0058   0.0006 </r>
        <r>  -1.3551   0.0768   0.0015   0.0083   0.0031   0.0063   0.0062   0.0065   0.0059   0.0002 </r>
        <r>  -1.2347   0.1044   0.0031   0.0136   0.0022   0.0095   0.0140   0.0094   0.0095   0.0008 </r>
        <r>  -1.1142   0.1560   0.0070   0.0125   0.0060   0.0309   0.0413   0.0057   0.0306   0.0030 </r>
        <r>  -0.9938   0.1779   0.0063   0.0148   0.0049   0.0661   0.0766   0.0088   0.0610   0.0015 </r>
        <r>  -0.8733   0.2175   0.0064   0.0222   0.0056   0.0871   0.0981   0.0516   0.0743   0.0006 </r>
        <r>  -0.7529   0.1495   0.0044   0.0135   0.0058   0.0763   0.0739   0.1267   0.0593   0.0007 </r>
        <r>  -0.6324   0.1802   0.0055   0.0195   0.0093   0.1105   0.0839   0.2394   0.0610   0.0020 </r>
        <r>  -0.5119   0.2480   0.0088   0.0294   0.0152   0.1915   0.1160   0.3004   0.0748   0.0045 </r>
        <r>  -0.3915   0.2016   0.0103   0.0278   0.0118   0.2796   0.0859   0.3199   0.0508   0.0060 </r>
        <r>  -0.2710   0.2243   0.0105   0.0331   0.0171   0.5245   0.1144   0.4260   0.0698   0.0177 </r>
        <r>  -0.1506   0.1709   0.0095   0.0243   0.0145   0.5738   0.1210   0.3301   0.0629   0.0173 </r>
        <r>  -0.0301   0.1427   0.0136   0.0242   0.0142   0.5284   0.1459   0.2868   0.0449   0.0204 </r>
        <r>   0.0904   0.1522   0.0171   0.0269   0.0196   0.6388   0.2245   0.3700   0.0503   0.0486 </r>
        <r>   0.2108   0.0930   0.0142   0.0152   0.0180   0.5766   0.1601   0.2761   0.0373   0.0432 </r>
        <r>   0.3313   0.0720   0.0185   0.0082   0.0237   0.4437   0.1280   0.2085   0.0211   0.0574 </r>
        <r>   0.4517   0.0789   0.0239   0.0113   0.0286   0.5144   0.1963   0.2992   0.0250   0.0981 </r>
        <r>   0.5722   0.0407   0.0226   0.0091   0.0266   0.6244   0.1176   0.3202   0.0178   0.0620 </r>
        <r>   0.6926   0.0238   0.0188   0.0119   0.0197   0.3473   0.1291   0.1833   0.0147   0.0363 </r>
        <r>   0.8131   0.0150   0.0190   0.0128   0.0147   0.2614   0.1930   0.1684   0.0182   0.0667 </r>
        <r>   0.9336   0.0181   0.0310   0.0169   0.0292   0.4189   0.2056   0.3185   0.0315   0.1009 </r>
        <r>   1.0540   0.0194   0.0332   0.0239   0.0369   0.4943   0.2493   0.3289   0.0475   0.1009 </r>
        <r>   1.1745   0.0171   0.0316   0.0232   0.0224   0.3708   0.2180   0.3687   0.0730   0.1345 </r>
        <r>   1.2949   0.0163   0.0324   0.0235   0.0229   0.3555   0.2757   0.4431   0.1478   0.1425 </r>
[...]
       </set>
       <set comment="band 6">
        <r>  0.2007  0.0267  0.1632  0.0147  0.0015  0.2745  0.1082  0.0447  0.0126 </r>
       </set>
       <set comment="band 7">
        <r>  0.2821  0.0931  0.0660  0.1301  0.0914  0.0068  0.0093  0.0299  0.0247 </r>
       </set>
       <set comment="band 8">
        <r>  0.0958  0.0037  0.1558  0.2676  0.0585  0.0116  0.0615  0.0518  0.0281 </r>
       </set>
       <set comment="band 9">
        <r>  0.0036  0.1566  0.0670  0.0755  0.0210  0.0425  0.2125  0.0023  0.0416 </r>
       </set>
      </set>
      <set comment="kpoint 96">
       <set comment="band 1">
        <r>  0.0057  0.0449  0.0028  0.0002  0.0207  0.0031  0.6402  0.0003  0.1174 </r>
       </set>
       <set comment="band 2">
        <r>  0.0100  0.0015  0.0054  0.0582  0.6979  0.0658  0.0076  0.0200  0.0138 </r>
       </set>
       <set comment="band 3">
        <r>  0.0336  0.0032  0.0736  0.0071  0.0788  0.6504  0.0083  0.0001  0.0184 </r>
       </set>
       <set comment="band 4">
        <r>  0.0166  0.0018  0.0137  0.0007  0.0001  0.0289  0.1386  0.0106  0.7207 </r>
       </set>
       <set comment="band 5">
        <r>  0.0011  0.0000  0.0001  0.0047  0.0314  0.0090  0.0011  0.9243  0.0062 </r>
       </set>
       <set comment="band 6">
        <r>  0.3531  0.0135  0.1722  0.0002  0.0006  0.1984  0.0650  0.0058  0.0006 </r>
       </set>
       <set comment="band 7">
        <r>  0.1956  0.0594  0.1240  0.1702  0.0839  0.0171  0.0116  0.0108  0.0745 </r>
       </set>
       <set comment="band 8">
        <r>  0.1105  0.0115  0.0943  0.3306  0.1141  0.0153  0.0011  0.0285  0.0443 </r>
       </set>
       <set comment="band 9">
        <r>  0.0094  0.1927  0.1052  0.0073  0.0034  0.0443  0.2941  0.0000  0.0414 </r>
       </set>
      </set>
      <set comment="kpoint 97">
       <set comment="band 1">
        <r>  0.0041  0.0461  0.0000  0.0003  0.0004  0.0134  0.4833  0.0000  0.2847 </r>
       </set>
       <set comment="band 2">
        <r>  0.0029  0.0022  0.0648  0.0004  0.0046  0.7920  0.0111  0.0022  0.0008 </r>
       </set>
       <set comment="band 3">
        <r>  0.0050  0.0003  0.0005  0.0883  0.7732  0.0058  0.0013  0.0031  0.0036 </r>
       </set>
       <set comment="band 4">
        <r>  0.0376  0.0013  0.0009  0.0020  0.0057  0.0018  0.3236  0.0011  0.5538 </r>
       </set>
       <set comment="band 5">
        <r>  0.0002  0.0000  0.0007  0.0007  0.0068  0.0037  0.0002  0.9731  0.0003 </r>
       </set>
       <set comment="band 6">
        <r>  0.5024  0.0000  0.0129  0.1117  0.0814  0.0142  0.0048  0.0040  0.0670 </r>
       </set>
       <set comment="band 7">
        <r>  0.0982  0.0219  0.0891  0.3275  0.1300  0.0447  0.0359  0.0007  0.0020 </r>
       </set>
       <set comment="band 8">
        <r>  0.0852  0.0058  0.3886  0.0593  0.0195  0.1394  0.0004  0.0064  0.0435 </r>
       </set>
       <set comment="band 9">
        <r>  0.0000  0.2596  0.0300  0.0136  0.0069  0.0111  0.2872  0.0000  0.0995 </r>
       </set>
      </set>
      <set comment="kpoint 98">
       <set comment="band 1">
        <r>  0.0576  0.0001  0.0070  0.0001  0.4320  0.0090  0.3458  0.0090  0.0000 </r>
       </set>
       <set comment="band 2">
        <r>  0.0004  0.0359  0.0001  0.0359  0.3455  0.0094  0.4115  0.0094  0.0000 </r>
       </set>
       <set comment="band 3">
        <r>  0.0325  0.0006  0.1169  0.0006  0.0564  0.3299  0.0070  0.3299  0.0000 </r>
       </set>
       <set comment="band 4">
        <r>  0.0000  0.0062  0.0000  0.0062  0.0000  0.1070  0.0000  0.1070  0.7191 </r>
       </set>
       <set comment="band 5">
        <r>  0.0000  0.0000  0.0000  0.0000  0.0000  0.3790  0.0000  0.3790  0.2229 </r>
       </set>
       <set comment="band 6">
        <r>  0.1925  0.0130  0.2407  0.0130  0.0000  0.1422  0.0878  0.1422  0.0000 </r>
       </set>
       <set comment="band 7">
        <r>  0.3195  0.1068  0.0668  0.1068  0.1051  0.0014  0.0069  0.0014  0.0000 </r>
       </set>
       <set comment="band 8">
        <r>  0.1086  0.0759  0.1694  0.0759  0.0150  0.0319  0.2521  0.0319  0.0000 </r>
       </set>
       <set comment="band 9">
        <r>  0.0000  0.2531  0.0000  0.2531  0.0000  0.0071  0.0000  0.0071  0.1041 </r>
       </set>
      </set>
      <set comment="kpoint 99">
       <set comment="band 1">
        <r>  0.0327  0.0108  0.0007  0.0026  0.2847  0.0005  0.5097  0.0005  0.0113 </r>
       </set>
       <set comment="band 2">
        <r>  0.0004  0.0293  0.0000  0.0427  0.5306  0.0020  0.2371  0.0013  0.0144 </r>
       </set>
       <set comment="band 3">
        <r>  0.0048  0.0000  0.1118  0.0003  0.0058  0.6863  0.0000  0.0655  0.0065 </r>
       </set>
       <set comment="band 4">
        <r>  0.0120  0.0061  0.0024  0.0038  0.0017  0.0015  0.0276  0.0167  0.8689 </r>
       </set>
       <set comment="band 5">
        <r>  0.0009  0.0000  0.0026  0.0002  0.0018  0.1103  0.0003  0.8512  0.0118 </r>
       </set>
       <set comment="band 6">
        <r>  0.4607  0.0085  0.1085  0.0296  0.0447  0.0795  0.0213  0.0287  0.0136 </r>
       </set>
       <set comment="band 7">
        <r>  0.0801  0.0406  0.3323  0.0716  0.0457  0.1247  0.0106  0.0256  0.0121 </r>
       </set>
       <set comment="band 8">
        <r>  0.1285  0.0783  0.0539  0.2014  0.0465  0.0158  0.2380  0.0083  0.0001 </r>
       </set>
       <set comment="band 9">
        <r>  0.0065  0.2007  0.0005  0.2130  0.0403  0.0013  0.0970  0.0006  0.1026 </r>
       </set>
      </set>
      <set comment="kpoint 100">
       <set comment="band 1">
        <r>  0.0446  0.0000  0.0008  0.0000  0.3872  0.0008  0.4266  0.0008  0.0000 </r>
       </set>
       <set comment="band 2">
        <r>  0.0001  0.0372  0.0000  0.0372  0.4322  0.0012  0.3408  0.0012  0.0000 </r>
       </set>
       <set comment="band 3">
        <r>  0.0042  0.0000  0.1289  0.0000  0.0060  0.3698  0.0007  0.3698  0.0000 </r>
       </set>
       <set comment="band 4">
        <r>  0.0000  0.0065  0.0000  0.0065  0.0000  0.0218  0.0000  0.0218  0.8925 </r>
       </set>
       <set comment="band 5">
        <r>  0.0000  0.0000  0.0000  0.0000  0.0000  0.4659  0.0000  0.4659  0.0448 </r>
       </set>
       <set comment="band 6">
        <r>  0.4763  0.0294  0.0775  0.0294  0.0623  0.0485  0.0131  0.0485  0.0000 </r>
       </set>
       <set comment="band 7">
        <r>  0.0498  0.0507  0.3586  0.0507  0.0387  0.0903  0.0166  0.0903  0.0000 </r>
       </set>
       <set comment="band 8">
        <r>  0.1371  0.1222  0.0500  0.1222  0.0262  0.0113  0.3003  0.0113  0.0000 </r>
       </set>
       <set comment="band 9">
        <r>  0.0000  0.2550  0.0000  0.2550  0.0000  0.0008  0.0000  0.0008  0.1173 </r>
       </set>
      </set>
      <set comment="kpoint 101">
       <set comment="band 1">
        <r>  0.3132  0.0087  0.0087  0.0087  0.1533  0.1533  0.0000  0.1533  0.0000 </r>
       </set>
       <set comment="band 2">
        <r>  0.0000  0.0001  0.0001  0.0004  0.0760  0.3030  0.1206  0.0757  0.3607 </r>
       </set>
       <set comment="band 3">
        <r>  0.0000  0.0003  0.0003  0.0000  0.2271  0.0001  0.3607  0.2274  0.1206 </r>
       </set>
       <set comment="band 4">
        <r>  0.1441  0.0862  0.0862  0.0862  0.1161  0.1161  0.0000  0.1161  0.0000 </r>
       </set>
       <set comment="band 5">
        <r>  0.0000  0.0011  0.0012  0.0001  0.2494  0.0139  0.3492  0.2365  0.1174 </r>
       </set>
       <set comment="band 6">
        <r>  0.0000  0.0005  0.0004  0.0015  0.0839  0.3193  0.1174  0.0967  0.3492 </r>
       </set>
       <set comment="band 7">
        <r>  0.2463  0.0820  0.0820  0.0820  0.0875  0.0875  0.0000  0.0875  0.0000 </r>
       </set>
       <set comment="band 8">
        <r>  0.0003  0.0099  0.0099  0.0099  0.0144  0.0144  0.0000  0.0144  0.0000 </r>
       </set>
       <set comment="band 9">
        <r>  0.0000  0.1568  0.1864  0.1191  0.0460  0.0294  0.0001  0.0387  0.0001 </r>
       </set>
      </set>
      <set comment="kpoint 102">
       <set comment="band 1">
        <r>  0.2458  0.0137  0.0137  0.0007  0.1708  0.2034  0.0001  0.1708  0.0004 </r>
       </set>
       <set comment="band 2">
        <r>  0.0004  0.0011  0.0011  0.0024  0.0703  0.2837  0.1238  0.0703  0.3714 </r>
       </set>
       <set comment="band 3">
        <r>  0.0000  0.0004  0.0004  0.0000  0.1841  0.0000  0.4239  0.1841  0.1413 </r>
       </set>
       <set comment="band 4">
        <r>  0.0811  0.0725  0.0725  0.0710  0.1643  0.0165  0.0368  0.1643  0.1104 </r>
       </set>
       <set comment="band 5">
        <r>  0.0000  0.0012  0.0012  0.0000  0.2948  0.0000  0.2794  0.2948  0.0931 </r>
       </set>
       <set comment="band 6">
        <r>  0.0793  0.0408  0.0408  0.0180  0.0036  0.4256  0.0748  0.0036  0.2245 </r>
       </set>
       <set comment="band 7">
        <r>  0.2859  0.0680  0.0680  0.0923  0.0933  0.0681  0.0031  0.0933  0.0092 </r>
       </set>
       <set comment="band 8">
        <r>  0.0017  0.0001  0.0001  0.0864  0.0476  0.0071  0.0105  0.0476  0.0314 </r>
       </set>
       <set comment="band 9">
        <r>  0.0248  0.0910  0.0908  0.2144  0.0322  0.0024  0.0007  0.0322  0.0020 </r>
       </set>
      </set>
      <set comment="kpoint 103">
       <set comment="band 1">
        <r>  0.1606  0.0163  0.0163  0.0121  0.1307  0.3685  0.0020  0.1307  0.0060 </r>
       </set>
       <set comment="band 2">
        <r>  0.0008  0.0091  0.0091  0.0073  0.0898  0.1254  0.1392  0.0898  0.4176 </r>
       </set>
       <set comment="band 3">
        <r>  0.0264  0.0532  0.0532  0.0589  0.1734  0.1185  0.0430  0.1734  0.1291 </r>
       </set>
       <set comment="band 4">
        <r>  0.0000  0.0031  0.0031  0.0000  0.1176  0.0000  0.5194  0.1176  0.1731 </r>
       </set>
       <set comment="band 5">
        <r>  0.0000  0.0009  0.0009  0.0000  0.3629  0.0000  0.1772  0.3629  0.0591 </r>
       </set>
       <set comment="band 6">
        <r>  0.2002  0.0648  0.0648  0.0198  0.0001  0.3524  0.0393  0.0001  0.1180 </r>
       </set>
       <set comment="band 7">
        <r>  0.2725  0.0613  0.0613  0.1265  0.0895  0.0194  0.0157  0.0895  0.0472 </r>
       </set>
       <set comment="band 8">
        <r>  0.0513  0.0417  0.0417  0.2927  0.0894  0.0019  0.0214  0.0894  0.0641 </r>
       </set>
       <set comment="band 9">
        <r>  0.0188  0.0431  0.0434  0.0156  0.0000  0.0710  0.0110  0.0000  0.0327 </r>
       </set>
      </set>
      <set comment="kpoint 104">
       <set comment="band 1">
        <r>  0.0636  0.0027  0.0027  0.0015  0.0053  0.5407  0.0633  0.0053  0.1899 </r>
       </set>
       <set comment="band 2">
        <r>  0.0131  0.0558  0.0558  0.0021  0.0184  0.1523  0.1277  0.0184  0.3832 </r>
       </set>
       <set comment="band 3">
        <r>  0.0001  0.0040  0.0040  0.1020  0.3609  0.0386  0.0017  0.3609  0.0051 </r>
       </set>
       <set comment="band 4">
        <r>  0.0000  0.0063  0.0063  0.0000  0.0229  0.0000  0.6600  0.0229  0.2200 </r>
       </set>
       <set comment="band 5">
        <r>  0.0000  0.0002  0.0002  0.0000  0.4607  0.0000  0.0346  0.4607  0.0115 </r>
       </set>
       <set comment="band 6">
        <r>  0.3816  0.0696  0.0696  0.0026  0.0008  0.2325  0.0092  0.0008  0.0276 </r>
       </set>
       <set comment="band 7">
        <r>  0.1185  0.0448  0.0448  0.2765  0.1049  0.0006  0.0240  0.1049  0.0719 </r>
       </set>
       <set comment="band 8">
        <r>  0.1377  0.0722  0.0722  0.1968  0.0563  0.0022  0.0419  0.0563  0.1257 </r>
       </set>
       <set comment="band 9">
        <r>  0.0000  0.2431  0.2428  0.0000  0.0003  0.0000  0.1423  0.0003  0.0476 </r>
       </set>
      </set>
      <set comment="kpoint 105">
       <set comment="band 1">
        <r>  0.2130  0.0000  0.0184  0.0000  0.2435  0.1758  0.0057  0.1758  0.0000 </r>
       </set>
       <set comment="band 2">
        <r>  0.0003  0.0024  0.0000  0.0024  0.1497  0.0838  0.5953  0.0838  0.0000 </r>
       </set>
       <set comment="band 3">
        <r>  0.0000  0.0019  0.0000  0.0019  0.0000  0.2015  0.0000  0.2015  0.5281 </r>
       </set>
       <set comment="band 4">
        <r>  0.0484  0.0620  0.0620  0.0620  0.4214  0.0166  0.1310  0.0166  0.0000 </r>
       </set>
       <set comment="band 5">
        <r>  0.0000  0.0002  0.0000  0.0002  0.0000  0.2799  0.0000  0.2799  0.4222 </r>
       </set>
       <set comment="band 6">
        <r>  0.0826  0.0550  0.1000  0.0550  0.0484  0.1493  0.2000  0.1493  0.0000 </r>
       </set>
       <set comment="band 7">
        <r>  0.3466  0.0671  0.0412  0.0671  0.1168  0.0845  0.0045  0.0845  0.0000 </r>
       </set>
       <set comment="band 8">
        <r>  0.0009  0.0030  0.0287  0.0030  0.0286  0.0005  0.0491  0.0005  0.0000 </r>
       </set>
       <set comment="band 9">
        <r>  0.0000  0.2368  0.0000  0.2367  0.0000  0.0275  0.0000  0.0274  0.0369 </r>
       </set>
      </set>
      <set comment="kpoint 106">
       <set comment="band 1">
        <r>  0.1577  0.0009  0.0221  0.0106  0.2800  0.2335  0.0080  0.1305  0.0016 </r>
       </set>
       <set comment="band 2">
        <r>  0.0001  0.0146  0.0001  0.0003  0.0822  0.1567  0.5005  0.0012  0.1369 </r>
       </set>
       <set comment="band 3">
        <r>  0.0037  0.0116  0.0049  0.0321  0.0397  0.1372  0.2283  0.2005  0.2499 </r>
       </set>
       <set comment="band 4">
        <r>  0.0134  0.0382  0.0576  0.0255  0.3455  0.0735  0.0042  0.0713  0.2372 </r>
       </set>
       <set comment="band 5">
        <r>  0.0007  0.0004  0.0028  0.0013  0.0795  0.0945  0.0649  0.4683  0.2615 </r>
       </set>
       <set comment="band 6">
        <r>  0.1186  0.0709  0.1301  0.0614  0.0117  0.2453  0.1143  0.0207  0.0429 </r>
       </set>
       <set comment="band 7">
        <r>  0.3724  0.0458  0.0258  0.0861  0.1321  0.0429  0.0090  0.0871  0.0156 </r>
       </set>
       <set comment="band 8">
        <r>  0.0251  0.0479  0.0153  0.2509  0.0788  0.0040  0.0274  0.0391  0.0742 </r>
       </set>
       <set comment="band 9">
        <r>  0.0352  0.0051  0.2183  0.0462  0.0006  0.0445  0.1264  0.0206  0.0015 </r>
       </set>
      </set>
      <set comment="kpoint 107">
       <set comment="band 1">
        <r>  0.0795  0.0000  0.0193  0.0156  0.1000  0.4865  0.0350  0.0442  0.0858 </r>
       </set>
       <set comment="band 2">
        <r>  0.0087  0.0367  0.0167  0.0043  0.1377  0.0052  0.4013  0.0229  0.2166 </r>
       </set>
       <set comment="band 3">
        <r>  0.0002  0.0227  0.0306  0.0660  0.4241  0.2414  0.0247  0.0346  0.0228 </r>
       </set>
       <set comment="band 4">
        <r>  0.0018  0.0006  0.0101  0.0053  0.0067  0.0006  0.3126  0.1532  0.4435 </r>
       </set>
       <set comment="band 5">
        <r>  0.0052  0.0000  0.0000  0.0011  0.1486  0.0285  0.0627  0.6394  0.0864 </r>
       </set>
       <set comment="band 6">
        <r>  0.3134  0.0525  0.1243  0.0226  0.0004  0.2025  0.0526  0.0176  0.0078 </r>
       </set>
       <set comment="band 7">
        <r>  0.2104  0.0492  0.0443  0.1912  0.1471  0.0000  0.0303  0.0608  0.0644 </r>
       </set>
       <set comment="band 8">
        <r>  0.0980  0.0369  0.0893  0.2628  0.0711  0.0068  0.0136  0.0445  0.1147 </r>
       </set>
       <set comment="band 9">
        <r>  0.0147  0.1182  0.2156  0.0003  0.0037  0.0633  0.2083  0.0034  0.0061 </r>
       </set>
      </set>
      <set comment="kpoint 108">
       <set comment="band 1">
        <r>  0.1278  0.0041  0.0202  0.0041  0.4209  0.1145  0.0480  0.1145  0.0000 </r>
       </set>
       <set comment="band 2">
        <r>  0.0022  0.0181  0.0020  0.0181  0.0099  0.0827  0.6560  0.0827  0.0000 </r>
       </set>
       <set comment="band 3">
        <r>  0.0097  0.0364  0.0694  0.0364  0.3483  0.1457  0.0649  0.1457  0.0000 </r>
       </set>
       <set comment="band 4">
        <r>  0.0000  0.0040  0.0000  0.0040  0.0000  0.1536  0.0000  0.1536  0.6199 </r>
       </set>
       <set comment="band 5">
        <r>  0.0000  0.0002  0.0000  0.0002  0.0000  0.3301  0.0000  0.3301  0.3187 </r>
       </set>
       <set comment="band 6">
        <r>  0.0128  0.1082  0.1890  0.1082  0.0591  0.0650  0.1547  0.0650  0.0000 </r>
       </set>
       <set comment="band 7">
        <r>  0.5002  0.0220  0.0003  0.0220  0.1313  0.0865  0.0000  0.0865  0.0000 </r>
       </set>
       <set comment="band 8">
        <r>  0.0541  0.0369  0.2450  0.0370  0.0004  0.0466  0.1708  0.0466  0.0000 </r>
       </set>
       <set comment="band 9">
        <r>  0.0000  0.2329  0.0001  0.2496  0.0002  0.0070  0.0000  0.0075  0.1233 </r>
       </set>
      </set>
      <set comment="kpoint 109">
       <set comment="band 1">
        <r>  0.2168  0.0008  0.0008  0.0008  0.2058  0.2058  0.0000  0.2058  0.0000 </r>
       </set>
       <set comment="band 2">
        <r>  0.0000  0.0000  0.0000  0.0000  0.0646  0.2581  0.1367  0.0645  0.4094 </r>
       </set>
       <set comment="band 3">
        <r>  0.0000  0.0000  0.0000  0.0000  0.1935  0.0000  0.4094  0.1936  0.1367 </r>
       </set>
       <set comment="band 4">
        <r>  0.0000  0.0002  0.0002  0.0000  0.3032  0.0043  0.3150  0.2714  0.0860 </r>
       </set>
       <set comment="band 5">
        <r>  0.0000  0.0001  0.0001  0.0003  0.0828  0.3817  0.0860  0.1146  0.3150 </r>
       </set>
       <set comment="band 6">
        <r>  0.0603  0.1685  0.1685  0.1685  0.0230  0.0230  0.0000  0.0230  0.0000 </r>
       </set>
       <set comment="band 7">
        <r>  0.4271  0.0267  0.0267  0.0267  0.1206  0.1206  0.0000  0.1206  0.0000 </r>
       </set>
       <set comment="band 8">
        <r>  0.0001  0.0082  0.0082  0.0082  0.0014  0.0014  0.0000  0.0014  0.0000 </r>
       </set>
       <set comment="band 9">
        <r>  0.0000  0.1461  0.2468  0.0687  0.0067  0.0019  0.0003  0.0040  0.0001 </r>
       </set>
      </set>
      <set comment="kpoint 110">
       <set comment="band 1">
        <r>  0.1891  0.0030  0.0030  0.0065  0.1975  0.2449  0.0001  0.1975  0.0004 </r>
       </set>
       <set comment="band 2">
        <r>  0.0000  0.0025  0.0025  0.0004  0.0655  0.2044  0.1442  0.0655  0.4326 </r>
       </set>
       <set comment="band 3">
        <r>  0.0000  0.0010  0.0010  0.0000  0.1788  0.0000  0.4299  0.1788  0.1433 </r>
       </set>
       <set comment="band 4">
        <r>  0.0012  0.0662  0.0662  0.0656  0.0923  0.2561  0.0487  0.0923  0.1461 </r>
       </set>
       <set comment="band 5">
        <r>  0.0000  0.0002  0.0002  0.0000  0.3047  0.0000  0.2770  0.3047  0.0923 </r>
       </set>
       <set comment="band 6">
        <r>  0.0151  0.1240  0.1240  0.1234  0.0141  0.1738  0.0423  0.0141  0.1269 </r>
       </set>
       <set comment="band 7">
        <r>  0.4858  0.0025  0.0025  0.0172  0.1345  0.1095  0.0008  0.1345  0.0023 </r>
       </set>
       <set comment="band 8">
        <r>  0.0012  0.0003  0.0003  0.0506  0.0131  0.0128  0.0121  0.0131  0.0361 </r>
       </set>
       <set comment="band 9">
        <r>  0.0256  0.0821  0.0840  0.2557  0.0240  0.0133  0.0050  0.0240  0.0155 </r>
       </set>
      </set>
     </set>
    </set>
   </array>
  </projected>
 </calculation>
 <structure name="finalpos"">
  <crystal>
   <varray name="basis"">
    <v>       0.00000000      1.96195000      1.96195000</v>
    <v>       1.96195000      0.00000000      1.96195000</v>
    <v>       1.96195000      1.96195000      0.00000000</v>
   </varray>
   <i name="volume""     15.10406345</i>
   <varray name="rec_basis"">
    <v>      -0.25484849      0.25484849      0.25484849</v>
    <v>       0.25484849     -0.25484849      0.25484849</v>
    <v>       0.25484849      0.25484849     -0.25484849</v>
   </varray>
  </crystal>
  <varray name="positions"">
   <v>       0.00000000      0.00000000      0.00000000</v>
  </varray>
 </structure>
</modeling>
