----- GAMESS execution script 'rungms' -----
This job is running on host dftfe.crc.nd.edu
under operating system Linux at Thu Feb 26 00:16:39 EST 2015
Available scratch disk space (Kbyte units) at beginning of the job is
Filesystem     1K-blocks     Used Available Use% Mounted on
/dev/sda2      147771864 22813364 117452068  17% /
GAMESS temporary binary files will be written to /tmp
GAMESS supplementary output files will be written to /tmp
Copying input file gamess.inp to your run's scratch directory...

 Distributed Data Interface kickoff program.
 Initiating 1 compute processes on 1 nodes to run the following command:
 /opt/crc/gamess/2012R1/gamess/gamess.00.x gamess 

          ******************************************************
          *         GAMESS VERSION =  1 MAY 2012 (R1)          *
          *             FROM IOWA STATE UNIVERSITY             *
          * M.W.SCHMIDT, K.K.BALDRIDGE, J.A.BOATZ, S.T.ELBERT, *
          *   M.S.GORDON, J.H.JENSEN, S.KOSEKI, N.MATSUNAGA,   *
          *          K.A.NGUYEN, S.J.SU, T.L.WINDUS,           *
          *       TOGETHER WITH M.DUPUIS, J.A.MONTGOMERY       *
          *         J.COMPUT.CHEM.  14, 1347-1363(1993)        *
          **************** 64 BIT LINUX VERSION ****************

  SINCE 1993, STUDENTS AND POSTDOCS WORKING AT IOWA STATE UNIVERSITY
  AND ALSO IN THEIR VARIOUS JOBS AFTER LEAVING ISU HAVE MADE IMPORTANT
  CONTRIBUTIONS TO THE CODE:
     IVANA ADAMOVIC, CHRISTINE AIKENS, YURI ALEXEEV, POOJA ARORA,
     ANDREY ASADCHEV, ROB BELL, PRADIPTA BANDYOPADHYAY, JONATHAN BENTZ,
     BRETT BODE, GALINA CHABAN, WEI CHEN, CHEOL HO CHOI, PAUL DAY,
     ALBERT DEFUSCO, TIM DUDLEY, DMITRI FEDOROV, GRAHAM FLETCHER,
     MARK FREITAG, KURT GLAESEMANN, DAN KEMP, GRANT MERRILL,
     NORIYUKI MINEZAWA, JONATHAN MULLIN, TAKESHI NAGATA,
     SEAN NEDD, HEATHER NETZLOFF, BOSILJKA NJEGIC, RYAN OLSON, MIKE PAK,
     JIM SHOEMAKER, LYUDMILA SLIPCHENKO, SAROM SOK, JIE SONG,
     TETSUYA TAKETSUGU, SIMON WEBB, SOOHAENG YOO, FEDERICO ZAHARIEV

  ADDITIONAL CODE HAS BEEN PROVIDED BY COLLABORATORS IN OTHER GROUPS:
     IOWA STATE UNIVERSITY:
          JOE IVANIC, LAIMUTIS BYTAUTAS, KLAUS RUEDENBERG
     UNIVERSITY OF TOKYO: KIMIHIKO HIRAO, TAKAHITO NAKAJIMA,
          TAKAO TSUNEDA, MUNEAKI KAMIYA, SUSUMU YANAGISAWA,
          KIYOSHI YAGI, MAHITO CHIBA, SEIKEN TOKURA, NAOAKI KAWAKAMI
     UNIVERSITY OF AARHUS: FRANK JENSEN
     UNIVERSITY OF IOWA: VISVALDAS KAIRYS, HUI LI
     NATIONAL INST. OF STANDARDS AND TECHNOLOGY: WALT STEVENS, DAVID GARMER
     UNIVERSITY OF PISA: BENEDETTA MENNUCCI, JACOPO TOMASI
     UNIVERSITY OF MEMPHIS: HENRY KURTZ, PRAKASHAN KORAMBATH
     UNIVERSITY OF ALBERTA: TOBY ZENG, MARIUSZ KLOBUKOWSKI
     UNIVERSITY OF NEW ENGLAND: MARK SPACKMAN
     MIE UNIVERSITY: HIROAKI UMEDA
     MICHIGAN STATE UNIVERSITY:
          KAROL KOWALSKI, MARTA WLOCH, JEFFREY GOUR, JESSE LUTZ, PIOTR PIECUCH
     UNIVERSITY OF SILESIA: MONIKA MUSIAL, STANISLAW KUCHARSKI
     FACULTES UNIVERSITAIRES NOTRE-DAME DE LA PAIX:
          OLIVIER QUINET, BENOIT CHAMPAGNE
     UNIVERSITY OF CALIFORNIA - SANTA BARBARA: BERNARD KIRTMAN
     INSTITUTE FOR MOLECULAR SCIENCE:
          KAZUYA ISHIMURA, MICHIO KATOUDA, AND SHIGERU NAGASE
     UNIVERSITY OF NOTRE DAME: DAN CHIPMAN
     KYUSHU UNIVERSITY:
          HARUYUKI NAKANO,
          FENG LONG GU, JACEK KORCHOWIEC, MARCIN MAKOWSKI, AND YURIKO AOKI,
          HIROTOSHI MORI AND EISAKU MIYOSHI
     PENNSYLVANIA STATE UNIVERSITY:
          TZVETELIN IORDANOV, CHET SWALINA, JONATHAN SKONE,
          SHARON HAMMES-SCHIFFER
     WASEDA UNIVERSITY:
          MASATO KOBAYASHI, TOMOKO AKAMA, TSUGUKI TOUMA,
          TAKESHI YOSHIKAWA, YASUHIRO IKABATA, HIROMI NAKAI
     UNIVERSITY OF NEBRASKA:
          PEIFENG SU, DEJUN SI, NANDUN THELLAMUREGE, YALI WANG, HUI LI
     UNIVERSITY OF ZURICH:
          ROBERTO PEVERATI, KIM BALDRIDGE
     N. COPERNICUS UNIVERSITY AND JACKSON STATE UNIVERSITY:
          MARIA BARYSZ

 EXECUTION OF GAMESS BEGUN Thu Feb 26 00:16:39 2015

            ECHO OF THE FIRST FEW INPUT CARDS -
 INPUT CARD> $BASIS GBASIS=PC1 $END                                                         
 INPUT CARD> $CONTRL COORD=ZMT ISPHER=1 RUNTYP=ENERGY DFTTYP=PBE $END                       
 INPUT CARD>                                                                                
 INPUT CARD> $DATA                                                                          
 INPUT CARD>Title                                                                           
 INPUT CARD>Cnv 2                                                                           
 INPUT CARD>                                                                                
 INPUT CARD>S                                                                               
 INPUT CARD>O 1 1.50                                                                        
 INPUT CARD>O 1 1.50 2 110.0                                                                
 INPUT CARD> $END                                                                           
    1000000 WORDS OF MEMORY AVAILABLE

     BASIS OPTIONS
     -------------
     GBASIS=PC1          IGAUSS=       0      POLAR=NONE    
     NDFUNC=       0     NFFUNC=       0     DIFFSP=       F
     NPFUNC=       0      DIFFS=       F     BASNAM=        


     RUN TITLE
     ---------
 Title                                                                           

 THE POINT GROUP OF THE MOLECULE IS CNV     
 THE ORDER OF THE PRINCIPAL AXIS IS     2

 YOUR FULLY SUBSTITUTED Z-MATRIX IS
 S   
 O      1   1.5000000
 O      1   1.5000000  2  110.0000

 THE MOMENTS OF INERTIA ARE (AMU-ANGSTROM**2)
 IXX=    11.837   IYY=    48.297   IZZ=    60.134

 ATOM      ATOMIC                      COORDINATES (BOHR)
           CHARGE         X                   Y                   Z
 S          16.0     0.0000000000        0.0000000000       -0.8131523178
 O           8.0    -2.3219593590        0.0000000000        0.8127011288
 O           8.0     2.3219593590        0.0000000000        0.8127011288

          INTERNUCLEAR DISTANCES (ANGS.)
          ------------------------------

                1 S          2 O          3 O     

   1 S       0.0000000    1.5000000 *  1.5000000 *
   2 O       1.5000000 *  0.0000000    2.4574561 *
   3 O       1.5000000 *  2.4574561 *  0.0000000  

  * ... LESS THAN  3.000


     ATOMIC BASIS SET
     ----------------
 THE CONTRACTED PRIMITIVE FUNCTIONS HAVE BEEN UNNORMALIZED
 THE CONTRACTED BASIS FUNCTIONS ARE NOW NORMALIZED TO UNITY

  SHELL TYPE  PRIMITIVE        EXPONENT          CONTRACTION COEFFICIENT(S)

 S         

      1   S       1         55510.0000000    0.000587229760
      1   S       2          8326.7000000    0.004532413947
      1   S       3          1895.6000000    0.023265261648
      1   S       4           536.7700000    0.089696133027
      1   S       5           174.6700000    0.254098332277
      1   S       6            62.5780000    0.438665087637
      1   S       7            23.5730000    0.314547135094
      1   S       8             5.8908000    0.032727897102

      2   S       9          8326.7000000   -0.000019755715
      2   S      10          1895.6000000   -0.000043822381
      2   S      11           536.7700000   -0.001730264906
      2   S      12           174.6700000   -0.009381263460
      2   S      13            62.5780000   -0.064050766303
      2   S      14            23.5730000   -0.082478179196
      2   S      15             5.8908000    0.478342956889
      2   S      16             2.1852000    0.626896670208

      3   S      17          1895.6000000    0.000016227260
      3   S      18           536.7700000    0.000191135619
      3   S      19           174.6700000    0.001952069674
      3   S      20            62.5780000    0.010578701087
      3   S      21            23.5730000    0.022164934551
      3   S      22             5.8908000   -0.184968323118
      3   S      23             2.1852000   -0.480920750976
      3   S      24             0.4528200    1.243822243872

      4   S      25             0.1620200    1.000000000000

      5   P      26           395.4500000    0.004642761329
      5   P      27            92.8340000    0.036023396489
      5   P      28            29.2660000    0.149058869978
      5   P      29            10.5950000    0.360033266263
      5   P      30             4.0272000    0.455756476221
      5   P      31             1.5484000    0.206167664178

      6   P      32            92.8340000    0.000169901442
      6   P      33            29.2660000   -0.002541839934
      6   P      34            10.5950000   -0.007867614595
      6   P      35             4.0272000   -0.037231009184
      6   P      36             1.5484000    0.161417246830
      6   P      37             0.4613400    0.902230419976

      7   P      38             0.1313100    1.000000000000

      8   D      39             0.5500000    1.000000000000

 O         

     15   S      40          2306.7000000    0.005424388755
     15   S      41           347.1500000    0.040474749465
     15   S      42            78.8900000    0.180219634554
     15   S      43            21.8760000    0.462370311787
     15   S      44             6.6646000    0.454888396263

     16   S      45           347.1500000   -0.000655003786
     16   S      46            78.8900000   -0.005362052952
     16   S      47            21.8760000   -0.074902158894
     16   S      48             6.6646000   -0.181442579655
     16   S      49             1.0669000    1.102006874042

     17   S      50             0.3070000    1.000000000000

     18   P      51            17.0220000    0.068979967443
     18   P      52             3.6838000    0.351985516325
     18   P      53             0.9923400    0.724036547822

     19   P      54             0.2448700    1.000000000000

     20   D      55             1.0000000    1.000000000000

 TOTAL NUMBER OF BASIS SET SHELLS             =   20
 NUMBER OF CARTESIAN GAUSSIAN BASIS FUNCTIONS =   49
 NOTE: THIS RUN WILL RESTRICT THE MO VARIATION SPACE TO SPHERICAL HARMONICS.
 THE NUMBER OF ORBITALS KEPT IN THE VARIATIONAL SPACE WILL BE PRINTED LATER.
 NUMBER OF ELECTRONS                          =   32
 CHARGE OF MOLECULE                           =    0
 SPIN MULTIPLICITY                            =    1
 NUMBER OF OCCUPIED ORBITALS (ALPHA)          =   16
 NUMBER OF OCCUPIED ORBITALS (BETA )          =   16
 TOTAL NUMBER OF ATOMS                        =    3
 THE NUCLEAR REPULSION ENERGY IS      104.0943814985

     LEBEDEV GRID-BASED DFT OPTIONS
     ------------------------------
     DFTTYP=PBE     
     NRAD  =      96     NLEB  =     302
     NRAD0 =      24     NLEB0 =     110
     SWOFF =    5.00E-03 (PURE SCF -> DFT)
     SWITCH=    3.00E-04 (COARSE -> TIGHT GRID)
     THRESH=    0.00E+00 GTHRE=    1.00E+00

 GRIMME'S EMPIRICAL DISPERSION CORRECTION= F

     $CONTRL OPTIONS
     ---------------
 SCFTYP=RHF          RUNTYP=ENERGY       EXETYP=RUN     
 MPLEVL=       0     CITYP =NONE         CCTYP =NONE         VBTYP =NONE    
 DFTTYP=PBE          TDDFT =NONE    
 MULT  =       1     ICHARG=       0     NZVAR =       0     COORD =ZMT     
 PP    =NONE         RELWFN=NONE         LOCAL =NONE         NUMGRD=       F
 ISPHER=       1     NOSYM =       0     MAXIT =      30     UNITS =ANGS    
 PLTORB=       F     MOLPLT=       F     AIMPAC=       F     FRIEND=        
 NPRINT=       7     IREST =       0     GEOM  =INPUT   
 NORMF =       0     NORMP =       0     ITOL  =      20     ICUT  =       9
 INTTYP=BEST         GRDTYP=BEST         QMTTOL= 1.0E-06

     $SYSTEM OPTIONS
     ---------------
  REPLICATED MEMORY=     1000000 WORDS (ON EVERY NODE).
 DISTRIBUTED MEMDDI=           0 MILLION WORDS IN AGGREGATE,
 MEMDDI DISTRIBUTED OVER   1 PROCESSORS IS           0 WORDS/PROCESSOR.
 TOTAL MEMORY REQUESTED ON EACH PROCESSOR=     1000000 WORDS.
 TIMLIM=      525600.00 MINUTES, OR     365.0 DAYS.
 PARALL= F  BALTYP=  DLB     KDIAG=    0  COREFL= F
 MXSEQ2=     300 MXSEQ3=     150

          ----------------
          PROPERTIES INPUT
          ----------------

     MOMENTS            FIELD           POTENTIAL          DENSITY
 IEMOM =       1   IEFLD =       0   IEPOT =       0   IEDEN =       0
 WHERE =COMASS     WHERE =NUCLEI     WHERE =NUCLEI     WHERE =NUCLEI  
 OUTPUT=BOTH       OUTPUT=BOTH       OUTPUT=BOTH       OUTPUT=BOTH    
 IEMINT=       0   IEFINT=       0                     IEDINT=       0
                                                       MORB  =       0
          EXTRAPOLATION IN EFFECT
          DIIS IN EFFECT
 ORBITAL PRINTING OPTION: NPREO=     1    49     2     1

     -------------------------------
     INTEGRAL TRANSFORMATION OPTIONS
     -------------------------------
     NWORD  =            0
     CUTOFF = 1.0E-09     MPTRAN =       0
     DIRTRF =       F     AOINTS =DUP     

          ----------------------
          INTEGRAL INPUT OPTIONS
          ----------------------
 NOPK  =       1 NORDER=       0 SCHWRZ=       F

   --- ENCODED Z MATRIX ---
 COORD  TYPE   I   J   K   L   M   N
    1      1    3   1
    2      1    2   1
    3      2    2   1   3

 THE DETERMINANT OF THE G MATRIX IS 10**(    -4)

 THE DETERMINANT OF THE G MATRIX IS 10**(    -4)
 * * * WARNING * * *
 YOUR B MATRIX HAS A SMALL DETERMINANT.
 THIS SUGGESTS YOU MAY HAVE BADLY CHOSEN COORDINATES.

     ------------------------------------------
     THE POINT GROUP IS CNV, NAXIS= 2, ORDER= 4
     ------------------------------------------

 -- VARIATIONAL SPACE WILL BE RESTRICTED TO PURE SPHERICAL HARMONICS ONLY --
 AFTER EXCLUDING CONTAMINANT COMBINATIONS FROM THE CARTESIAN GAUSSIAN BASIS
 SET, THE NUMBER OF SPHERICAL HARMONICS KEPT IN THE VARIATION SPACE IS   46

     DIMENSIONS OF THE SYMMETRY SUBSPACES ARE
 A1  =   19     A2  =    5     B1  =   14     B2  =    8

 ..... DONE SETTING UP THE RUN .....
 STEP CPU TIME =     0.01 TOTAL CPU TIME =        0.0 (    0.0 MIN)
 TOTAL WALL CLOCK TIME=        0.0 SECONDS, CPU UTILIZATION IS  33.33%

          ********************
          1 ELECTRON INTEGRALS
          ********************
 ...... END OF ONE-ELECTRON INTEGRALS ......
 STEP CPU TIME =     0.00 TOTAL CPU TIME =        0.0 (    0.0 MIN)
 TOTAL WALL CLOCK TIME=        0.0 SECONDS, CPU UTILIZATION IS  33.33%

          -------------
          GUESS OPTIONS
          -------------
          GUESS =HUCKEL            NORB  =       0          NORDER=       0
          MIX   =       F          PRTMO =       F          PUNMO =       F
          TOLZ  = 1.0E-08          TOLE  = 1.0E-05
          SYMDEN=       F          PURIFY=       F

 INITIAL GUESS ORBITALS GENERATED BY HUCKEL   ROUTINE.
 HUCKEL GUESS REQUIRES     21583 WORDS.

 STATISTICS FOR GENERATION OF SYMMETRY ORBITAL -Q- MATRIX
 NUMBER OF CARTESIAN ATOMIC ORBITALS=         49
 NUMBER OF SPHERICAL CONTAMINANTS DROPPED=     3
 NUMBER OF LINEARLY DEPENDENT MOS DROPPED=     0
 TOTAL NUMBER OF MOS IN VARIATION SPACE=      46

 SYMMETRIES FOR INITIAL GUESS ORBITALS FOLLOW.   BOTH SET(S).
    16 ORBITALS ARE OCCUPIED (    7 CORE ORBITALS).
     8=?A1      9=?B1     10=?A1     11=B2      12=A1      13=B1      14=A2  
    15=B1      16=A1      17=B2      18=B1      19=A1      20=A1      21=A1  
    22=A1      23=A1      24=A1      25=A1      26=A1  
 ...... END OF INITIAL ORBITAL SELECTION ......
 STEP CPU TIME =     0.01 TOTAL CPU TIME =        0.0 (    0.0 MIN)
 TOTAL WALL CLOCK TIME=        0.0 SECONDS, CPU UTILIZATION IS  66.67%

                    ----------------------
                    AO INTEGRAL TECHNOLOGY
                    ----------------------
     S,P,L SHELL ROTATED AXIS INTEGRALS, REPROGRAMMED BY
        KAZUYA ISHIMURA (IMS) AND JOSE SIERRA (SYNSTAR).
     S,P,D,L SHELL ROTATED AXIS INTEGRALS PROGRAMMED BY
        KAZUYA ISHIMURA (INSTITUTE FOR MOLECULAR SCIENCE).
     S,P,D,F,G SHELL TO TOTAL QUARTET ANGULAR MOMENTUM SUM 5,
        ERIC PROGRAM BY GRAHAM FLETCHER (ELORET AND NASA ADVANCED
        SUPERCOMPUTING DIVISION, AMES RESEARCH CENTER).
     S,P,D,F,G,L SHELL GENERAL RYS QUADRATURE PROGRAMMED BY
        MICHEL DUPUIS (PACIFIC NORTHWEST NATIONAL LABORATORY).

          --------------------
          2 ELECTRON INTEGRALS
          --------------------

 THE -PK- OPTION IS OFF, THE INTEGRALS ARE NOT IN SUPERMATRIX FORM.
 STORING   15000 INTEGRALS/RECORD ON DISK, USING 12 BYTES/INTEGRAL.
 TWO ELECTRON INTEGRAL EVALUATION REQUIRES   90606 WORDS OF MEMORY.
 II,JST,KST,LST =  1  1  1  1 NREC =         1 INTLOC =    1
 II,JST,KST,LST =  2  1  1  1 NREC =         1 INTLOC =    2
 II,JST,KST,LST =  3  1  1  1 NREC =         1 INTLOC =    7
 II,JST,KST,LST =  4  1  1  1 NREC =         1 INTLOC =   22
 II,JST,KST,LST =  5  1  1  1 NREC =         1 INTLOC =   56
 II,JST,KST,LST =  6  1  1  1 NREC =         1 INTLOC =  125
 II,JST,KST,LST =  7  1  1  1 NREC =         1 INTLOC =  329
 II,JST,KST,LST =  8  1  1  1 NREC =         1 INTLOC =  776
 II,JST,KST,LST =  9  1  1  1 NREC =         1 INTLOC = 2864
 II,JST,KST,LST = 10  1  1  1 NREC =         1 INTLOC = 2864
 II,JST,KST,LST = 11  1  1  1 NREC =         1 INTLOC = 2864
 II,JST,KST,LST = 12  1  1  1 NREC =         1 INTLOC = 2864
 II,JST,KST,LST = 13  1  1  1 NREC =         1 INTLOC = 2864
 II,JST,KST,LST = 14  1  1  1 NREC =         1 INTLOC = 2864
 II,JST,KST,LST = 15  1  1  1 NREC =         1 INTLOC = 2864
 II,JST,KST,LST = 16  1  1  1 NREC =         1 INTLOC = 5110
 II,JST,KST,LST = 17  1  1  1 NREC =         1 INTLOC = 8280
 II,JST,KST,LST = 18  1  1  1 NREC =         1 INTLOC =12716
 II,JST,KST,LST = 19  1  1  1 NREC =         3 INTLOC =  612
 II,JST,KST,LST = 20  1  1  1 NREC =         5 INTLOC = 1808
 TOTAL NUMBER OF NONZERO TWO-ELECTRON INTEGRALS =              178211
         12 INTEGRAL RECORDS WERE STORED ON DISK FILE  8.
  ...... END OF TWO-ELECTRON INTEGRALS .....
 STEP CPU TIME =     0.17 TOTAL CPU TIME =        0.2 (    0.0 MIN)
 TOTAL WALL CLOCK TIME=        0.2 SECONDS, CPU UTILIZATION IS 100.00%

          --------------------------
               R-PBE SCF CALCULATION
          --------------------------

     NUCLEAR ENERGY =       104.0943814985
     MAXIT =   30     NPUNCH=    2
     EXTRAP=T  DAMP=F  SHIFT=F  RSTRCT=F  DIIS=T  DEM=F  SOSCF=F
         DENSITY MATRIX CONVERGENCE THRESHOLD=  1.00E-05
     COARSE -> FINE DFT GRID SWITCH THRESHOLD=  3.00E-04 (SWITCH IN $DFT)
                   HF -> DFT SWITCH THRESHOLD=  5.00E-03 (SWOFF IN $DFT)
     MEMORY REQUIRED FOR RHF ITERS=    183108 WORDS.

 DFT CODE IS SWITCHING FROM THE FINE GRID NRAD= 96,  NLEB=  302
                      TO THE COARSE GRID NRAD0= 24, NLEB0=  110

     EXCHANGE FUNCTIONAL   =PBE       
     CORRELATION FUNCTIONAL=PBE       
     DFT THRESHOLD         =.460E-07
     GRID CHANGE THRESHOLD =.300E-03
 FOR AN EULER-MACLAURIN QUADRATURE USING  96 RADIAL POINTS:
 SMALLEST GAUSSIAN PRIMITIVE EXPONENT=        0.1313100000 OF TYPE -P-
 ON ATOM NUMBER   1 HAS RADIAL NORMALIZATION=  1.000000
  LARGEST GAUSSIAN PRIMITIVE EXPONENT=    55510.0000000000 OF TYPE -S-
 ON ATOM NUMBER   1 HAS RADIAL NORMALIZATION=  0.999999
 DFT IS SWITCHED OFF, PERFORMING PURE SCF UNTIL SWOFF THRESHOLD IS REACHED.

 ITER EX DEM     TOTAL ENERGY        E CHANGE  DENSITY CHANGE    DIIS ERROR
   1  0  0     -546.1039682145  -546.1039682145   0.380457946   1.406144851
          * * *   INITIATING DIIS PROCEDURE   * * *
   2  1  0     -546.8579299494    -0.7539617349   0.369845945   0.266192145
   3  2  0     -546.9459052631    -0.0879753137   0.141443546   0.273095900
   4  3  0     -547.1047932969    -0.1588880338   0.012655904   0.012485168
   5  4  0     -547.1053245458    -0.0005312489   0.007793195   0.003003056
   6  5  0     -547.1053744355    -0.0000498897   0.001496614   0.000796735
 CONVERGED TO SWOFF, SO DFT CALCULATION IS NOW SWITCHED ON.
          * * *   INITIATING DIIS PROCEDURE   * * *
   7  6  0     -548.2490660622    -1.1436916267   0.255001641   0.104633725
   8  7  0     -548.2546018105    -0.0055357483   0.217153692   0.102274608
   9  8  0     -548.2540430095     0.0005588010   0.078404996   0.123079032
  10  9  0     -548.2856224704    -0.0315794609   0.015423439   0.014373067
  11 10  0     -548.2861056768    -0.0004832065   0.000653218   0.001020774
  12 11  0     -548.2861077847    -0.0000021079   0.000487584   0.000334024
  13 12  0     -548.2861080659    -0.0000002812   0.000042718   0.000040683
 DFT CODE IS SWITCHING BACK TO THE FINE GRID
          * * *   INITIATING DIIS PROCEDURE   * * *
  14 13  0     -548.2610162333     0.0250918326   0.007269140   0.013865932
  15 14  0     -548.2613237841    -0.0003075508   0.001778351   0.002168472
  16 15  0     -548.2613310217    -0.0000072376   0.000776964   0.000949105
  17 16  0     -548.2613333968    -0.0000023751   0.000278045   0.000142258
  18 17  0     -548.2613334325    -0.0000000357   0.000101629   0.000106485
  19 18  0     -548.2613334546    -0.0000000221   0.000016154   0.000027343
  20 19  0     -548.2613334561    -0.0000000015   0.000004042   0.000002624
  21 20  0     -548.2613334561     0.0000000000   0.000000169   0.000000185

          -----------------
          DENSITY CONVERGED
          -----------------
     TIME TO FORM FOCK OPERATORS=       4.3 SECONDS (       0.2 SEC/ITER)
     TIME TO SOLVE SCF EQUATIONS=       0.1 SECONDS (       0.0 SEC/ITER)

 FINAL R-PBE ENERGY IS     -548.2613334561 AFTER  21 ITERATIONS
 DFT EXCHANGE + CORRELATION ENERGY =       -42.4863922091
 TOTAL ELECTRON NUMBER             =        31.9999371969

          ------------
          EIGENVECTORS
          ------------

                      1          2          3          4          5
                  -88.2144   -18.7975   -18.7975    -7.8391    -5.8598
                     A1         A1         B1         A1         B1  
    1  S  1  S    1.002982  -0.000071   0.000000  -0.274045   0.000000
    2  S  1  S   -0.010273  -0.000718   0.000000   1.039518   0.000000
    3  S  1  S    0.001843  -0.001495   0.000000   0.041268   0.000000
    4  S  1  S   -0.000758   0.011662   0.000000  -0.011440   0.000000
    5  S  1  X    0.000000   0.000000  -0.000030   0.000000   0.996602
    6  S  1  Y    0.000000   0.000000   0.000000   0.000000   0.000000
    7  S  1  Z    0.000051  -0.000089   0.000000   0.010338   0.000000
    8  S  1  X    0.000000   0.000000  -0.001327   0.000000   0.009562
    9  S  1  Y    0.000000   0.000000   0.000000   0.000000   0.000000
   10  S  1  Z    0.000120   0.001469   0.000000   0.001609   0.000000
   11  S  1  X    0.000000   0.000000  -0.004508   0.000000  -0.000242
   12  S  1  Y    0.000000   0.000000   0.000000   0.000000   0.000000
   13  S  1  Z   -0.000024   0.005031   0.000000  -0.000619   0.000000
   14  S  1 XX    0.000080   0.000698   0.000000   0.000865   0.000000
   15  S  1 YY   -0.000068  -0.001048   0.000000  -0.000590   0.000000
   16  S  1 ZZ   -0.000012   0.000350   0.000000  -0.000275   0.000000
   17  S  1 XY    0.000000   0.000000   0.000000   0.000000   0.000000
   18  S  1 XZ    0.000000   0.000000  -0.000439   0.000000   0.000935
   19  S  1 YZ    0.000000   0.000000   0.000000   0.000000   0.000000
   20  O  2  S    0.000011   0.703314   0.703241  -0.000038   0.000324
   21  O  2  S    0.000030   0.026207   0.025601  -0.000131  -0.000207
   22  O  2  S   -0.000068  -0.014318  -0.011689   0.000097  -0.000092
   23  O  2  X   -0.000038   0.000797   0.000897  -0.000354  -0.000429
   24  O  2  Y    0.000000   0.000000   0.000000   0.000000   0.000000
   25  O  2  Z    0.000022  -0.000496  -0.000690   0.000207   0.000349
   26  O  2  X   -0.000115  -0.003745  -0.002080  -0.000897  -0.000040
   27  O  2  Y    0.000000   0.000000   0.000000   0.000000   0.000000
   28  O  2  Z    0.000106   0.001681   0.002075   0.000927   0.000067
   29  O  2 XX   -0.000065  -0.000349  -0.000145  -0.000270  -0.000194
   30  O  2 YY    0.000071   0.000232   0.000229   0.000327   0.000293
   31  O  2 ZZ   -0.000006   0.000117  -0.000084  -0.000057  -0.000100
   32  O  2 XY    0.000000   0.000000   0.000000   0.000000   0.000000
   33  O  2 XZ    0.000117   0.000394   0.000276   0.000536   0.000495
   34  O  2 YZ    0.000000   0.000000   0.000000   0.000000   0.000000
   35  O  3  S    0.000011   0.703314  -0.703241  -0.000038  -0.000324
   36  O  3  S    0.000030   0.026207  -0.025601  -0.000131   0.000207
   37  O  3  S   -0.000068  -0.014318   0.011689   0.000097   0.000092
   38  O  3  X    0.000038  -0.000797   0.000897   0.000354  -0.000429
   39  O  3  Y    0.000000   0.000000   0.000000   0.000000   0.000000
   40  O  3  Z    0.000022  -0.000496   0.000690   0.000207  -0.000349
   41  O  3  X    0.000115   0.003745  -0.002080   0.000897  -0.000040
   42  O  3  Y    0.000000   0.000000   0.000000   0.000000   0.000000
   43  O  3  Z    0.000106   0.001681  -0.002075   0.000927  -0.000067
   44  O  3 XX   -0.000065  -0.000349   0.000145  -0.000270   0.000194
   45  O  3 YY    0.000071   0.000232  -0.000229   0.000327  -0.000293
   46  O  3 ZZ   -0.000006   0.000117   0.000084  -0.000057   0.000100
   47  O  3 XY    0.000000   0.000000   0.000000   0.000000   0.000000
   48  O  3 XZ   -0.000117  -0.000394   0.000276  -0.000536   0.000495
   49  O  3 YZ    0.000000   0.000000   0.000000   0.000000   0.000000

                      6          7          8          9         10
                   -5.8591    -5.8539    -1.0377    -0.9435    -0.5939
                     B2         A1         A1         B1         A1  
    1  S  1  S    0.000000   0.002906   0.050568   0.000000   0.067216
    2  S  1  S    0.000000  -0.011173  -0.143526   0.000000  -0.185914
    3  S  1  S    0.000000  -0.000161   0.299216   0.000000   0.430992
    4  S  1  S    0.000000  -0.000606   0.131005   0.000000   0.399893
    5  S  1  X    0.000000   0.000000   0.000000   0.122455   0.000000
    6  S  1  Y    0.996809   0.000000   0.000000   0.000000   0.000000
    7  S  1  Z    0.000000   0.996779  -0.066996   0.000000   0.057438
    8  S  1  X    0.000000   0.000000   0.000000  -0.241246   0.000000
    9  S  1  Y    0.009186   0.000000   0.000000   0.000000   0.000000
   10  S  1  Z    0.000000   0.008890   0.127250   0.000000  -0.117440
   11  S  1  X    0.000000   0.000000   0.000000  -0.028308   0.000000
   12  S  1  Y   -0.000248   0.000000   0.000000   0.000000   0.000000
   13  S  1  Z    0.000000  -0.000350  -0.003393   0.000000  -0.082732
   14  S  1 XX    0.000000  -0.000444   0.033173   0.000000  -0.009996
   15  S  1 YY    0.000000  -0.000296  -0.032410   0.000000   0.021193
   16  S  1 ZZ    0.000000   0.000740  -0.000763   0.000000  -0.011196
   17  S  1 XY    0.000000   0.000000   0.000000   0.000000   0.000000
   18  S  1 XZ    0.000000   0.000000   0.000000  -0.079428   0.000000
   19  S  1 YZ    0.000591   0.000000   0.000000   0.000000   0.000000
   20  O  2  S    0.000000  -0.000244  -0.121548  -0.146340   0.099962
   21  O  2  S    0.000000   0.000052   0.239482   0.296272  -0.205466
   22  O  2  S    0.000000   0.000579   0.276192   0.340948  -0.328704
   23  O  2  X    0.000000   0.000428   0.101135   0.082077   0.101105
   24  O  2  Y    0.000061   0.000000   0.000000   0.000000   0.000000
   25  O  2  Z    0.000000  -0.000242  -0.064165  -0.069090  -0.103555
   26  O  2  X    0.000000   0.000219   0.040785   0.027217   0.046616
   27  O  2  Y   -0.000070   0.000000   0.000000   0.000000   0.000000
   28  O  2  Z    0.000000  -0.000283  -0.024454  -0.025207  -0.044819
   29  O  2 XX    0.000000   0.000288   0.008360   0.001671   0.002559
   30  O  2 YY    0.000000  -0.000250  -0.006169  -0.002311  -0.005495
   31  O  2 ZZ    0.000000  -0.000038  -0.002192   0.000640   0.002936
   32  O  2 XY    0.000070   0.000000   0.000000   0.000000   0.000000
   33  O  2 XZ    0.000000  -0.000425  -0.012505  -0.008267  -0.008318
   34  O  2 YZ   -0.000067   0.000000   0.000000   0.000000   0.000000
   35  O  3  S    0.000000  -0.000244  -0.121548   0.146340   0.099962
   36  O  3  S    0.000000   0.000052   0.239482  -0.296272  -0.205466
   37  O  3  S    0.000000   0.000579   0.276192  -0.340948  -0.328704
   38  O  3  X    0.000000  -0.000428  -0.101135   0.082077  -0.101105
   39  O  3  Y    0.000061   0.000000   0.000000   0.000000   0.000000
   40  O  3  Z    0.000000  -0.000242  -0.064165   0.069090  -0.103555
   41  O  3  X    0.000000  -0.000219  -0.040785   0.027217  -0.046616
   42  O  3  Y   -0.000070   0.000000   0.000000   0.000000   0.000000
   43  O  3  Z    0.000000  -0.000283  -0.024454   0.025207  -0.044819
   44  O  3 XX    0.000000   0.000288   0.008360  -0.001671   0.002559
   45  O  3 YY    0.000000  -0.000250  -0.006169   0.002311  -0.005495
   46  O  3 ZZ    0.000000  -0.000038  -0.002192  -0.000640   0.002936
   47  O  3 XY   -0.000070   0.000000   0.000000   0.000000   0.000000
   48  O  3 XZ    0.000000   0.000425   0.012505  -0.008267   0.008318
   49  O  3 YZ   -0.000067   0.000000   0.000000   0.000000   0.000000

                     11         12         13         14         15
                   -0.4378    -0.4329    -0.4302    -0.3201    -0.2925
                     B2         B1         A1         A2         A1  
    1  S  1  S    0.000000   0.000000  -0.005711   0.000000   0.016578
    2  S  1  S    0.000000   0.000000   0.043006   0.000000  -0.084822
    3  S  1  S    0.000000   0.000000  -0.000212   0.000000   0.058842
    4  S  1  S    0.000000   0.000000  -0.242052   0.000000   0.456957
    5  S  1  X    0.000000  -0.172373   0.000000   0.000000   0.000000
    6  S  1  Y   -0.206858   0.000000   0.000000   0.000000   0.000000
    7  S  1  Z    0.000000   0.000000  -0.193401   0.000000   0.100462
    8  S  1  X    0.000000   0.410871   0.000000   0.000000   0.000000
    9  S  1  Y    0.483669   0.000000   0.000000   0.000000   0.000000
   10  S  1  Z    0.000000   0.000000   0.451328   0.000000  -0.240017
   11  S  1  X    0.000000   0.084534   0.000000   0.000000   0.000000
   12  S  1  Y    0.259403   0.000000   0.000000   0.000000   0.000000
   13  S  1  Z    0.000000   0.000000   0.174606   0.000000  -0.082782
   14  S  1 XX    0.000000   0.000000  -0.045895   0.000000  -0.138800
   15  S  1 YY    0.000000   0.000000  -0.016547   0.000000   0.050645
   16  S  1 ZZ    0.000000   0.000000   0.062442   0.000000   0.088155
   17  S  1 XY    0.000000   0.000000   0.000000  -0.120812   0.000000
   18  S  1 XZ    0.000000   0.042629   0.000000   0.000000   0.000000
   19  S  1 YZ    0.053858   0.000000   0.000000   0.000000   0.000000
   20  O  2  S    0.000000  -0.066822   0.037592   0.000000  -0.001524
   21  O  2  S    0.000000   0.132501  -0.075714   0.000000   0.001746
   22  O  2  S    0.000000   0.260044  -0.134211   0.000000  -0.027370
   23  O  2  X    0.000000  -0.239101   0.313945   0.000000  -0.002637
   24  O  2  Y    0.299879   0.000000   0.000000   0.466706   0.000000
   25  O  2  Z    0.000000   0.278103   0.081054   0.000000   0.432983
   26  O  2  X    0.000000  -0.131119   0.195888   0.000000   0.000055
   27  O  2  Y    0.175860   0.000000   0.000000   0.331468   0.000000
   28  O  2  Z    0.000000   0.159671   0.048641   0.000000   0.320735
   29  O  2 XX    0.000000  -0.000602   0.019461   0.000000   0.005757
   30  O  2 YY    0.000000   0.008006  -0.005828   0.000000   0.004318
   31  O  2 ZZ    0.000000  -0.007404  -0.013632   0.000000  -0.010076
   32  O  2 XY    0.018677   0.000000   0.000000   0.016488   0.000000
   33  O  2 XZ    0.000000   0.013083  -0.002089   0.000000   0.011781
   34  O  2 YZ   -0.012518   0.000000   0.000000  -0.013494   0.000000
   35  O  3  S    0.000000   0.066822   0.037592   0.000000  -0.001524
   36  O  3  S    0.000000  -0.132501  -0.075714   0.000000   0.001746
   37  O  3  S    0.000000  -0.260044  -0.134211   0.000000  -0.027370
   38  O  3  X    0.000000  -0.239101  -0.313945   0.000000   0.002637
   39  O  3  Y    0.299879   0.000000   0.000000  -0.466706   0.000000
   40  O  3  Z    0.000000  -0.278103   0.081054   0.000000   0.432983
   41  O  3  X    0.000000  -0.131119  -0.195888   0.000000  -0.000055
   42  O  3  Y    0.175860   0.000000   0.000000  -0.331468   0.000000
   43  O  3  Z    0.000000  -0.159671   0.048641   0.000000   0.320735
   44  O  3 XX    0.000000   0.000602   0.019461   0.000000   0.005757
   45  O  3 YY    0.000000  -0.008006  -0.005828   0.000000   0.004318
   46  O  3 ZZ    0.000000   0.007404  -0.013632   0.000000  -0.010076
   47  O  3 XY   -0.018677   0.000000   0.000000   0.016488   0.000000
   48  O  3 XZ    0.000000   0.013083   0.002089   0.000000  -0.011781
   49  O  3 YZ   -0.012518   0.000000   0.000000   0.013494   0.000000

                     16         17         18         19         20
                   -0.2893    -0.1757     0.0021     0.0219     0.3453
                     B1         B2         B1         A1         B2  
    1  S  1  S    0.000000   0.000000   0.000000   0.027491   0.000000
    2  S  1  S    0.000000   0.000000   0.000000  -0.132201   0.000000
    3  S  1  S    0.000000   0.000000   0.000000   0.122118   0.000000
    4  S  1  S    0.000000   0.000000   0.000000   0.960168   0.000000
    5  S  1  X   -0.011944   0.000000  -0.172583   0.000000   0.000000
    6  S  1  Y    0.000000  -0.207623   0.000000   0.000000   0.283826
    7  S  1  Z    0.000000   0.000000   0.000000  -0.149379   0.000000
    8  S  1  X    0.020409   0.000000   0.439722   0.000000   0.000000
    9  S  1  Y    0.000000   0.525584   0.000000   0.000000  -1.097022
   10  S  1  Z    0.000000   0.000000   0.000000   0.395246   0.000000
   11  S  1  X    0.144792   0.000000   1.025509   0.000000   0.000000
   12  S  1  Y    0.000000   0.475355   0.000000   0.000000   1.237584
   13  S  1  Z    0.000000   0.000000   0.000000   0.925516   0.000000
   14  S  1 XX    0.000000   0.000000   0.000000  -0.132138   0.000000
   15  S  1 YY    0.000000   0.000000   0.000000   0.224668   0.000000
   16  S  1 ZZ    0.000000   0.000000   0.000000  -0.092530   0.000000
   17  S  1 XY    0.000000   0.000000   0.000000   0.000000   0.000000
   18  S  1 XZ   -0.107839   0.000000  -0.224188   0.000000   0.000000
   19  S  1 YZ    0.000000  -0.080512   0.000000   0.000000  -0.231302
   20  O  2  S   -0.002411   0.000000  -0.046507   0.056085   0.000000
   21  O  2  S    0.004984   0.000000   0.075224  -0.094433   0.000000
   22  O  2  S    0.041746   0.000000   0.487725  -0.552446   0.000000
   23  O  2  X    0.387387   0.000000   0.053483  -0.326798   0.000000
   24  O  2  Y    0.000000  -0.381486   0.000000   0.000000  -0.012528
   25  O  2  Z    0.279118   0.000000  -0.297101   0.034514   0.000000
   26  O  2  X    0.261413   0.000000   0.079841  -0.425610   0.000000
   27  O  2  Y    0.000000  -0.331308   0.000000   0.000000  -0.116215
   28  O  2  Z    0.193028   0.000000  -0.310677   0.037774   0.000000
   29  O  2 XX    0.017763   0.000000   0.002005   0.000223   0.000000
   30  O  2 YY   -0.000043   0.000000   0.002765   0.007204   0.000000
   31  O  2 ZZ   -0.017720   0.000000  -0.004771  -0.007427   0.000000
   32  O  2 XY    0.000000  -0.003738   0.000000   0.000000  -0.029638
   33  O  2 XZ    0.003296   0.000000   0.001077   0.001793   0.000000
   34  O  2 YZ    0.000000   0.000541   0.000000   0.000000   0.013365
   35  O  3  S    0.002411   0.000000   0.046507   0.056085   0.000000
   36  O  3  S   -0.004984   0.000000  -0.075224  -0.094433   0.000000
   37  O  3  S   -0.041746   0.000000  -0.487725  -0.552446   0.000000
   38  O  3  X    0.387387   0.000000   0.053483   0.326798   0.000000
   39  O  3  Y    0.000000  -0.381486   0.000000   0.000000  -0.012528
   40  O  3  Z   -0.279118   0.000000   0.297101   0.034514   0.000000
   41  O  3  X    0.261413   0.000000   0.079841   0.425610   0.000000
   42  O  3  Y    0.000000  -0.331308   0.000000   0.000000  -0.116215
   43  O  3  Z   -0.193028   0.000000   0.310677   0.037774   0.000000
   44  O  3 XX   -0.017763   0.000000  -0.002005   0.000223   0.000000
   45  O  3 YY    0.000043   0.000000  -0.002765   0.007204   0.000000
   46  O  3 ZZ    0.017720   0.000000   0.004771  -0.007427   0.000000
   47  O  3 XY    0.000000   0.003738   0.000000   0.000000   0.029638
   48  O  3 XZ    0.003296   0.000000   0.001077  -0.001793   0.000000
   49  O  3 YZ    0.000000   0.000541   0.000000   0.000000   0.013365

                     21         22         23         24         25
                    0.3558     0.3911     0.4025     0.5255     0.5291
                     A1         B1         A1         B2         A2  
    1  S  1  S    0.007645   0.000000  -0.116023   0.000000   0.000000
    2  S  1  S   -0.000335   0.000000  -0.411200   0.000000   0.000000
    3  S  1  S    0.087888   0.000000  -1.776098   0.000000   0.000000
    4  S  1  S    0.186193   0.000000   2.351446   0.000000   0.000000
    5  S  1  X    0.000000   0.289246   0.000000   0.000000   0.000000
    6  S  1  Y    0.000000   0.000000   0.000000   0.067193   0.000000
    7  S  1  Z    0.285285   0.000000   0.003288   0.000000   0.000000
    8  S  1  X    0.000000  -1.063172   0.000000   0.000000   0.000000
    9  S  1  Y    0.000000   0.000000   0.000000  -0.276171   0.000000
   10  S  1  Z   -1.063511   0.000000   0.013716   0.000000   0.000000
   11  S  1  X    0.000000   1.484827   0.000000   0.000000   0.000000
   12  S  1  Y    0.000000   0.000000   0.000000   0.289248   0.000000
   13  S  1  Z    1.311390   0.000000   0.349271   0.000000   0.000000
   14  S  1 XX    0.284461   0.000000  -0.013618   0.000000   0.000000
   15  S  1 YY   -0.081419   0.000000   0.129534   0.000000   0.000000
   16  S  1 ZZ   -0.203042   0.000000  -0.115916   0.000000   0.000000
   17  S  1 XY    0.000000   0.000000   0.000000   0.000000   0.911226
   18  S  1 XZ    0.000000   0.267928   0.000000   0.000000   0.000000
   19  S  1 YZ    0.000000   0.000000   0.000000   0.896728   0.000000
   20  O  2  S    0.006691  -0.012265   0.018566   0.000000   0.000000
   21  O  2  S    0.051860  -0.042207  -0.026077   0.000000   0.000000
   22  O  2  S   -0.373174   0.526313  -0.454933   0.000000   0.000000
   23  O  2  X    0.178295  -0.231674   0.155027   0.000000   0.000000
   24  O  2  Y    0.000000   0.000000   0.000000  -0.293251   0.323947
   25  O  2  Z   -0.049522   0.115535  -0.122674   0.000000   0.000000
   26  O  2  X   -0.132810   0.059452  -0.189639   0.000000   0.000000
   27  O  2  Y    0.000000   0.000000   0.000000   0.073483  -0.066776
   28  O  2  Z   -0.030011  -0.123595   0.095286   0.000000   0.000000
   29  O  2 XX   -0.042702   0.009677  -0.033855   0.000000   0.000000
   30  O  2 YY    0.015174  -0.027020   0.035730   0.000000   0.000000
   31  O  2 ZZ    0.027528   0.017343  -0.001875   0.000000   0.000000
   32  O  2 XY    0.000000   0.000000   0.000000   0.040468  -0.033635
   33  O  2 XZ    0.007609  -0.046930   0.043462   0.000000   0.000000
   34  O  2 YZ    0.000000   0.000000   0.000000   0.004608   0.047213
   35  O  3  S    0.006691   0.012265   0.018566   0.000000   0.000000
   36  O  3  S    0.051860   0.042207  -0.026077   0.000000   0.000000
   37  O  3  S   -0.373174  -0.526313  -0.454933   0.000000   0.000000
   38  O  3  X   -0.178295  -0.231674  -0.155027   0.000000   0.000000
   39  O  3  Y    0.000000   0.000000   0.000000  -0.293251  -0.323947
   40  O  3  Z   -0.049522  -0.115535  -0.122674   0.000000   0.000000
   41  O  3  X    0.132810   0.059452   0.189639   0.000000   0.000000
   42  O  3  Y    0.000000   0.000000   0.000000   0.073483   0.066776
   43  O  3  Z   -0.030011   0.123595   0.095286   0.000000   0.000000
   44  O  3 XX   -0.042702  -0.009677  -0.033855   0.000000   0.000000
   45  O  3 YY    0.015174   0.027020   0.035730   0.000000   0.000000
   46  O  3 ZZ    0.027528  -0.017343  -0.001875   0.000000   0.000000
   47  O  3 XY    0.000000   0.000000   0.000000  -0.040468  -0.033635
   48  O  3 XZ   -0.007609  -0.046930  -0.043462   0.000000   0.000000
   49  O  3 YZ    0.000000   0.000000   0.000000   0.004608  -0.047213

                     26         27         28         29         30
                    0.5534     0.6478     0.6730     0.7852     0.7955
                     A1         A1         B1         A1         A2  
    1  S  1  S   -0.007642   0.008762   0.000000   0.006062   0.000000
    2  S  1  S   -0.056527  -0.043267   0.000000   0.026443   0.000000
    3  S  1  S   -0.152780   0.055581   0.000000   0.100442   0.000000
    4  S  1  S    0.454097   1.355726   0.000000  -0.047621   0.000000
    5  S  1  X    0.000000   0.000000  -0.142971   0.000000   0.000000
    6  S  1  Y    0.000000   0.000000   0.000000   0.000000   0.000000
    7  S  1  Z    0.050672  -0.116277   0.000000  -0.042093   0.000000
    8  S  1  X    0.000000   0.000000   0.747545   0.000000   0.000000
    9  S  1  Y    0.000000   0.000000   0.000000   0.000000   0.000000
   10  S  1  Z   -0.202147   0.569638   0.000000   0.176727   0.000000
   11  S  1  X    0.000000   0.000000   0.305457   0.000000   0.000000
   12  S  1  Y    0.000000   0.000000   0.000000   0.000000   0.000000
   13  S  1  Z    0.400483   0.284524   0.000000  -0.593115   0.000000
   14  S  1 XX   -0.297717   0.613838   0.000000   0.521211   0.000000
   15  S  1 YY   -0.527631  -0.639078   0.000000   0.013666   0.000000
   16  S  1 ZZ    0.825349   0.025239   0.000000  -0.534877   0.000000
   17  S  1 XY    0.000000   0.000000   0.000000   0.000000   0.439753
   18  S  1 XZ    0.000000   0.000000   0.645551   0.000000   0.000000
   19  S  1 YZ    0.000000   0.000000   0.000000   0.000000   0.000000
   20  O  2  S    0.015138   0.062163  -0.062026   0.003880   0.000000
   21  O  2  S   -0.056364  -0.173094   0.180567  -0.007384   0.000000
   22  O  2  S   -0.171313  -0.532055   0.412431   0.065790   0.000000
   23  O  2  X   -0.167719   0.283990  -0.172648  -0.318965   0.000000
   24  O  2  Y    0.000000   0.000000   0.000000   0.000000  -0.571071
   25  O  2  Z   -0.340079   0.014193   0.216564  -0.383544   0.000000
   26  O  2  X   -0.060625  -0.876211   0.813918   0.402519   0.000000
   27  O  2  Y    0.000000   0.000000   0.000000   0.000000   0.803850
   28  O  2  Z    0.168919   0.444306  -0.642833   0.724441   0.000000
   29  O  2 XX    0.034378  -0.006442  -0.016174  -0.040328   0.000000
   30  O  2 YY   -0.009128  -0.014041   0.006509  -0.013694   0.000000
   31  O  2 ZZ   -0.025249   0.020484   0.009665   0.054022   0.000000
   32  O  2 XY    0.000000   0.000000   0.000000   0.000000  -0.043175
   33  O  2 XZ    0.039723  -0.007915   0.013709  -0.028737   0.000000
   34  O  2 YZ    0.000000   0.000000   0.000000   0.000000   0.034325
   35  O  3  S    0.015138   0.062163   0.062026   0.003880   0.000000
   36  O  3  S   -0.056364  -0.173094  -0.180567  -0.007384   0.000000
   37  O  3  S   -0.171313  -0.532055  -0.412431   0.065790   0.000000
   38  O  3  X    0.167719  -0.283990  -0.172648   0.318965   0.000000
   39  O  3  Y    0.000000   0.000000   0.000000   0.000000   0.571071
   40  O  3  Z   -0.340079   0.014193  -0.216564  -0.383544   0.000000
   41  O  3  X    0.060625   0.876211   0.813918  -0.402519   0.000000
   42  O  3  Y    0.000000   0.000000   0.000000   0.000000  -0.803850
   43  O  3  Z    0.168919   0.444306   0.642833   0.724441   0.000000
   44  O  3 XX    0.034378  -0.006442   0.016174  -0.040328   0.000000
   45  O  3 YY   -0.009128  -0.014041  -0.006509  -0.013694   0.000000
   46  O  3 ZZ   -0.025249   0.020484  -0.009665   0.054022   0.000000
   47  O  3 XY    0.000000   0.000000   0.000000   0.000000  -0.043175
   48  O  3 XZ   -0.039723   0.007915   0.013709   0.028737   0.000000
   49  O  3 YZ    0.000000   0.000000   0.000000   0.000000  -0.034325

                     31         32         33         34         35
                    0.8377     0.8807     0.8843     1.0601     1.5712
                     B2         A1         B1         B1         B1  
    1  S  1  S    0.000000   0.027001   0.000000   0.000000   0.000000
    2  S  1  S    0.000000   0.235061   0.000000   0.000000   0.000000
    3  S  1  S    0.000000   0.606877   0.000000   0.000000   0.000000
    4  S  1  S    0.000000  -0.491494   0.000000   0.000000   0.000000
    5  S  1  X    0.000000   0.000000  -0.035625  -0.059322  -0.022806
    6  S  1  Y   -0.026960   0.000000   0.000000   0.000000   0.000000
    7  S  1  Z    0.000000   0.034403   0.000000   0.000000   0.000000
    8  S  1  X    0.000000   0.000000   0.139863   0.052593   0.267993
    9  S  1  Y    0.110344   0.000000   0.000000   0.000000   0.000000
   10  S  1  Z    0.000000   0.018216   0.000000   0.000000   0.000000
   11  S  1  X    0.000000   0.000000  -0.465046   0.614705   0.996986
   12  S  1  Y   -0.709966   0.000000   0.000000   0.000000   0.000000
   13  S  1  Z    0.000000  -0.253428   0.000000   0.000000   0.000000
   14  S  1 XX    0.000000  -0.581669   0.000000   0.000000   0.000000
   15  S  1 YY    0.000000   0.638489   0.000000   0.000000   0.000000
   16  S  1 ZZ    0.000000  -0.056820   0.000000   0.000000   0.000000
   17  S  1 XY    0.000000   0.000000   0.000000   0.000000   0.000000
   18  S  1 XZ    0.000000   0.000000   0.257158   0.924118   0.244629
   19  S  1 YZ   -0.404820   0.000000   0.000000   0.000000   0.000000
   20  O  2  S    0.000000  -0.020946  -0.003360  -0.031900   0.009532
   21  O  2  S    0.000000   0.157782   0.001614   0.061752  -1.203767
   22  O  2  S    0.000000   0.121548  -0.062216   0.444358   1.810452
   23  O  2  X    0.000000   0.409988  -0.277774   0.571870  -0.022509
   24  O  2  Y   -0.577349   0.000000   0.000000   0.000000   0.000000
   25  O  2  Z    0.000000  -0.410529  -0.557633  -0.223395   0.055500
   26  O  2  X    0.000000  -0.342025   0.538031  -0.363304   0.358718
   27  O  2  Y    0.924371   0.000000   0.000000   0.000000   0.000000
   28  O  2  Z    0.000000   0.369800   0.718208  -0.004466  -0.426602
   29  O  2 XX    0.000000   0.030668  -0.051487  -0.004904  -0.086538
   30  O  2 YY    0.000000   0.003332   0.016721  -0.031417   0.116929
   31  O  2 ZZ    0.000000  -0.034000   0.034765   0.036321  -0.030391
   32  O  2 XY   -0.045515   0.000000   0.000000   0.000000   0.000000
   33  O  2 XZ    0.000000  -0.047379  -0.010275   0.015536   0.138324
   34  O  2 YZ    0.023137   0.000000   0.000000   0.000000   0.000000
   35  O  3  S    0.000000  -0.020946   0.003360   0.031900  -0.009532
   36  O  3  S    0.000000   0.157782  -0.001614  -0.061752   1.203767
   37  O  3  S    0.000000   0.121548   0.062216  -0.444358  -1.810452
   38  O  3  X    0.000000  -0.409988  -0.277774   0.571870  -0.022509
   39  O  3  Y   -0.577349   0.000000   0.000000   0.000000   0.000000
   40  O  3  Z    0.000000  -0.410529   0.557633   0.223395  -0.055500
   41  O  3  X    0.000000   0.342025   0.538031  -0.363304   0.358718
   42  O  3  Y    0.924371   0.000000   0.000000   0.000000   0.000000
   43  O  3  Z    0.000000   0.369800  -0.718208   0.004466   0.426602
   44  O  3 XX    0.000000   0.030668   0.051487   0.004904   0.086538
   45  O  3 YY    0.000000   0.003332  -0.016721   0.031417  -0.116929
   46  O  3 ZZ    0.000000  -0.034000  -0.034765  -0.036321   0.030391
   47  O  3 XY    0.045515   0.000000   0.000000   0.000000   0.000000
   48  O  3 XZ    0.000000   0.047379  -0.010275   0.015536   0.138324
   49  O  3 YZ    0.023137   0.000000   0.000000   0.000000   0.000000

                     36         37         38         39         40
                    1.7183     2.0726     2.0762     2.0868     2.0924
                     A1         A2         B2         B1         A1  
    1  S  1  S   -0.026381   0.000000   0.000000   0.000000   0.000248
    2  S  1  S   -0.262610   0.000000   0.000000   0.000000   0.001894
    3  S  1  S   -0.599743   0.000000   0.000000   0.000000   0.003108
    4  S  1  S    2.445708   0.000000   0.000000   0.000000  -0.095367
    5  S  1  X    0.000000   0.000000   0.000000   0.000601   0.000000
    6  S  1  Y    0.000000   0.000000  -0.015684   0.000000   0.000000
    7  S  1  Z   -0.029705   0.000000   0.000000   0.000000  -0.000033
    8  S  1  X    0.000000   0.000000   0.000000  -0.032803   0.000000
    9  S  1  Y    0.000000   0.000000   0.051132   0.000000   0.000000
   10  S  1  Z    0.229187   0.000000   0.000000   0.000000  -0.012643
   11  S  1  X    0.000000   0.000000   0.000000   0.024323   0.000000
   12  S  1  Y    0.000000   0.000000   0.033084   0.000000   0.000000
   13  S  1  Z    1.042655   0.000000   0.000000   0.000000  -0.050001
   14  S  1 XX    0.275122   0.000000   0.000000   0.000000   0.042692
   15  S  1 YY   -0.357047   0.000000   0.000000   0.000000  -0.101346
   16  S  1 ZZ    0.081925   0.000000   0.000000   0.000000   0.058653
   17  S  1 XY    0.000000   0.031302   0.000000   0.000000   0.000000
   18  S  1 XZ    0.000000   0.000000   0.000000   0.038863   0.000000
   19  S  1 YZ    0.000000   0.000000  -0.015362   0.000000   0.000000
   20  O  2  S    0.007017   0.000000   0.000000  -0.001348   0.001774
   21  O  2  S    1.220329   0.000000   0.000000   0.070487  -0.077422
   22  O  2  S   -2.195583   0.000000   0.000000  -0.069445   0.101734
   23  O  2  X   -0.012074   0.000000   0.000000   0.052092  -0.033678
   24  O  2  Y    0.000000  -0.018526   0.023035   0.000000   0.000000
   25  O  2  Z    0.039837   0.000000   0.000000   0.005175   0.006000
   26  O  2  X   -0.637236   0.000000   0.000000  -0.084293   0.058257
   27  O  2  Y    0.000000   0.029041  -0.038804   0.000000   0.000000
   28  O  2  Z    0.230097   0.000000   0.000000  -0.008892  -0.007724
   29  O  2 XX    0.135973   0.000000   0.000000  -0.280490  -0.207394
   30  O  2 YY   -0.081142   0.000000   0.000000   0.613171   0.614158
   31  O  2 ZZ   -0.054830   0.000000   0.000000  -0.332681  -0.406764
   32  O  2 XY    0.000000   0.532354   0.237027   0.000000   0.000000
   33  O  2 XZ   -0.168546   0.000000   0.000000  -0.348542  -0.330197
   34  O  2 YZ    0.000000   0.465999   0.666944   0.000000   0.000000
   35  O  3  S    0.007017   0.000000   0.000000   0.001348   0.001774
   36  O  3  S    1.220329   0.000000   0.000000  -0.070487  -0.077422
   37  O  3  S   -2.195583   0.000000   0.000000   0.069445   0.101734
   38  O  3  X    0.012074   0.000000   0.000000   0.052092   0.033678
   39  O  3  Y    0.000000   0.018526   0.023035   0.000000   0.000000
   40  O  3  Z    0.039837   0.000000   0.000000  -0.005175   0.006000
   41  O  3  X    0.637236   0.000000   0.000000  -0.084293  -0.058257
   42  O  3  Y    0.000000  -0.029041  -0.038804   0.000000   0.000000
   43  O  3  Z    0.230097   0.000000   0.000000   0.008892  -0.007724
   44  O  3 XX    0.135973   0.000000   0.000000   0.280490  -0.207394
   45  O  3 YY   -0.081142   0.000000   0.000000  -0.613171   0.614158
   46  O  3 ZZ   -0.054830   0.000000   0.000000   0.332681  -0.406764
   47  O  3 XY    0.000000   0.532354  -0.237027   0.000000   0.000000
   48  O  3 XZ    0.168546   0.000000   0.000000  -0.348542   0.330197
   49  O  3 YZ    0.000000  -0.465999   0.666944   0.000000   0.000000

                     41         42         43         44         45
                    2.1073     2.2390     2.2513     2.4183     2.7208
                     B1         B2         A2         A1         A1  
    1  S  1  S    0.000000   0.000000   0.000000  -0.003610  -0.039272
    2  S  1  S    0.000000   0.000000   0.000000  -0.035507   0.021848
    3  S  1  S    0.000000   0.000000   0.000000  -0.081961  -0.462914
    4  S  1  S    0.000000   0.000000   0.000000   0.291452  -1.313064
    5  S  1  X   -0.033792   0.000000   0.000000   0.000000   0.000000
    6  S  1  Y    0.000000   0.055914   0.000000   0.000000   0.000000
    7  S  1  Z    0.000000   0.000000   0.000000  -0.049271   0.135154
    8  S  1  X    0.120951   0.000000   0.000000   0.000000   0.000000
    9  S  1  Y    0.000000  -0.177911   0.000000   0.000000   0.000000
   10  S  1  Z    0.000000   0.000000   0.000000   0.165998  -0.738551
   11  S  1  X    0.118832   0.000000   0.000000   0.000000   0.000000
   12  S  1  Y    0.000000  -0.166090   0.000000   0.000000   0.000000
   13  S  1  Z    0.000000   0.000000   0.000000   0.289860  -0.372525
   14  S  1 XX    0.000000   0.000000   0.000000  -0.420487  -0.448846
   15  S  1 YY    0.000000   0.000000   0.000000  -0.044458   0.450163
   16  S  1 ZZ    0.000000   0.000000   0.000000   0.464945  -0.001317
   17  S  1 XY    0.000000   0.000000  -0.432135   0.000000   0.000000
   18  S  1 XZ   -0.170118   0.000000   0.000000   0.000000   0.000000
   19  S  1 YZ    0.000000  -0.328693   0.000000   0.000000   0.000000
   20  O  2  S    0.000679   0.000000   0.000000   0.002090  -0.029308
   21  O  2  S   -0.071487   0.000000   0.000000   0.130528  -0.650415
   22  O  2  S    0.103338   0.000000   0.000000  -0.262074   1.383097
   23  O  2  X    0.029320   0.000000   0.000000   0.024921  -0.002427
   24  O  2  Y    0.000000  -0.059321   0.042656   0.000000   0.000000
   25  O  2  Z    0.075388   0.000000   0.000000   0.019506   0.002105
   26  O  2  X   -0.063704   0.000000   0.000000  -0.168007   0.636569
   27  O  2  Y    0.000000   0.176334  -0.136699   0.000000   0.000000
   28  O  2  Z   -0.124718   0.000000   0.000000  -0.134347  -0.415455
   29  O  2 XX   -0.548834   0.000000   0.000000  -0.608477   0.391463
   30  O  2 YY   -0.080542   0.000000   0.000000  -0.006130  -0.405610
   31  O  2 ZZ    0.629376   0.000000   0.000000   0.614607   0.014147
   32  O  2 XY    0.000000   0.688476  -0.488934   0.000000   0.000000
   33  O  2 XZ   -0.206590   0.000000   0.000000  -0.265187  -0.644547
   34  O  2 YZ    0.000000  -0.252601   0.548503   0.000000   0.000000
   35  O  3  S   -0.000679   0.000000   0.000000   0.002090  -0.029308
   36  O  3  S    0.071487   0.000000   0.000000   0.130528  -0.650415
   37  O  3  S   -0.103338   0.000000   0.000000  -0.262074   1.383097
   38  O  3  X    0.029320   0.000000   0.000000  -0.024921   0.002427
   39  O  3  Y    0.000000  -0.059321  -0.042656   0.000000   0.000000
   40  O  3  Z   -0.075388   0.000000   0.000000   0.019506   0.002105
   41  O  3  X   -0.063704   0.000000   0.000000   0.168007  -0.636569
   42  O  3  Y    0.000000   0.176334   0.136699   0.000000   0.000000
   43  O  3  Z    0.124718   0.000000   0.000000  -0.134347  -0.415455
   44  O  3 XX    0.548834   0.000000   0.000000  -0.608477   0.391463
   45  O  3 YY    0.080542   0.000000   0.000000  -0.006130  -0.405610
   46  O  3 ZZ   -0.629376   0.000000   0.000000   0.614607   0.014147
   47  O  3 XY    0.000000  -0.688476  -0.488934   0.000000   0.000000
   48  O  3 XZ   -0.206590   0.000000   0.000000   0.265187   0.644547
   49  O  3 YZ    0.000000  -0.252601  -0.548503   0.000000   0.000000

                     46
                    2.8298
                     B1  
    1  S  1  S    0.000000
    2  S  1  S    0.000000
    3  S  1  S    0.000000
    4  S  1  S    0.000000
    5  S  1  X   -0.204424
    6  S  1  Y    0.000000
    7  S  1  Z    0.000000
    8  S  1  X    1.091647
    9  S  1  Y    0.000000
   10  S  1  Z    0.000000
   11  S  1  X    0.410198
   12  S  1  Y    0.000000
   13  S  1  Z    0.000000
   14  S  1 XX    0.000000
   15  S  1 YY    0.000000
   16  S  1 ZZ    0.000000
   17  S  1 XY    0.000000
   18  S  1 XZ    0.745855
   19  S  1 YZ    0.000000
   20  O  2  S   -0.033336
   21  O  2  S   -0.549815
   22  O  2  S    1.231583
   23  O  2  X    0.047668
   24  O  2  Y    0.000000
   25  O  2  Z   -0.035601
   26  O  2  X    0.590022
   27  O  2  Y    0.000000
   28  O  2  Z   -0.425329
   29  O  2 XX    0.436618
   30  O  2 YY   -0.399237
   31  O  2 ZZ   -0.037381
   32  O  2 XY    0.000000
   33  O  2 XZ   -0.691425
   34  O  2 YZ    0.000000
   35  O  3  S    0.033336
   36  O  3  S    0.549815
   37  O  3  S   -1.231583
   38  O  3  X    0.047668
   39  O  3  Y    0.000000
   40  O  3  Z    0.035601
   41  O  3  X    0.590022
   42  O  3  Y    0.000000
   43  O  3  Z    0.425329
   44  O  3 XX   -0.436618
   45  O  3 YY    0.399237
   46  O  3 ZZ    0.037381
   47  O  3 XY    0.000000
   48  O  3 XZ   -0.691425
   49  O  3 YZ    0.000000
 ...... END OF RHF CALCULATION ......
 STEP CPU TIME =     4.41 TOTAL CPU TIME =        4.6 (    0.1 MIN)
 TOTAL WALL CLOCK TIME=        4.6 SECONDS, CPU UTILIZATION IS  99.78%

     ---------------------------------------------------------------------
     PROPERTIES FOR THE PBE      DFT FUNCTIONAL (RHF  TYPE) DENSITY MATRIX
     ---------------------------------------------------------------------

          -----------------
          ENERGY COMPONENTS
          -----------------

         WAVEFUNCTION NORMALIZATION =       1.0000000000

                ONE ELECTRON ENERGY =    -962.5423168350
                TWO ELECTRON ENERGY =     310.1866018804
           NUCLEAR REPULSION ENERGY =     104.0943814985
                                      ------------------
                       TOTAL ENERGY =    -548.2613334561

 ELECTRON-ELECTRON POTENTIAL ENERGY =     310.1866018804
  NUCLEUS-ELECTRON POTENTIAL ENERGY =   -1510.0788832709
   NUCLEUS-NUCLEUS POTENTIAL ENERGY =     104.0943814985
                                      ------------------
             TOTAL POTENTIAL ENERGY =   -1095.7978998920
               TOTAL KINETIC ENERGY =     547.5365664359
                 VIRIAL RATIO (V/T) =       2.0013236870

          ---------------------------------------
          MULLIKEN AND LOWDIN POPULATION ANALYSES
          ---------------------------------------

     ATOMIC MULLIKEN POPULATION IN EACH MOLECULAR ORBITAL

                      1          2          3          4          5

                  2.000000   2.000000   2.000000   2.000000   2.000000

    1             2.000017   0.001875   0.000927   2.000996   1.999857
    2            -0.000008   0.999062   0.999536  -0.000498   0.000072
    3            -0.000008   0.999062   0.999536  -0.000498   0.000072

                      6          7          8          9         10

                  2.000000   2.000000   2.000000   2.000000   2.000000

    1             2.000005   1.999834   0.669278   0.358583   1.071475
    2            -0.000002   0.000083   0.665361   0.820709   0.464263
    3            -0.000002   0.000083   0.665361   0.820709   0.464263

                     11         12         13         14         15

                  2.000000   2.000000   2.000000   2.000000   2.000000

    1             1.070946   0.437609   0.846241   0.087726   0.477285
    2             0.464527   0.781196   0.576879   0.956137   0.761358
    3             0.464527   0.781196   0.576879   0.956137   0.761358

                     16

                  2.000000

    1             0.148544
    2             0.925728
    3             0.925728

               ----- POPULATIONS IN EACH AO -----
                             MULLIKEN      LOWDIN
              1  S  1  S      2.00023     1.99583
              2  S  1  S      2.01001     1.96547
              3  S  1  S      0.97159     0.59087
              4  S  1  S      0.83876     0.54082
              5  S  1  X      1.99645     1.95391
              6  S  1  Y      1.99611     1.95493
              7  S  1  Z      1.99709     1.96140
              8  S  1  X      0.67630     0.60559
              9  S  1  Y      0.66668     0.62633
             10  S  1  Z      0.82791     0.79577
             11  S  1  X      0.14205     0.27251
             12  S  1  Y      0.39161     0.44481
             13  S  1  Z      0.25596     0.40693
             14  S  1 XX      0.07168     0.28457
             15  S  1 YY      0.09377     0.24793
             16  S  1 ZZ      0.08773     0.27225
             17  S  1 XY      0.13073     0.10494
             18  S  1 XZ      0.01655     0.15932
             19  S  1 YZ      0.00000     0.01598
             20  O  2  S      1.99797     1.98073
             21  O  2  S      0.83420     0.64878
             22  O  2  S      1.05976     0.56249
             23  O  2  X      0.95133     0.91082
             24  O  2  Y      0.85159     0.81504
             25  O  2  Z      1.02420     0.99356
             26  O  2  X      0.51115     0.59092
             27  O  2  Y      0.56258     0.60309
             28  O  2  Z      0.60125     0.66621
             29  O  2 XX      0.00367     0.20518
             30  O  2 YY      0.00406     0.20358
             31  O  2 ZZ      0.00426     0.20060
             32  O  2 XY      0.00616     0.00561
             33  O  2 XZ      0.00223     0.01054
             34  O  2 YZ      0.00000     0.00276
             35  O  3  S      1.99797     1.98073
             36  O  3  S      0.83420     0.64878
             37  O  3  S      1.05976     0.56249
             38  O  3  X      0.95133     0.91082
             39  O  3  Y      0.85159     0.81504
             40  O  3  Z      1.02420     0.99356
             41  O  3  X      0.51115     0.59092
             42  O  3  Y      0.56258     0.60309
             43  O  3  Z      0.60125     0.66621
             44  O  3 XX      0.00367     0.20518
             45  O  3 YY      0.00406     0.20358
             46  O  3 ZZ      0.00426     0.20060
             47  O  3 XY      0.00616     0.00561
             48  O  3 XZ      0.00223     0.01054
             49  O  3 YZ      0.00000     0.00276

          ----- MULLIKEN ATOMIC OVERLAP POPULATIONS -----
          (OFF-DIAGONAL ELEMENTS NEED TO BE MULTIPLIED BY 2)

             1           2           3

    1   14.4989280
    2    0.3361355   8.1335062
    3    0.3361355  -0.0552413   8.1335062

          TOTAL MULLIKEN AND LOWDIN ATOMIC POPULATIONS
       ATOM         MULL.POP.    CHARGE          LOW.POP.     CHARGE
    1 S            15.171199    0.828801        15.200159    0.799841
    2 O             8.414400   -0.414400         8.399920   -0.399920
    3 O             8.414400   -0.414400         8.399920   -0.399920

          MULLIKEN SPHERICAL HARMONIC POPULATIONS
       ATOM           S       P       D      F      G      H      I    TOTAL
    1 S             5.82    8.95    0.40   0.00   0.00   0.00   0.00   15.17
    2 O             3.89    4.50    0.02   0.00   0.00   0.00   0.00    8.41
    3 O             3.89    4.50    0.02   0.00   0.00   0.00   0.00    8.41

          -------------------------------
          BOND ORDER AND VALENCE ANALYSIS     BOND ORDER THRESHOLD=0.050
          -------------------------------

                   BOND                       BOND                       BOND
  ATOM PAIR DIST  ORDER      ATOM PAIR DIST  ORDER      ATOM PAIR DIST  ORDER
    1   2  1.500  1.789        1   3  1.500  1.789        2   3  2.457  0.293

                       TOTAL       BONDED        FREE
      ATOM            VALENCE     VALENCE     VALENCE
    1 S                 3.578       3.578       0.000
    2 O                 2.082       2.082       0.000
    3 O                 2.082       2.082       0.000

          ---------------------
          ELECTROSTATIC MOMENTS
          ---------------------

 POINT   1           X           Y           Z (BOHR)    CHARGE
                 0.000000    0.000000    0.000000        0.00 (A.U.)
         DX          DY          DZ         /D/  (DEBYE)
     0.000000    0.000000   -2.302287    2.302287
 ...... END OF PROPERTY EVALUATION ......
 STEP CPU TIME =     0.01 TOTAL CPU TIME =        4.6 (    0.1 MIN)
 TOTAL WALL CLOCK TIME=        4.6 SECONDS, CPU UTILIZATION IS  99.78%
               580000  WORDS OF DYNAMIC MEMORY USED
 EXECUTION OF GAMESS TERMINATED NORMALLY Thu Feb 26 00:16:44 2015
 DDI: 263624 bytes (0.3 MB / 0 MWords) used by master data server.

 ----------------------------------------
 CPU timing information for all processes
 ========================================
 0: 4.591 + 0.28 = 4.620
 ----------------------------------------
 ddikick.x: exited gracefully.
----- accounting info -----
Files used on the master node dftfe.crc.nd.edu were:
-rw-r--r-- 1 pmehta1 campus   37475 Feb 26 00:16 /tmp/gamess.dat
-rw-r--r-- 1 pmehta1 campus     142 Feb 26 00:16 /tmp/gamess.F05
-rw-r--r-- 1 pmehta1 campus 2160288 Feb 26 00:16 /tmp/gamess.F08
-rw-r--r-- 1 pmehta1 campus 1220440 Feb 26 00:16 /tmp/gamess.F10
Thu Feb 26 00:16:47 EST 2015
0.241u 0.181s 0:08.05 5.2%	0+0k 0+104io 0pf+0w
