   8   8   1   0
  0.1867057E+02  0.4211200E-09  0.4211200E-09  0.8422400E-09  0.5000000E-15
  1.000000000000000E-004
  CAR 
 Au, FCC                                 
      9.07794106    -17.39663420  301      0.34408899      1.00000000
    -17.397  0.0000E+00  0.0000E+00
    -17.308  0.0000E+00  0.0000E+00
    -17.220  0.0000E+00  0.0000E+00
    -17.132  0.0000E+00  0.0000E+00
    -17.044  0.0000E+00  0.0000E+00
    -16.955  0.0000E+00  0.0000E+00
    -16.867  0.0000E+00  0.0000E+00
    -16.779  0.1258E-14  0.1110E-15
    -16.691  0.2269E-10  0.2002E-11
    -16.602  0.8152E-07  0.7196E-08
    -16.514  0.6419E-04  0.5672E-05
    -16.426  0.1128E-01  0.1001E-02
    -16.338  0.4547E+00  0.4113E-01
    -16.249  0.4373E+01  0.4271E+00
    -16.161  0.1046E+02  0.1350E+01
    -16.073  0.6359E+01  0.1911E+01
    -15.985  0.9700E+00  0.1997E+01
    -15.896  0.3577E-01  0.2000E+01
    -15.808  0.1053E-01  0.2001E+01
    -15.720  0.4330E+00  0.2039E+01
    -15.632  0.4679E+01  0.2452E+01
    -15.543  0.1644E+02  0.3903E+01
    -15.455  0.2598E+02  0.6196E+01
    -15.367  0.1695E+02  0.7692E+01
    -15.279  0.3326E+01  0.7985E+01
    -15.190  0.1657E+00  0.8000E+01
    -15.102  0.1945E-02  0.8000E+01
    -15.014  0.5161E-05  0.8000E+01
    -14.926  0.3026E-08  0.8000E+01
    -14.837  0.3875E-12  0.8000E+01
    -14.749  0.0000E+00  0.8000E+01
    -14.661  0.0000E+00  0.8000E+01
    -14.573  0.0000E+00  0.8000E+01
    -14.484  0.0000E+00  0.8000E+01
    -14.396  0.0000E+00  0.8000E+01
    -14.308  0.0000E+00  0.8000E+01
    -14.220  0.0000E+00  0.8000E+01
    -14.131  0.0000E+00  0.8000E+01
    -14.043  0.0000E+00  0.8000E+01
    -13.955  0.0000E+00  0.8000E+01
    -13.867  0.0000E+00  0.8000E+01
    -13.778  0.0000E+00  0.8000E+01
    -13.690  0.0000E+00  0.8000E+01
    -13.602  0.0000E+00  0.8000E+01
    -13.514  0.0000E+00  0.8000E+01
    -13.425  0.0000E+00  0.8000E+01
    -13.337  0.0000E+00  0.8000E+01
    -13.249  0.0000E+00  0.8000E+01
    -13.161  0.0000E+00  0.8000E+01
    -13.072  0.0000E+00  0.8000E+01
    -12.984  0.0000E+00  0.8000E+01
    -12.896  0.0000E+00  0.8000E+01
    -12.808  0.0000E+00  0.8000E+01
    -12.719  0.0000E+00  0.8000E+01
    -12.631  0.0000E+00  0.8000E+01
    -12.543  0.0000E+00  0.8000E+01
    -12.455  0.0000E+00  0.8000E+01
    -12.366  0.0000E+00  0.8000E+01
    -12.278  0.0000E+00  0.8000E+01
    -12.190  0.0000E+00  0.8000E+01
    -12.102  0.0000E+00  0.8000E+01
    -12.013  0.0000E+00  0.8000E+01
    -11.925  0.0000E+00  0.8000E+01
    -11.837  0.0000E+00  0.8000E+01
    -11.749  0.0000E+00  0.8000E+01
    -11.660  0.0000E+00  0.8000E+01
    -11.572  0.0000E+00  0.8000E+01
    -11.484  0.0000E+00  0.8000E+01
    -11.396  0.0000E+00  0.8000E+01
    -11.307  0.0000E+00  0.8000E+01
    -11.219  0.0000E+00  0.8000E+01
    -11.131  0.0000E+00  0.8000E+01
    -11.043  0.0000E+00  0.8000E+01
    -10.954  0.0000E+00  0.8000E+01
    -10.866  0.0000E+00  0.8000E+01
    -10.778  0.0000E+00  0.8000E+01
    -10.690  0.0000E+00  0.8000E+01
    -10.601  0.0000E+00  0.8000E+01
    -10.513  0.0000E+00  0.8000E+01
    -10.425  0.0000E+00  0.8000E+01
    -10.337  0.0000E+00  0.8000E+01
    -10.248  0.0000E+00  0.8000E+01
    -10.160  0.0000E+00  0.8000E+01
    -10.072  0.0000E+00  0.8000E+01
     -9.984  0.0000E+00  0.8000E+01
     -9.896  0.0000E+00  0.8000E+01
     -9.807  0.0000E+00  0.8000E+01
     -9.719  0.0000E+00  0.8000E+01
     -9.631  0.0000E+00  0.8000E+01
     -9.543  0.0000E+00  0.8000E+01
     -9.454  0.0000E+00  0.8000E+01
     -9.366  0.0000E+00  0.8000E+01
     -9.278  0.0000E+00  0.8000E+01
     -9.190  0.0000E+00  0.8000E+01
     -9.101  0.0000E+00  0.8000E+01
     -9.013  0.0000E+00  0.8000E+01
     -8.925  0.0000E+00  0.8000E+01
     -8.837  0.0000E+00  0.8000E+01
     -8.748  0.0000E+00  0.8000E+01
     -8.660  0.0000E+00  0.8000E+01
     -8.572  0.0000E+00  0.8000E+01
     -8.484  0.0000E+00  0.8000E+01
     -8.395  0.0000E+00  0.8000E+01
     -8.307  0.0000E+00  0.8000E+01
     -8.219  0.0000E+00  0.8000E+01
     -8.131  0.0000E+00  0.8000E+01
     -8.042  0.0000E+00  0.8000E+01
     -7.954  0.0000E+00  0.8000E+01
     -7.866  0.0000E+00  0.8000E+01
     -7.778  0.0000E+00  0.8000E+01
     -7.689  0.0000E+00  0.8000E+01
     -7.601  0.0000E+00  0.8000E+01
     -7.513  0.0000E+00  0.8000E+01
     -7.425  0.0000E+00  0.8000E+01
     -7.336  0.0000E+00  0.8000E+01
     -7.248  0.0000E+00  0.8000E+01
     -7.160  0.0000E+00  0.8000E+01
     -7.072  0.0000E+00  0.8000E+01
     -6.983  0.0000E+00  0.8000E+01
     -6.895  0.0000E+00  0.8000E+01
     -6.807  0.0000E+00  0.8000E+01
     -6.719  0.0000E+00  0.8000E+01
     -6.630  0.0000E+00  0.8000E+01
     -6.542  0.0000E+00  0.8000E+01
     -6.454  0.0000E+00  0.8000E+01
     -6.366  0.0000E+00  0.8000E+01
     -6.277  0.0000E+00  0.8000E+01
     -6.189  0.0000E+00  0.8000E+01
     -6.101  0.0000E+00  0.8000E+01
     -6.013  0.0000E+00  0.8000E+01
     -5.924  0.0000E+00  0.8000E+01
     -5.836  0.0000E+00  0.8000E+01
     -5.748  0.0000E+00  0.8000E+01
     -5.660  0.0000E+00  0.8000E+01
     -5.571  0.0000E+00  0.8000E+01
     -5.483  0.0000E+00  0.8000E+01
     -5.395  0.0000E+00  0.8000E+01
     -5.307  0.0000E+00  0.8000E+01
     -5.218  0.0000E+00  0.8000E+01
     -5.130  0.0000E+00  0.8000E+01
     -5.042  0.0000E+00  0.8000E+01
     -4.954  0.0000E+00  0.8000E+01
     -4.865  0.0000E+00  0.8000E+01
     -4.777  0.0000E+00  0.8000E+01
     -4.689  0.0000E+00  0.8000E+01
     -4.601  0.0000E+00  0.8000E+01
     -4.512  0.0000E+00  0.8000E+01
     -4.424  0.0000E+00  0.8000E+01
     -4.336  0.0000E+00  0.8000E+01
     -4.248  0.0000E+00  0.8000E+01
     -4.159  0.0000E+00  0.8000E+01
     -4.071  0.0000E+00  0.8000E+01
     -3.983  0.0000E+00  0.8000E+01
     -3.895  0.6794E-13  0.8000E+01
     -3.806  0.6961E-09  0.8000E+01
     -3.718  0.1552E-05  0.8000E+01
     -3.630  0.7617E-03  0.8000E+01
     -3.542  0.8407E-01  0.8007E+01
     -3.453  0.2153E+01  0.8197E+01
     -3.365  0.1333E+02  0.9374E+01
     -3.277  0.2074E+02  0.1120E+02
     -3.189  0.8198E+01  0.1193E+02
     -3.100  0.8047E+00  0.1200E+02
     -3.012  0.1889E-01  0.1200E+02
     -2.924  0.1581E-01  0.1200E+02
     -2.836  0.7063E+00  0.1206E+02
     -2.747  0.7604E+01  0.1273E+02
     -2.659  0.2043E+02  0.1454E+02
     -2.571  0.1403E+02  0.1578E+02
     -2.483  0.2440E+01  0.1599E+02
     -2.394  0.1035E+00  0.1600E+02
     -2.306  0.1028E-02  0.1600E+02
     -2.218  0.2316E-05  0.1600E+02
     -2.130  0.1158E-08  0.1600E+02
     -2.041  0.2818E-10  0.1600E+02
     -1.953  0.1166E-06  0.1600E+02
     -1.865  0.1062E-03  0.1600E+02
     -1.777  0.2158E-01  0.1600E+02
     -1.688  0.1004E+01  0.1609E+02
     -1.600  0.1112E+02  0.1707E+02
     -1.512  0.3056E+02  0.1977E+02
     -1.424  0.2136E+02  0.2165E+02
     -1.335  0.3763E+01  0.2199E+02
     -1.247  0.1610E+00  0.2200E+02
     -1.159  0.1605E-02  0.2200E+02
     -1.071  0.4371E-04  0.2200E+02
     -0.982  0.9662E-02  0.2200E+02
     -0.894  0.5418E+00  0.2205E+02
     -0.806  0.7439E+01  0.2271E+02
     -0.718  0.2657E+02  0.2505E+02
     -0.629  0.2639E+02  0.2738E+02
     -0.541  0.1155E+02  0.2840E+02
     -0.453  0.1102E+02  0.2937E+02
     -0.365  0.6330E+01  0.2993E+02
     -0.276  0.3171E+01  0.3021E+02
     -0.188  0.8960E+01  0.3100E+02
     -0.100  0.8931E+01  0.3179E+02
     -0.012  0.2261E+01  0.3199E+02
      0.077  0.1404E+00  0.3200E+02
      0.165  0.2047E-02  0.3200E+02
      0.253  0.6773E-05  0.3200E+02
      0.341  0.4963E-08  0.3200E+02
      0.430  0.7951E-12  0.3200E+02
      0.518  0.0000E+00  0.3200E+02
      0.606  0.0000E+00  0.3200E+02
      0.694  0.0000E+00  0.3200E+02
      0.783  0.0000E+00  0.3200E+02
      0.871  0.0000E+00  0.3200E+02
      0.959  0.0000E+00  0.3200E+02
      1.047  0.0000E+00  0.3200E+02
      1.136  0.0000E+00  0.3200E+02
      1.224  0.0000E+00  0.3200E+02
      1.312  0.0000E+00  0.3200E+02
      1.400  0.0000E+00  0.3200E+02
      1.489  0.0000E+00  0.3200E+02
      1.577  0.0000E+00  0.3200E+02
      1.665  0.0000E+00  0.3200E+02
      1.753  0.0000E+00  0.3200E+02
      1.842  0.0000E+00  0.3200E+02
      1.930  0.0000E+00  0.3200E+02
      2.018  0.0000E+00  0.3200E+02
      2.106  0.0000E+00  0.3200E+02
      2.195  0.0000E+00  0.3200E+02
      2.283  0.0000E+00  0.3200E+02
      2.371  0.0000E+00  0.3200E+02
      2.459  0.0000E+00  0.3200E+02
      2.548  0.0000E+00  0.3200E+02
      2.636  0.0000E+00  0.3200E+02
      2.724  0.0000E+00  0.3200E+02
      2.812  0.0000E+00  0.3200E+02
      2.901  0.0000E+00  0.3200E+02
      2.989  0.0000E+00  0.3200E+02
      3.077  0.0000E+00  0.3200E+02
      3.165  0.0000E+00  0.3200E+02
      3.254  0.0000E+00  0.3200E+02
      3.342  0.0000E+00  0.3200E+02
      3.430  0.6542E-13  0.3200E+02
      3.518  0.6048E-09  0.3200E+02
      3.607  0.1220E-05  0.3200E+02
      3.695  0.5427E-03  0.3200E+02
      3.783  0.5436E-01  0.3200E+02
      3.871  0.1267E+01  0.3212E+02
      3.960  0.7156E+01  0.3275E+02
      4.048  0.1017E+02  0.3365E+02
      4.136  0.3675E+01  0.3397E+02
      4.224  0.3288E+00  0.3400E+02
      4.313  0.6984E-02  0.3400E+02
      4.401  0.3393E-04  0.3400E+02
      4.489  0.3669E-07  0.3400E+02
      4.577  0.8683E-11  0.3400E+02
      4.666  0.0000E+00  0.3400E+02
      4.754  0.0000E+00  0.3400E+02
      4.842  0.0000E+00  0.3400E+02
      4.930  0.0000E+00  0.3400E+02
      5.019  0.0000E+00  0.3400E+02
      5.107  0.9939E-13  0.3400E+02
      5.195  0.8589E-09  0.3400E+02
      5.283  0.1626E-05  0.3400E+02
      5.372  0.6787E-03  0.3400E+02
      5.460  0.6390E-01  0.3401E+02
      5.548  0.1401E+01  0.3413E+02
      5.636  0.7466E+01  0.3479E+02
      5.724  0.1002E+02  0.3567E+02
      5.813  0.3416E+01  0.3597E+02
      5.901  0.2879E+00  0.3600E+02
      5.989  0.5752E-02  0.3600E+02
      6.077  0.2624E-04  0.3600E+02
      6.166  0.2663E-07  0.3600E+02
      6.254  0.5910E-11  0.3600E+02
      6.342  0.0000E+00  0.3600E+02
      6.430  0.0000E+00  0.3600E+02
      6.519  0.0000E+00  0.3600E+02
      6.607  0.7548E-14  0.3600E+02
      6.695  0.1015E-09  0.3600E+02
      6.783  0.3175E-06  0.3600E+02
      6.872  0.2180E-03  0.3600E+02
      6.960  0.3349E-01  0.3600E+02
      7.048  0.1184E+01  0.3611E+02
      7.136  0.1002E+02  0.3699E+02
      7.225  0.2115E+02  0.3886E+02
      7.313  0.1136E+02  0.3986E+02
      7.401  0.1526E+01  0.4000E+02
      7.489  0.4930E-01  0.4000E+02
      7.578  0.6725E-03  0.4000E+02
      7.666  0.3572E-01  0.4000E+02
      7.754  0.9700E+00  0.4009E+02
      7.842  0.6359E+01  0.4065E+02
      7.931  0.1046E+02  0.4157E+02
      8.019  0.4373E+01  0.4196E+02
      8.107  0.4547E+00  0.4200E+02
      8.195  0.1128E-01  0.4200E+02
      8.284  0.6419E-04  0.4200E+02
      8.372  0.8152E-07  0.4200E+02
      8.460  0.2269E-10  0.4200E+02
      8.548  0.0000E+00  0.4200E+02
      8.637  0.0000E+00  0.4200E+02
      8.725  0.0000E+00  0.4200E+02
      8.813  0.0000E+00  0.4200E+02
      8.901  0.0000E+00  0.4200E+02
      8.990  0.0000E+00  0.4200E+02
      9.078  0.0000E+00  0.4200E+02
      9.07794106    -17.39663420  301      0.34408899      1.00000000
    -17.397  0.0000E+00  0.0000E+00  0.0000E+00  0.0000E+00  0.0000E+00  0.0000E+00  0.0000E+00  0.0000E+00  0.0000E+00
    -17.308  0.0000E+00  0.0000E+00  0.0000E+00  0.0000E+00  0.0000E+00  0.0000E+00  0.0000E+00  0.0000E+00  0.0000E+00
    -17.220  0.0000E+00  0.0000E+00  0.0000E+00  0.0000E+00  0.0000E+00  0.0000E+00  0.0000E+00  0.0000E+00  0.0000E+00
    -17.132  0.0000E+00  0.0000E+00  0.0000E+00  0.0000E+00  0.0000E+00  0.0000E+00  0.0000E+00  0.0000E+00  0.0000E+00
    -17.044  0.0000E+00  0.0000E+00  0.0000E+00  0.0000E+00  0.0000E+00  0.0000E+00  0.0000E+00  0.0000E+00  0.0000E+00
    -16.955  0.0000E+00  0.0000E+00  0.0000E+00  0.0000E+00  0.0000E+00  0.0000E+00  0.0000E+00  0.0000E+00  0.0000E+00
    -16.867  0.0000E+00  0.0000E+00  0.0000E+00  0.0000E+00  0.0000E+00  0.0000E+00  0.0000E+00  0.0000E+00  0.0000E+00
    -16.779  0.6580E-17  0.8778E-18  0.5471E-18  0.8778E-18  0.0000E+00  0.0000E+00  0.0000E+00  0.0000E+00  0.0000E+00
    -16.691  0.1187E-12  0.1583E-13  0.9867E-14  0.1583E-13  0.0000E+00  0.0000E+00  0.0000E+00  0.0000E+00  0.0000E+00
    -16.602  0.4263E-09  0.5688E-10  0.3545E-10  0.5688E-10  0.0000E+00  0.0000E+00  0.0000E+00  0.0000E+00  0.0000E+00
    -16.514  0.3357E-06  0.4479E-07  0.2791E-07  0.4479E-07  0.0000E+00  0.0000E+00  0.0000E+00  0.0000E+00  0.0000E+00
    -16.426  0.5899E-04  0.7870E-05  0.4905E-05  0.7870E-05  0.0000E+00  0.0000E+00  0.0000E+00  0.0000E+00  0.0000E+00
    -16.338  0.2378E-02  0.3173E-03  0.1978E-03  0.3173E-03  0.0000E+00  0.0000E+00  0.0000E+00  0.0000E+00  0.0000E+00
    -16.249  0.2287E-01  0.3052E-02  0.1902E-02  0.3052E-02  0.0000E+00  0.0000E+00  0.0000E+00  0.0000E+00  0.0000E+00
    -16.161  0.5470E-01  0.7298E-02  0.4548E-02  0.7298E-02  0.0000E+00  0.0000E+00  0.0000E+00  0.0000E+00  0.0000E+00
    -16.073  0.3326E-01  0.4437E-02  0.2765E-02  0.4437E-02  0.0000E+00  0.0000E+00  0.0000E+00  0.0000E+00  0.0000E+00
    -15.985  0.5073E-02  0.6769E-03  0.4219E-03  0.6769E-03  0.0000E+00  0.0000E+00  0.0000E+00  0.0000E+00  0.0000E+00
    -15.896  0.1869E-03  0.2496E-04  0.1556E-04  0.2496E-04  0.0000E+00  0.0000E+00  0.0000E+00  0.0000E+00  0.0000E+00
    -15.808  0.1374E-04  0.7696E-05  0.4344E-05  0.7696E-05  0.0000E+00  0.0000E+00  0.0000E+00  0.0000E+00  0.0000E+00
    -15.720  0.5092E-03  0.3176E-03  0.1783E-03  0.3176E-03  0.0000E+00  0.0000E+00  0.0000E+00  0.0000E+00  0.0000E+00
    -15.632  0.5208E-02  0.3463E-02  0.1924E-02  0.3463E-02  0.0000E+00  0.0000E+00  0.0000E+00  0.0000E+00  0.0000E+00
    -15.543  0.1479E-01  0.1254E-01  0.6715E-02  0.1254E-01  0.0000E+00  0.0000E+00  0.0000E+00  0.0000E+00  0.0000E+00
    -15.455  0.1549E-01  0.2064E-01  0.1051E-01  0.2064E-01  0.0000E+00  0.0000E+00  0.0000E+00  0.0000E+00  0.0000E+00
    -15.367  0.7534E-02  0.1373E-01  0.6823E-02  0.1373E-01  0.0000E+00  0.0000E+00  0.0000E+00  0.0000E+00  0.0000E+00
    -15.279  0.1349E-02  0.2709E-02  0.1338E-02  0.2709E-02  0.0000E+00  0.0000E+00  0.0000E+00  0.0000E+00  0.0000E+00
    -15.190  0.6596E-04  0.1351E-03  0.6663E-04  0.1351E-03  0.0000E+00  0.0000E+00  0.0000E+00  0.0000E+00  0.0000E+00
    -15.102  0.7712E-06  0.1586E-05  0.7817E-06  0.1586E-05  0.0000E+00  0.0000E+00  0.0000E+00  0.0000E+00  0.0000E+00
    -15.014  0.2046E-08  0.4209E-08  0.2075E-08  0.4209E-08  0.0000E+00  0.0000E+00  0.0000E+00  0.0000E+00  0.0000E+00
    -14.926  0.1199E-11  0.2468E-11  0.1217E-11  0.2468E-11  0.0000E+00  0.0000E+00  0.0000E+00  0.0000E+00  0.0000E+00
    -14.837  0.1536E-15  0.3160E-15  0.1558E-15  0.3160E-15  0.0000E+00  0.0000E+00  0.0000E+00  0.0000E+00  0.0000E+00
    -14.749  0.0000E+00  0.0000E+00  0.0000E+00  0.0000E+00  0.0000E+00  0.0000E+00  0.0000E+00  0.0000E+00  0.0000E+00
    -14.661  0.0000E+00  0.0000E+00  0.0000E+00  0.0000E+00  0.0000E+00  0.0000E+00  0.0000E+00  0.0000E+00  0.0000E+00
    -14.573  0.0000E+00  0.0000E+00  0.0000E+00  0.0000E+00  0.0000E+00  0.0000E+00  0.0000E+00  0.0000E+00  0.0000E+00
    -14.484  0.0000E+00  0.0000E+00  0.0000E+00  0.0000E+00  0.0000E+00  0.0000E+00  0.0000E+00  0.0000E+00  0.0000E+00
    -14.396  0.0000E+00  0.0000E+00  0.0000E+00  0.0000E+00  0.0000E+00  0.0000E+00  0.0000E+00  0.0000E+00  0.0000E+00
    -14.308  0.0000E+00  0.0000E+00  0.0000E+00  0.0000E+00  0.0000E+00  0.0000E+00  0.0000E+00  0.0000E+00  0.0000E+00
    -14.220  0.0000E+00  0.0000E+00  0.0000E+00  0.0000E+00  0.0000E+00  0.0000E+00  0.0000E+00  0.0000E+00  0.0000E+00
    -14.131  0.0000E+00  0.0000E+00  0.0000E+00  0.0000E+00  0.0000E+00  0.0000E+00  0.0000E+00  0.0000E+00  0.0000E+00
    -14.043  0.0000E+00  0.0000E+00  0.0000E+00  0.0000E+00  0.0000E+00  0.0000E+00  0.0000E+00  0.0000E+00  0.0000E+00
    -13.955  0.0000E+00  0.0000E+00  0.0000E+00  0.0000E+00  0.0000E+00  0.0000E+00  0.0000E+00  0.0000E+00  0.0000E+00
    -13.867  0.0000E+00  0.0000E+00  0.0000E+00  0.0000E+00  0.0000E+00  0.0000E+00  0.0000E+00  0.0000E+00  0.0000E+00
    -13.778  0.0000E+00  0.0000E+00  0.0000E+00  0.0000E+00  0.0000E+00  0.0000E+00  0.0000E+00  0.0000E+00  0.0000E+00
    -13.690  0.0000E+00  0.0000E+00  0.0000E+00  0.0000E+00  0.0000E+00  0.0000E+00  0.0000E+00  0.0000E+00  0.0000E+00
    -13.602  0.0000E+00  0.0000E+00  0.0000E+00  0.0000E+00  0.0000E+00  0.0000E+00  0.0000E+00  0.0000E+00  0.0000E+00
    -13.514  0.0000E+00  0.0000E+00  0.0000E+00  0.0000E+00  0.0000E+00  0.0000E+00  0.0000E+00  0.0000E+00  0.0000E+00
    -13.425  0.0000E+00  0.0000E+00  0.0000E+00  0.0000E+00  0.0000E+00  0.0000E+00  0.0000E+00  0.0000E+00  0.0000E+00
    -13.337  0.0000E+00  0.0000E+00  0.0000E+00  0.0000E+00  0.0000E+00  0.0000E+00  0.0000E+00  0.0000E+00  0.0000E+00
    -13.249  0.0000E+00  0.0000E+00  0.0000E+00  0.0000E+00  0.0000E+00  0.0000E+00  0.0000E+00  0.0000E+00  0.0000E+00
    -13.161  0.0000E+00  0.0000E+00  0.0000E+00  0.0000E+00  0.0000E+00  0.0000E+00  0.0000E+00  0.0000E+00  0.0000E+00
    -13.072  0.0000E+00  0.0000E+00  0.0000E+00  0.0000E+00  0.0000E+00  0.0000E+00  0.0000E+00  0.0000E+00  0.0000E+00
    -12.984  0.0000E+00  0.0000E+00  0.0000E+00  0.0000E+00  0.0000E+00  0.0000E+00  0.0000E+00  0.0000E+00  0.0000E+00
    -12.896  0.0000E+00  0.0000E+00  0.0000E+00  0.0000E+00  0.0000E+00  0.0000E+00  0.0000E+00  0.0000E+00  0.0000E+00
    -12.808  0.0000E+00  0.0000E+00  0.0000E+00  0.0000E+00  0.0000E+00  0.0000E+00  0.0000E+00  0.0000E+00  0.0000E+00
    -12.719  0.0000E+00  0.0000E+00  0.0000E+00  0.0000E+00  0.0000E+00  0.0000E+00  0.0000E+00  0.0000E+00  0.0000E+00
    -12.631  0.0000E+00  0.0000E+00  0.0000E+00  0.0000E+00  0.0000E+00  0.0000E+00  0.0000E+00  0.0000E+00  0.0000E+00
    -12.543  0.0000E+00  0.0000E+00  0.0000E+00  0.0000E+00  0.0000E+00  0.0000E+00  0.0000E+00  0.0000E+00  0.0000E+00
    -12.455  0.0000E+00  0.0000E+00  0.0000E+00  0.0000E+00  0.0000E+00  0.0000E+00  0.0000E+00  0.0000E+00  0.0000E+00
    -12.366  0.0000E+00  0.0000E+00  0.0000E+00  0.0000E+00  0.0000E+00  0.0000E+00  0.0000E+00  0.0000E+00  0.0000E+00
    -12.278  0.0000E+00  0.0000E+00  0.0000E+00  0.0000E+00  0.0000E+00  0.0000E+00  0.0000E+00  0.0000E+00  0.0000E+00
    -12.190  0.0000E+00  0.0000E+00  0.0000E+00  0.0000E+00  0.0000E+00  0.0000E+00  0.0000E+00  0.0000E+00  0.0000E+00
    -12.102  0.0000E+00  0.0000E+00  0.0000E+00  0.0000E+00  0.0000E+00  0.0000E+00  0.0000E+00  0.0000E+00  0.0000E+00
    -12.013  0.0000E+00  0.0000E+00  0.0000E+00  0.0000E+00  0.0000E+00  0.0000E+00  0.0000E+00  0.0000E+00  0.0000E+00
    -11.925  0.0000E+00  0.0000E+00  0.0000E+00  0.0000E+00  0.0000E+00  0.0000E+00  0.0000E+00  0.0000E+00  0.0000E+00
    -11.837  0.0000E+00  0.0000E+00  0.0000E+00  0.0000E+00  0.0000E+00  0.0000E+00  0.0000E+00  0.0000E+00  0.0000E+00
    -11.749  0.0000E+00  0.0000E+00  0.0000E+00  0.0000E+00  0.0000E+00  0.0000E+00  0.0000E+00  0.0000E+00  0.0000E+00
    -11.660  0.0000E+00  0.0000E+00  0.0000E+00  0.0000E+00  0.0000E+00  0.0000E+00  0.0000E+00  0.0000E+00  0.0000E+00
    -11.572  0.0000E+00  0.0000E+00  0.0000E+00  0.0000E+00  0.0000E+00  0.0000E+00  0.0000E+00  0.0000E+00  0.0000E+00
    -11.484  0.0000E+00  0.0000E+00  0.0000E+00  0.0000E+00  0.0000E+00  0.0000E+00  0.0000E+00  0.0000E+00  0.0000E+00
    -11.396  0.0000E+00  0.0000E+00  0.0000E+00  0.0000E+00  0.0000E+00  0.0000E+00  0.0000E+00  0.0000E+00  0.0000E+00
    -11.307  0.0000E+00  0.0000E+00  0.0000E+00  0.0000E+00  0.0000E+00  0.0000E+00  0.0000E+00  0.0000E+00  0.0000E+00
    -11.219  0.0000E+00  0.0000E+00  0.0000E+00  0.0000E+00  0.0000E+00  0.0000E+00  0.0000E+00  0.0000E+00  0.0000E+00
    -11.131  0.0000E+00  0.0000E+00  0.0000E+00  0.0000E+00  0.0000E+00  0.0000E+00  0.0000E+00  0.0000E+00  0.0000E+00
    -11.043  0.0000E+00  0.0000E+00  0.0000E+00  0.0000E+00  0.0000E+00  0.0000E+00  0.0000E+00  0.0000E+00  0.0000E+00
    -10.954  0.0000E+00  0.0000E+00  0.0000E+00  0.0000E+00  0.0000E+00  0.0000E+00  0.0000E+00  0.0000E+00  0.0000E+00
    -10.866  0.0000E+00  0.0000E+00  0.0000E+00  0.0000E+00  0.0000E+00  0.0000E+00  0.0000E+00  0.0000E+00  0.0000E+00
    -10.778  0.0000E+00  0.0000E+00  0.0000E+00  0.0000E+00  0.0000E+00  0.0000E+00  0.0000E+00  0.0000E+00  0.0000E+00
    -10.690  0.0000E+00  0.0000E+00  0.0000E+00  0.0000E+00  0.0000E+00  0.0000E+00  0.0000E+00  0.0000E+00  0.0000E+00
    -10.601  0.0000E+00  0.0000E+00  0.0000E+00  0.0000E+00  0.0000E+00  0.0000E+00  0.0000E+00  0.0000E+00  0.0000E+00
    -10.513  0.0000E+00  0.0000E+00  0.0000E+00  0.0000E+00  0.0000E+00  0.0000E+00  0.0000E+00  0.0000E+00  0.0000E+00
    -10.425  0.0000E+00  0.0000E+00  0.0000E+00  0.0000E+00  0.0000E+00  0.0000E+00  0.0000E+00  0.0000E+00  0.0000E+00
    -10.337  0.0000E+00  0.0000E+00  0.0000E+00  0.0000E+00  0.0000E+00  0.0000E+00  0.0000E+00  0.0000E+00  0.0000E+00
    -10.248  0.0000E+00  0.0000E+00  0.0000E+00  0.0000E+00  0.0000E+00  0.0000E+00  0.0000E+00  0.0000E+00  0.0000E+00
    -10.160  0.0000E+00  0.0000E+00  0.0000E+00  0.0000E+00  0.0000E+00  0.0000E+00  0.0000E+00  0.0000E+00  0.0000E+00
    -10.072  0.0000E+00  0.0000E+00  0.0000E+00  0.0000E+00  0.0000E+00  0.0000E+00  0.0000E+00  0.0000E+00  0.0000E+00
     -9.984  0.0000E+00  0.0000E+00  0.0000E+00  0.0000E+00  0.0000E+00  0.0000E+00  0.0000E+00  0.0000E+00  0.0000E+00
     -9.896  0.0000E+00  0.0000E+00  0.0000E+00  0.0000E+00  0.0000E+00  0.0000E+00  0.0000E+00  0.0000E+00  0.0000E+00
     -9.807  0.0000E+00  0.0000E+00  0.0000E+00  0.0000E+00  0.0000E+00  0.0000E+00  0.0000E+00  0.0000E+00  0.0000E+00
     -9.719  0.0000E+00  0.0000E+00  0.0000E+00  0.0000E+00  0.0000E+00  0.0000E+00  0.0000E+00  0.0000E+00  0.0000E+00
     -9.631  0.0000E+00  0.0000E+00  0.0000E+00  0.0000E+00  0.0000E+00  0.0000E+00  0.0000E+00  0.0000E+00  0.0000E+00
     -9.543  0.0000E+00  0.0000E+00  0.0000E+00  0.0000E+00  0.0000E+00  0.0000E+00  0.0000E+00  0.0000E+00  0.0000E+00
     -9.454  0.0000E+00  0.0000E+00  0.0000E+00  0.0000E+00  0.0000E+00  0.0000E+00  0.0000E+00  0.0000E+00  0.0000E+00
     -9.366  0.0000E+00  0.0000E+00  0.0000E+00  0.0000E+00  0.0000E+00  0.0000E+00  0.0000E+00  0.0000E+00  0.0000E+00
     -9.278  0.0000E+00  0.0000E+00  0.0000E+00  0.0000E+00  0.0000E+00  0.0000E+00  0.0000E+00  0.0000E+00  0.0000E+00
     -9.190  0.0000E+00  0.0000E+00  0.0000E+00  0.0000E+00  0.0000E+00  0.0000E+00  0.0000E+00  0.0000E+00  0.0000E+00
     -9.101  0.0000E+00  0.0000E+00  0.0000E+00  0.0000E+00  0.0000E+00  0.0000E+00  0.0000E+00  0.0000E+00  0.0000E+00
     -9.013  0.0000E+00  0.0000E+00  0.0000E+00  0.0000E+00  0.0000E+00  0.0000E+00  0.0000E+00  0.0000E+00  0.0000E+00
     -8.925  0.0000E+00  0.0000E+00  0.0000E+00  0.0000E+00  0.0000E+00  0.0000E+00  0.0000E+00  0.0000E+00  0.0000E+00
     -8.837  0.0000E+00  0.0000E+00  0.0000E+00  0.0000E+00  0.0000E+00  0.0000E+00  0.0000E+00  0.0000E+00  0.0000E+00
     -8.748  0.0000E+00  0.0000E+00  0.0000E+00  0.0000E+00  0.0000E+00  0.0000E+00  0.0000E+00  0.0000E+00  0.0000E+00
     -8.660  0.0000E+00  0.0000E+00  0.0000E+00  0.0000E+00  0.0000E+00  0.0000E+00  0.0000E+00  0.0000E+00  0.0000E+00
     -8.572  0.0000E+00  0.0000E+00  0.0000E+00  0.0000E+00  0.0000E+00  0.0000E+00  0.0000E+00  0.0000E+00  0.0000E+00
     -8.484  0.0000E+00  0.0000E+00  0.0000E+00  0.0000E+00  0.0000E+00  0.0000E+00  0.0000E+00  0.0000E+00  0.0000E+00
     -8.395  0.0000E+00  0.0000E+00  0.0000E+00  0.0000E+00  0.0000E+00  0.0000E+00  0.0000E+00  0.0000E+00  0.0000E+00
     -8.307  0.0000E+00  0.0000E+00  0.0000E+00  0.0000E+00  0.0000E+00  0.0000E+00  0.0000E+00  0.0000E+00  0.0000E+00
     -8.219  0.0000E+00  0.0000E+00  0.0000E+00  0.0000E+00  0.0000E+00  0.0000E+00  0.0000E+00  0.0000E+00  0.0000E+00
     -8.131  0.0000E+00  0.0000E+00  0.0000E+00  0.0000E+00  0.0000E+00  0.0000E+00  0.0000E+00  0.0000E+00  0.0000E+00
     -8.042  0.0000E+00  0.0000E+00  0.0000E+00  0.0000E+00  0.0000E+00  0.0000E+00  0.0000E+00  0.0000E+00  0.0000E+00
     -7.954  0.0000E+00  0.0000E+00  0.0000E+00  0.0000E+00  0.0000E+00  0.0000E+00  0.0000E+00  0.0000E+00  0.0000E+00
     -7.866  0.0000E+00  0.0000E+00  0.0000E+00  0.0000E+00  0.0000E+00  0.0000E+00  0.0000E+00  0.0000E+00  0.0000E+00
     -7.778  0.0000E+00  0.0000E+00  0.0000E+00  0.0000E+00  0.0000E+00  0.0000E+00  0.0000E+00  0.0000E+00  0.0000E+00
     -7.689  0.0000E+00  0.0000E+00  0.0000E+00  0.0000E+00  0.0000E+00  0.0000E+00  0.0000E+00  0.0000E+00  0.0000E+00
     -7.601  0.0000E+00  0.0000E+00  0.0000E+00  0.0000E+00  0.0000E+00  0.0000E+00  0.0000E+00  0.0000E+00  0.0000E+00
     -7.513  0.0000E+00  0.0000E+00  0.0000E+00  0.0000E+00  0.0000E+00  0.0000E+00  0.0000E+00  0.0000E+00  0.0000E+00
     -7.425  0.0000E+00  0.0000E+00  0.0000E+00  0.0000E+00  0.0000E+00  0.0000E+00  0.0000E+00  0.0000E+00  0.0000E+00
     -7.336  0.0000E+00  0.0000E+00  0.0000E+00  0.0000E+00  0.0000E+00  0.0000E+00  0.0000E+00  0.0000E+00  0.0000E+00
     -7.248  0.0000E+00  0.0000E+00  0.0000E+00  0.0000E+00  0.0000E+00  0.0000E+00  0.0000E+00  0.0000E+00  0.0000E+00
     -7.160  0.0000E+00  0.0000E+00  0.0000E+00  0.0000E+00  0.0000E+00  0.0000E+00  0.0000E+00  0.0000E+00  0.0000E+00
     -7.072  0.0000E+00  0.0000E+00  0.0000E+00  0.0000E+00  0.0000E+00  0.0000E+00  0.0000E+00  0.0000E+00  0.0000E+00
     -6.983  0.0000E+00  0.0000E+00  0.0000E+00  0.0000E+00  0.0000E+00  0.0000E+00  0.0000E+00  0.0000E+00  0.0000E+00
     -6.895  0.0000E+00  0.0000E+00  0.0000E+00  0.0000E+00  0.0000E+00  0.0000E+00  0.0000E+00  0.0000E+00  0.0000E+00
     -6.807  0.0000E+00  0.0000E+00  0.0000E+00  0.0000E+00  0.0000E+00  0.0000E+00  0.0000E+00  0.0000E+00  0.0000E+00
     -6.719  0.0000E+00  0.0000E+00  0.0000E+00  0.0000E+00  0.0000E+00  0.0000E+00  0.0000E+00  0.0000E+00  0.0000E+00
     -6.630  0.0000E+00  0.0000E+00  0.0000E+00  0.0000E+00  0.0000E+00  0.0000E+00  0.0000E+00  0.0000E+00  0.0000E+00
     -6.542  0.0000E+00  0.0000E+00  0.0000E+00  0.0000E+00  0.0000E+00  0.0000E+00  0.0000E+00  0.0000E+00  0.0000E+00
     -6.454  0.0000E+00  0.0000E+00  0.0000E+00  0.0000E+00  0.0000E+00  0.0000E+00  0.0000E+00  0.0000E+00  0.0000E+00
     -6.366  0.0000E+00  0.0000E+00  0.0000E+00  0.0000E+00  0.0000E+00  0.0000E+00  0.0000E+00  0.0000E+00  0.0000E+00
     -6.277  0.0000E+00  0.0000E+00  0.0000E+00  0.0000E+00  0.0000E+00  0.0000E+00  0.0000E+00  0.0000E+00  0.0000E+00
     -6.189  0.0000E+00  0.0000E+00  0.0000E+00  0.0000E+00  0.0000E+00  0.0000E+00  0.0000E+00  0.0000E+00  0.0000E+00
     -6.101  0.0000E+00  0.0000E+00  0.0000E+00  0.0000E+00  0.0000E+00  0.0000E+00  0.0000E+00  0.0000E+00  0.0000E+00
     -6.013  0.0000E+00  0.0000E+00  0.0000E+00  0.0000E+00  0.0000E+00  0.0000E+00  0.0000E+00  0.0000E+00  0.0000E+00
     -5.924  0.0000E+00  0.0000E+00  0.0000E+00  0.0000E+00  0.0000E+00  0.0000E+00  0.0000E+00  0.0000E+00  0.0000E+00
     -5.836  0.0000E+00  0.0000E+00  0.0000E+00  0.0000E+00  0.0000E+00  0.0000E+00  0.0000E+00  0.0000E+00  0.0000E+00
     -5.748  0.0000E+00  0.0000E+00  0.0000E+00  0.0000E+00  0.0000E+00  0.0000E+00  0.0000E+00  0.0000E+00  0.0000E+00
     -5.660  0.0000E+00  0.0000E+00  0.0000E+00  0.0000E+00  0.0000E+00  0.0000E+00  0.0000E+00  0.0000E+00  0.0000E+00
     -5.571  0.0000E+00  0.0000E+00  0.0000E+00  0.0000E+00  0.0000E+00  0.0000E+00  0.0000E+00  0.0000E+00  0.0000E+00
     -5.483  0.0000E+00  0.0000E+00  0.0000E+00  0.0000E+00  0.0000E+00  0.0000E+00  0.0000E+00  0.0000E+00  0.0000E+00
     -5.395  0.0000E+00  0.0000E+00  0.0000E+00  0.0000E+00  0.0000E+00  0.0000E+00  0.0000E+00  0.0000E+00  0.0000E+00
     -5.307  0.0000E+00  0.0000E+00  0.0000E+00  0.0000E+00  0.0000E+00  0.0000E+00  0.0000E+00  0.0000E+00  0.0000E+00
     -5.218  0.0000E+00  0.0000E+00  0.0000E+00  0.0000E+00  0.0000E+00  0.0000E+00  0.0000E+00  0.0000E+00  0.0000E+00
     -5.130  0.0000E+00  0.0000E+00  0.0000E+00  0.0000E+00  0.0000E+00  0.0000E+00  0.0000E+00  0.0000E+00  0.0000E+00
     -5.042  0.0000E+00  0.0000E+00  0.0000E+00  0.0000E+00  0.0000E+00  0.0000E+00  0.0000E+00  0.0000E+00  0.0000E+00
     -4.954  0.0000E+00  0.0000E+00  0.0000E+00  0.0000E+00  0.0000E+00  0.0000E+00  0.0000E+00  0.0000E+00  0.0000E+00
     -4.865  0.0000E+00  0.0000E+00  0.0000E+00  0.0000E+00  0.0000E+00  0.0000E+00  0.0000E+00  0.0000E+00  0.0000E+00
     -4.777  0.0000E+00  0.0000E+00  0.0000E+00  0.0000E+00  0.0000E+00  0.0000E+00  0.0000E+00  0.0000E+00  0.0000E+00
     -4.689  0.0000E+00  0.0000E+00  0.0000E+00  0.0000E+00  0.0000E+00  0.0000E+00  0.0000E+00  0.0000E+00  0.0000E+00
     -4.601  0.0000E+00  0.0000E+00  0.0000E+00  0.0000E+00  0.0000E+00  0.0000E+00  0.0000E+00  0.0000E+00  0.0000E+00
     -4.512  0.0000E+00  0.0000E+00  0.0000E+00  0.0000E+00  0.0000E+00  0.0000E+00  0.0000E+00  0.0000E+00  0.0000E+00
     -4.424  0.0000E+00  0.0000E+00  0.0000E+00  0.0000E+00  0.0000E+00  0.0000E+00  0.0000E+00  0.0000E+00  0.0000E+00
     -4.336  0.0000E+00  0.0000E+00  0.0000E+00  0.0000E+00  0.0000E+00  0.0000E+00  0.0000E+00  0.0000E+00  0.0000E+00
     -4.248  0.0000E+00  0.0000E+00  0.0000E+00  0.0000E+00  0.0000E+00  0.0000E+00  0.0000E+00  0.0000E+00  0.0000E+00
     -4.159  0.0000E+00  0.0000E+00  0.0000E+00  0.0000E+00  0.0000E+00  0.0000E+00  0.0000E+00  0.0000E+00  0.0000E+00
     -4.071  0.0000E+00  0.0000E+00  0.0000E+00  0.0000E+00  0.0000E+00  0.0000E+00  0.0000E+00  0.0000E+00  0.0000E+00
     -3.983  0.0000E+00  0.0000E+00  0.0000E+00  0.0000E+00  0.0000E+00  0.0000E+00  0.0000E+00  0.0000E+00  0.0000E+00
     -3.895  0.8999E-15  0.2688E-15  0.5685E-17  0.2688E-15  0.0000E+00  0.0000E+00  0.0000E+00  0.0000E+00  0.0000E+00
     -3.806  0.9220E-11  0.2754E-11  0.5825E-13  0.2754E-11  0.0000E+00  0.0000E+00  0.0000E+00  0.0000E+00  0.0000E+00
     -3.718  0.2055E-07  0.6139E-08  0.1299E-09  0.6139E-08  0.0000E+00  0.0000E+00  0.0000E+00  0.0000E+00  0.0000E+00
     -3.630  0.1009E-04  0.3014E-05  0.6375E-07  0.3014E-05  0.0000E+00  0.0000E+00  0.0000E+00  0.0000E+00  0.0000E+00