    8    8    1    1
  0.1867057E+02  0.4211200E-09  0.4211200E-09  0.8422400E-09  0.5000000E-15
  1.000000000000000E-004
  CAR 
 Au, FCC                                 
   32    1   21
 
  0.2500000E+00  0.2500000E+00  0.0000000E+00  0.1000000E+01
   1      -16.193244
   2      -15.573482
   3      -15.468103
   4      -15.468103
   5       -3.336614
   6       -3.336615
   7       -2.688592
   8       -2.678338
   9       -1.536788
  10       -1.536788
  11       -1.531466
  12       -0.732447
  13       -0.732447
  14       -0.692035
  15       -0.487091
  16       -0.188140
  17        3.982227
  18        5.655238
  19        7.184619
  20        7.184652
  21        7.874551
