       N       E                     dE             d eps       ncg     rms          rms(c)
DAV:   1     0.180291318187E+03    0.18029E+03   -0.11257E+04    42   0.920E+02
DAV:   2    -0.326093501175E+02   -0.21290E+03   -0.19936E+03    60   0.247E+02
DAV:   3    -0.554030875059E+02   -0.22794E+02   -0.22496E+02    47   0.905E+01
DAV:   4    -0.557814126656E+02   -0.37833E+00   -0.37785E+00    52   0.132E+01
DAV:   5    -0.557906373951E+02   -0.92247E-02   -0.92243E-02    47   0.197E+00    0.149E+01
RMM:   6    -0.475985018232E+02    0.81921E+01   -0.35145E+01    52   0.313E+01    0.501E+00
RMM:   7    -0.470887908023E+02    0.50971E+00   -0.70082E-01    50   0.423E+00    0.330E+00
RMM:   8    -0.466841365146E+02    0.40465E+00   -0.10215E+00    48   0.660E+00    0.923E-01
RMM:   9    -0.467224533937E+02   -0.38317E-01   -0.95264E-01    50   0.459E+00    0.165E+00
RMM:  10    -0.466588613203E+02    0.63592E-01   -0.29737E-01    46   0.291E+00    0.218E-01
RMM:  11    -0.466720778309E+02   -0.13217E-01   -0.85460E-02    43   0.159E+00    0.565E-01
RMM:  12    -0.466635789961E+02    0.84988E-02   -0.48235E-02    43   0.120E+00    0.748E-02
RMM:  13    -0.466633356354E+02    0.24336E-03   -0.10416E-03    40   0.208E-01    0.162E-02
RMM:  14    -0.466633408697E+02   -0.52343E-05   -0.43870E-04    38   0.114E-01
   1 F= -.46663341E+02 E0= -.46663341E+02  d E =-.281375E-13
