PROCAR lm decomposed
# of k-points:    1         # of bands:  21         # of ions:   8

 k-point    1 :    0.25000000 0.25000000 0.00000000     weight = 1.00000000

band   1 # energy  -16.19324441 # occ.  2.00000000
 
ion      s     py     pz     px    dxy    dyz    dz2    dxz    dx2    tot
  1  0.005  0.001  0.000  0.001  0.000  0.000  0.000  0.000  0.000  0.007
  2  0.005  0.001  0.000  0.001  0.000  0.000  0.000  0.000  0.000  0.007
  3  0.005  0.001  0.000  0.001  0.000  0.000  0.000  0.000  0.000  0.007
  4  0.005  0.001  0.000  0.001  0.000  0.000  0.000  0.000  0.000  0.007
  5  0.185  0.000  0.000  0.000  0.000  0.000  0.000  0.000  0.000  0.185
  6  0.185  0.000  0.000  0.000  0.000  0.000  0.000  0.000  0.000  0.185
  7  0.185  0.000  0.000  0.000  0.000  0.000  0.000  0.000  0.000  0.185
  8  0.185  0.000  0.000  0.000  0.000  0.000  0.000  0.000  0.000  0.185
tot  0.760  0.003  0.003  0.003  0.000  0.000  0.000  0.000  0.000  0.769
 
band   2 # energy  -15.57348209 # occ.  2.00000000
 
ion      s     py     pz     px    dxy    dyz    dz2    dxz    dx2    tot
  1  0.001  0.001  0.000  0.001  0.000  0.000  0.000  0.000  0.000  0.003
  2  0.001  0.001  0.000  0.001  0.000  0.000  0.000  0.000  0.000  0.003
  3  0.001  0.001  0.000  0.001  0.000  0.000  0.000  0.000  0.000  0.003
  4  0.001  0.001  0.000  0.001  0.000  0.000  0.000  0.000  0.000  0.003
  5  0.198  0.000  0.000  0.000  0.000  0.000  0.000  0.000  0.000  0.198
  6  0.198  0.000  0.000  0.000  0.000  0.000  0.000  0.000  0.000  0.198
  7  0.198  0.000  0.000  0.000  0.000  0.000  0.000  0.000  0.000  0.198
  8  0.198  0.000  0.000  0.000  0.000  0.000  0.000  0.000  0.000  0.198
tot  0.798  0.003  0.002  0.003  0.000  0.000  0.000  0.000  0.000  0.806
 
band   3 # energy  -15.46810261 # occ.  2.00000000
 
ion      s     py     pz     px    dxy    dyz    dz2    dxz    dx2    tot
  1  0.001  0.000  0.001  0.000  0.000  0.000  0.000  0.000  0.000  0.002
  2  0.000  0.001  0.000  0.001  0.000  0.000  0.000  0.000  0.000  0.003
  3  0.000  0.001  0.000  0.001  0.000  0.000  0.000  0.000  0.000  0.003
  4  0.001  0.000  0.001  0.000  0.000  0.000  0.000  0.000  0.000  0.002
  5  0.336  0.000  0.000  0.000  0.000  0.000  0.000  0.000  0.000  0.336
  6  0.065  0.000  0.000  0.000  0.000  0.000  0.000  0.000  0.000  0.065
  7  0.065  0.000  0.000  0.000  0.000  0.000  0.000  0.000  0.000  0.065
  8  0.336  0.000  0.000  0.000  0.000  0.000  0.000  0.000  0.000  0.336
tot  0.803  0.003  0.002  0.004  0.000  0.000  0.000  0.000  0.000  0.812
 
band   4 # energy  -15.46810261 # occ.  2.00000000
 
ion      s     py     pz     px    dxy    dyz    dz2    dxz    dx2    tot
  1  0.000  0.001  0.000  0.001  0.000  0.000  0.000  0.000  0.000  0.003
  2  0.001  0.000  0.001  0.000  0.000  0.000  0.000  0.000  0.000  0.002
  3  0.001  0.000  0.001  0.000  0.000  0.000  0.000  0.000  0.000  0.002
  4  0.000  0.001  0.000  0.001  0.000  0.000  0.000  0.000  0.000  0.003
  5  0.065  0.000  0.000  0.000  0.000  0.000  0.000  0.000  0.000  0.065
  6  0.336  0.000  0.000  0.000  0.000  0.000  0.000  0.000  0.000  0.336
  7  0.336  0.000  0.000  0.000  0.000  0.000  0.000  0.000  0.000  0.336
  8  0.065  0.000  0.000  0.000  0.000  0.000  0.000  0.000  0.000  0.065
tot  0.803  0.004  0.002  0.003  0.000  0.000  0.000  0.000  0.000  0.812
 
band   5 # energy   -3.33661450 # occ.  2.00000000
 
ion      s     py     pz     px    dxy    dyz    dz2    dxz    dx2    tot
  1  0.005  0.004  0.000  0.000  0.000  0.000  0.000  0.000  0.000  0.009
  2  0.022  0.008  0.000  0.004  0.000  0.000  0.000  0.000  0.000  0.033
  3  0.022  0.008  0.000  0.004  0.000  0.000  0.000  0.000  0.000  0.033
  4  0.005  0.004  0.000  0.000  0.000  0.000  0.000  0.000  0.000  0.009
  5  0.000  0.107  0.003  0.065  0.000  0.000  0.000  0.000  0.000  0.175
  6  0.002  0.046  0.015  0.004  0.000  0.000  0.000  0.000  0.000  0.067
  7  0.002  0.046  0.015  0.004  0.000  0.000  0.000  0.000  0.000  0.067
  8  0.000  0.107  0.003  0.065  0.000  0.000  0.000  0.000  0.000  0.175
tot  0.059  0.331  0.036  0.144  0.000  0.000  0.000  0.000  0.000  0.569
 
band   6 # energy   -3.33661450 # occ.  2.00000000
 
ion      s     py     pz     px    dxy    dyz    dz2    dxz    dx2    tot
  1  0.022  0.004  0.000  0.008  0.000  0.000  0.000  0.000  0.000  0.033
  2  0.005  0.000  0.000  0.004  0.000  0.000  0.000  0.000  0.000  0.009
  3  0.005  0.000  0.000  0.004  0.000  0.000  0.000  0.000  0.000  0.009
  4  0.022  0.004  0.000  0.008  0.000  0.000  0.000  0.000  0.000  0.033
  5  0.002  0.004  0.015  0.046  0.000  0.000  0.000  0.000  0.000  0.067
  6  0.000  0.065  0.003  0.107  0.000  0.000  0.000  0.000  0.000  0.175
  7  0.000  0.065  0.003  0.107  0.000  0.000  0.000  0.000  0.000  0.175
  8  0.002  0.004  0.015  0.046  0.000  0.000  0.000  0.000  0.000  0.067
tot  0.059  0.144  0.036  0.331  0.000  0.000  0.000  0.000  0.000  0.569
 
band   7 # energy   -2.68859235 # occ.  2.00000000
 
ion      s     py     pz     px    dxy    dyz    dz2    dxz    dx2    tot
  1  0.017  0.002  0.000  0.002  0.000  0.000  0.000  0.000  0.000  0.021
  2  0.017  0.002  0.000  0.002  0.000  0.000  0.000  0.000  0.000  0.021
  3  0.017  0.002  0.000  0.002  0.000  0.000  0.000  0.000  0.000  0.021
  4  0.017  0.002  0.000  0.002  0.000  0.000  0.000  0.000  0.000  0.021
  5  0.001  0.052  0.021  0.052  0.000  0.000  0.000  0.000  0.000  0.126
  6  0.001  0.052  0.021  0.052  0.000  0.000  0.000  0.000  0.000  0.126
  7  0.001  0.052  0.021  0.052  0.000  0.000  0.000  0.000  0.000  0.126
  8  0.001  0.052  0.021  0.052  0.000  0.000  0.000  0.000  0.000  0.126
tot  0.072  0.215  0.085  0.215  0.000  0.000  0.000  0.000  0.000  0.588
 
band   8 # energy   -2.67833757 # occ.  2.00000000
 
ion      s     py     pz     px    dxy    dyz    dz2    dxz    dx2    tot
  1  0.011  0.000  0.005  0.000  0.000  0.000  0.000  0.000  0.000  0.017
  2  0.011  0.000  0.005  0.000  0.000  0.000  0.000  0.000  0.000  0.017
  3  0.011  0.000  0.005  0.000  0.000  0.000  0.000  0.000  0.000  0.017
  4  0.011  0.000  0.005  0.000  0.000  0.000  0.000  0.000  0.000  0.017
  5  0.007  0.021  0.080  0.021  0.000  0.000  0.000  0.000  0.000  0.129
  6  0.007  0.021  0.080  0.021  0.000  0.000  0.000  0.000  0.000  0.129
  7  0.007  0.021  0.080  0.021  0.000  0.000  0.000  0.000  0.000  0.129
  8  0.007  0.021  0.080  0.021  0.000  0.000  0.000  0.000  0.000  0.129
tot  0.070  0.086  0.341  0.086  0.000  0.000  0.000  0.000  0.000  0.584
 
band   9 # energy   -1.53678805 # occ.  2.00000000
 
ion      s     py     pz     px    dxy    dyz    dz2    dxz    dx2    tot
  1  0.003  0.001  0.000  0.001  0.000  0.000  0.000  0.000  0.000  0.005
  2  0.000  0.008  0.000  0.008  0.000  0.000  0.000  0.000  0.000  0.016
  3  0.000  0.008  0.000  0.008  0.000  0.000  0.000  0.000  0.000  0.016
  4  0.003  0.001  0.000  0.001  0.000  0.000  0.000  0.000  0.000  0.005
  5  0.001  0.134  0.024  0.107  0.000  0.000  0.000  0.000  0.000  0.266
  6  0.000  0.031  0.003  0.004  0.000  0.000  0.000  0.000  0.000  0.038
  7  0.000  0.031  0.003  0.004  0.000  0.000  0.000  0.000  0.000  0.038
  8  0.001  0.134  0.024  0.107  0.000  0.000  0.000  0.000  0.000  0.266
tot  0.008  0.349  0.053  0.239  0.000  0.000  0.000  0.000  0.000  0.649
 
band  10 # energy   -1.53678805 # occ.  2.00000000
 
ion      s     py     pz     px    dxy    dyz    dz2    dxz    dx2    tot
  1  0.000  0.008  0.000  0.008  0.000  0.000  0.000  0.000  0.000  0.016
  2  0.003  0.001  0.000  0.001  0.000  0.000  0.000  0.000  0.000  0.005
  3  0.003  0.001  0.000  0.001  0.000  0.000  0.000  0.000  0.000  0.005
  4  0.000  0.008  0.000  0.008  0.000  0.000  0.000  0.000  0.000  0.016
  5  0.000  0.004  0.003  0.031  0.000  0.000  0.000  0.000  0.000  0.038
  6  0.001  0.107  0.024  0.134  0.000  0.000  0.000  0.000  0.000  0.266
  7  0.001  0.107  0.024  0.134  0.000  0.000  0.000  0.000  0.000  0.266
  8  0.000  0.004  0.003  0.031  0.000  0.000  0.000  0.000  0.000  0.038
tot  0.008  0.239  0.053  0.349  0.000  0.000  0.000  0.000  0.000  0.649
 
band  11 # energy   -1.53146609 # occ.  2.00000000
 
ion      s     py     pz     px    dxy    dyz    dz2    dxz    dx2    tot
  1  0.006  0.001  0.004  0.001  0.000  0.000  0.000  0.000  0.000  0.012
  2  0.006  0.001  0.004  0.001  0.000  0.000  0.000  0.000  0.000  0.012
  3  0.006  0.001  0.004  0.001  0.000  0.000  0.000  0.000  0.000  0.012
  4  0.006  0.001  0.004  0.001  0.000  0.000  0.000  0.000  0.000  0.012
  5  0.001  0.046  0.046  0.046  0.000  0.000  0.000  0.000  0.000  0.140
  6  0.001  0.046  0.046  0.046  0.000  0.000  0.000  0.000  0.000  0.140
  7  0.001  0.046  0.046  0.046  0.000  0.000  0.000  0.000  0.000  0.140
  8  0.001  0.046  0.046  0.046  0.000  0.000  0.000  0.000  0.000  0.140
tot  0.032  0.187  0.203  0.187  0.000  0.000  0.000  0.000  0.000  0.608
 
band  12 # energy   -0.73244654 # occ.  2.00000000
 
ion      s     py     pz     px    dxy    dyz    dz2    dxz    dx2    tot
  1  0.000  0.001  0.005  0.001  0.000  0.000  0.000  0.000  0.000  0.007
  2  0.000  0.001  0.001  0.000  0.000  0.000  0.000  0.000  0.000  0.002
  3  0.000  0.001  0.001  0.000  0.000  0.000  0.000  0.000  0.000  0.002
  4  0.000  0.001  0.005  0.001  0.000  0.000  0.000  0.000  0.000  0.007
  5  0.000  0.019  0.230  0.002  0.000  0.000  0.000  0.000  0.000  0.251
  6  0.000  0.027  0.039  0.010  0.000  0.000  0.000  0.000  0.000  0.076
  7  0.000  0.027  0.039  0.010  0.000  0.000  0.000  0.000  0.000  0.076
  8  0.000  0.019  0.230  0.002  0.000  0.000  0.000  0.000  0.000  0.251
tot  0.002  0.095  0.550  0.024  0.000  0.000  0.000  0.000  0.000  0.671
 
band  13 # energy   -0.73244654 # occ.  2.00000000
 
ion      s     py     pz     px    dxy    dyz    dz2    dxz    dx2    tot
  1  0.000  0.000  0.001  0.001  0.000  0.000  0.000  0.000  0.000  0.002
  2  0.000  0.001  0.005  0.001  0.000  0.000  0.000  0.000  0.000  0.007
  3  0.000  0.001  0.005  0.001  0.000  0.000  0.000  0.000  0.000  0.007
  4  0.000  0.000  0.001  0.001  0.000  0.000  0.000  0.000  0.000  0.002
  5  0.000  0.010  0.039  0.027  0.000  0.000  0.000  0.000  0.000  0.076
  6  0.000  0.002  0.230  0.019  0.000  0.000  0.000  0.000  0.000  0.251
  7  0.000  0.002  0.230  0.019  0.000  0.000  0.000  0.000  0.000  0.251
  8  0.000  0.010  0.039  0.027  0.000  0.000  0.000  0.000  0.000  0.076
tot  0.002  0.024  0.550  0.095  0.000  0.000  0.000  0.000  0.000  0.671
 
band  14 # energy   -0.69203507 # occ.  2.00000000
 
ion      s     py     pz     px    dxy    dyz    dz2    dxz    dx2    tot
  1  0.000  0.003  0.000  0.003  0.000  0.000  0.000  0.000  0.000  0.006
  2  0.000  0.003  0.000  0.003  0.000  0.000  0.000  0.000  0.000  0.006
  3  0.000  0.003  0.000  0.003  0.000  0.000  0.000  0.000  0.000  0.006
  4  0.000  0.003  0.000  0.003  0.000  0.000  0.000  0.000  0.000  0.006
  5  0.000  0.086  0.000  0.086  0.000  0.000  0.000  0.000  0.000  0.173
  6  0.000  0.086  0.000  0.086  0.000  0.000  0.000  0.000  0.000  0.173
  7  0.000  0.086  0.000  0.086  0.000  0.000  0.000  0.000  0.000  0.173
  8  0.000  0.086  0.000  0.086  0.000  0.000  0.000  0.000  0.000  0.173
tot  0.000  0.356  0.000  0.356  0.000  0.000  0.000  0.000  0.000  0.713
 
band  15 # energy   -0.48709101 # occ.  2.00000000
 
ion      s     py     pz     px    dxy    dyz    dz2    dxz    dx2    tot
  1  0.000  0.001  0.000  0.001  0.000  0.000  0.000  0.000  0.000  0.002
  2  0.000  0.001  0.000  0.001  0.000  0.000  0.000  0.000  0.000  0.002
  3  0.000  0.001  0.000  0.001  0.000  0.000  0.000  0.000  0.000  0.002
  4  0.000  0.001  0.000  0.001  0.000  0.000  0.000  0.000  0.000  0.002
  5  0.000  0.017  0.129  0.017  0.000  0.000  0.000  0.000  0.000  0.163
  6  0.000  0.017  0.129  0.017  0.000  0.000  0.000  0.000  0.000  0.163
  7  0.000  0.017  0.129  0.017  0.000  0.000  0.000  0.000  0.000  0.163
  8  0.000  0.017  0.129  0.017  0.000  0.000  0.000  0.000  0.000  0.163
tot  0.003  0.072  0.514  0.072  0.000  0.000  0.000  0.000  0.000  0.661
 
band  16 # energy   -0.18813956 # occ.  2.00000000
 
ion      s     py     pz     px    dxy    dyz    dz2    dxz    dx2    tot
  1  0.000  0.001  0.000  0.001  0.000  0.000  0.000  0.000  0.000  0.003
  2  0.000  0.001  0.000  0.001  0.000  0.000  0.000  0.000  0.000  0.003
  3  0.000  0.001  0.000  0.001  0.000  0.000  0.000  0.000  0.000  0.003
  4  0.000  0.001  0.000  0.001  0.000  0.000  0.000  0.000  0.000  0.003
  5  0.000  0.091  0.000  0.091  0.000  0.000  0.000  0.000  0.000  0.183
  6  0.000  0.091  0.000  0.091  0.000  0.000  0.000  0.000  0.000  0.183
  7  0.000  0.091  0.000  0.091  0.000  0.000  0.000  0.000  0.000  0.183
  8  0.000  0.091  0.000  0.091  0.000  0.000  0.000  0.000  0.000  0.183
tot  0.000  0.370  0.000  0.370  0.000  0.000  0.000  0.000  0.000  0.741
 
band  17 # energy    3.98222713 # occ.  0.00000000
 
ion      s     py     pz     px    dxy    dyz    dz2    dxz    dx2    tot
  1  0.008  0.001  0.001  0.001  0.000  0.000  0.000  0.000  0.000  0.010
  2  0.008  0.001  0.001  0.001  0.000  0.000  0.000  0.000  0.000  0.010
  3  0.008  0.001  0.001  0.001  0.000  0.000  0.000  0.000  0.000  0.010
  4  0.008  0.001  0.001  0.001  0.000  0.000  0.000  0.000  0.000  0.010
  5  0.008  0.008  0.008  0.008  0.000  0.000  0.000  0.000  0.000  0.033
  6  0.008  0.008  0.008  0.008  0.000  0.000  0.000  0.000  0.000  0.033
  7  0.008  0.008  0.008  0.008  0.000  0.000  0.000  0.000  0.000  0.033
  8  0.008  0.008  0.008  0.008  0.000  0.000  0.000  0.000  0.000  0.033
tot  0.065  0.035  0.036  0.035  0.000  0.000  0.000  0.000  0.000  0.171
 
band  18 # energy    5.65523763 # occ.  0.00000000
 
ion      s     py     pz     px    dxy    dyz    dz2    dxz    dx2    tot
  1  0.009  0.001  0.013  0.001  0.000  0.000  0.000  0.000  0.000  0.025
  2  0.009  0.001  0.013  0.001  0.000  0.000  0.000  0.000  0.000  0.025
  3  0.009  0.001  0.013  0.001  0.000  0.000  0.000  0.000  0.000  0.025
  4  0.009  0.001  0.013  0.001  0.000  0.000  0.000  0.000  0.000  0.025
  5  0.009  0.002  0.028  0.002  0.000  0.000  0.000  0.000  0.000  0.042
  6  0.009  0.002  0.028  0.002  0.000  0.000  0.000  0.000  0.000  0.042
  7  0.009  0.002  0.028  0.002  0.000  0.000  0.000  0.000  0.000  0.042
  8  0.009  0.002  0.028  0.002  0.000  0.000  0.000  0.000  0.000  0.042
tot  0.074  0.015  0.165  0.015  0.000  0.000  0.000  0.000  0.000  0.268
 
band  19 # energy    7.18461896 # occ.  0.00000000
 
ion      s     py     pz     px    dxy    dyz    dz2    dxz    dx2    tot
  1  0.023  0.000  0.015  0.000  0.000  0.000  0.000  0.000  0.000  0.038
  2  0.008  0.000  0.005  0.000  0.000  0.000  0.000  0.000  0.000  0.014
  3  0.008  0.000  0.005  0.000  0.000  0.000  0.000  0.000  0.000  0.014
  4  0.023  0.000  0.015  0.000  0.000  0.000  0.000  0.000  0.000  0.038
  5  0.000  0.005  0.001  0.002  0.000  0.000  0.000  0.000  0.000  0.009
  6  0.000  0.011  0.001  0.008  0.000  0.000  0.000  0.000  0.000  0.019
  7  0.000  0.011  0.001  0.008  0.000  0.000  0.000  0.000  0.000  0.019
  8  0.000  0.005  0.001  0.002  0.000  0.000  0.000  0.000  0.000  0.009
tot  0.062  0.031  0.044  0.021  0.000  0.000  0.000  0.000  0.000  0.159
 
band  20 # energy    7.18465190 # occ.  0.00000000
 
ion      s     py     pz     px    dxy    dyz    dz2    dxz    dx2    tot
  1  0.008  0.000  0.005  0.000  0.000  0.000  0.000  0.000  0.000  0.014
  2  0.022  0.000  0.015  0.000  0.000  0.000  0.000  0.000  0.000  0.038
  3  0.022  0.000  0.015  0.000  0.000  0.000  0.000  0.000  0.000  0.038
  4  0.008  0.000  0.005  0.000  0.000  0.000  0.000  0.000  0.000  0.014
  5  0.000  0.008  0.001  0.011  0.000  0.000  0.000  0.000  0.000  0.019
  6  0.000  0.002  0.001  0.005  0.000  0.000  0.000  0.000  0.000  0.009
  7  0.000  0.002  0.001  0.005  0.000  0.000  0.000  0.000  0.000  0.009
  8  0.000  0.008  0.001  0.011  0.000  0.000  0.000  0.000  0.000  0.019
tot  0.062  0.021  0.044  0.031  0.000  0.000  0.000  0.000  0.000  0.159
 
band  21 # energy    7.87455127 # occ.  0.00000000
 
ion      s     py     pz     px    dxy    dyz    dz2    dxz    dx2    tot
  1  0.032  0.005  0.000  0.005  0.000  0.000  0.000  0.000  0.000  0.042
  2  0.032  0.005  0.000  0.005  0.000  0.000  0.000  0.000  0.000  0.042
  3  0.032  0.005  0.000  0.005  0.000  0.000  0.000  0.000  0.000  0.042
  4  0.032  0.005  0.000  0.005  0.000  0.000  0.000  0.000  0.000  0.042
  5  0.027  0.009  0.011  0.009  0.000  0.000  0.000  0.000  0.000  0.057
  6  0.027  0.009  0.011  0.009  0.000  0.000  0.000  0.000  0.000  0.057
  7  0.027  0.009  0.011  0.009  0.000  0.000  0.000  0.000  0.000  0.057
  8  0.027  0.009  0.011  0.009  0.000  0.000  0.000  0.000  0.000  0.057
tot  0.235  0.057  0.046  0.057  0.000  0.000  0.000  0.000  0.000  0.395
 
