<?xml version="1.0" encoding="ISO-8859-1"?>
<modeling>
 <generator>
  <i name="program" type="string">vasp </i>
  <i name="version" type="string">5.2.2  </i>
  <i name="subversion" type="string">15Apr09 complex  parallel </i>
  <i name="platform" type="string">LinuxIFC </i>
  <i name="date" type="string">2009 12 03 </i>
  <i name="time" type="string">12:00:29 </i>
 </generator>
 <incar>
  <i type="string" name="SYSTEM"> Au, FCC</i>
  <i type="int" name="ISTART">     0</i>
  <i type="string" name="PREC">normal ! set fft mesh, cutoffs</i>
  <i type="string" name="ALGO"> Fast   ! use fast algorithm for electro</i>
  <i type="int" name="ISPIN">     1</i>
  <i name="EDIFF">      0.00010000</i>
  <i name="ENCUT">    350.00000000</i>
  <i type="int" name="ISMEAR">     0</i>
  <i name="SIGMA">      0.10000000</i>
  <i type="int" name="NWRITE">     1</i>
  <i type="logical" name="LWAVE"> F  </i>
  <i type="logical" name="LCHARG"> T  </i>
  <i type="logical" name="LVTOT"> F  </i>
  <i type="logical" name="LORBIT"> F  </i>
  <i type="logical" name="LPEAD"> F  </i>
  <i type="logical" name="LCALCPOL"> F  </i>
  <i type="logical" name="LCALCEPS"> F  </i>
  <v name="EFIELD_PEAD">      0.00000000      0.00000000      0.00000000</v>
  <i type="logical" name="LEFG"> F  </i>
 </incar>
 <kpoints>
  <generation param="Monkhorst-Pack">
   <v type="int" name="divisions">       2        2        1 </v>
   <v name="usershift">      0.00000000       0.00000000       0.00000000 </v>
   <v name="genvec1">      0.50000000       0.00000000       0.00000000 </v>
   <v name="genvec2">      0.00000000       0.50000000       0.00000000 </v>
   <v name="genvec3">      0.00000000       0.00000000       1.00000000 </v>
   <v name="shift">      0.50000000       0.50000000       0.00000000 </v>
  </generation>
  <varray name="kpointlist" >
   <v>       0.25000000       0.25000000       0.00000000 </v>
  </varray>
  <varray name="weights" >
   <v>       1.00000000 </v>
  </varray>
 </kpoints>
 <parameters>
  <separator name="general" >
   <i type="string" name="SYSTEM">Au, FCC</i>
   <i type="logical" name="LCOMPAT"> F  </i>
  </separator>
  <separator name="electronic" >
   <i type="string" name="PREC">normal</i>
   <i name="ENMAX">    350.00000000</i>
   <i name="ENAUG">    605.39200000</i>
   <i name="EDIFF">      0.00010000</i>
   <i type="int" name="IALGO">    68</i>
   <i type="int" name="IWAVPR">    10</i>
   <i type="int" name="NBANDS">    21</i>
   <i name="NELECT">     32.00000000</i>
   <separator name="electronic smearing" >
    <i type="int" name="ISMEAR">     0</i>
    <i name="SIGMA">      0.10000000</i>
   </separator>
   <separator name="electronic projectors" >
    <i type="logical" name="LREAL"> F  </i>
    <v name="ROPT">      0.00000000      0.00000000</v>
    <i type="int" name="LMAXPAW">  -100</i>
    <i type="int" name="LMAXMIX">     2</i>
   </separator>
   <separator name="electronic startup" >
    <i type="int" name="ISTART">     0</i>
    <i type="int" name="ICHARG">     2</i>
    <i type="int" name="INIWAV">     1</i>
   </separator>
   <separator name="electronic spin" >
    <i type="int" name="ISPIN">     1</i>
    <i type="logical" name="LNONCOLLINEAR"> F  </i>
    <v name="MAGMOM">      1.00000000      1.00000000      1.00000000      1.00000000      1.00000000      1.00000000      1.00000000      1.00000000</v>
    <i name="NUPDOWN">     -1.00000000</i>
    <i type="logical" name="LSORBIT"> F  </i>
    <v name="SAXIS">      0.00000000      0.00000000      1.00000000</v>
    <i type="logical" name="LSPIRAL"> F  </i>
    <v name="QSPIRAL">      0.00000000      0.00000000      0.00000000</v>
    <i type="logical" name="LZEROZ"> F  </i>
   </separator>
   <separator name="electronic exchange-correlation" >
    <i type="logical" name="LASPH"> F  </i>
    <i type="logical" name="LMETAGGA"> F  </i>
   </separator>
   <separator name="electronic convergence" >
    <i type="int" name="NELM">    60</i>
    <i type="int" name="NELMDL">    -5</i>
    <i type="int" name="NELMIN">     2</i>
    <i name="ENINI">    350.00000000</i>
    <separator name="electronic convergence detail" >
     <i type="logical" name="LDIAG"> T  </i>
     <i name="WEIMIN">      0.00000000</i>
     <i name="EBREAK">      0.00000119</i>
     <i name="DEPER">      0.30000000</i>
     <i type="int" name="NRMM">     4</i>
     <i name="TIME">      0.40000000</i>
    </separator>
   </separator>
   <separator name="electronic mixer" >
    <i name="AMIX">      0.40000000</i>
    <i name="BMIX">      1.00000000</i>
    <i name="AMIN">      0.10000000</i>
    <i name="AMIX_MAG">      1.60000000</i>
    <i name="BMIX_MAG">      1.00000000</i>
    <separator name="electronic mixer details" >
     <i type="int" name="IMIX">     4</i>
     <i type="int" name="MAXMIX">   -45</i>
     <i name="WC">    100.00000000</i>
     <i type="int" name="INIMIX">     1</i>
     <i type="int" name="MIXPRE">     1</i>
     <i type="int" name="MREMOVE">     5</i>
    </separator>
   </separator>
   <separator name="electronic dipolcorrection" >
    <i type="logical" name="LDIPOL"> F  </i>
    <i type="logical" name="LMONO"> F  </i>
    <i type="int" name="IDIPOL">     0</i>
    <i name="EPSILON">      1.00000000</i>
    <v name="DIPOL">   -100.00000000   -100.00000000   -100.00000000</v>
    <i name="EFIELD">      0.00000000</i>
   </separator>
  </separator>
  <separator name="grids" >
   <i type="int" name="NGX">    20</i>
   <i type="int" name="NGY">    20</i>
   <i type="int" name="NGZ">    40</i>
   <i type="int" name="NGXF">    40</i>
   <i type="int" name="NGYF">    40</i>
   <i type="int" name="NGZF">    80</i>
   <i type="logical" name="ADDGRID"> F  </i>
  </separator>
  <separator name="ionic" >
   <i type="int" name="NSW">     0</i>
   <i type="int" name="IBRION">    -1</i>
   <i type="int" name="ISIF">     2</i>
   <i name="PSTRESS">      0.00000000</i>
   <i name="EDIFFG">      0.00100000</i>
   <i type="int" name="NFREE">     0</i>
   <i name="POTIM">      0.50000000</i>
   <i name="SMASS">     -3.00000000</i>
  </separator>
  <separator name="ionic md" >
   <i name="TEBEG">      0.00010000</i>
   <i name="TEEND">      0.00010000</i>
   <i type="int" name="NBLOCK">     1</i>
   <i type="int" name="KBLOCK">     1</i>
   <i type="int" name="NPACO">   256</i>
   <i name="APACO">     16.00000000</i>
  </separator>
  <separator name="symmetry" >
   <i type="int" name="ISYM">     2</i>
   <i name="SYMPREC">      0.00001000</i>
  </separator>
  <separator name="dos" >
   <i type="logical" name="LORBIT"> F  </i>
   <v name="RWIGS">     -1.00000000     -1.00000000</v>
   <i type="int" name="NEDOS">   301</i>
   <i name="EMIN">     10.00000000</i>
   <i name="EMAX">    -10.00000000</i>
   <i name="EFERMI">      0.00000000</i>
  </separator>
  <separator name="writing" >
   <i type="int" name="NWRITE">     1</i>
   <i type="logical" name="LWAVE"> F  </i>
   <i type="logical" name="LCHARG"> T  </i>
   <i type="logical" name="LPARD"> F  </i>
   <i type="logical" name="LVTOT"> F  </i>
   <i type="logical" name="LELF"> F  </i>
   <i type="logical" name="LOPTICS"> F  </i>
   <v name="STM">      0.00000000      0.00000000      0.00000000      0.00000000      0.00000000</v>
  </separator>
  <separator name="performance" >
   <i type="int" name="NPAR">     1</i>
   <i type="int" name="NSIM">     4</i>
   <i type="int" name="NBLK">    32</i>
   <i type="logical" name="LPLANE"> T  </i>
   <i type="logical" name="LSCALAPACK"> F  </i>
   <i type="logical" name="LSCAAWARE"> F  </i>
   <i type="logical" name="LSCALU"> F  </i>
   <i type="logical" name="LASYNC"> F  </i>
  </separator>
  <separator name="miscellaneous" >
   <i type="int" name="IDIOT">     3</i>
   <i type="logical" name="LMUSIC"> F  </i>
   <v name="POMASS">     24.30500000     16.00000000</v>
   <i type="logical" name="LCORR"> T  </i>
  </separator>
  <i type="logical" name="LREAL_COMPAT"> F  </i>
  <i type="logical" name="GGA_COMPAT"> T  </i>
  <i type="logical" name="LBERRY"> F  </i>
  <i type="int" name="ICORELEVEL">     0</i>
  <i type="logical" name="LDAU"> F  </i>
  <i type="int" name="I_CONSTRAINED_M">     0</i>
  <separator name="electronic exchange-correlation" >
   <i type="string" name="GGA">--</i>
   <i type="int" name="VOSKOWN">     0</i>
   <i type="logical" name="LHFCALC"> F  </i>
   <i type="logical" name="LHFONE"> F  </i>
   <i type="logical" name="LRHFCALC"> F  </i>
   <i type="logical" name="LTHOMAS"> F  </i>
   <i type="logical" name="LMODELHF"> F  </i>
   <i name="ENCUTFOCK">      0.00000000</i>
   <i name="ENCUT4O">     -1.00000000</i>
   <i type="int" name="EXXOEP">     0</i>
   <i type="int" name="FOURORBIT">     0</i>
   <i name="AEXX">      0.00000000</i>
   <i name="HFALPHA">      0.00000000</i>
   <i name="ALDAX">      1.00000000</i>
   <i name="AGGAX">      1.00000000</i>
   <i name="ALDAC">      1.00000000</i>
   <i name="AGGAC">      1.00000000</i>
   <i type="int" name="NKREDX">     1</i>
   <i type="int" name="NKREDY">     1</i>
   <i type="int" name="NKREDZ">     1</i>
   <i type="logical" name="SHIFTRED"> F  </i>
   <i type="logical" name="ODDONLY"> F  </i>
   <i type="logical" name="EVENONLY"> F  </i>
   <i type="int" name="LMAXFOCK">     0</i>
   <i type="int" name="NMAXFOCKAE">     0</i>
   <i name="HFSCREEN">      0.00000000</i>
   <i name="HFSCREENC">      0.00000000</i>
  </separator>
  <separator name="model GW" >
   <i type="int" name="MODEL_GW">     0</i>
   <i name="MODEL_EPS0">     11.20234289</i>
   <i name="MODEL_ALPHA">      1.00000000</i>
  </separator>
  <separator name="linear response parameters" >
   <i type="logical" name="LEPSILON"> F  </i>
   <i type="logical" name="LRPA"> F  </i>
   <i type="logical" name="LNABLA"> F  </i>
   <i type="logical" name="LVEL"> F  </i>
   <i type="int" name="KINTER">     0</i>
   <i name="CSHIFT">      0.10000000</i>
   <i name="OMEGAMAX">     -1.00000000</i>
  </separator>
  <separator name="orbital magnetization" >
   <i type="logical" name="ORBITALMAG"> F  </i>
   <i type="logical" name="LMAGBLOCH"> F  </i>
   <i type="logical" name="LCHIMAG"> F  </i>
   <i type="logical" name="LGAUGE"> T  </i>
   <i type="int" name="MAGATOM">     0</i>
   <v name="MAGDIPOL">      0.00000000      0.00000000      0.00000000</v>
   <v name="AVECCONST">      0.00000000      0.00000000      0.00000000</v>
  </separator>
  <separator name="response functions" >
   <i type="logical" name="LRPA"> T  </i>
   <i type="logical" name="LTCTE"> F  </i>
   <i type="logical" name="LTETE"> F  </i>
   <i type="logical" name="L2ORDER"> F  </i>
   <i type="logical" name="LGWLF"> F  </i>
   <i name="ENCUTGW">    233.33333333</i>
   <i name="ENCUTGWSOFT">     -2.00000000</i>
   <i name="ENCUTLF">     -1.00000000</i>
   <i type="int" name="LMAXMP2">    -1</i>
   <i name="SCISSOR">      0.00000000</i>
   <i type="int" name="NOMEGA">     0</i>
   <i type="int" name="NOMEGAR">     0</i>
   <i type="int" name="NBANDSGW">    -1</i>
   <i type="int" name="NBANDSLF">    -1</i>
   <i type="int" name="NELM">     1</i>
   <i type="int" name="DIM">     3</i>
   <i type="int" name="ANTIRES">     0</i>
   <i type="logical" name="LUSEW"> F  </i>
   <i name="OMEGAMAX">    -30.00000000</i>
   <i name="OMEGATL">   -200.00000000</i>
   <i type="int" name="OMEGAGRID">     0</i>
   <i name="CSHIFT">     -0.10000000</i>
   <i type="logical" name="SELFENERGY"> F  </i>
   <i type="logical" name="LSPECTRAL"> F  </i>
   <i type="logical" name="ODDONLYGW"> F  </i>
   <i type="logical" name="EVENONLYGW"> F  </i>
   <i type="int" name="NKREDLFX">     1</i>
   <i type="int" name="NKREDLFY">     1</i>
   <i type="int" name="NKREDLFZ">     1</i>
   <i type="int" name="MAXMEM">  1024</i>
   <i type="int" name="TELESCOPE">     0</i>
  </separator>
 </parameters>
 <atominfo>
  <atoms>       8 </atoms>
  <types>       2 </types>
  <array name="atoms" >
   <dimension dim="1">ion</dimension>
   <field type="string">element</field>
   <field type="int">atomtype</field>
   <set>
    <rc><c>Mg</c><c>   1</c></rc>
    <rc><c>Mg</c><c>   1</c></rc>
    <rc><c>Mg</c><c>   1</c></rc>
    <rc><c>Mg</c><c>   1</c></rc>
    <rc><c>O </c><c>   2</c></rc>
    <rc><c>O </c><c>   2</c></rc>
    <rc><c>O </c><c>   2</c></rc>
    <rc><c>O </c><c>   2</c></rc>
   </set>
  </array>
  <array name="atomtypes" >
   <dimension dim="1">type</dimension>
   <field type="int">atomspertype</field>
   <field type="string">element</field>
   <field>mass</field>
   <field>valence</field>
   <field type="string">pseudopotential</field>
   <set>
    <rc><c>   4</c><c>Mg</c><c>     24.30500000</c><c>      2.00000000</c><c> PAW_GGA Mg 05Jan2001                   </c></rc>
    <rc><c>   4</c><c>O </c><c>     16.00000000</c><c>      6.00000000</c><c> PAW_GGA O 05Jan2001                    </c></rc>
   </set>
  </array>
 </atominfo>
 <structure name="initialpos" >
  <crystal>
   <varray name="basis" >
    <v>       4.21120000       0.00000000       0.00000000 </v>
    <v>       0.00000000       4.21120000       0.00000000 </v>
    <v>       0.00000000       0.00000000       8.42240000 </v>
   </varray>
   <i name="volume">    149.36457190 </i>
   <varray name="rec_basis" >
    <v>       0.23746201       0.00000000       0.00000000 </v>
    <v>       0.00000000       0.23746201       0.00000000 </v>
    <v>       0.00000000       0.00000000       0.11873100 </v>
   </varray>
  </crystal>
  <varray name="positions" >
   <v>       0.50000000       0.50000000       0.25000000 </v>
   <v>       0.50000000       0.00000000       0.00000000 </v>
   <v>       0.00000000       0.50000000       0.00000000 </v>
   <v>       0.00000000       0.00000000       0.25000000 </v>
   <v>       0.00000000       0.00000000       0.00000000 </v>
   <v>       0.50000000       0.00000000       0.25000000 </v>
   <v>       0.00000000       0.50000000       0.25000000 </v>
   <v>       0.50000000       0.50000000       0.00000000 </v>
  </varray>
 </structure>
 <calculation>
  <scstep>
   <time name="dav">    0.24    0.24</time>
   <time name="total">    0.53    0.53</time>
   <energy>
    <i name="alphaZ">     12.27720414 </i>
    <i name="ewald">   -283.52554559 </i>
    <i name="hartreedc">  -1409.55647845 </i>
    <i name="XCdc">     79.03353676 </i>
    <i name="pawpsdc">   1031.84001649 </i>
    <i name="pawaedc">   -995.29430929 </i>
    <i name="eentropy">      0.00000000 </i>
    <i name="bandstr">    -77.41347256 </i>
    <i name="atom">   1822.93036668 </i>
    <i name="e_fr_energy">    180.29131819 </i>
    <i name="e_wo_entrp">    180.29131819 </i>
    <i name="e_0_energy">    180.29131819 </i>
   </energy>
  </scstep>
  <scstep>
   <time name="dav">    0.31    0.31</time>
   <time name="total">    0.31    0.31</time>
   <energy>
    <i name="e_fr_energy">    -32.60935012 </i>
    <i name="e_wo_entrp">    -32.60935012 </i>
    <i name="e_0_energy">    -32.60935012 </i>
   </energy>
  </scstep>
  <scstep>
   <time name="dav">    0.26    0.26</time>
   <time name="total">    0.26    0.26</time>
   <energy>
    <i name="e_fr_energy">    -55.40308751 </i>
    <i name="e_wo_entrp">    -55.40308751 </i>
    <i name="e_0_energy">    -55.40308751 </i>
   </energy>
  </scstep>
  <scstep>
   <time name="dav">    0.28    0.28</time>
   <time name="total">    0.28    0.28</time>
   <energy>
    <i name="e_fr_energy">    -55.78141267 </i>
    <i name="e_wo_entrp">    -55.78141267 </i>
    <i name="e_0_energy">    -55.78141267 </i>
   </energy>
  </scstep>
  <scstep>
   <time name="dav">    0.25    0.26</time>
   <time name="total">    0.31    0.31</time>
   <energy>
    <i name="e_fr_energy">    -55.79063740 </i>
    <i name="e_wo_entrp">    -55.79063740 </i>
    <i name="e_0_energy">    -55.79063740 </i>
   </energy>
  </scstep>
  <scstep>
   <time name="diag">    0.05    0.05</time>
   <time name="diis">    0.24    0.24</time>
   <time name="orth">    0.00    0.00</time>
   <time name="total">    0.64    0.64</time>
   <energy>
    <i name="e_fr_energy">    -47.59850182 </i>
    <i name="e_wo_entrp">    -47.59850182 </i>
    <i name="e_0_energy">    -47.59850182 </i>
   </energy>
  </scstep>
  <scstep>
   <time name="diag">    0.05    0.05</time>
   <time name="diis">    0.23    0.23</time>
   <time name="orth">    0.00    0.00</time>
   <time name="total">    0.62    0.62</time>
   <energy>
    <i name="e_fr_energy">    -47.08879080 </i>
    <i name="e_wo_entrp">    -47.08879080 </i>
    <i name="e_0_energy">    -47.08879080 </i>
   </energy>
  </scstep>
  <scstep>
   <time name="diag">    0.05    0.05</time>
   <time name="diis">    0.22    0.22</time>
   <time name="orth">    0.00    0.00</time>
   <time name="total">    0.61    0.61</time>
   <energy>
    <i name="e_fr_energy">    -46.68413651 </i>
    <i name="e_wo_entrp">    -46.68413651 </i>
    <i name="e_0_energy">    -46.68413651 </i>
   </energy>
  </scstep>
  <scstep>
   <time name="diag">    0.05    0.05</time>
   <time name="diis">    0.22    0.22</time>
   <time name="orth">    0.00    0.00</time>
   <time name="total">    0.61    0.61</time>
   <energy>
    <i name="e_fr_energy">    -46.72245339 </i>
    <i name="e_wo_entrp">    -46.72245339 </i>
    <i name="e_0_energy">    -46.72245339 </i>
   </energy>
  </scstep>
  <scstep>
   <time name="diag">    0.04    0.05</time>
   <time name="diis">    0.21    0.21</time>
   <time name="orth">    0.00    0.00</time>
   <time name="total">    0.59    0.59</time>
   <energy>
    <i name="e_fr_energy">    -46.65886132 </i>
    <i name="e_wo_entrp">    -46.65886132 </i>
    <i name="e_0_energy">    -46.65886132 </i>
   </energy>
  </scstep>
  <scstep>
   <time name="diag">    0.04    0.05</time>
   <time name="diis">    0.21    0.21</time>
   <time name="orth">    0.00    0.00</time>
   <time name="total">    0.60    0.61</time>
   <energy>
    <i name="e_fr_energy">    -46.67207783 </i>
    <i name="e_wo_entrp">    -46.67207783 </i>
    <i name="e_0_energy">    -46.67207783 </i>
   </energy>
  </scstep>
  <scstep>
   <time name="diag">    0.05    0.05</time>
   <time name="diis">    0.21    0.21</time>
   <time name="orth">    0.00    0.00</time>
   <time name="total">    0.61    0.61</time>
   <energy>
    <i name="e_fr_energy">    -46.66357900 </i>
    <i name="e_wo_entrp">    -46.66357900 </i>
    <i name="e_0_energy">    -46.66357900 </i>
   </energy>
  </scstep>
  <scstep>
   <time name="diag">    0.05    0.05</time>
   <time name="diis">    0.18    0.19</time>
   <time name="orth">    0.00    0.00</time>
   <time name="total">    0.58    0.58</time>
   <energy>
    <i name="e_fr_energy">    -46.66333564 </i>
    <i name="e_wo_entrp">    -46.66333564 </i>
    <i name="e_0_energy">    -46.66333564 </i>
   </energy>
  </scstep>
  <scstep>
   <time name="diag">    0.05    0.05</time>
   <time name="diis">    0.18    0.18</time>
   <time name="orth">    0.00    0.00</time>
   <time name="total">    0.52    0.52</time>
   <energy>
    <i name="alphaZ">     12.27720414 </i>
    <i name="ewald">   -283.52554559 </i>
    <i name="hartreedc">  -1555.86180093 </i>
    <i name="XCdc">     85.82212178 </i>
    <i name="pawpsdc">   1275.62087466 </i>
    <i name="pawaedc">  -1239.56597849 </i>
    <i name="eentropy">      0.00000000 </i>
    <i name="bandstr">   -164.36058313 </i>
    <i name="atom">   1822.93036668 </i>
    <i name="e_fr_energy">    -46.66334087 </i>
    <i name="e_wo_entrp">    -46.66334087 </i>
    <i name="e_0_energy">    -46.66334087 </i>
   </energy>
  </scstep>
  <structure>
   <crystal>
    <varray name="basis" >
     <v>       4.21120000       0.00000000       0.00000000 </v>
     <v>       0.00000000       4.21120000       0.00000000 </v>
     <v>       0.00000000       0.00000000       8.42240000 </v>
    </varray>
    <i name="volume">    149.36457190 </i>
    <varray name="rec_basis" >
     <v>       0.23746201       0.00000000       0.00000000 </v>
     <v>       0.00000000       0.23746201       0.00000000 </v>
     <v>       0.00000000       0.00000000       0.11873100 </v>
    </varray>
   </crystal>
   <varray name="positions" >
    <v>       0.50000000       0.50000000       0.25000000 </v>
    <v>       0.50000000       0.00000000       0.00000000 </v>
    <v>       0.00000000       0.50000000       0.00000000 </v>
    <v>       0.00000000       0.00000000       0.25000000 </v>
    <v>       0.00000000       0.00000000       0.00000000 </v>
    <v>       0.50000000       0.00000000       0.25000000 </v>
    <v>       0.00000000       0.50000000       0.25000000 </v>
    <v>       0.50000000       0.50000000       0.00000000 </v>
   </varray>
  </structure>
  <varray name="forces" >
   <v>       0.00000000       0.00000000      -0.37231990 </v>
   <v>       0.00000000       0.00000000       0.37231990 </v>
   <v>       0.00000000       0.00000000       0.37231990 </v>
   <v>       0.00000000       0.00000000      -0.37231990 </v>
   <v>       0.00000000       0.00000000      -0.52821012 </v>
   <v>       0.00000000       0.00000000       0.52821012 </v>
   <v>       0.00000000       0.00000000       0.52821012 </v>
   <v>       0.00000000       0.00000000      -0.52821012 </v>
  </varray>
  <varray name="stress" >
   <v>    -141.56753367       0.00000000       0.00000000 </v>
   <v>       0.00000000    -141.56753367       0.00000000 </v>
   <v>       0.00000000       0.00000000     -69.35922923 </v>
  </varray>
  <energy>
   <i name="e_fr_energy">    -46.66334087 </i>
   <i name="e_wo_entrp">    -46.66334087 </i>
   <i name="e_0_energy">      0.00000000 </i>
  </energy>
  <time name="totalsc">    8.33    8.38</time>
  <eigenvalues>
   <array>
    <dimension dim="1">band</dimension>
    <dimension dim="2">kpoint</dimension>
    <dimension dim="3">spin</dimension>
    <field>eigene</field>
    <field>occ</field>
    <set>
     <set comment="spin 1">
      <set comment="kpoint 1">
       <r>  -16.1932    1.0000 </r>
       <r>  -15.5735    1.0000 </r>
       <r>  -15.4681    1.0000 </r>
       <r>  -15.4681    1.0000 </r>
       <r>   -3.3366    1.0000 </r>
       <r>   -3.3366    1.0000 </r>
       <r>   -2.6886    1.0000 </r>
       <r>   -2.6783    1.0000 </r>
       <r>   -1.5368    1.0000 </r>
       <r>   -1.5368    1.0000 </r>
       <r>   -1.5315    1.0000 </r>
       <r>   -0.7324    1.0000 </r>
       <r>   -0.7324    1.0000 </r>
       <r>   -0.6920    1.0000 </r>
       <r>   -0.4871    1.0000 </r>
       <r>   -0.1881    1.0000 </r>
       <r>    3.9822    0.0000 </r>
       <r>    5.6552    0.0000 </r>
       <r>    7.1846    0.0000 </r>
       <r>    7.1847    0.0000 </r>
       <r>    7.8746    0.0000 </r>
      </set>
     </set>
    </set>
   </array>
  </eigenvalues>
  <separator name="orbital magnetization" >
   <v name="MAGDIPOLOUT">      0.00000000      0.00000000      0.00000000</v>
  </separator>
  <dos>
   <i name="efermi">      0.34408899 </i>
   <total>
    <array>
     <dimension dim="1">gridpoints</dimension>
     <dimension dim="2">spin</dimension>
     <field>energy</field>
     <field>total</field>
     <field>integrated</field>
     <set>
      <set comment="spin 1">
       <r> -17.3966   0.0000   0.0000 </r>
       <r> -17.3084   0.0000   0.0000 </r>
       <r> -17.2201   0.0000   0.0000 </r>
       <r> -17.1319   0.0000   0.0000 </r>
       <r> -17.0436   0.0000   0.0000 </r>
       <r> -16.9554   0.0000   0.0000 </r>
       <r> -16.8671   0.0000   0.0000 </r>
       <r> -16.7789   0.0000   0.0000 </r>
       <r> -16.6906   0.0000   0.0000 </r>
       <r> -16.6024   0.0000   0.0000 </r>
       <r> -16.5141   0.0001   0.0000 </r>
       <r> -16.4259   0.0113   0.0010 </r>
       <r> -16.3377   0.4547   0.0411 </r>
       <r> -16.2494   4.3735   0.4271 </r>
       <r> -16.1612  10.4587   1.3500 </r>
       <r> -16.0729   6.3590   1.9112 </r>
       <r> -15.9847   0.9700   1.9968 </r>
       <r> -15.8964   0.0358   2.0000 </r>
       <r> -15.8082   0.0105   2.0009 </r>
       <r> -15.7199   0.4330   2.0391 </r>
       <r> -15.6317   4.6793   2.4521 </r>
       <r> -15.5434  16.4418   3.9030 </r>
       <r> -15.4552  25.9839   6.1961 </r>
       <r> -15.3669  16.9474   7.6916 </r>
       <r> -15.2787   3.3265   7.9852 </r>
       <r> -15.1904   0.1657   7.9998 </r>
       <r> -15.1022   0.0019   8.0000 </r>
       <r> -15.0139   0.0000   8.0000 </r>
       <r> -14.9257   0.0000   8.0000 </r>
       <r> -14.8374   0.0000   8.0000 </r>
       <r> -14.7492   0.0000   8.0000 </r>
       <r> -14.6609   0.0000   8.0000 </r>
       <r> -14.5727   0.0000   8.0000 </r>
       <r> -14.4844   0.0000   8.0000 </r>
       <r> -14.3962   0.0000   8.0000 </r>
       <r> -14.3079   0.0000   8.0000 </r>
       <r> -14.2197   0.0000   8.0000 </r>
       <r> -14.1314   0.0000   8.0000 </r>
       <r> -14.0432   0.0000   8.0000 </r>
       <r> -13.9549   0.0000   8.0000 </r>
       <r> -13.8667   0.0000   8.0000 </r>
       <r> -13.7784   0.0000   8.0000 </r>
       <r> -13.6902   0.0000   8.0000 </r>
       <r> -13.6019   0.0000   8.0000 </r>
       <r> -13.5137   0.0000   8.0000 </r>
       <r> -13.4254   0.0000   8.0000 </r>
       <r> -13.3372   0.0000   8.0000 </r>
       <r> -13.2490   0.0000   8.0000 </r>
       <r> -13.1607   0.0000   8.0000 </r>
       <r> -13.0725   0.0000   8.0000 </r>
       <r> -12.9842   0.0000   8.0000 </r>
       <r> -12.8960   0.0000   8.0000 </r>
       <r> -12.8077   0.0000   8.0000 </r>
       <r> -12.7195   0.0000   8.0000 </r>
       <r> -12.6312   0.0000   8.0000 </r>
       <r> -12.5430   0.0000   8.0000 </r>
       <r> -12.4547   0.0000   8.0000 </r>
       <r> -12.3665   0.0000   8.0000 </r>
       <r> -12.2782   0.0000   8.0000 </r>
       <r> -12.1900   0.0000   8.0000 </r>
       <r> -12.1017   0.0000   8.0000 </r>
       <r> -12.0135   0.0000   8.0000 </r>
       <r> -11.9252   0.0000   8.0000 </r>
       <r> -11.8370   0.0000   8.0000 </r>
       <r> -11.7487   0.0000   8.0000 </r>
       <r> -11.6605   0.0000   8.0000 </r>
       <r> -11.5722   0.0000   8.0000 </r>
       <r> -11.4840   0.0000   8.0000 </r>
       <r> -11.3957   0.0000   8.0000 </r>
       <r> -11.3075   0.0000   8.0000 </r>
       <r> -11.2192   0.0000   8.0000 </r>
       <r> -11.1310   0.0000   8.0000 </r>
       <r> -11.0427   0.0000   8.0000 </r>
       <r> -10.9545   0.0000   8.0000 </r>
       <r> -10.8662   0.0000   8.0000 </r>
       <r> -10.7780   0.0000   8.0000 </r>
       <r> -10.6897   0.0000   8.0000 </r>
       <r> -10.6015   0.0000   8.0000 </r>
       <r> -10.5132   0.0000   8.0000 </r>
       <r> -10.4250   0.0000   8.0000 </r>
       <r> -10.3367   0.0000   8.0000 </r>
       <r> -10.2485   0.0000   8.0000 </r>
       <r> -10.1603   0.0000   8.0000 </r>
       <r> -10.0720   0.0000   8.0000 </r>
       <r>  -9.9838   0.0000   8.0000 </r>
       <r>  -9.8955   0.0000   8.0000 </r>
       <r>  -9.8073   0.0000   8.0000 </r>
       <r>  -9.7190   0.0000   8.0000 </r>
       <r>  -9.6308   0.0000   8.0000 </r>
       <r>  -9.5425   0.0000   8.0000 </r>
       <r>  -9.4543   0.0000   8.0000 </r>
       <r>  -9.3660   0.0000   8.0000 </r>
       <r>  -9.2778   0.0000   8.0000 </r>
       <r>  -9.1895   0.0000   8.0000 </r>
       <r>  -9.1013   0.0000   8.0000 </r>
       <r>  -9.0130   0.0000   8.0000 </r>
       <r>  -8.9248   0.0000   8.0000 </r>
       <r>  -8.8365   0.0000   8.0000 </r>
       <r>  -8.7483   0.0000   8.0000 </r>
       <r>  -8.6600   0.0000   8.0000 </r>
       <r>  -8.5718   0.0000   8.0000 </r>
       <r>  -8.4835   0.0000   8.0000 </r>
       <r>  -8.3953   0.0000   8.0000 </r>
       <r>  -8.3070   0.0000   8.0000 </r>
       <r>  -8.2188   0.0000   8.0000 </r>
       <r>  -8.1305   0.0000   8.0000 </r>
       <r>  -8.0423   0.0000   8.0000 </r>
       <r>  -7.9540   0.0000   8.0000 </r>
       <r>  -7.8658   0.0000   8.0000 </r>
       <r>  -7.7775   0.0000   8.0000 </r>
       <r>  -7.6893   0.0000   8.0000 </r>
       <r>  -7.6010   0.0000   8.0000 </r>
       <r>  -7.5128   0.0000   8.0000 </r>
       <r>  -7.4245   0.0000   8.0000 </r>
       <r>  -7.3363   0.0000   8.0000 </r>
       <r>  -7.2480   0.0000   8.0000 </r>
       <r>  -7.1598   0.0000   8.0000 </r>
       <r>  -7.0715   0.0000   8.0000 </r>
       <r>  -6.9833   0.0000   8.0000 </r>
       <r>  -6.8951   0.0000   8.0000 </r>
       <r>  -6.8068   0.0000   8.0000 </r>
       <r>  -6.7186   0.0000   8.0000 </r>
       <r>  -6.6303   0.0000   8.0000 </r>
       <r>  -6.5421   0.0000   8.0000 </r>
       <r>  -6.4538   0.0000   8.0000 </r>
       <r>  -6.3656   0.0000   8.0000 </r>
       <r>  -6.2773   0.0000   8.0000 </r>
       <r>  -6.1891   0.0000   8.0000 </r>
       <r>  -6.1008   0.0000   8.0000 </r>
       <r>  -6.0126   0.0000   8.0000 </r>
       <r>  -5.9243   0.0000   8.0000 </r>
       <r>  -5.8361   0.0000   8.0000 </r>
       <r>  -5.7478   0.0000   8.0000 </r>
       <r>  -5.6596   0.0000   8.0000 </r>
       <r>  -5.5713   0.0000   8.0000 </r>
       <r>  -5.4831   0.0000   8.0000 </r>
       <r>  -5.3948   0.0000   8.0000 </r>
       <r>  -5.3066   0.0000   8.0000 </r>
       <r>  -5.2183   0.0000   8.0000 </r>
       <r>  -5.1301   0.0000   8.0000 </r>
       <r>  -5.0418   0.0000   8.0000 </r>
       <r>  -4.9536   0.0000   8.0000 </r>
       <r>  -4.8653   0.0000   8.0000 </r>
       <r>  -4.7771   0.0000   8.0000 </r>
       <r>  -4.6888   0.0000   8.0000 </r>
       <r>  -4.6006   0.0000   8.0000 </r>
       <r>  -4.5123   0.0000   8.0000 </r>
       <r>  -4.4241   0.0000   8.0000 </r>
       <r>  -4.3358   0.0000   8.0000 </r>
       <r>  -4.2476   0.0000   8.0000 </r>
       <r>  -4.1593   0.0000   8.0000 </r>
       <r>  -4.0711   0.0000   8.0000 </r>
       <r>  -3.9828   0.0000   8.0000 </r>
       <r>  -3.8946   0.0000   8.0000 </r>
       <r>  -3.8064   0.0000   8.0000 </r>
       <r>  -3.7181   0.0000   8.0000 </r>
       <r>  -3.6299   0.0008   8.0001 </r>
       <r>  -3.5416   0.0841   8.0075 </r>
       <r>  -3.4534   2.1529   8.1975 </r>
       <r>  -3.3651  13.3311   9.3739 </r>
       <r>  -3.2769  20.7357  11.2038 </r>
       <r>  -3.1886   8.1983  11.9273 </r>
       <r>  -3.1004   0.8047  11.9983 </r>
       <r>  -3.0121   0.0189  12.0000 </r>
       <r>  -2.9239   0.0158  12.0014 </r>
       <r>  -2.8356   0.7063  12.0637 </r>
       <r>  -2.7474   7.6042  12.7348 </r>
       <r>  -2.6591  20.4263  14.5374 </r>
       <r>  -2.5709  14.0299  15.7755 </r>
       <r>  -2.4826   2.4396  15.9908 </r>
       <r>  -2.3944   0.1035  15.9999 </r>
       <r>  -2.3061   0.0010  16.0000 </r>
       <r>  -2.2179   0.0000  16.0000 </r>
       <r>  -2.1296   0.0000  16.0000 </r>
       <r>  -2.0414   0.0000  16.0000 </r>
       <r>  -1.9531   0.0000  16.0000 </r>
       <r>  -1.8649   0.0001  16.0000 </r>
       <r>  -1.7766   0.0216  16.0019 </r>
       <r>  -1.6884   1.0044  16.0906 </r>
       <r>  -1.6001  11.1223  17.0721 </r>
       <r>  -1.5119  30.5562  19.7686 </r>
       <r>  -1.4236  21.3596  21.6536 </r>
       <r>  -1.3354   3.7629  21.9856 </r>
       <r>  -1.2471   0.1610  21.9999 </r>
       <r>  -1.1589   0.0016  22.0000 </r>
       <r>  -1.0706   0.0000  22.0000 </r>
       <r>  -0.9824   0.0097  22.0009 </r>
       <r>  -0.8941   0.5418  22.0487 </r>
       <r>  -0.8059   7.4389  22.7051 </r>
       <r>  -0.7177  26.5679  25.0497 </r>
       <r>  -0.6294  26.3867  27.3783 </r>
       <r>  -0.5412  11.5549  28.3980 </r>
       <r>  -0.4529  11.0202  29.3705 </r>
       <r>  -0.3647   6.3304  29.9292 </r>
       <r>  -0.2764   3.1712  30.2090 </r>
       <r>  -0.1882   8.9601  30.9997 </r>
       <r>  -0.0999   8.9308  31.7879 </r>
       <r>  -0.0117   2.2613  31.9874 </r>
       <r>   0.0766   0.1404  31.9998 </r>
       <r>   0.1648   0.0020  32.0000 </r>
       <r>   0.2531   0.0000  32.0000 </r>
       <r>   0.3413   0.0000  32.0000 </r>
       <r>   0.4296   0.0000  32.0000 </r>
       <r>   0.5178   0.0000  32.0000 </r>
       <r>   0.6061   0.0000  32.0000 </r>
       <r>   0.6943   0.0000  32.0000 </r>
       <r>   0.7826   0.0000  32.0000 </r>
       <r>   0.8708   0.0000  32.0000 </r>
       <r>   0.9591   0.0000  32.0000 </r>
       <r>   1.0473   0.0000  32.0000 </r>
       <r>   1.1356   0.0000  32.0000 </r>
       <r>   1.2238   0.0000  32.0000 </r>
       <r>   1.3121   0.0000  32.0000 </r>
       <r>   1.4003   0.0000  32.0000 </r>
       <r>   1.4886   0.0000  32.0000 </r>
       <r>   1.5768   0.0000  32.0000 </r>
       <r>   1.6651   0.0000  32.0000 </r>
       <r>   1.7533   0.0000  32.0000 </r>
       <r>   1.8416   0.0000  32.0000 </r>
       <r>   1.9298   0.0000  32.0000 </r>
       <r>   2.0181   0.0000  32.0000 </r>
       <r>   2.1063   0.0000  32.0000 </r>
       <r>   2.1946   0.0000  32.0000 </r>
       <r>   2.2828   0.0000  32.0000 </r>
       <r>   2.3710   0.0000  32.0000 </r>
       <r>   2.4593   0.0000  32.0000 </r>
       <r>   2.5475   0.0000  32.0000 </r>
       <r>   2.6358   0.0000  32.0000 </r>
       <r>   2.7240   0.0000  32.0000 </r>
       <r>   2.8123   0.0000  32.0000 </r>
       <r>   2.9005   0.0000  32.0000 </r>
       <r>   2.9888   0.0000  32.0000 </r>
       <r>   3.0770   0.0000  32.0000 </r>
       <r>   3.1653   0.0000  32.0000 </r>
       <r>   3.2535   0.0000  32.0000 </r>
       <r>   3.3418   0.0000  32.0000 </r>
       <r>   3.4300   0.0000  32.0000 </r>
       <r>   3.5183   0.0000  32.0000 </r>
       <r>   3.6065   0.0000  32.0000 </r>
       <r>   3.6948   0.0005  32.0000 </r>
       <r>   3.7830   0.0544  32.0048 </r>
       <r>   3.8713   1.2666  32.1166 </r>
       <r>   3.9595   7.1562  32.7481 </r>
       <r>   4.0478  10.1746  33.6460 </r>
       <r>   4.1360   3.6751  33.9704 </r>
       <r>   4.2243   0.3288  33.9994 </r>
       <r>   4.3125   0.0070  34.0000 </r>
       <r>   4.4008   0.0000  34.0000 </r>
       <r>   4.4890   0.0000  34.0000 </r>
       <r>   4.5773   0.0000  34.0000 </r>
       <r>   4.6655   0.0000  34.0000 </r>
       <r>   4.7538   0.0000  34.0000 </r>
       <r>   4.8420   0.0000  34.0000 </r>
       <r>   4.9303   0.0000  34.0000 </r>
       <r>   5.0185   0.0000  34.0000 </r>
       <r>   5.1068   0.0000  34.0000 </r>
       <r>   5.1950   0.0000  34.0000 </r>
       <r>   5.2833   0.0000  34.0000 </r>
       <r>   5.3715   0.0007  34.0001 </r>
       <r>   5.4597   0.0639  34.0057 </r>
       <r>   5.5480   1.4014  34.1294 </r>
       <r>   5.6362   7.4663  34.7883 </r>
       <r>   5.7245  10.0215  35.6726 </r>
       <r>   5.8127   3.4159  35.9741 </r>
       <r>   5.9010   0.2879  35.9995 </r>
       <r>   5.9892   0.0058  36.0000 </r>
       <r>   6.0775   0.0000  36.0000 </r>
       <r>   6.1657   0.0000  36.0000 </r>
       <r>   6.2540   0.0000  36.0000 </r>
       <r>   6.3422   0.0000  36.0000 </r>
       <r>   6.4305   0.0000  36.0000 </r>
       <r>   6.5187   0.0000  36.0000 </r>
       <r>   6.6070   0.0000  36.0000 </r>
       <r>   6.6952   0.0000  36.0000 </r>
       <r>   6.7835   0.0000  36.0000 </r>
       <r>   6.8717   0.0002  36.0000 </r>
       <r>   6.9600   0.0335  36.0030 </r>
       <r>   7.0482   1.1836  36.1074 </r>
       <r>   7.1365  10.0189  36.9916 </r>
       <r>   7.2247  21.1544  38.8584 </r>
       <r>   7.3130  11.3600  39.8609 </r>
       <r>   7.4012   1.5263  39.9956 </r>
       <r>   7.4895   0.0493  40.0000 </r>
       <r>   7.5777   0.0007  40.0000 </r>
       <r>   7.6660   0.0357  40.0032 </r>
       <r>   7.7542   0.9700  40.0888 </r>
       <r>   7.8425   6.3590  40.6500 </r>
       <r>   7.9307  10.4587  41.5729 </r>
       <r>   8.0190   4.3735  41.9589 </r>
       <r>   8.1072   0.4547  41.9990 </r>
       <r>   8.1955   0.0113  42.0000 </r>
       <r>   8.2837   0.0001  42.0000 </r>
       <r>   8.3720   0.0000  42.0000 </r>
       <r>   8.4602   0.0000  42.0000 </r>
       <r>   8.5484   0.0000  42.0000 </r>
       <r>   8.6367   0.0000  42.0000 </r>
       <r>   8.7249   0.0000  42.0000 </r>
       <r>   8.8132   0.0000  42.0000 </r>
       <r>   8.9014   0.0000  42.0000 </r>
       <r>   8.9897   0.0000  42.0000 </r>
       <r>   9.0779   0.0000  42.0000 </r>
      </set>
     </set>
    </array>
   </total>
   <partial>
    <array>
     <dimension dim="1">gridpoints</dimension>
     <dimension dim="2">spin</dimension>
     <dimension dim="3">ion</dimension>
     <field>energy</field>
     <field>  s</field>
     <field> py</field>
     <field> pz</field>
     <field> px</field>
     <field>dxy</field>
     <field>dyz</field>
     <field>dz2</field>
     <field>dxz</field>
     <field>dx2</field>
     <set>
      <set comment="ion 1">
       <set comment="spin 1">
        <r> -17.3966   0.0000   0.0000   0.0000   0.0000   0.0000   0.0000   0.0000   0.0000   0.0000 </r>
        <r> -17.3084   0.0000   0.0000   0.0000   0.0000   0.0000   0.0000   0.0000   0.0000   0.0000 </r>
        <r> -17.2201   0.0000   0.0000   0.0000   0.0000   0.0000   0.0000   0.0000   0.0000   0.0000 </r>
        <r> -17.1319   0.0000   0.0000   0.0000   0.0000   0.0000   0.0000   0.0000   0.0000   0.0000 </r>
        <r> -17.0436   0.0000   0.0000   0.0000   0.0000   0.0000   0.0000   0.0000   0.0000   0.0000 </r>
        <r> -16.9554   0.0000   0.0000   0.0000   0.0000   0.0000   0.0000   0.0000   0.0000   0.0000 </r>
        <r> -16.8671   0.0000   0.0000   0.0000   0.0000   0.0000   0.0000   0.0000   0.0000   0.0000 </r>
        <r> -16.7789   0.0000   0.0000   0.0000   0.0000   0.0000   0.0000   0.0000   0.0000   0.0000 </r>
        <r> -16.6906   0.0000   0.0000   0.0000   0.0000   0.0000   0.0000   0.0000   0.0000   0.0000 </r>
        <r> -16.6024   0.0000   0.0000   0.0000   0.0000   0.0000   0.0000   0.0000   0.0000   0.0000 </r>
        <r> -16.5141   0.0000   0.0000   0.0000   0.0000   0.0000   0.0000   0.0000   0.0000   0.0000 </r>
        <r> -16.4259   0.0001   0.0000   0.0000   0.0000   0.0000   0.0000   0.0000   0.0000   0.0000 </r>
        <r> -16.3377   0.0024   0.0003   0.0002   0.0003   0.0000   0.0000   0.0000   0.0000   0.0000 </r>
        <r> -16.2494   0.0229   0.0031   0.0019   0.0031   0.0000   0.0000   0.0000   0.0000   0.0000 </r>
        <r> -16.1612   0.0547   0.0073   0.0045   0.0073   0.0000   0.0000   0.0000   0.0000   0.0000 </r>
        <r> -16.0729   0.0333   0.0044   0.0028   0.0044   0.0000   0.0000   0.0000   0.0000   0.0000 </r>
        <r> -15.9847   0.0051   0.0007   0.0004   0.0007   0.0000   0.0000   0.0000   0.0000   0.0000 </r>
        <r> -15.8964   0.0002   0.0000   0.0000   0.0000   0.0000   0.0000   0.0000   0.0000   0.0000 </r>
        <r> -15.8082   0.0000   0.0000   0.0000   0.0000   0.0000   0.0000   0.0000   0.0000   0.0000 </r>
        <r> -15.7199   0.0005   0.0003   0.0002   0.0003   0.0000   0.0000   0.0000   0.0000   0.0000 </r>
        <r> -15.6317   0.0052   0.0035   0.0019   0.0035   0.0000   0.0000   0.0000   0.0000   0.0000 </r>
        <r> -15.5434   0.0148   0.0125   0.0067   0.0125   0.0000   0.0000   0.0000   0.0000   0.0000 </r>
        <r> -15.4552   0.0155   0.0206   0.0105   0.0206   0.0000   0.0000   0.0000   0.0000   0.0000 </r>
        <r> -15.3669   0.0075   0.0137   0.0068   0.0137   0.0000   0.0000   0.0000   0.0000   0.0000 </r>
        <r> -15.2787   0.0013   0.0027   0.0013   0.0027   0.0000   0.0000   0.0000   0.0000   0.0000 </r>
        <r> -15.1904   0.0001   0.0001   0.0001   0.0001   0.0000   0.0000   0.0000   0.0000   0.0000 </r>
        <r> -15.1022   0.0000   0.0000   0.0000   0.0000   0.0000   0.0000   0.0000   0.0000   0.0000 </r>
        <r> -15.0139   0.0000   0.0000   0.0000   0.0000   0.0000   0.0000   0.0000   0.0000   0.0000 </r>
        <r> -14.9257   0.0000   0.0000   0.0000   0.0000   0.0000   0.0000   0.0000   0.0000   0.0000 </r>
        <r> -14.8374   0.0000   0.0000   0.0000   0.0000   0.0000   0.0000   0.0000   0.0000   0.0000 </r>
        <r> -14.7492   0.0000   0.0000   0.0000   0.0000   0.0000   0.0000   0.0000   0.0000   0.0000 </r>
        <r> -14.6609   0.0000   0.0000   0.0000   0.0000   0.0000   0.0000   0.0000   0.0000   0.0000 </r>
        <r> -14.5727   0.0000   0.0000   0.0000   0.0000   0.0000   0.0000   0.0000   0.0000   0.0000 </r>
        <r> -14.4844   0.0000   0.0000   0.0000   0.0000   0.0000   0.0000   0.0000   0.0000   0.0000 </r>
        <r> -14.3962   0.0000   0.0000   0.0000   0.0000   0.0000   0.0000   0.0000   0.0000   0.0000 </r>
        <r> -14.3079   0.0000   0.0000   0.0000   0.0000   0.0000   0.0000   0.0000   0.0000   0.0000 </r>
        <r> -14.2197   0.0000   0.0000   0.0000   0.0000   0.0000   0.0000   0.0000   0.0000   0.0000 </r>
        <r> -14.1314   0.0000   0.0000   0.0000   0.0000   0.0000   0.0000   0.0000   0.0000   0.0000 </r>
        <r> -14.0432   0.0000   0.0000   0.0000   0.0000   0.0000   0.0000   0.0000   0.0000   0.0000 </r>
        <r> -13.9549   0.0000   0.0000   0.0000   0.0000   0.0000   0.0000   0.0000   0.0000   0.0000 </r>
        <r> -13.8667   0.0000   0.0000   0.0000   0.0000   0.0000   0.0000   0.0000   0.0000   0.0000 </r>
        <r> -13.7784   0.0000   0.0000   0.0000   0.0000   0.0000   0.0000   0.0000   0.0000   0.0000 </r>
        <r> -13.6902   0.0000   0.0000   0.0000   0.0000   0.0000   0.0000   0.0000   0.0000   0.0000 </r>
        <r> -13.6019   0.0000   0.0000   0.0000   0.0000   0.0000   0.0000   0.0000   0.0000   0.0000 </r>
        <r> -13.5137   0.0000   0.0000   0.0000   0.0000   0.0000   0.0000   0.0000   0.0000   0.0000 </r>
        <r> -13.4254   0.0000   0.0000   0.0000   0.0000   0.0000   0.0000   0.0000   0.0000   0.0000 </r>
        <r> -13.3372   0.0000   0.0000   0.0000   0.0000   0.0000   0.0000   0.0000   0.0000   0.0000 </r>
        <r> -13.2490   0.0000   0.0000   0.0000   0.0000   0.0000   0.0000   0.0000   0.0000   0.0000 </r>
        <r> -13.1607   0.0000   0.0000   0.0000   0.0000   0.0000   0.0000   0.0000   0.0000   0.0000 </r>
        <r> -13.0725   0.0000   0.0000   0.0000   0.0000   0.0000   0.0000   0.0000   0.0000   0.0000 </r>
        <r> -12.9842   0.0000   0.0000   0.0000   0.0000   0.0000   0.0000   0.0000   0.0000   0.0000 </r>
        <r> -12.8960   0.0000   0.0000   0.0000   0.0000   0.0000   0.0000   0.0000   0.0000   0.0000 </r>
        <r> -12.8077   0.0000   0.0000   0.0000   0.0000   0.0000   0.0000   0.0000   0.0000   0.0000 </r>
        <r> -12.7195   0.0000   0.0000   0.0000   0.0000   0.0000   0.0000   0.0000   0.0000   0.0000 </r>
        <r> -12.6312   0.0000   0.0000   0.0000   0.0000   0.0000   0.0000   0.0000   0.0000   0.0000 </r>
        <r> -12.5430   0.0000   0.0000   0.0000   0.0000   0.0000   0.0000   0.0000   0.0000   0.0000 </r>
        <r> -12.4547   0.0000   0.0000   0.0000   0.0000   0.0000   0.0000   0.0000   0.0000   0.0000 </r>
        <r> -12.3665   0.0000   0.0000   0.0000   0.0000   0.0000   0.0000   0.0000   0.0000   0.0000 </r>
        <r> -12.2782   0.0000   0.0000   0.0000   0.0000   0.0000   0.0000   0.0000   0.0000   0.0000 </r>
        <r> -12.1900   0.0000   0.0000   0.0000   0.0000   0.0000   0.0000   0.0000   0.0000   0.0000 </r>
        <r> -12.1017   0.0000   0.0000   0.0000   0.0000   0.0000   0.0000   0.0000   0.0000   0.0000 </r>
        <r> -12.0135   0.0000   0.0000   0.0000   0.0000   0.0000   0.0000   0.0000   0.0000   0.0000 </r>
        <r> -11.9252   0.0000   0.0000   0.0000   0.0000   0.0000   0.0000   0.0000   0.0000   0.0000 </r>
        <r> -11.8370   0.0000   0.0000   0.0000   0.0000   0.0000   0.0000   0.0000   0.0000   0.0000 </r>
        <r> -11.7487   0.0000   0.0000   0.0000   0.0000   0.0000   0.0000   0.0000   0.0000   0.0000 </r>
        <r> -11.6605   0.0000   0.0000   0.0000   0.0000   0.0000   0.0000   0.0000   0.0000   0.0000 </r>
        <r> -11.5722   0.0000   0.0000   0.0000   0.0000   0.0000   0.0000   0.0000   0.0000   0.0000 </r>
        <r> -11.4840   0.0000   0.0000   0.0000   0.0000   0.0000   0.0000   0.0000   0.0000   0.0000 </r>
        <r> -11.3957   0.0000   0.0000   0.0000   0.0000   0.0000   0.0000   0.0000   0.0000   0.0000 </r>
        <r> -11.3075   0.0000   0.0000   0.0000   0.0000   0.0000   0.0000   0.0000   0.0000   0.0000 </r>
        <r> -11.2192   0.0000   0.0000   0.0000   0.0000   0.0000   0.0000   0.0000   0.0000   0.0000 </r>
        <r> -11.1310   0.0000   0.0000   0.0000   0.0000   0.0000   0.0000   0.0000   0.0000   0.0000 </r>
        <r> -11.0427   0.0000   0.0000   0.0000   0.0000   0.0000   0.0000   0.0000   0.0000   0.0000 </r>
        <r> -10.9545   0.0000   0.0000   0.0000   0.0000   0.0000   0.0000   0.0000   0.0000   0.0000 </r>
        <r> -10.8662   0.0000   0.0000   0.0000   0.0000   0.0000   0.0000   0.0000   0.0000   0.0000 </r>
        <r> -10.7780   0.0000   0.0000   0.0000   0.0000   0.0000   0.0000   0.0000   0.0000   0.0000 </r>
        <r> -10.6897   0.0000   0.0000   0.0000   0.0000   0.0000   0.0000   0.0000   0.0000   0.0000 </r>
        <r> -10.6015   0.0000   0.0000   0.0000   0.0000   0.0000   0.0000   0.0000   0.0000   0.0000 </r>
        <r> -10.5132   0.0000   0.0000   0.0000   0.0000   0.0000   0.0000   0.0000   0.0000   0.0000 </r>
        <r> -10.4250   0.0000   0.0000   0.0000   0.0000   0.0000   0.0000   0.0000   0.0000   0.0000 </r>
        <r> -10.3367   0.0000   0.0000   0.0000   0.0000   0.0000   0.0000   0.0000   0.0000   0.0000 </r>
        <r> -10.2485   0.0000   0.0000   0.0000   0.0000   0.0000   0.0000   0.0000   0.0000   0.0000 </r>
        <r> -10.1603   0.0000   0.0000   0.0000   0.0000   0.0000   0.0000   0.0000   0.0000   0.0000 </r>
        <r> -10.0720   0.0000   0.0000   0.0000   0.0000   0.0000   0.0000   0.0000   0.0000   0.0000 </r>
        <r>  -9.9838   0.0000   0.0000   0.0000   0.0000   0.0000   0.0000   0.0000   0.0000   0.0000 </r>
        <r>  -9.8955   0.0000   0.0000   0.0000   0.0000   0.0000   0.0000   0.0000   0.0000   0.0000 </r>
        <r>  -9.8073   0.0000   0.0000   0.0000   0.0000   0.0000   0.0000   0.0000   0.0000   0.0000 </r>
        <r>  -9.7190   0.0000   0.0000   0.0000   0.0000   0.0000   0.0000   0.0000   0.0000   0.0000 </r>
        <r>  -9.6308   0.0000   0.0000   0.0000   0.0000   0.0000   0.0000   0.0000   0.0000   0.0000 </r>
        <r>  -9.5425   0.0000   0.0000   0.0000   0.0000   0.0000   0.0000   0.0000   0.0000   0.0000 </r>
        <r>  -9.4543   0.0000   0.0000   0.0000   0.0000   0.0000   0.0000   0.0000   0.0000   0.0000 </r>
        <r>  -9.3660   0.0000   0.0000   0.0000   0.0000   0.0000   0.0000   0.0000   0.0000   0.0000 </r>
        <r>  -9.2778   0.0000   0.0000   0.0000   0.0000   0.0000   0.0000   0.0000   0.0000   0.0000 </r>
        <r>  -9.1895   0.0000   0.0000   0.0000   0.0000   0.0000   0.0000   0.0000   0.0000   0.0000 </r>
        <r>  -9.1013   0.0000   0.0000   0.0000   0.0000   0.0000   0.0000   0.0000   0.0000   0.0000 </r>
        <r>  -9.0130   0.0000   0.0000   0.0000   0.0000   0.0000   0.0000   0.0000   0.0000   0.0000 </r>
        <r>  -8.9248   0.0000   0.0000   0.0000   0.0000   0.0000   0.0000   0.0000   0.0000   0.0000 </r>
        <r>  -8.8365   0.0000   0.0000   0.0000   0.0000   0.0000   0.0000   0.0000   0.0000   0.0000 </r>
        <r>  -8.7483   0.0000   0.0000   0.0000   0.0000   0.0000   0.0000   0.0000   0.0000   0.0000 </r>
        <r>  -8.6600   0.0000   0.0000   0.0000   0.0000   0.0000   0.0000   0.0000   0.0000   0.0000 </r>
        <r>  -8.5718   0.0000   0.0000   0.0000   0.0000   0.0000   0.0000   0.0000   0.0000   0.0000 </r>
        <r>  -8.4835   0.0000   0.0000   0.0000   0.0000   0.0000   0.0000   0.0000   0.0000   0.0000 </r>
        <r>  -8.3953   0.0000   0.0000   0.0000   0.0000   0.0000   0.0000   0.0000   0.0000   0.0000 </r>
        <r>  -8.3070   0.0000   0.0000   0.0000   0.0000   0.0000   0.0000   0.0000   0.0000   0.0000 </r>
        <r>  -8.2188   0.0000   0.0000   0.0000   0.0000   0.0000   0.0000   0.0000   0.0000   0.0000 </r>
        <r>  -8.1305   0.0000   0.0000   0.0000   0.0000   0.0000   0.0000   0.0000   0.0000   0.0000 </r>
        <r>  -8.0423   0.0000   0.0000   0.0000   0.0000   0.0000   0.0000   0.0000   0.0000   0.0000 </r>
        <r>  -7.9540   0.0000   0.0000   0.0000   0.0000   0.0000   0.0000   0.0000   0.0000   0.0000 </r>
        <r>  -7.8658   0.0000   0.0000   0.0000   0.0000   0.0000   0.0000   0.0000   0.0000   0.0000 </r>
        <r>  -7.7775   0.0000   0.0000   0.0000   0.0000   0.0000   0.0000   0.0000   0.0000   0.0000 </r>
        <r>  -7.6893   0.0000   0.0000   0.0000   0.0000   0.0000   0.0000   0.0000   0.0000   0.0000 </r>
        <r>  -7.6010   0.0000   0.0000   0.0000   0.0000   0.0000   0.0000   0.0000   0.0000   0.0000 </r>
        <r>  -7.5128   0.0000   0.0000   0.0000   0.0000   0.0000   0.0000   0.0000   0.0000   0.0000 </r>
        <r>  -7.4245   0.0000   0.0000   0.0000   0.0000   0.0000   0.0000   0.0000   0.0000   0.0000 </r>
        <r>  -7.3363   0.0000   0.0000   0.0000   0.0000   0.0000   0.0000   0.0000   0.0000   0.0000 </r>
        <r>  -7.2480   0.0000   0.0000   0.0000   0.0000   0.0000   0.0000   0.0000   0.0000   0.0000 </r>
        <r>  -7.1598   0.0000   0.0000   0.0000   0.0000   0.0000   0.0000   0.0000   0.0000   0.0000 </r>
        <r>  -7.0715   0.0000   0.0000   0.0000   0.0000   0.0000   0.0000   0.0000   0.0000   0.0000 </r>
        <r>  -6.9833   0.0000   0.0000   0.0000   0.0000   0.0000   0.0000   0.0000   0.0000   0.0000 </r>
        <r>  -6.8951   0.0000   0.0000   0.0000   0.0000   0.0000   0.0000   0.0000   0.0000   0.0000 </r>
        <r>  -6.8068   0.0000   0.0000   0.0000   0.0000   0.0000   0.0000   0.0000   0.0000   0.0000 </r>
        <r>  -6.7186   0.0000   0.0000   0.0000   0.0000   0.0000   0.0000   0.0000   0.0000   0.0000 </r>
        <r>  -6.6303   0.0000   0.0000   0.0000   0.0000   0.0000   0.0000   0.0000   0.0000   0.0000 </r>
        <r>  -6.5421   0.0000   0.0000   0.0000   0.0000   0.0000   0.0000   0.0000   0.0000   0.0000 </r>
        <r>  -6.4538   0.0000   0.0000   0.0000   0.0000   0.0000   0.0000   0.0000   0.0000   0.0000 </r>
        <r>  -6.3656   0.0000   0.0000   0.0000   0.0000   0.0000   0.0000   0.0000   0.0000   0.0000 </r>
        <r>  -6.2773   0.0000   0.0000   0.0000   0.0000   0.0000   0.0000   0.0000   0.0000   0.0000 </r>
        <r>  -6.1891   0.0000   0.0000   0.0000   0.0000   0.0000   0.0000   0.0000   0.0000   0.0000 </r>
        <r>  -6.1008   0.0000   0.0000   0.0000   0.0000   0.0000   0.0000   0.0000   0.0000   0.0000 </r>
        <r>  -6.0126   0.0000   0.0000   0.0000   0.0000   0.0000   0.0000   0.0000   0.0000   0.0000 </r>
        <r>  -5.9243   0.0000   0.0000   0.0000   0.0000   0.0000   0.0000   0.0000   0.0000   0.0000 </r>
        <r>  -5.8361   0.0000   0.0000   0.0000   0.0000   0.0000   0.0000   0.0000   0.0000   0.0000 </r>
        <r>  -5.7478   0.0000   0.0000   0.0000   0.0000   0.0000   0.0000   0.0000   0.0000   0.0000 </r>
        <r>  -5.6596   0.0000   0.0000   0.0000   0.0000   0.0000   0.0000   0.0000   0.0000   0.0000 </r>
        <r>  -5.5713   0.0000   0.0000   0.0000   0.0000   0.0000   0.0000   0.0000   0.0000   0.0000 </r>
        <r>  -5.4831   0.0000   0.0000   0.0000   0.0000   0.0000   0.0000   0.0000   0.0000   0.0000 </r>
        <r>  -5.3948   0.0000   0.0000   0.0000   0.0000   0.0000   0.0000   0.0000   0.0000   0.0000 </r>
        <r>  -5.3066   0.0000   0.0000   0.0000   0.0000   0.0000   0.0000   0.0000   0.0000   0.0000 </r>
        <r>  -5.2183   0.0000   0.0000   0.0000   0.0000   0.0000   0.0000   0.0000   0.0000   0.0000 </r>
        <r>  -5.1301   0.0000   0.0000   0.0000   0.0000   0.0000   0.0000   0.0000   0.0000   0.0000 </r>
        <r>  -5.0418   0.0000   0.0000   0.0000   0.0000   0.0000   0.0000   0.0000   0.0000   0.0000 </r>
        <r>  -4.9536   0.0000   0.0000   0.0000   0.0000   0.0000   0.0000   0.0000   0.0000   0.0000 </r>
        <r>  -4.8653   0.0000   0.0000   0.0000   0.0000   0.0000   0.0000   0.0000   0.0000   0.0000 </r>
        <r>  -4.7771   0.0000   0.0000   0.0000   0.0000   0.0000   0.0000   0.0000   0.0000   0.0000 </r>
        <r>  -4.6888   0.0000   0.0000   0.0000   0.0000   0.0000   0.0000   0.0000   0.0000   0.0000 </r>
        <r>  -4.6006   0.0000   0.0000   0.0000   0.0000   0.0000   0.0000   0.0000   0.0000   0.0000 </r>
        <r>  -4.5123   0.0000   0.0000   0.0000   0.0000   0.0000   0.0000   0.0000   0.0000   0.0000 </r>
        <r>  -4.4241   0.0000   0.0000   0.0000   0.0000   0.0000   0.0000   0.0000   0.0000   0.0000 </r>
        <r>  -4.3358   0.0000   0.0000   0.0000   0.0000   0.0000   0.0000   0.0000   0.0000   0.0000 </r>
        <r>  -4.2476   0.0000   0.0000   0.0000   0.0000   0.0000   0.0000   0.0000   0.0000   0.0000 </r>
        <r>  -4.1593   0.0000   0.0000   0.0000   0.0000   0.0000   0.0000   0.0000   0.0000   0.0000 </r>
        <r>  -4.0711   0.0000   0.0000   0.0000   0.0000   0.0000   0.0000   0.0000   0.0000   0.0000 </r>
        <r>  -3.9828   0.0000   0.0000   0.0000   0.0000   0.0000   0.0000   0.0000   0.0000   0.0000 </r>
        <r>  -3.8946   0.0000   0.0000   0.0000   0.0000   0.0000   0.0000   0.0000   0.0000   0.0000 </r>
        <r>  -3.8064   0.0000   0.0000   0.0000   0.0000   0.0000   0.0000   0.0000   0.0000   0.0000 </r>
        <r>  -3.7181   0.0000   0.0000   0.0000   0.0000   0.0000   0.0000   0.0000   0.0000   0.0000 </r>
        <r>  -3.6299   0.0000   0.0000   0.0000   0.0000   0.0000   0.0000   0.0000   0.0000   0.0000 </r>
        <r>  -3.5416   0.0011   0.0003   0.0000   0.0003   0.0000   0.0000   0.0000   0.0000   0.0000 </r>
        <r>  -3.4534   0.0285   0.0085   0.0002   0.0085   0.0000   0.0000   0.0000   0.0000   0.0000 </r>
        <r>  -3.3651   0.1766   0.0527   0.0011   0.0527   0.0000   0.0000   0.0000   0.0000   0.0000 </r>
        <r>  -3.2769   0.2747   0.0820   0.0017   0.0820   0.0000   0.0000   0.0000   0.0000   0.0000 </r>
        <r>  -3.1886   0.1086   0.0324   0.0007   0.0324   0.0000   0.0000   0.0000   0.0000   0.0000 </r>
        <r>  -3.1004   0.0107   0.0032   0.0001   0.0032   0.0000   0.0000   0.0000   0.0000   0.0000 </r>
        <r>  -3.0121   0.0003   0.0001   0.0000   0.0001   0.0000   0.0000   0.0000   0.0000   0.0000 </r>
        <r>  -2.9239   0.0002   0.0000   0.0000   0.0000   0.0000   0.0000   0.0000   0.0000   0.0000 </r>
        <r>  -2.8356   0.0102   0.0008   0.0016   0.0008   0.0000   0.0000   0.0000   0.0000   0.0000 </r>
        <r>  -2.7474   0.1082   0.0081   0.0183   0.0081   0.0000   0.0000   0.0000   0.0000   0.0000 </r>
        <r>  -2.6591   0.2852   0.0206   0.0536   0.0206   0.0000   0.0000   0.0000   0.0000   0.0000 </r>
        <r>  -2.5709   0.1922   0.0134   0.0398   0.0134   0.0000   0.0000   0.0000   0.0000   0.0000 </r>
        <r>  -2.4826   0.0328   0.0022   0.0074   0.0022   0.0000   0.0000   0.0000   0.0000   0.0000 </r>
        <r>  -2.3944   0.0014   0.0001   0.0003   0.0001   0.0000   0.0000   0.0000   0.0000   0.0000 </r>
        <r>  -2.3061   0.0000   0.0000   0.0000   0.0000   0.0000   0.0000   0.0000   0.0000   0.0000 </r>
        <r>  -2.2179   0.0000   0.0000   0.0000   0.0000   0.0000   0.0000   0.0000   0.0000   0.0000 </r>
        <r>  -2.1296   0.0000   0.0000   0.0000   0.0000   0.0000   0.0000   0.0000   0.0000   0.0000 </r>
        <r>  -2.0414   0.0000   0.0000   0.0000   0.0000   0.0000   0.0000   0.0000   0.0000   0.0000 </r>
        <r>  -1.9531   0.0000   0.0000   0.0000   0.0000   0.0000   0.0000   0.0000   0.0000   0.0000 </r>
        <r>  -1.8649   0.0000   0.0000   0.0000   0.0000   0.0000   0.0000   0.0000   0.0000   0.0000 </r>
        <r>  -1.7766   0.0001   0.0001   0.0000   0.0001   0.0000   0.0000   0.0000   0.0000   0.0000 </r>
        <r>  -1.6884   0.0030   0.0032   0.0014   0.0032   0.0000   0.0000   0.0000   0.0000   0.0000 </r>
        <r>  -1.6001   0.0347   0.0347   0.0165   0.0347   0.0000   0.0000   0.0000   0.0000   0.0000 </r>
        <r>  -1.5119   0.0979   0.0932   0.0479   0.0932   0.0000   0.0000   0.0000   0.0000   0.0000 </r>
        <r>  -1.4236   0.0703   0.0637   0.0352   0.0637   0.0000   0.0000   0.0000   0.0000   0.0000 </r>
        <r>  -1.3354   0.0127   0.0110   0.0065   0.0110   0.0000   0.0000   0.0000   0.0000   0.0000 </r>
        <r>  -1.2471   0.0006   0.0005   0.0003   0.0005   0.0000   0.0000   0.0000   0.0000   0.0000 </r>
        <r>  -1.1589   0.0000   0.0000   0.0000   0.0000   0.0000   0.0000   0.0000   0.0000   0.0000 </r>
        <r>  -1.0706   0.0000   0.0000   0.0000   0.0000   0.0000   0.0000   0.0000   0.0000   0.0000 </r>
        <r>  -0.9824   0.0000   0.0000   0.0000   0.0000   0.0000   0.0000   0.0000   0.0000   0.0000 </r>
        <r>  -0.8941   0.0001   0.0004   0.0015   0.0004   0.0000   0.0000   0.0000   0.0000   0.0000 </r>
        <r>  -0.8059   0.0008   0.0070   0.0193   0.0070   0.0000   0.0000   0.0000   0.0000   0.0000 </r>
        <r>  -0.7177   0.0024   0.0309   0.0604   0.0309   0.0000   0.0000   0.0000   0.0000   0.0000 </r>
        <r>  -0.6294   0.0020   0.0382   0.0480   0.0382   0.0000   0.0000   0.0000   0.0000   0.0000 </r>
        <r>  -0.5412   0.0015   0.0165   0.0098   0.0165   0.0000   0.0000   0.0000   0.0000   0.0000 </r>
        <r>  -0.4529   0.0025   0.0101   0.0009   0.0101   0.0000   0.0000   0.0000   0.0000   0.0000 </r>
        <r>  -0.3647   0.0015   0.0055   0.0003   0.0055   0.0000   0.0000   0.0000   0.0000   0.0000 </r>
        <r>  -0.2764   0.0002   0.0036   0.0000   0.0036   0.0000   0.0000   0.0000   0.0000   0.0000 </r>
        <r>  -0.1882   0.0000   0.0113   0.0000   0.0113   0.0000   0.0000   0.0000   0.0000   0.0000 </r>
        <r>  -0.0999   0.0000   0.0113   0.0000   0.0113   0.0000   0.0000   0.0000   0.0000   0.0000 </r>
        <r>  -0.0117   0.0000   0.0029   0.0000   0.0029   0.0000   0.0000   0.0000   0.0000   0.0000 </r>
        <r>   0.0766   0.0000   0.0002   0.0000   0.0002   0.0000   0.0000   0.0000   0.0000   0.0000 </r>
        <r>   0.1648   0.0000   0.0000   0.0000   0.0000   0.0000   0.0000   0.0000   0.0000   0.0000 </r>
        <r>   0.2531   0.0000   0.0000   0.0000   0.0000   0.0000   0.0000   0.0000   0.0000   0.0000 </r>
        <r>   0.3413   0.0000   0.0000   0.0000   0.0000   0.0000   0.0000   0.0000   0.0000   0.0000 </r>
        <r>   0.4296   0.0000   0.0000   0.0000   0.0000   0.0000   0.0000   0.0000   0.0000   0.0000 </r>
        <r>   0.5178   0.0000   0.0000   0.0000   0.0000   0.0000   0.0000   0.0000   0.0000   0.0000 </r>
        <r>   0.6061   0.0000   0.0000   0.0000   0.0000   0.0000   0.0000   0.0000   0.0000   0.0000 </r>
        <r>   0.6943   0.0000   0.0000   0.0000   0.0000   0.0000   0.0000   0.0000   0.0000   0.0000 </r>
        <r>   0.7826   0.0000   0.0000   0.0000   0.0000   0.0000   0.0000   0.0000   0.0000   0.0000 </r>
        <r>   0.8708   0.0000   0.0000   0.0000   0.0000   0.0000   0.0000   0.0000   0.0000   0.0000 </r>
        <r>   0.9591   0.0000   0.0000   0.0000   0.0000   0.0000   0.0000   0.0000   0.0000   0.0000 </r>
        <r>   1.0473   0.0000   0.0000   0.0000   0.0000   0.0000   0.0000   0.0000   0.0000   0.0000 </r>
        <r>   1.1356   0.0000   0.0000   0.0000   0.0000   0.0000   0.0000   0.0000   0.0000   0.0000 </r>
        <r>   1.2238   0.0000   0.0000   0.0000   0.0000   0.0000   0.0000   0.0000   0.0000   0.0000 </r>
        <r>   1.3121   0.0000   0.0000   0.0000   0.0000   0.0000   0.0000   0.0000   0.0000   0.0000 </r>
        <r>   1.4003   0.0000   0.0000   0.0000   0.0000   0.0000   0.0000   0.0000   0.0000   0.0000 </r>
        <r>   1.4886   0.0000   0.0000   0.0000   0.0000   0.0000   0.0000   0.0000   0.0000   0.0000 </r>
        <r>   1.5768   0.0000   0.0000   0.0000   0.0000   0.0000   0.0000   0.0000   0.0000   0.0000 </r>
        <r>   1.6651   0.0000   0.0000   0.0000   0.0000   0.0000   0.0000   0.0000   0.0000   0.0000 </r>
        <r>   1.7533   0.0000   0.0000   0.0000   0.0000   0.0000   0.0000   0.0000   0.0000   0.0000 </r>
        <r>   1.8416   0.0000   0.0000   0.0000   0.0000   0.0000   0.0000   0.0000   0.0000   0.0000 </r>
        <r>   1.9298   0.0000   0.0000   0.0000   0.0000   0.0000   0.0000   0.0000   0.0000   0.0000 </r>
        <r>   2.0181   0.0000   0.0000   0.0000   0.0000   0.0000   0.0000   0.0000   0.0000   0.0000 </r>
        <r>   2.1063   0.0000   0.0000   0.0000   0.0000   0.0000   0.0000   0.0000   0.0000   0.0000 </r>
        <r>   2.1946   0.0000   0.0000   0.0000   0.0000   0.0000   0.0000   0.0000   0.0000   0.0000 </r>
        <r>   2.2828   0.0000   0.0000   0.0000   0.0000   0.0000   0.0000   0.0000   0.0000   0.0000 </r>
        <r>   2.3710   0.0000   0.0000   0.0000   0.0000   0.0000   0.0000   0.0000   0.0000   0.0000 </r>
        <r>   2.4593   0.0000   0.0000   0.0000   0.0000   0.0000   0.0000   0.0000   0.0000   0.0000 </r>
        <r>   2.5475   0.0000   0.0000   0.0000   0.0000   0.0000   0.0000   0.0000   0.0000   0.0000 </r>
        <r>   2.6358   0.0000   0.0000   0.0000   0.0000   0.0000   0.0000   0.0000   0.0000   0.0000 </r>
        <r>   2.7240   0.0000   0.0000   0.0000   0.0000   0.0000   0.0000   0.0000   0.0000   0.0000 </r>
        <r>   2.8123   0.0000   0.0000   0.0000   0.0000   0.0000   0.0000   0.0000   0.0000   0.0000 </r>
        <r>   2.9005   0.0000   0.0000   0.0000   0.0000   0.0000   0.0000   0.0000   0.0000   0.0000 </r>
        <r>   2.9888   0.0000   0.0000   0.0000   0.0000   0.0000   0.0000   0.0000   0.0000   0.0000 </r>
        <r>   3.0770   0.0000   0.0000   0.0000   0.0000   0.0000   0.0000   0.0000   0.0000   0.0000 </r>
        <r>   3.1653   0.0000   0.0000   0.0000   0.0000   0.0000   0.0000   0.0000   0.0000   0.0000 </r>
        <r>   3.2535   0.0000   0.0000   0.0000   0.0000   0.0000   0.0000   0.0000   0.0000   0.0000 </r>
        <r>   3.3418   0.0000   0.0000   0.0000   0.0000   0.0000   0.0000   0.0000   0.0000   0.0000 </r>
        <r>   3.4300   0.0000   0.0000   0.0000   0.0000   0.0000   0.0000   0.0000   0.0000   0.0000 </r>
        <r>   3.5183   0.0000   0.0000   0.0000   0.0000   0.0000   0.0000   0.0000   0.0000   0.0000 </r>
        <r>   3.6065   0.0000   0.0000   0.0000   0.0000   0.0000   0.0000   0.0000   0.0000   0.0000 </r>
        <r>   3.6948   0.0000   0.0000   0.0000   0.0000   0.0000   0.0000   0.0000   0.0000   0.0000 </r>
        <r>   3.7830   0.0004   0.0000   0.0000   0.0000   0.0000   0.0000   0.0000   0.0000   0.0000 </r>
        <r>   3.8713   0.0098   0.0009   0.0009   0.0009   0.0000   0.0000   0.0000   0.0000   0.0000 </r>
        <r>   3.9595   0.0553   0.0051   0.0049   0.0051   0.0000   0.0000   0.0000   0.0000   0.0000 </r>
        <r>   4.0478   0.0787   0.0073   0.0069   0.0073   0.0000   0.0000   0.0000   0.0000   0.0000 </r>
        <r>   4.1360   0.0284   0.0026   0.0025   0.0026   0.0000   0.0000   0.0000   0.0000   0.0000 </r>
        <r>   4.2243   0.0025   0.0002   0.0002   0.0002   0.0000   0.0000   0.0000   0.0000   0.0000 </r>
        <r>   4.3125   0.0001   0.0000   0.0000   0.0000   0.0000   0.0000   0.0000   0.0000   0.0000 </r>
        <r>   4.4008   0.0000   0.0000   0.0000   0.0000   0.0000   0.0000   0.0000   0.0000   0.0000 </r>
        <r>   4.4890   0.0000   0.0000   0.0000   0.0000   0.0000   0.0000   0.0000   0.0000   0.0000 </r>
        <r>   4.5773   0.0000   0.0000   0.0000   0.0000   0.0000   0.0000   0.0000   0.0000   0.0000 </r>
        <r>   4.6655   0.0000   0.0000   0.0000   0.0000   0.0000   0.0000   0.0000   0.0000   0.0000 </r>
        <r>   4.7538   0.0000   0.0000   0.0000   0.0000   0.0000   0.0000   0.0000   0.0000   0.0000 </r>
        <r>   4.8420   0.0000   0.0000   0.0000   0.0000   0.0000   0.0000   0.0000   0.0000   0.0000 </r>
        <r>   4.9303   0.0000   0.0000   0.0000   0.0000   0.0000   0.0000   0.0000   0.0000   0.0000 </r>
        <r>   5.0185   0.0000   0.0000   0.0000   0.0000   0.0000   0.0000   0.0000   0.0000   0.0000 </r>
        <r>   5.1068   0.0000   0.0000   0.0000   0.0000   0.0000   0.0000   0.0000   0.0000   0.0000 </r>
        <r>   5.1950   0.0000   0.0000   0.0000   0.0000   0.0000   0.0000   0.0000   0.0000   0.0000 </r>
        <r>   5.2833   0.0000   0.0000   0.0000   0.0000   0.0000   0.0000   0.0000   0.0000   0.0000 </r>
        <r>   5.3715   0.0000   0.0000   0.0000   0.0000   0.0000   0.0000   0.0000   0.0000   0.0000 </r>
        <r>   5.4597   0.0006   0.0001   0.0008   0.0001   0.0000   0.0000   0.0000   0.0000   0.0000 </r>
        <r>   5.5480   0.0130   0.0019   0.0178   0.0019   0.0000   0.0000   0.0000   0.0000   0.0000 </r>
        <r>   5.6362   0.0691   0.0101   0.0950   0.0101   0.0000   0.0000   0.0000   0.0000   0.0000 </r>
        <r>   5.7245   0.0928   0.0136   0.1275   0.0136   0.0000   0.0000   0.0000   0.0000   0.0000 </r>
        <r>   5.8127   0.0316   0.0046   0.0435   0.0046   0.0000   0.0000   0.0000   0.0000   0.0000 </r>
        <r>   5.9010   0.0027   0.0004   0.0037   0.0004   0.0000   0.0000   0.0000   0.0000   0.0000 </r>
        <r>   5.9892   0.0001   0.0000   0.0001   0.0000   0.0000   0.0000   0.0000   0.0000   0.0000 </r>
        <r>   6.0775   0.0000   0.0000   0.0000   0.0000   0.0000   0.0000   0.0000   0.0000   0.0000 </r>
        <r>   6.1657   0.0000   0.0000   0.0000   0.0000   0.0000   0.0000   0.0000   0.0000   0.0000 </r>
        <r>   6.2540   0.0000   0.0000   0.0000   0.0000   0.0000   0.0000   0.0000   0.0000   0.0000 </r>
        <r>   6.3422   0.0000   0.0000   0.0000   0.0000   0.0000   0.0000   0.0000   0.0000   0.0000 </r>
        <r>   6.4305   0.0000   0.0000   0.0000   0.0000   0.0000   0.0000   0.0000   0.0000   0.0000 </r>
        <r>   6.5187   0.0000   0.0000   0.0000   0.0000   0.0000   0.0000   0.0000   0.0000   0.0000 </r>
        <r>   6.6070   0.0000   0.0000   0.0000   0.0000   0.0000   0.0000   0.0000   0.0000   0.0000 </r>
        <r>   6.6952   0.0000   0.0000   0.0000   0.0000   0.0000   0.0000   0.0000   0.0000   0.0000 </r>
        <r>   6.7835   0.0000   0.0000   0.0000   0.0000   0.0000   0.0000   0.0000   0.0000   0.0000 </r>
        <r>   6.8717   0.0000   0.0000   0.0000   0.0000   0.0000   0.0000   0.0000   0.0000   0.0000 </r>
        <r>   6.9600   0.0005   0.0000   0.0003   0.0000   0.0000   0.0000   0.0000   0.0000   0.0000 </r>
        <r>   7.0482   0.0183   0.0002   0.0120   0.0002   0.0000   0.0000   0.0000   0.0000   0.0000 </r>
        <r>   7.1365   0.1546   0.0020   0.1013   0.0019   0.0000   0.0000   0.0000   0.0000   0.0000 </r>
        <r>   7.2247   0.3263   0.0042   0.2138   0.0040   0.0000   0.0000   0.0000   0.0000   0.0000 </r>
        <r>   7.3130   0.1752   0.0022   0.1148   0.0021   0.0000   0.0000   0.0000   0.0000   0.0000 </r>
        <r>   7.4012   0.0235   0.0003   0.0154   0.0003   0.0000   0.0000   0.0000   0.0000   0.0000 </r>
        <r>   7.4895   0.0008   0.0000   0.0005   0.0000   0.0000   0.0000   0.0000   0.0000   0.0000 </r>
        <r>   7.5777   0.0000   0.0000   0.0000   0.0000   0.0000   0.0000   0.0000   0.0000   0.0000 </r>
        <r>   7.6660   0.0011   0.0002   0.0000   0.0002   0.0000   0.0000   0.0000   0.0000   0.0000 </r>
        <r>   7.7542   0.0308   0.0049   0.0002   0.0049   0.0000   0.0000   0.0000   0.0000   0.0000 </r>
        <r>   7.8425   0.2022   0.0323   0.0012   0.0322   0.0000   0.0000   0.0000   0.0000   0.0000 </r>
        <r>   7.9307   0.3326   0.0531   0.0020   0.0529   0.0000   0.0000   0.0000   0.0000   0.0000 </r>
        <r>   8.0190   0.1391   0.0222   0.0008   0.0221   0.0000   0.0000   0.0000   0.0000   0.0000 </r>
        <r>   8.1072   0.0145   0.0023   0.0001   0.0023   0.0000   0.0000   0.0000   0.0000   0.0000 </r>
        <r>   8.1955   0.0004   0.0001   0.0000   0.0001   0.0000   0.0000   0.0000   0.0000   0.0000 </r>
        <r>   8.2837   0.0000   0.0000   0.0000   0.0000   0.0000   0.0000   0.0000   0.0000   0.0000 </r>
        <r>   8.3720   0.0000   0.0000   0.0000   0.0000   0.0000   0.0000   0.0000   0.0000   0.0000 </r>
        <r>   8.4602   0.0000   0.0000   0.0000   0.0000   0.0000   0.0000   0.0000   0.0000   0.0000 </r>
        <r>   8.5484   0.0000   0.0000   0.0000   0.0000   0.0000   0.0000   0.0000   0.0000   0.0000 </r>
        <r>   8.6367   0.0000   0.0000   0.0000   0.0000   0.0000   0.0000   0.0000   0.0000   0.0000 </r>
        <r>   8.7249   0.0000   0.0000   0.0000   0.0000   0.0000   0.0000   0.0000   0.0000   0.0000 </r>
        <r>   8.8132   0.0000   0.0000   0.0000   0.0000   0.0000   0.0000   0.0000   0.0000   0.0000 </r>
        <r>   8.9014   0.0000   0.0000   0.0000   0.0000   0.0000   0.0000   0.0000   0.0000   0.0000 </r>
        <r>   8.9897   0.0000   0.0000   0.0000   0.0000   0.0000   0.0000   0.0000   0.0000   0.0000 </r>
        <r>   9.0779   0.0000   0.0000   0.0000   0.0000   0.0000   0.0000   0.0000   0.0000   0.0000 </r>
       </set>
      </set>
      <set comment="ion 2">
       <set comment="spin 1">
        <r> -17.3966   0.0000   0.0000   0.0000   0.0000   0.0000   0.0000   0.0000   0.0000   0.0000 </r>
        <r> -17.3084   0.0000   0.0000   0.0000   0.0000   0.0000   0.0000   0.0000   0.0000   0.0000 </r>
        <r> -17.2201   0.0000   0.0000   0.0000   0.0000   0.0000   0.0000   0.0000   0.0000   0.0000 </r>
        <r> -17.1319   0.0000   0.0000   0.0000   0.0000   0.0000   0.0000   0.0000   0.0000   0.0000 </r>
        <r> -17.0436   0.0000   0.0000   0.0000   0.0000   0.0000   0.0000   0.0000   0.0000   0.0000 </r>
        <r> -16.9554   0.0000   0.0000   0.0000   0.0000   0.0000   0.0000   0.0000   0.0000   0.0000 </r>
        <r> -16.8671   0.0000   0.0000   0.0000   0.0000   0.0000   0.0000   0.0000   0.0000   0.0000 </r>
        <r> -16.7789   0.0000   0.0000   0.0000   0.0000   0.0000   0.0000   0.0000   0.0000   0.0000 </r>
        <r> -16.6906   0.0000   0.0000   0.0000   0.0000   0.0000   0.0000   0.0000   0.0000   0.0000 </r>
        <r> -16.6024   0.0000   0.0000   0.0000   0.0000   0.0000   0.0000   0.0000   0.0000   0.0000 </r>
        <r> -16.5141   0.0000   0.0000   0.0000   0.0000   0.0000   0.0000   0.0000   0.0000   0.0000 </r>
        <r> -16.4259   0.0001   0.0000   0.0000   0.0000   0.0000   0.0000   0.0000   0.0000   0.0000 </r>
        <r> -16.3377   0.0024   0.0003   0.0002   0.0003   0.0000   0.0000   0.0000   0.0000   0.0000 </r>
        <r> -16.2494   0.0229   0.0031   0.0019   0.0031   0.0000   0.0000   0.0000   0.0000   0.0000 </r>
        <r> -16.1612   0.0547   0.0073   0.0045   0.0073   0.0000   0.0000   0.0000   0.0000   0.0000 </r>
        <r> -16.0729   0.0333   0.0044   0.0028   0.0044   0.0000   0.0000   0.0000   0.0000   0.0000 </r>
        <r> -15.9847   0.0051   0.0007   0.0004   0.0007   0.0000   0.0000   0.0000   0.0000   0.0000 </r>
        <r> -15.8964   0.0002   0.0000   0.0000   0.0000   0.0000   0.0000   0.0000   0.0000   0.0000 </r>
        <r> -15.8082   0.0000   0.0000   0.0000   0.0000   0.0000   0.0000   0.0000   0.0000   0.0000 </r>
        <r> -15.7199   0.0005   0.0003   0.0002   0.0003   0.0000   0.0000   0.0000   0.0000   0.0000 </r>
        <r> -15.6317   0.0052   0.0035   0.0019   0.0035   0.0000   0.0000   0.0000   0.0000   0.0000 </r>
        <r> -15.5434   0.0148   0.0125   0.0067   0.0125   0.0000   0.0000   0.0000   0.0000   0.0000 </r>
        <r> -15.4552   0.0155   0.0206   0.0105   0.0206   0.0000   0.0000   0.0000   0.0000   0.0000 </r>
        <r> -15.3669   0.0075   0.0137   0.0068   0.0137   0.0000   0.0000   0.0000   0.0000   0.0000 </r>
        <r> -15.2787   0.0013   0.0027   0.0013   0.0027   0.0000   0.0000   0.0000   0.0000   0.0000 </r>
        <r> -15.1904   0.0001   0.0001   0.0001   0.0001   0.0000   0.0000   0.0000   0.0000   0.0000 </r>
        <r> -15.1022   0.0000   0.0000   0.0000   0.0000   0.0000   0.0000   0.0000   0.0000   0.0000 </r>
        <r> -15.0139   0.0000   0.0000   0.0000   0.0000   0.0000   0.0000   0.0000   0.0000   0.0000 </r>
        <r> -14.9257   0.0000   0.0000   0.0000   0.0000   0.0000   0.0000   0.0000   0.0000   0.0000 </r>
        <r> -14.8374   0.0000   0.0000   0.0000   0.0000   0.0000   0.0000   0.0000   0.0000   0.0000 </r>
        <r> -14.7492   0.0000   0.0000   0.0000   0.0000   0.0000   0.0000   0.0000   0.0000   0.0000 </r>
        <r> -14.6609   0.0000   0.0000   0.0000   0.0000   0.0000   0.0000   0.0000   0.0000   0.0000 </r>
        <r> -14.5727   0.0000   0.0000   0.0000   0.0000   0.0000   0.0000   0.0000   0.0000   0.0000 </r>
        <r> -14.4844   0.0000   0.0000   0.0000   0.0000   0.0000   0.0000   0.0000   0.0000   0.0000 </r>
        <r> -14.3962   0.0000   0.0000   0.0000   0.0000   0.0000   0.0000   0.0000   0.0000   0.0000 </r>
        <r> -14.3079   0.0000   0.0000   0.0000   0.0000   0.0000   0.0000   0.0000   0.0000   0.0000 </r>
        <r> -14.2197   0.0000   0.0000   0.0000   0.0000   0.0000   0.0000   0.0000   0.0000   0.0000 </r>
        <r> -14.1314   0.0000   0.0000   0.0000   0.0000   0.0000   0.0000   0.0000   0.0000   0.0000 </r>
        <r> -14.0432   0.0000   0.0000   0.0000   0.0000   0.0000   0.0000   0.0000   0.0000   0.0000 </r>
        <r> -13.9549   0.0000   0.0000   0.0000   0.0000   0.0000   0.0000   0.0000   0.0000   0.0000 </r>
        <r> -13.8667   0.0000   0.0000   0.0000   0.0000   0.0000   0.0000   0.0000   0.0000   0.0000 </r>
        <r> -13.7784   0.0000   0.0000   0.0000   0.0000   0.0000   0.0000   0.0000   0.0000   0.0000 </r>
        <r> -13.6902   0.0000   0.0000   0.0000   0.0000   0.0000   0.0000   0.0000   0.0000   0.0000 </r>
        <r> -13.6019   0.0000   0.0000   0.0000   0.0000   0.0000   0.0000   0.0000   0.0000   0.0000 </r>
        <r> -13.5137   0.0000   0.0000   0.0000   0.0000   0.0000   0.0000   0.0000   0.0000   0.0000 </r>
        <r> -13.4254   0.0000   0.0000   0.0000   0.0000   0.0000   0.0000   0.0000   0.0000   0.0000 </r>
        <r> -13.3372   0.0000   0.0000   0.0000   0.0000   0.0000   0.0000   0.0000   0.0000   0.0000 </r>
        <r> -13.2490   0.0000   0.0000   0.0000   0.0000   0.0000   0.0000   0.0000   0.0000   0.0000 </r>
        <r> -13.1607   0.0000   0.0000   0.0000   0.0000   0.0000   0.0000   0.0000   0.0000   0.0000 </r>
        <r> -13.0725   0.0000   0.0000   0.0000   0.0000   0.0000   0.0000   0.0000   0.0000   0.0000 </r>
        <r> -12.9842   0.0000   0.0000   0.0000   0.0000   0.0000   0.0000   0.0000   0.0000   0.0000 </r>
        <r> -12.8960   0.0000   0.0000   0.0000   0.0000   0.0000   0.0000   0.0000   0.0000   0.0000 </r>
        <r> -12.8077   0.0000   0.0000   0.0000   0.0000   0.0000   0.0000   0.0000   0.0000   0.0000 </r>
        <r> -12.7195   0.0000   0.0000   0.0000   0.0000   0.0000   0.0000   0.0000   0.0000   0.0000 </r>
        <r> -12.6312   0.0000   0.0000   0.0000   0.0000   0.0000   0.0000   0.0000   0.0000   0.0000 </r>
        <r> -12.5430   0.0000   0.0000   0.0000   0.0000   0.0000   0.0000   0.0000   0.0000   0.0000 </r>
        <r> -12.4547   0.0000   0.0000   0.0000   0.0000   0.0000   0.0000   0.0000   0.0000   0.0000 </r>
        <r> -12.3665   0.0000   0.0000   0.0000   0.0000   0.0000   0.0000   0.0000   0.0000   0.0000 </r>
        <r> -12.2782   0.0000   0.0000   0.0000   0.0000   0.0000   0.0000   0.0000   0.0000   0.0000 </r>
        <r> -12.1900   0.0000   0.0000   0.0000   0.0000   0.0000   0.0000   0.0000   0.0000   0.0000 </r>
        <r> -12.1017   0.0000   0.0000   0.0000   0.0000   0.0000   0.0000   0.0000   0.0000   0.0000 </r>
        <r> -12.0135   0.0000   0.0000   0.0000   0.0000   0.0000   0.0000   0.0000   0.0000   0.0000 </r>
        <r> -11.9252   0.0000   0.0000   0.0000   0.0000   0.0000   0.0000   0.0000   0.0000   0.0000 </r>
        <r> -11.8370   0.0000   0.0000   0.0000   0.0000   0.0000   0.0000   0.0000   0.0000   0.0000 </r>
        <r> -11.7487   0.0000   0.0000   0.0000   0.0000   0.0000   0.0000   0.0000   0.0000   0.0000 </r>
        <r> -11.6605   0.0000   0.0000   0.0000   0.0000   0.0000   0.0000   0.0000   0.0000   0.0000 </r>
        <r> -11.5722   0.0000   0.0000   0.0000   0.0000   0.0000   0.0000   0.0000   0.0000   0.0000 </r>
        <r> -11.4840   0.0000   0.0000   0.0000   0.0000   0.0000   0.0000   0.0000   0.0000   0.0000 </r>
        <r> -11.3957   0.0000   0.0000   0.0000   0.0000   0.0000   0.0000   0.0000   0.0000   0.0000 </r>
        <r> -11.3075   0.0000   0.0000   0.0000   0.0000   0.0000   0.0000   0.0000   0.0000   0.0000 </r>
        <r> -11.2192   0.0000   0.0000   0.0000   0.0000   0.0000   0.0000   0.0000   0.0000   0.0000 </r>
        <r> -11.1310   0.0000   0.0000   0.0000   0.0000   0.0000   0.0000   0.0000   0.0000   0.0000 </r>
        <r> -11.0427   0.0000   0.0000   0.0000   0.0000   0.0000   0.0000   0.0000   0.0000   0.0000 </r>
        <r> -10.9545   0.0000   0.0000   0.0000   0.0000   0.0000   0.0000   0.0000   0.0000   0.0000 </r>
        <r> -10.8662   0.0000   0.0000   0.0000   0.0000   0.0000   0.0000   0.0000   0.0000   0.0000 </r>
        <r> -10.7780   0.0000   0.0000   0.0000   0.0000   0.0000   0.0000   0.0000   0.0000   0.0000 </r>
        <r> -10.6897   0.0000   0.0000   0.0000   0.0000   0.0000   0.0000   0.0000   0.0000   0.0000 </r>
        <r> -10.6015   0.0000   0.0000   0.0000   0.0000   0.0000   0.0000   0.0000   0.0000   0.0000 </r>
        <r> -10.5132   0.0000   0.0000   0.0000   0.0000   0.0000   0.0000   0.0000   0.0000   0.0000 </r>
        <r> -10.4250   0.0000   0.0000   0.0000   0.0000   0.0000   0.0000   0.0000   0.0000   0.0000 </r>
        <r> -10.3367   0.0000   0.0000   0.0000   0.0000   0.0000   0.0000   0.0000   0.0000   0.0000 </r>
        <r> -10.2485   0.0000   0.0000   0.0000   0.0000   0.0000   0.0000   0.0000   0.0000   0.0000 </r>
        <r> -10.1603   0.0000   0.0000   0.0000   0.0000   0.0000   0.0000   0.0000   0.0000   0.0000 </r>
        <r> -10.0720   0.0000   0.0000   0.0000   0.0000   0.0000   0.0000   0.0000   0.0000   0.0000 </r>
        <r>  -9.9838   0.0000   0.0000   0.0000   0.0000   0.0000   0.0000   0.0000   0.0000   0.0000 </r>
        <r>  -9.8955   0.0000   0.0000   0.0000   0.0000   0.0000   0.0000   0.0000   0.0000   0.0000 </r>
        <r>  -9.8073   0.0000   0.0000   0.0000   0.0000   0.0000   0.0000   0.0000   0.0000   0.0000 </r>
        <r>  -9.7190   0.0000   0.0000   0.0000   0.0000   0.0000   0.0000   0.0000   0.0000   0.0000 </r>
        <r>  -9.6308   0.0000   0.0000   0.0000   0.0000   0.0000   0.0000   0.0000   0.0000   0.0000 </r>
        <r>  -9.5425   0.0000   0.0000   0.0000   0.0000   0.0000   0.0000   0.0000   0.0000   0.0000 </r>
        <r>  -9.4543   0.0000   0.0000   0.0000   0.0000   0.0000   0.0000   0.0000   0.0000   0.0000 </r>
        <r>  -9.3660   0.0000   0.0000   0.0000   0.0000   0.0000   0.0000   0.0000   0.0000   0.0000 </r>
        <r>  -9.2778   0.0000   0.0000   0.0000   0.0000   0.0000   0.0000   0.0000   0.0000   0.0000 </r>
        <r>  -9.1895   0.0000   0.0000   0.0000   0.0000   0.0000   0.0000   0.0000   0.0000   0.0000 </r>
        <r>  -9.1013   0.0000   0.0000   0.0000   0.0000   0.0000   0.0000   0.0000   0.0000   0.0000 </r>
        <r>  -9.0130   0.0000   0.0000   0.0000   0.0000   0.0000   0.0000   0.0000   0.0000   0.0000 </r>
        <r>  -8.9248   0.0000   0.0000   0.0000   0.0000   0.0000   0.0000   0.0000   0.0000   0.0000 </r>
        <r>  -8.8365   0.0000   0.0000   0.0000   0.0000   0.0000   0.0000   0.0000   0.0000   0.0000 </r>
        <r>  -8.7483   0.0000   0.0000   0.0000   0.0000   0.0000   0.0000   0.0000   0.0000   0.0000 </r>
        <r>  -8.6600   0.0000   0.0000   0.0000   0.0000   0.0000   0.0000   0.0000   0.0000   0.0000 </r>
        <r>  -8.5718   0.0000   0.0000   0.0000   0.0000   0.0000   0.0000   0.0000   0.0000   0.0000 </r>
        <r>  -8.4835   0.0000   0.0000   0.0000   0.0000   0.0000   0.0000   0.0000   0.0000   0.0000 </r>
        <r>  -8.3953   0.0000   0.0000   0.0000   0.0000   0.0000   0.0000   0.0000   0.0000   0.0000 </r>
        <r>  -8.3070   0.0000   0.0000   0.0000   0.0000   0.0000   0.0000   0.0000   0.0000   0.0000 </r>
[...]
        <r>   8.1955   0.0003   0.0001   0.0001   0.0001   0.0000   0.0000   0.0000   0.0000   0.0000 </r>
        <r>   8.2837   0.0000   0.0000   0.0000   0.0000   0.0000   0.0000   0.0000   0.0000   0.0000 </r>
        <r>   8.3720   0.0000   0.0000   0.0000   0.0000   0.0000   0.0000   0.0000   0.0000   0.0000 </r>
        <r>   8.4602   0.0000   0.0000   0.0000   0.0000   0.0000   0.0000   0.0000   0.0000   0.0000 </r>
        <r>   8.5484   0.0000   0.0000   0.0000   0.0000   0.0000   0.0000   0.0000   0.0000   0.0000 </r>
        <r>   8.6367   0.0000   0.0000   0.0000   0.0000   0.0000   0.0000   0.0000   0.0000   0.0000 </r>
        <r>   8.7249   0.0000   0.0000   0.0000   0.0000   0.0000   0.0000   0.0000   0.0000   0.0000 </r>
        <r>   8.8132   0.0000   0.0000   0.0000   0.0000   0.0000   0.0000   0.0000   0.0000   0.0000 </r>
        <r>   8.9014   0.0000   0.0000   0.0000   0.0000   0.0000   0.0000   0.0000   0.0000   0.0000 </r>
        <r>   8.9897   0.0000   0.0000   0.0000   0.0000   0.0000   0.0000   0.0000   0.0000   0.0000 </r>
        <r>   9.0779   0.0000   0.0000   0.0000   0.0000   0.0000   0.0000   0.0000   0.0000   0.0000 </r>
       </set>
      </set>
     </set>
    </array>
   </partial>
  </dos>
  <projected>
   <eigenvalues>
    <array>
     <dimension dim="1">band</dimension>
     <dimension dim="2">kpoint</dimension>
     <dimension dim="3">spin</dimension>
     <field>eigene</field>
     <field>occ</field>
     <set>
      <set comment="spin 1">
       <set comment="kpoint 1">
        <r>  -16.1932    1.0000 </r>
        <r>  -15.5735    1.0000 </r>
        <r>  -15.4681    1.0000 </r>
        <r>  -15.4681    1.0000 </r>
        <r>   -3.3366    1.0000 </r>
        <r>   -3.3366    1.0000 </r>
        <r>   -2.6886    1.0000 </r>
        <r>   -2.6783    1.0000 </r>
        <r>   -1.5368    1.0000 </r>
        <r>   -1.5368    1.0000 </r>
        <r>   -1.5315    1.0000 </r>
        <r>   -0.7324    1.0000 </r>
        <r>   -0.7324    1.0000 </r>
        <r>   -0.6920    1.0000 </r>
        <r>   -0.4871    1.0000 </r>
        <r>   -0.1881    1.0000 </r>
        <r>    3.9822    0.0000 </r>
        <r>    5.6552    0.0000 </r>
        <r>    7.1846    0.0000 </r>
        <r>    7.1847    0.0000 </r>
        <r>    7.8746    0.0000 </r>
       </set>
      </set>
     </set>
    </array>
   </eigenvalues>
   <array>
    <dimension dim="1">ion</dimension>
    <dimension dim="2">band</dimension>
    <dimension dim="3">kpoint</dimension>
    <dimension dim="4">spin</dimension>
    <field>  s</field>
    <field> py</field>
    <field> pz</field>
    <field> px</field>
    <field>dxy</field>
    <field>dyz</field>
    <field>dz2</field>
    <field>dxz</field>
    <field>dx2</field>
    <set>
     <set comment="spin1">
      <set comment="kpoint 1">
       <set comment="band 1">
        <r>  0.0052  0.0007  0.0004  0.0007  0.0000  0.0000  0.0000  0.0000  0.0000 </r>
        <r>  0.0052  0.0007  0.0004  0.0007  0.0000  0.0000  0.0000  0.0000  0.0000 </r>
        <r>  0.0052  0.0007  0.0004  0.0007  0.0000  0.0000  0.0000  0.0000  0.0000 </r>
        <r>  0.0052  0.0007  0.0004  0.0007  0.0000  0.0000  0.0000  0.0000  0.0000 </r>
        <r>  0.1848  0.0001  0.0003  0.0001  0.0000  0.0000  0.0000  0.0000  0.0000 </r>
        <r>  0.1848  0.0001  0.0003  0.0001  0.0000  0.0000  0.0000  0.0000  0.0000 </r>
        <r>  0.1848  0.0001  0.0003  0.0001  0.0000  0.0000  0.0000  0.0000  0.0000 </r>
        <r>  0.1848  0.0001  0.0003  0.0001  0.0000  0.0000  0.0000  0.0000  0.0000 </r>
       </set>
       <set comment="band 2">
        <r>  0.0012  0.0007  0.0004  0.0007  0.0000  0.0000  0.0000  0.0000  0.0000 </r>
        <r>  0.0012  0.0007  0.0004  0.0007  0.0000  0.0000  0.0000  0.0000  0.0000 </r>
        <r>  0.0012  0.0007  0.0004  0.0007  0.0000  0.0000  0.0000  0.0000  0.0000 </r>
        <r>  0.0012  0.0007  0.0004  0.0007  0.0000  0.0000  0.0000  0.0000  0.0000 </r>
        <r>  0.1983  0.0000  0.0000  0.0000  0.0000  0.0000  0.0000  0.0000  0.0000 </r>
        <r>  0.1983  0.0000  0.0000  0.0000  0.0000  0.0000  0.0000  0.0000  0.0000 </r>
        <r>  0.1983  0.0000  0.0000  0.0000  0.0000  0.0000  0.0000  0.0000  0.0000 </r>
        <r>  0.1983  0.0000  0.0000  0.0000  0.0000  0.0000  0.0000  0.0000  0.0000 </r>
       </set>
       <set comment="band 3">
        <r>  0.0007  0.0002  0.0007  0.0003  0.0000  0.0000  0.0000  0.0000  0.0000 </r>
        <r>  0.0001  0.0013  0.0001  0.0014  0.0000  0.0000  0.0000  0.0000  0.0000 </r>
        <r>  0.0001  0.0013  0.0001  0.0014  0.0000  0.0000  0.0000  0.0000  0.0000 </r>
        <r>  0.0007  0.0002  0.0007  0.0003  0.0000  0.0000  0.0000  0.0000  0.0000 </r>
        <r>  0.3359  0.0000  0.0002  0.0001  0.0000  0.0000  0.0000  0.0000  0.0000 </r>
        <r>  0.0646  0.0000  0.0000  0.0001  0.0000  0.0000  0.0000  0.0000  0.0000 </r>
        <r>  0.0646  0.0000  0.0000  0.0001  0.0000  0.0000  0.0000  0.0000  0.0000 </r>
        <r>  0.3359  0.0000  0.0002  0.0001  0.0000  0.0000  0.0000  0.0000  0.0000 </r>
       </set>
       <set comment="band 4">
        <r>  0.0001  0.0014  0.0001  0.0013  0.0000  0.0000  0.0000  0.0000  0.0000 </r>
        <r>  0.0007  0.0003  0.0007  0.0002  0.0000  0.0000  0.0000  0.0000  0.0000 </r>
        <r>  0.0007  0.0003  0.0007  0.0002  0.0000  0.0000  0.0000  0.0000  0.0000 </r>
        <r>  0.0001  0.0014  0.0001  0.0013  0.0000  0.0000  0.0000  0.0000  0.0000 </r>
        <r>  0.0646  0.0001  0.0000  0.0000  0.0000  0.0000  0.0000  0.0000  0.0000 </r>
        <r>  0.3359  0.0001  0.0002  0.0000  0.0000  0.0000  0.0000  0.0000  0.0000 </r>
        <r>  0.3359  0.0001  0.0002  0.0000  0.0000  0.0000  0.0000  0.0000  0.0000 </r>
        <r>  0.0646  0.0001  0.0000  0.0000  0.0000  0.0000  0.0000  0.0000  0.0000 </r>
       </set>
       <set comment="band 5">
        <r>  0.0046  0.0043  0.0000  0.0001  0.0000  0.0000  0.0000  0.0000  0.0000 </r>
        <r>  0.0219  0.0078  0.0001  0.0036  0.0000  0.0000  0.0000  0.0000  0.0000 </r>
        <r>  0.0219  0.0078  0.0001  0.0036  0.0000  0.0000  0.0000  0.0000  0.0000 </r>
        <r>  0.0046  0.0043  0.0000  0.0001  0.0000  0.0000  0.0000  0.0000  0.0000 </r>
        <r>  0.0005  0.1072  0.0031  0.0647  0.0000  0.0000  0.0000  0.0000  0.0000 </r>
        <r>  0.0024  0.0461  0.0146  0.0036  0.0000  0.0000  0.0000  0.0000  0.0000 </r>
        <r>  0.0024  0.0461  0.0146  0.0036  0.0000  0.0000  0.0000  0.0000  0.0000 </r>
        <r>  0.0005  0.1072  0.0031  0.0647  0.0000  0.0000  0.0000  0.0000  0.0000 </r>
       </set>
       <set comment="band 6">
        <r>  0.0219  0.0036  0.0001  0.0078  0.0000  0.0000  0.0000  0.0000  0.0000 </r>
        <r>  0.0046  0.0001  0.0000  0.0043  0.0000  0.0000  0.0000  0.0000  0.0000 </r>
        <r>  0.0046  0.0001  0.0000  0.0043  0.0000  0.0000  0.0000  0.0000  0.0000 </r>
        <r>  0.0219  0.0036  0.0001  0.0078  0.0000  0.0000  0.0000  0.0000  0.0000 </r>
        <r>  0.0024  0.0036  0.0146  0.0461  0.0000  0.0000  0.0000  0.0000  0.0000 </r>
        <r>  0.0005  0.0647  0.0031  0.1072  0.0000  0.0000  0.0000  0.0000  0.0000 </r>
        <r>  0.0005  0.0647  0.0031  0.1072  0.0000  0.0000  0.0000  0.0000  0.0000 </r>
        <r>  0.0024  0.0036  0.0146  0.0461  0.0000  0.0000  0.0000  0.0000  0.0000 </r>
       </set>
       <set comment="band 7">
        <r>  0.0172  0.0017  0.0000  0.0017  0.0000  0.0000  0.0000  0.0000  0.0000 </r>
        <r>  0.0172  0.0017  0.0000  0.0017  0.0000  0.0000  0.0000  0.0000  0.0000 </r>
        <r>  0.0172  0.0017  0.0000  0.0017  0.0000  0.0000  0.0000  0.0000  0.0000 </r>
        <r>  0.0172  0.0017  0.0000  0.0017  0.0000  0.0000  0.0000  0.0000  0.0000 </r>
        <r>  0.0008  0.0522  0.0213  0.0522  0.0000  0.0000  0.0000  0.0000  0.0000 </r>
        <r>  0.0008  0.0522  0.0213  0.0522  0.0000  0.0000  0.0000  0.0000  0.0000 </r>
        <r>  0.0008  0.0522  0.0213  0.0522  0.0000  0.0000  0.0000  0.0000  0.0000 </r>
        <r>  0.0008  0.0522  0.0213  0.0522  0.0000  0.0000  0.0000  0.0000  0.0000 </r>
       </set>
       <set comment="band 8">
        <r>  0.0106  0.0003  0.0053  0.0003  0.0000  0.0000  0.0000  0.0000  0.0000 </r>
        <r>  0.0106  0.0003  0.0053  0.0003  0.0000  0.0000  0.0000  0.0000  0.0000 </r>
        <r>  0.0106  0.0003  0.0053  0.0003  0.0000  0.0000  0.0000  0.0000  0.0000 </r>
        <r>  0.0106  0.0003  0.0053  0.0003  0.0000  0.0000  0.0000  0.0000  0.0000 </r>
        <r>  0.0069  0.0213  0.0798  0.0213  0.0000  0.0000  0.0000  0.0000  0.0000 </r>
        <r>  0.0069  0.0213  0.0798  0.0213  0.0000  0.0000  0.0000  0.0000  0.0000 </r>
        <r>  0.0069  0.0213  0.0798  0.0213  0.0000  0.0000  0.0000  0.0000  0.0000 </r>
        <r>  0.0069  0.0213  0.0798  0.0213  0.0000  0.0000  0.0000  0.0000  0.0000 </r>
       </set>
       <set comment="band 9">
        <r>  0.0030  0.0010  0.0002  0.0006  0.0000  0.0000  0.0000  0.0000  0.0000 </r>
        <r>  0.0003  0.0079  0.0000  0.0075  0.0000  0.0000  0.0000  0.0000  0.0000 </r>
        <r>  0.0003  0.0079  0.0000  0.0075  0.0000  0.0000  0.0000  0.0000  0.0000 </r>
        <r>  0.0030  0.0010  0.0002  0.0006  0.0000  0.0000  0.0000  0.0000  0.0000 </r>
        <r>  0.0008  0.1344  0.0239  0.1073  0.0000  0.0000  0.0000  0.0000  0.0000 </r>
        <r>  0.0001  0.0310  0.0026  0.0039  0.0000  0.0000  0.0000  0.0000  0.0000 </r>
        <r>  0.0001  0.0310  0.0026  0.0039  0.0000  0.0000  0.0000  0.0000  0.0000 </r>
        <r>  0.0008  0.1344  0.0239  0.1073  0.0000  0.0000  0.0000  0.0000  0.0000 </r>
       </set>
       <set comment="band 10">
        <r>  0.0003  0.0075  0.0000  0.0079  0.0000  0.0000  0.0000  0.0000  0.0000 </r>
        <r>  0.0030  0.0006  0.0002  0.0010  0.0000  0.0000  0.0000  0.0000  0.0000 </r>
        <r>  0.0030  0.0006  0.0002  0.0010  0.0000  0.0000  0.0000  0.0000  0.0000 </r>
        <r>  0.0003  0.0075  0.0000  0.0079  0.0000  0.0000  0.0000  0.0000  0.0000 </r>
        <r>  0.0001  0.0039  0.0026  0.0310  0.0000  0.0000  0.0000  0.0000  0.0000 </r>
        <r>  0.0008  0.1073  0.0239  0.1344  0.0000  0.0000  0.0000  0.0000  0.0000 </r>
        <r>  0.0008  0.1073  0.0239  0.1344  0.0000  0.0000  0.0000  0.0000  0.0000 </r>
        <r>  0.0001  0.0039  0.0026  0.0310  0.0000  0.0000  0.0000  0.0000  0.0000 </r>
       </set>
       <set comment="band 11">
        <r>  0.0064  0.0006  0.0045  0.0006  0.0000  0.0000  0.0000  0.0000  0.0000 </r>
        <r>  0.0064  0.0006  0.0045  0.0006  0.0000  0.0000  0.0000  0.0000  0.0000 </r>
        <r>  0.0064  0.0006  0.0045  0.0006  0.0000  0.0000  0.0000  0.0000  0.0000 </r>
        <r>  0.0064  0.0006  0.0045  0.0006  0.0000  0.0000  0.0000  0.0000  0.0000 </r>
        <r>  0.0015  0.0461  0.0463  0.0461  0.0000  0.0000  0.0000  0.0000  0.0000 </r>
        <r>  0.0015  0.0461  0.0463  0.0461  0.0000  0.0000  0.0000  0.0000  0.0000 </r>
        <r>  0.0015  0.0461  0.0463  0.0461  0.0000  0.0000  0.0000  0.0000  0.0000 </r>
        <r>  0.0015  0.0461  0.0463  0.0461  0.0000  0.0000  0.0000  0.0000  0.0000 </r>
       </set>
       <set comment="band 12">
        <r>  0.0002  0.0012  0.0053  0.0005  0.0000  0.0000  0.0000  0.0000  0.0000 </r>
        <r>  0.0000  0.0007  0.0009  0.0000  0.0000  0.0000  0.0000  0.0000  0.0000 </r>
        <r>  0.0000  0.0007  0.0009  0.0000  0.0000  0.0000  0.0000  0.0000  0.0000 </r>
        <r>  0.0002  0.0012  0.0053  0.0005  0.0000  0.0000  0.0000  0.0000  0.0000 </r>
        <r>  0.0005  0.0190  0.2296  0.0018  0.0000  0.0000  0.0000  0.0000  0.0000 </r>
        <r>  0.0001  0.0269  0.0393  0.0097  0.0000  0.0000  0.0000  0.0000  0.0000 </r>
        <r>  0.0001  0.0269  0.0393  0.0097  0.0000  0.0000  0.0000  0.0000  0.0000 </r>
        <r>  0.0005  0.0190  0.2296  0.0018  0.0000  0.0000  0.0000  0.0000  0.0000 </r>
       </set>
       <set comment="band 13">
        <r>  0.0000  0.0000  0.0009  0.0007  0.0000  0.0000  0.0000  0.0000  0.0000 </r>
        <r>  0.0002  0.0005  0.0053  0.0012  0.0000  0.0000  0.0000  0.0000  0.0000 </r>
        <r>  0.0002  0.0005  0.0053  0.0012  0.0000  0.0000  0.0000  0.0000  0.0000 </r>
        <r>  0.0000  0.0000  0.0009  0.0007  0.0000  0.0000  0.0000  0.0000  0.0000 </r>
        <r>  0.0001  0.0097  0.0393  0.0269  0.0000  0.0000  0.0000  0.0000  0.0000 </r>
        <r>  0.0005  0.0018  0.2296  0.0190  0.0000  0.0000  0.0000  0.0000  0.0000 </r>
        <r>  0.0005  0.0018  0.2296  0.0190  0.0000  0.0000  0.0000  0.0000  0.0000 </r>
        <r>  0.0001  0.0097  0.0393  0.0269  0.0000  0.0000  0.0000  0.0000  0.0000 </r>
       </set>
       <set comment="band 14">
        <r>  0.0000  0.0028  0.0000  0.0028  0.0000  0.0000  0.0000  0.0000  0.0000 </r>
        <r>  0.0000  0.0028  0.0000  0.0028  0.0000  0.0000  0.0000  0.0000  0.0000 </r>
        <r>  0.0000  0.0028  0.0000  0.0028  0.0000  0.0000  0.0000  0.0000  0.0000 </r>
        <r>  0.0000  0.0028  0.0000  0.0028  0.0000  0.0000  0.0000  0.0000  0.0000 </r>
        <r>  0.0000  0.0863  0.0000  0.0863  0.0000  0.0000  0.0000  0.0000  0.0000 </r>
        <r>  0.0000  0.0863  0.0000  0.0863  0.0000  0.0000  0.0000  0.0000  0.0000 </r>
        <r>  0.0000  0.0863  0.0000  0.0863  0.0000  0.0000  0.0000  0.0000  0.0000 </r>
        <r>  0.0000  0.0863  0.0000  0.0863  0.0000  0.0000  0.0000  0.0000  0.0000 </r>
       </set>
       <set comment="band 15">
        <r>  0.0002  0.0009  0.0000  0.0009  0.0000  0.0000  0.0000  0.0000  0.0000 </r>
        <r>  0.0002  0.0009  0.0000  0.0009  0.0000  0.0000  0.0000  0.0000  0.0000 </r>
        <r>  0.0002  0.0009  0.0000  0.0009  0.0000  0.0000  0.0000  0.0000  0.0000 </r>
        <r>  0.0002  0.0009  0.0000  0.0009  0.0000  0.0000  0.0000  0.0000  0.0000 </r>
        <r>  0.0004  0.0171  0.1286  0.0171  0.0000  0.0000  0.0000  0.0000  0.0000 </r>
        <r>  0.0004  0.0171  0.1286  0.0171  0.0000  0.0000  0.0000  0.0000  0.0000 </r>
        <r>  0.0004  0.0171  0.1286  0.0171  0.0000  0.0000  0.0000  0.0000  0.0000 </r>
        <r>  0.0004  0.0171  0.1286  0.0171  0.0000  0.0000  0.0000  0.0000  0.0000 </r>
       </set>
       <set comment="band 16">
        <r>  0.0000  0.0013  0.0000  0.0013  0.0000  0.0000  0.0000  0.0000  0.0000 </r>
        <r>  0.0000  0.0013  0.0000  0.0013  0.0000  0.0000  0.0000  0.0000  0.0000 </r>
        <r>  0.0000  0.0013  0.0000  0.0013  0.0000  0.0000  0.0000  0.0000  0.0000 </r>
        <r>  0.0000  0.0013  0.0000  0.0013  0.0000  0.0000  0.0000  0.0000  0.0000 </r>
        <r>  0.0000  0.0913  0.0000  0.0913  0.0000  0.0000  0.0000  0.0000  0.0000 </r>
        <r>  0.0000  0.0913  0.0000  0.0913  0.0000  0.0000  0.0000  0.0000  0.0000 </r>
        <r>  0.0000  0.0913  0.0000  0.0913  0.0000  0.0000  0.0000  0.0000  0.0000 </r>
        <r>  0.0000  0.0913  0.0000  0.0913  0.0000  0.0000  0.0000  0.0000  0.0000 </r>
       </set>
       <set comment="band 17">
        <r>  0.0077  0.0007  0.0007  0.0007  0.0000  0.0000  0.0000  0.0000  0.0000 </r>
        <r>  0.0077  0.0007  0.0007  0.0007  0.0000  0.0000  0.0000  0.0000  0.0000 </r>
        <r>  0.0077  0.0007  0.0007  0.0007  0.0000  0.0000  0.0000  0.0000  0.0000 </r>
        <r>  0.0077  0.0007  0.0007  0.0007  0.0000  0.0000  0.0000  0.0000  0.0000 </r>
        <r>  0.0084  0.0081  0.0084  0.0081  0.0000  0.0000  0.0000  0.0000  0.0000 </r>
        <r>  0.0084  0.0081  0.0084  0.0081  0.0000  0.0000  0.0000  0.0000  0.0000 </r>
        <r>  0.0084  0.0081  0.0084  0.0081  0.0000  0.0000  0.0000  0.0000  0.0000 </r>
        <r>  0.0084  0.0081  0.0084  0.0081  0.0000  0.0000  0.0000  0.0000  0.0000 </r>
       </set>
       <set comment="band 18">
        <r>  0.0093  0.0014  0.0127  0.0014  0.0000  0.0000  0.0000  0.0000  0.0000 </r>
        <r>  0.0093  0.0014  0.0127  0.0014  0.0000  0.0000  0.0000  0.0000  0.0000 </r>
        <r>  0.0093  0.0014  0.0127  0.0014  0.0000  0.0000  0.0000  0.0000  0.0000 </r>
        <r>  0.0093  0.0014  0.0127  0.0014  0.0000  0.0000  0.0000  0.0000  0.0000 </r>
        <r>  0.0093  0.0023  0.0285  0.0023  0.0000  0.0000  0.0000  0.0000  0.0000 </r>
        <r>  0.0093  0.0023  0.0285  0.0023  0.0000  0.0000  0.0000  0.0000  0.0000 </r>
        <r>  0.0093  0.0023  0.0285  0.0023  0.0000  0.0000  0.0000  0.0000  0.0000 </r>
        <r>  0.0093  0.0023  0.0285  0.0023  0.0000  0.0000  0.0000  0.0000  0.0000 </r>
       </set>
       <set comment="band 19">
        <r>  0.0226  0.0002  0.0148  0.0003  0.0000  0.0000  0.0000  0.0000  0.0000 </r>
        <r>  0.0083  0.0001  0.0054  0.0002  0.0000  0.0000  0.0000  0.0000  0.0000 </r>
        <r>  0.0083  0.0001  0.0054  0.0002  0.0000  0.0000  0.0000  0.0000  0.0000 </r>
        <r>  0.0226  0.0002  0.0148  0.0003  0.0000  0.0000  0.0000  0.0000  0.0000 </r>
        <r>  0.0001  0.0048  0.0014  0.0022  0.0000  0.0000  0.0000  0.0000  0.0000 </r>
        <r>  0.0000  0.0106  0.0005  0.0080  0.0000  0.0000  0.0000  0.0000  0.0000 </r>
        <r>  0.0000  0.0106  0.0005  0.0080  0.0000  0.0000  0.0000  0.0000  0.0000 </r>
        <r>  0.0001  0.0048  0.0014  0.0022  0.0000  0.0000  0.0000  0.0000  0.0000 </r>
       </set>
       <set comment="band 20">
        <r>  0.0083  0.0002  0.0054  0.0000  0.0000  0.0000  0.0000  0.0000  0.0000 </r>
        <r>  0.0225  0.0003  0.0149  0.0002  0.0000  0.0000  0.0000  0.0000  0.0000 </r>
        <r>  0.0225  0.0003  0.0149  0.0002  0.0000  0.0000  0.0000  0.0000  0.0000 </r>
        <r>  0.0083  0.0002  0.0054  0.0000  0.0000  0.0000  0.0000  0.0000  0.0000 </r>
        <r>  0.0000  0.0079  0.0005  0.0106  0.0000  0.0000  0.0000  0.0000  0.0000 </r>
        <r>  0.0001  0.0022  0.0014  0.0049  0.0000  0.0000  0.0000  0.0000  0.0000 </r>
        <r>  0.0001  0.0022  0.0014  0.0049  0.0000  0.0000  0.0000  0.0000  0.0000 </r>
        <r>  0.0000  0.0079  0.0005  0.0106  0.0000  0.0000  0.0000  0.0000  0.0000 </r>
       </set>
       <set comment="band 21">
        <r>  0.0318  0.0051  0.0002  0.0051  0.0000  0.0000  0.0000  0.0000  0.0000 </r>
        <r>  0.0318  0.0051  0.0002  0.0051  0.0000  0.0000  0.0000  0.0000  0.0000 </r>
        <r>  0.0318  0.0051  0.0002  0.0051  0.0000  0.0000  0.0000  0.0000  0.0000 </r>
        <r>  0.0318  0.0051  0.0002  0.0051  0.0000  0.0000  0.0000  0.0000  0.0000 </r>
        <r>  0.0270  0.0091  0.0112  0.0091  0.0000  0.0000  0.0000  0.0000  0.0000 </r>
        <r>  0.0271  0.0091  0.0112  0.0091  0.0000  0.0000  0.0000  0.0000  0.0000 </r>
        <r>  0.0270  0.0092  0.0112  0.0092  0.0000  0.0000  0.0000  0.0000  0.0000 </r>
        <r>  0.0270  0.0092  0.0112  0.0092  0.0000  0.0000  0.0000  0.0000  0.0000 </r>
       </set>
      </set>
     </set>
    </set>
   </array>
  </projected>
 </calculation>
 <structure name="finalpos" >
  <crystal>
   <varray name="basis" >
    <v>       4.21120000       0.00000000       0.00000000 </v>
    <v>       0.00000000       4.21120000       0.00000000 </v>
    <v>       0.00000000       0.00000000       8.42240000 </v>
   </varray>
   <i name="volume">    149.36457190 </i>
   <varray name="rec_basis" >
    <v>       0.23746201       0.00000000       0.00000000 </v>
    <v>       0.00000000       0.23746201       0.00000000 </v>
    <v>       0.00000000       0.00000000       0.11873100 </v>
   </varray>
  </crystal>
  <varray name="positions" >
   <v>       0.50000000       0.50000000       0.25000000 </v>
   <v>       0.50000000       0.00000000       0.00000000 </v>
   <v>       0.00000000       0.50000000       0.00000000 </v>
   <v>       0.00000000       0.00000000       0.25000000 </v>
   <v>       0.00000000       0.00000000       0.00000000 </v>
   <v>       0.50000000       0.00000000       0.25000000 </v>
   <v>       0.00000000       0.50000000       0.25000000 </v>
   <v>       0.50000000       0.50000000       0.00000000 </v>
  </varray>
 </structure>
</modeling>
