 running on    8 total cores
 distrk:  each k-point on    8 cores,    1 groups
 distr:  one band on    1 cores,    8 groups
 using from now: INCAR     
 vasp.5.4.1 05Feb16 (build Feb 08 2018 09:21:51) complex                        
  
 POSCAR found :  2 types and       2 ions

 ----------------------------------------------------------------------------- 
|                                                                             |
|           W    W    AA    RRRRR   N    N  II  N    N   GGGG   !!!           |
|           W    W   A  A   R    R  NN   N  II  NN   N  G    G  !!!           |
|           W    W  A    A  R    R  N N  N  II  N N  N  G       !!!           |
|           W WW W  AAAAAA  RRRRR   N  N N  II  N  N N  G  GGG   !            |
|           WW  WW  A    A  R   R   N   NN  II  N   NN  G    G                |
|           W    W  A    A  R    R  N    N  II  N    N   GGGG   !!!           |
|                                                                             |
|      For optimal performance we recommend to set                            |
|        NCORE= 4 - approx SQRT( number of cores)                             |
|      NCORE specifies how many cores store one orbital (NPAR=cpu/NCORE).     |
|      This setting can  greatly improve the performance of VASP for DFT.     |
|      The default, NPAR=number of cores might be grossly inefficient         |
|      on modern multi-core architectures or massively parallel machines.     |
|      Do your own testing !!!!                                               |
|      Unfortunately you need to use the default for GW and RPA calculations. |
|      (for HF NCORE is supported but not extensively tested yet)             |
|                                                                             |
 ----------------------------------------------------------------------------- 

 LDA part: xc-table for Pade appr. of Perdew
 POSCAR, INCAR and KPOINTS ok, starting setup
 WARNING: small aliasing (wrap around) errors must be expected
 FFT: planning ...
 WAVECAR not read
 entering main loop
       N       E                     dE             d eps       ncg     rms          rms(c)
DAV:   1     0.345375787534E+02    0.34538E+02   -0.41295E+03    32   0.372E+02
DAV:   2    -0.139744471014E+02   -0.48512E+02   -0.46613E+02    48   0.122E+02
DAV:   3    -0.159064494518E+02   -0.19320E+01   -0.19292E+01    48   0.238E+01
DAV:   4    -0.159173252709E+02   -0.10876E-01   -0.10876E-01    32   0.216E+00
DAV:   5    -0.159173879593E+02   -0.62688E-04   -0.62688E-04    48   0.152E-01    0.581E+00
DAV:   6    -0.154893478717E+02    0.42804E+00   -0.34493E+00    40   0.695E+00    0.334E+00
DAV:   7    -0.153914521643E+02    0.97896E-01   -0.56402E-01    40   0.263E+00    0.184E+00
DAV:   8    -0.153580380285E+02    0.33414E-01   -0.93554E-02    40   0.158E+00    0.308E-01
DAV:   9    -0.153574682754E+02    0.56975E-03   -0.71367E-03    32   0.367E-01    0.135E-01
DAV:  10    -0.153574754367E+02   -0.71612E-05   -0.10808E-03    48   0.180E-01    0.344E-02
DAV:  11    -0.153575015740E+02   -0.26137E-04   -0.77289E-05    48   0.443E-02
   1 F= -.15357502E+02 E0= -.15359434E+02  d E =0.579791E-02
Running "mpirun -np 8 vasp"
