   2   2   0   0
  0.3200000E+02  0.4000000E-09  0.4000000E-09  0.4000000E-09  0.5000000E-15
  1.000000000000000E-004
  CAR 
 unknown system                          
     17.86554163    -28.14870744  301     -7.49204540      1.00000000
    -28.149  0.0000E+00  0.0000E+00
    -27.995  0.0000E+00  0.0000E+00
    -27.842  0.0000E+00  0.0000E+00
    -27.689  0.0000E+00  0.0000E+00
    -27.535  0.0000E+00  0.0000E+00
    -27.382  0.0000E+00  0.0000E+00
    -27.228  0.0000E+00  0.0000E+00
    -27.075  0.0000E+00  0.0000E+00
    -26.922 -0.1107E-30 -0.1698E-31
    -26.768 -0.2852E-20 -0.4374E-21
    -26.615 -0.6135E-12 -0.9410E-13
    -26.462 -0.1108E-05 -0.1699E-06
    -26.308 -0.1445E-01 -0.2216E-02
    -26.155 -0.2784E+00 -0.4492E-01
    -26.001  0.1203E+02  0.1800E+01
    -25.848  0.1379E+01  0.2012E+01
    -25.695 -0.7667E-01  0.2000E+01
    -25.541 -0.2420E-04  0.2000E+01
    -25.388 -0.5038E-10  0.2000E+01
    -25.234  0.0000E+00  0.2000E+01
    -25.081  0.0000E+00  0.2000E+01
    -24.928  0.0000E+00  0.2000E+01
    -24.774  0.0000E+00  0.2000E+01
    -24.621  0.0000E+00  0.2000E+01
    -24.468  0.0000E+00  0.2000E+01
    -24.314  0.0000E+00  0.2000E+01
    -24.161  0.0000E+00  0.2000E+01
    -24.007  0.0000E+00  0.2000E+01
    -23.854  0.0000E+00  0.2000E+01
    -23.701  0.0000E+00  0.2000E+01
    -23.547  0.0000E+00  0.2000E+01
    -23.394  0.0000E+00  0.2000E+01
    -23.241  0.0000E+00  0.2000E+01
    -23.087  0.0000E+00  0.2000E+01
    -22.934  0.0000E+00  0.2000E+01
    -22.780  0.0000E+00  0.2000E+01
    -22.627  0.0000E+00  0.2000E+01
    -22.474  0.0000E+00  0.2000E+01
    -22.320  0.0000E+00  0.2000E+01
    -22.167  0.0000E+00  0.2000E+01
    -22.013  0.0000E+00  0.2000E+01
    -21.860  0.0000E+00  0.2000E+01
    -21.707  0.0000E+00  0.2000E+01
    -21.553  0.0000E+00  0.2000E+01
    -21.400  0.0000E+00  0.2000E+01
    -21.247  0.0000E+00  0.2000E+01
    -21.093  0.0000E+00  0.2000E+01
    -20.940  0.0000E+00  0.2000E+01
    -20.786  0.0000E+00  0.2000E+01
    -20.633  0.0000E+00  0.2000E+01
    -20.480  0.0000E+00  0.2000E+01
    -20.326  0.0000E+00  0.2000E+01
    -20.173  0.0000E+00  0.2000E+01
    -20.020  0.0000E+00  0.2000E+01
    -19.866  0.0000E+00  0.2000E+01
    -19.713  0.0000E+00  0.2000E+01
    -19.559  0.0000E+00  0.2000E+01
    -19.406  0.0000E+00  0.2000E+01
    -19.253  0.0000E+00  0.2000E+01
    -19.099  0.0000E+00  0.2000E+01
    -18.946  0.0000E+00  0.2000E+01
    -18.792  0.0000E+00  0.2000E+01
    -18.639  0.0000E+00  0.2000E+01
    -18.486  0.0000E+00  0.2000E+01
    -18.332  0.0000E+00  0.2000E+01
    -18.179  0.0000E+00  0.2000E+01
    -18.026  0.0000E+00  0.2000E+01
    -17.872  0.0000E+00  0.2000E+01
    -17.719  0.0000E+00  0.2000E+01
    -17.565  0.0000E+00  0.2000E+01
    -17.412  0.0000E+00  0.2000E+01
    -17.259  0.0000E+00  0.2000E+01
    -17.105  0.0000E+00  0.2000E+01
    -16.952  0.0000E+00  0.2000E+01
    -16.799  0.0000E+00  0.2000E+01
    -16.645  0.0000E+00  0.2000E+01
    -16.492  0.0000E+00  0.2000E+01
    -16.338  0.0000E+00  0.2000E+01
    -16.185  0.0000E+00  0.2000E+01
    -16.032  0.0000E+00  0.2000E+01
    -15.878  0.0000E+00  0.2000E+01
    -15.725  0.0000E+00  0.2000E+01
    -15.571  0.0000E+00  0.2000E+01
    -15.418  0.0000E+00  0.2000E+01
    -15.265  0.0000E+00  0.2000E+01
    -15.111  0.0000E+00  0.2000E+01
    -14.958  0.0000E+00  0.2000E+01
    -14.805  0.0000E+00  0.2000E+01
    -14.651  0.0000E+00  0.2000E+01
    -14.498  0.0000E+00  0.2000E+01
    -14.344  0.0000E+00  0.2000E+01
    -14.191  0.0000E+00  0.2000E+01
    -14.038  0.0000E+00  0.2000E+01
    -13.884  0.0000E+00  0.2000E+01
    -13.731  0.0000E+00  0.2000E+01
    -13.578  0.0000E+00  0.2000E+01
    -13.424  0.0000E+00  0.2000E+01
    -13.271  0.0000E+00  0.2000E+01
    -13.117  0.0000E+00  0.2000E+01
    -12.964  0.0000E+00  0.2000E+01
    -12.811  0.0000E+00  0.2000E+01
    -12.657  0.0000E+00  0.2000E+01
    -12.504  0.0000E+00  0.2000E+01
    -12.350 -0.5123E-33  0.2000E+01
    -12.197 -0.3414E-22  0.2000E+01
    -12.044 -0.1898E-13  0.2000E+01
    -11.890 -0.9099E-07  0.2000E+01
    -11.737 -0.3260E-02  0.2000E+01
    -11.584 -0.4527E+00  0.1930E+01
    -11.430  0.9644E+01  0.3409E+01
    -11.277  0.4048E+01  0.4030E+01
    -11.123 -0.1961E+00  0.4000E+01
    -10.970 -0.1845E-03  0.4000E+01
    -10.817 -0.1024E-08  0.4000E+01
    -10.663  0.0000E+00  0.4000E+01
    -10.510  0.0000E+00  0.4000E+01
    -10.357  0.0000E+00  0.4000E+01
    -10.203  0.0000E+00  0.4000E+01
    -10.050  0.0000E+00  0.4000E+01
     -9.896  0.0000E+00  0.4000E+01
     -9.743  0.0000E+00  0.4000E+01
     -9.590 -0.1100E-26  0.4000E+01
     -9.436 -0.5832E-17  0.4000E+01
     -9.283 -0.2546E-09  0.4000E+01
     -9.129 -0.9110E-04  0.4000E+01
     -8.976 -0.2091E+00  0.3968E+01
     -8.823  0.4111E+01  0.4598E+01
     -8.669  0.2298E+02  0.8123E+01
     -8.516 -0.7859E+00  0.8003E+01
     -8.363 -0.1888E-01  0.8000E+01
     -8.209 -0.1066E-05  0.8000E+01
     -8.056 -0.1733E-08  0.8000E+01
     -7.902 -0.2611E-03  0.8000E+01
     -7.749 -0.2258E+00  0.7965E+01
     -7.596  0.4645E+01  0.8678E+01
     -7.442  0.9061E+01  0.1007E+02
     -7.289 -0.4374E+00  0.1000E+02
     -7.136 -0.2431E-02  0.1000E+02
     -6.982 -0.5658E-07  0.1000E+02
     -6.829 -0.1158E-13  0.1000E+02
     -6.675  0.0000E+00  0.1000E+02
     -6.522  0.0000E+00  0.1000E+02
     -6.369  0.0000E+00  0.1000E+02
     -6.215  0.0000E+00  0.1000E+02
     -6.062  0.0000E+00  0.1000E+02
     -5.908  0.0000E+00  0.1000E+02
     -5.755  0.0000E+00  0.1000E+02
     -5.602  0.0000E+00  0.1000E+02
     -5.448  0.0000E+00  0.1000E+02
     -5.295  0.0000E+00  0.1000E+02
     -5.142  0.0000E+00  0.1000E+02
     -4.988  0.0000E+00  0.1000E+02
     -4.835  0.0000E+00  0.1000E+02
     -4.681  0.0000E+00  0.1000E+02
     -4.528  0.0000E+00  0.1000E+02
     -4.375  0.0000E+00  0.1000E+02
     -4.221  0.0000E+00  0.1000E+02
     -4.068  0.0000E+00  0.1000E+02
     -3.915  0.0000E+00  0.1000E+02
     -3.761  0.0000E+00  0.1000E+02
     -3.608  0.0000E+00  0.1000E+02
     -3.454  0.0000E+00  0.1000E+02
     -3.301  0.0000E+00  0.1000E+02
     -3.148  0.0000E+00  0.1000E+02
     -2.994  0.0000E+00  0.1000E+02
     -2.841  0.0000E+00  0.1000E+02
     -2.687  0.0000E+00  0.1000E+02
     -2.534  0.0000E+00  0.1000E+02
     -2.381  0.0000E+00  0.1000E+02
     -2.227  0.0000E+00  0.1000E+02
     -2.074  0.0000E+00  0.1000E+02
     -1.921  0.0000E+00  0.1000E+02
     -1.767  0.0000E+00  0.1000E+02
     -1.614  0.0000E+00  0.1000E+02
     -1.460  0.0000E+00  0.1000E+02
     -1.307  0.0000E+00  0.1000E+02
     -1.154  0.0000E+00  0.1000E+02
     -1.000  0.0000E+00  0.1000E+02
     -0.847  0.0000E+00  0.1000E+02
     -0.694  0.0000E+00  0.1000E+02
     -0.540 -0.4602E-31  0.1000E+02
     -0.387 -0.1570E-20  0.1000E+02
     -0.233 -0.4485E-12  0.1000E+02
     -0.080 -0.1079E-05  0.1000E+02
      0.073 -0.1902E-01  0.9997E+01
      0.227 -0.7831E+00  0.9877E+01
      0.380  0.2300E+02  0.1341E+02
      0.534  0.4086E+01  0.1403E+02
      0.687 -0.2080E+00  0.1400E+02
      0.840 -0.9016E-04  0.1400E+02
      0.994 -0.2507E-09  0.1400E+02
      1.147 -0.1970E-33  0.1400E+02
      1.300 -0.1549E-22  0.1400E+02
      1.454 -0.1056E-13  0.1400E+02
      1.607 -0.5771E-07  0.1400E+02
      1.761 -0.2461E-02  0.1400E+02
      1.914 -0.4382E+00  0.1393E+02
      2.067  0.9085E+01  0.1533E+02
      2.221  0.4619E+01  0.1603E+02
      2.374 -0.2245E+00  0.1600E+02
      2.527 -0.2574E-03  0.1600E+02
      2.681 -0.1696E-08  0.1600E+02
      2.834  0.0000E+00  0.1600E+02
      2.988  0.0000E+00  0.1600E+02
      3.141  0.0000E+00  0.1600E+02
      3.294  0.0000E+00  0.1600E+02
      3.448  0.0000E+00  0.1600E+02
      3.601  0.0000E+00  0.1600E+02
      3.755  0.0000E+00  0.1600E+02
      3.908  0.0000E+00  0.1600E+02
      4.061  0.0000E+00  0.1600E+02
      4.215  0.0000E+00  0.1600E+02
      4.368  0.0000E+00  0.1600E+02
      4.521  0.0000E+00  0.1600E+02
      4.675  0.0000E+00  0.1600E+02
      4.828  0.0000E+00  0.1600E+02
      4.982  0.0000E+00  0.1600E+02
      5.135  0.0000E+00  0.1600E+02
      5.288  0.0000E+00  0.1600E+02
      5.442  0.0000E+00  0.1600E+02
      5.595  0.0000E+00  0.1600E+02
      5.748  0.0000E+00  0.1600E+02
      5.902  0.0000E+00  0.1600E+02
      6.055 -0.5851E-37  0.1600E+02
      6.209 -0.1806E-25  0.1600E+02
      6.362 -0.4856E-16  0.1600E+02
      6.515 -0.1067E-08  0.1600E+02
      6.669 -0.1896E-03  0.1600E+02
      6.822 -0.1983E+00  0.1597E+02
      6.976  0.4093E+01  0.1660E+02
      7.129  0.9600E+01  0.1807E+02
      7.282 -0.4518E+00  0.1800E+02
      7.436 -0.3187E-02  0.1800E+02
      7.589 -0.8773E-07  0.1800E+02
      7.742 -0.1742E-13  0.1800E+02
      7.896 -0.1075E-08  0.1800E+02
      8.049 -0.1905E-03  0.1800E+02
      8.203 -0.1987E+00  0.1797E+02
      8.356  0.4101E+01  0.1860E+02
      8.509  0.9592E+01  0.2007E+02
      8.663 -0.4517E+00  0.2000E+02
      8.816 -0.3174E-02  0.2000E+02
      8.969 -0.8715E-07  0.2000E+02
      9.123 -0.1737E-13  0.2000E+02
      9.276  0.0000E+00  0.2000E+02
      9.430 -0.1990E-35  0.2000E+02
      9.583 -0.3842E-24  0.2000E+02
      9.736 -0.6448E-15  0.2000E+02
      9.890 -0.8791E-08  0.2000E+02
     10.043 -0.9594E-03  0.2000E+02
     10.197 -0.5673E+00  0.1991E+02
     10.350  0.1143E+02  0.2167E+02
     10.503  0.1824E+02  0.2446E+02
     10.657  0.1045E+02  0.2607E+02
     10.810 -0.4230E+00  0.2600E+02
     10.963 -0.7971E-02  0.2600E+02
     11.117 -0.4002E-06  0.2600E+02
     11.270 -0.1477E-12  0.2600E+02
     11.424  0.0000E+00  0.2600E+02
     11.577  0.0000E+00  0.2600E+02
     11.730  0.0000E+00  0.2600E+02
     11.884  0.0000E+00  0.2600E+02
     12.037  0.0000E+00  0.2600E+02
     12.190  0.0000E+00  0.2600E+02
     12.344  0.0000E+00  0.2600E+02
     12.497  0.0000E+00  0.2600E+02
     12.651  0.0000E+00  0.2600E+02
     12.804  0.0000E+00  0.2600E+02
     12.957  0.0000E+00  0.2600E+02
     13.111 -0.1714E-35  0.2600E+02
     13.264 -0.3021E-24  0.2600E+02
     13.417 -0.4628E-15  0.2600E+02
     13.571 -0.5752E-08  0.2600E+02
     13.724 -0.5714E-03  0.2600E+02
     13.878 -0.3097E+00  0.2595E+02
     14.031  0.5700E+01  0.2683E+02
     14.184  0.1894E+02  0.2973E+02
     14.338  0.1866E+01  0.3002E+02
     14.491 -0.1137E+00  0.3000E+02
     14.645 -0.5322E-04  0.3000E+02
     14.798 -0.1600E-09  0.3000E+02
     14.951 -0.1224E-27  0.3000E+02
     15.105 -0.8642E-18  0.3000E+02
     15.258 -0.5038E-10  0.3000E+02
     15.411 -0.2420E-04  0.3000E+02
     15.565 -0.7667E-01  0.2999E+02
     15.718  0.1379E+01  0.3020E+02
     15.872  0.1203E+02  0.3204E+02
     16.025 -0.2784E+00  0.3200E+02
     16.178 -0.1445E-01  0.3200E+02
     16.332 -0.1108E-05  0.3200E+02
     16.485 -0.6138E-12  0.3200E+02
     16.638  0.0000E+00  0.3200E+02
     16.792  0.0000E+00  0.3200E+02
     16.945  0.0000E+00  0.3200E+02
     17.099  0.0000E+00  0.3200E+02
     17.252  0.0000E+00  0.3200E+02
     17.405  0.0000E+00  0.3200E+02
     17.559  0.0000E+00  0.3200E+02
     17.712  0.0000E+00  0.3200E+02
     17.866  0.0000E+00  0.3200E+02
