    2    2    1    1
  0.3200000E+02  0.4000000E-09  0.4000000E-09  0.4000000E-09  0.5000000E-15
  1.000000000000000E-004
  CAR 
 unknown system                          
     10      1     16
 
  0.0000000E+00  0.0000000E+00  0.0000000E+00  0.1000000E+01
    1      -26.057151   1.000000
    2      -11.455225   1.000000
    3       -8.776202   1.000000
    4       -8.776202   1.000000
    5       -7.576234   1.000000
    6        0.333451   0.000000
    7        0.333451   0.000000
    8        2.047643   0.000000
    9        7.000098   0.000000
   10        8.380448   0.000000
   11       10.359273   0.000000
   12       10.359273   0.000000
   13       10.546217   0.000000
   14       14.037467   0.000000
   15       14.140193   0.000000
   16       15.773985   0.000000
