<?xml version="1.0" encoding="ISO-8859-1"?>
<modeling>
 <generator>
  <i name="program" type="string">vasp </i>
  <i name="version" type="string">5.4.1  </i>
  <i name="subversion" type="string">05Feb16 (build Feb 08 2018 09:21:51) complex                          parallel </i>
  <i name="platform" type="string">LinuxIFC </i>
  <i name="date" type="string">2019 10 28 </i>
  <i name="time" type="string">15:46:39 </i>
 </generator>
 <incar>
  <i type="string" name="PREC">normal</i>
  <i name="ENCUT">    350.00000000</i>
  <i type="int" name="ISMEAR">     1</i>
  <i name="SIGMA">      0.10000000</i>
  <i type="logical" name="LWAVE"> F  </i>
  <i type="logical" name="LCHARG"> F  </i>
  <v type="int" name="KPOINT_BSE">    -1     0     0     0</v>
 </incar>
 <kpoints>
  <generation param="Monkhorst-Pack">
   <v type="int" name="divisions">       1        1        1 </v>
   <v name="usershift">      0.00000000       0.00000000       0.00000000 </v>
   <v name="genvec1">      1.00000000       0.00000000       0.00000000 </v>
   <v name="genvec2">      0.00000000       1.00000000       0.00000000 </v>
   <v name="genvec3">      0.00000000       0.00000000       1.00000000 </v>
   <v name="shift">      0.00000000       0.00000000       0.00000000 </v>
  </generation>
  <varray name="kpointlist" >
   <v>       0.00000000       0.00000000       0.00000000 </v>
  </varray>
  <varray name="weights" >
   <v>       1.00000000 </v>
  </varray>
 </kpoints>
 <parameters>
  <separator name="general" >
   <i type="string" name="SYSTEM">unknown system</i>
   <i type="logical" name="LCOMPAT"> F  </i>
  </separator>
  <separator name="electronic" >
   <i type="string" name="PREC">normal</i>
   <i name="ENMAX">    350.00000000</i>
   <i name="ENAUG">    644.87300000</i>
   <i name="EDIFF">      0.00010000</i>
   <i type="int" name="IALGO">    38</i>
   <i type="int" name="IWAVPR">    10</i>
   <i type="int" name="NBANDS">    16</i>
   <i name="NELECT">     10.00000000</i>
   <i type="int" name="TURBO">     0</i>
   <i type="int" name="IRESTART">     0</i>
   <i type="int" name="NREBOOT">     0</i>
   <i type="int" name="NMIN">     0</i>
   <i name="EREF">      0.00000000</i>
   <separator name="electronic smearing" >
    <i type="int" name="ISMEAR">     1</i>
    <i name="SIGMA">      0.10000000</i>
    <i name="KSPACING">      0.50000000</i>
    <i type="logical" name="KGAMMA"> T  </i>
   </separator>
   <separator name="electronic projectors" >
    <i type="logical" name="LREAL"> F  </i>
    <v name="ROPT">      0.00000000      0.00000000</v>
    <i type="int" name="LMAXPAW">  -100</i>
    <i type="int" name="LMAXMIX">     2</i>
    <i type="logical" name="NLSPLINE"> F  </i>
   </separator>
   <separator name="electronic startup" >
    <i type="int" name="ISTART">     0</i>
    <i type="int" name="ICHARG">     2</i>
    <i type="int" name="INIWAV">     1</i>
   </separator>
   <separator name="electronic spin" >
    <i type="int" name="ISPIN">     1</i>
    <i type="logical" name="LNONCOLLINEAR"> F  </i>
    <v name="MAGMOM">      1.00000000      1.00000000</v>
    <i name="NUPDOWN">     -1.00000000</i>
    <i type="logical" name="LSORBIT"> F  </i>
    <v name="SAXIS">      0.00000000      0.00000000      1.00000000</v>
    <i type="logical" name="LSPIRAL"> F  </i>
    <v name="QSPIRAL">      0.00000000      0.00000000      0.00000000</v>
    <i type="logical" name="LZEROZ"> F  </i>
   </separator>
   <separator name="electronic exchange-correlation" >
    <i type="logical" name="LASPH"> F  </i>
    <i type="logical" name="LMETAGGA"> F  </i>
   </separator>
   <separator name="electronic convergence" >
    <i type="int" name="NELM">    60</i>
    <i type="int" name="NELMDL">    -5</i>
    <i type="int" name="NELMIN">     2</i>
    <i name="ENINI">    350.00000000</i>
    <separator name="electronic convergence detail" >
     <i type="logical" name="LDIAG"> T  </i>
     <i type="logical" name="LSUBROT"> F  </i>
     <i name="WEIMIN">      0.00000000</i>
     <i name="EBREAK">      0.00000156</i>
     <i name="DEPER">      0.30000000</i>
     <i type="int" name="NRMM">     4</i>
     <i name="TIME">      0.40000000</i>
    </separator>
   </separator>
   <separator name="electronic mixer" >
    <i name="AMIX">      0.40000000</i>
    <i name="BMIX">      1.00000000</i>
    <i name="AMIN">      0.10000000</i>
    <i name="AMIX_MAG">      1.60000000</i>
    <i name="BMIX_MAG">      1.00000000</i>
    <separator name="electronic mixer details" >
     <i type="int" name="IMIX">     4</i>
     <i type="logical" name="MIXFIRST"> F  </i>
     <i type="int" name="MAXMIX">   -45</i>
     <i name="WC">    100.00000000</i>
     <i type="int" name="INIMIX">     1</i>
     <i type="int" name="MIXPRE">     1</i>
     <i type="int" name="MREMOVE">     5</i>
    </separator>
   </separator>
   <separator name="electronic dipolcorrection" >
    <i type="logical" name="LDIPOL"> F  </i>
    <i type="logical" name="LMONO"> F  </i>
    <i type="int" name="IDIPOL">     0</i>
    <i name="EPSILON">      1.00000000</i>
    <v name="DIPOL">   -100.00000000   -100.00000000   -100.00000000</v>
    <i name="EFIELD">      0.00000000</i>
   </separator>
  </separator>
  <separator name="grids" >
   <i type="int" name="NGX">    18</i>
   <i type="int" name="NGY">    18</i>
   <i type="int" name="NGZ">    18</i>
   <i type="int" name="NGXF">    36</i>
   <i type="int" name="NGYF">    36</i>
   <i type="int" name="NGZF">    36</i>
   <i type="logical" name="ADDGRID"> F  </i>
  </separator>
  <separator name="ionic" >
   <i type="int" name="NSW">     0</i>
   <i type="int" name="IBRION">    -1</i>
   <i type="int" name="ISIF">     2</i>
   <i name="PSTRESS">      0.00000000</i>
   <i name="EDIFFG">      0.00100000</i>
   <i type="int" name="NFREE">     0</i>
   <i name="POTIM">      0.50000000</i>
   <i name="SMASS">     -3.00000000</i>
   <i name="SCALEE">      1.00000000</i>
  </separator>
  <separator name="ionic md" >
   <i name="TEBEG">      0.00010000</i>
   <i name="TEEND">      0.00010000</i>
   <i type="int" name="NBLOCK">     1</i>
   <i type="int" name="KBLOCK">     1</i>
   <i type="int" name="NPACO">   256</i>
   <i name="APACO">     16.00000000</i>
  </separator>
  <separator name="symmetry" >
   <i type="int" name="ISYM">     2</i>
   <i name="SYMPREC">      0.00001000</i>
  </separator>
  <separator name="dos" >
   <i type="logical" name="LORBIT"> F  </i>
   <v name="RWIGS">     -1.00000000     -1.00000000</v>
   <i type="int" name="NEDOS">   301</i>
   <i name="EMIN">     10.00000000</i>
   <i name="EMAX">    -10.00000000</i>
   <i name="EFERMI">      0.00000000</i>
  </separator>
  <separator name="writing" >
   <i type="int" name="NWRITE">     2</i>
   <i type="logical" name="LWAVE"> F  </i>
   <i type="logical" name="LCHARG"> F  </i>
   <i type="logical" name="LPARD"> F  </i>
   <i type="logical" name="LVTOT"> F  </i>
   <i type="logical" name="LVHAR"> F  </i>
   <i type="logical" name="LELF"> F  </i>
   <i type="logical" name="LOPTICS"> F  </i>
   <v name="STM">      0.00000000      0.00000000      0.00000000      0.00000000      0.00000000      0.00000000      0.00000000</v>
  </separator>
  <separator name="performance" >
   <i type="int" name="NPAR">     8</i>
   <i type="int" name="NSIM">     4</i>
   <i type="int" name="NBLK">    -1</i>
   <i type="logical" name="LPLANE"> T  </i>
   <i type="logical" name="LSCALAPACK"> F  </i>
   <i type="logical" name="LSCAAWARE"> F  </i>
   <i type="logical" name="LSCALU"> F  </i>
   <i type="logical" name="LASYNC"> F  </i>
   <i type="logical" name="LORBITALREAL"> F  </i>
  </separator>
  <separator name="miscellaneous" >
   <i type="int" name="IDIOT">     3</i>
   <i type="logical" name="LMUSIC"> F  </i>
   <v name="POMASS">     12.01100000     16.00000000</v>
   <v name="DARWINR">      0.00000000      0.00000000</v>
   <v name="DARWINV">      1.00000000      1.00000000</v>
   <i type="logical" name="LCORR"> T  </i>
  </separator>
  <i type="logical" name="GGA_COMPAT"> T  </i>
  <i type="logical" name="LBERRY"> F  </i>
  <i type="int" name="ICORELEVEL">     0</i>
  <i type="logical" name="LDAU"> F  </i>
  <i type="int" name="I_CONSTRAINED_M">     0</i>
  <separator name="electronic exchange-correlation" >
   <i type="string" name="GGA">--</i>
   <i type="int" name="VOSKOWN">     0</i>
   <i type="logical" name="LHFCALC"> F  </i>
   <i type="string" name="PRECFOCK"></i>
   <i type="logical" name="LSYMGRAD"> F  </i>
   <i type="logical" name="LHFONE"> F  </i>
   <i type="logical" name="LRHFCALC"> F  </i>
   <i type="logical" name="LTHOMAS"> F  </i>
   <i type="logical" name="LMODELHF"> F  </i>
   <i name="ENCUT4O">     -1.00000000</i>
   <i type="int" name="EXXOEP">     0</i>
   <i type="int" name="FOURORBIT">     0</i>
   <i name="AEXX">      0.00000000</i>
   <i name="HFALPHA">      0.00000000</i>
   <i name="MCALPHA">      0.00000000</i>
   <i name="ALDAX">      1.00000000</i>
   <i name="AGGAX">      1.00000000</i>
   <i name="ALDAC">      1.00000000</i>
   <i name="AGGAC">      1.00000000</i>
   <i type="int" name="NKREDX">     1</i>
   <i type="int" name="NKREDY">     1</i>
   <i type="int" name="NKREDZ">     1</i>
   <i type="logical" name="SHIFTRED"> F  </i>
   <i type="logical" name="ODDONLY"> F  </i>
   <i type="logical" name="EVENONLY"> F  </i>
   <i type="int" name="LMAXFOCK">     0</i>
   <i type="int" name="NMAXFOCKAE">     0</i>
   <i type="logical" name="LFOCKAEDFT"> F  </i>
   <i name="HFSCREEN">      0.00000000</i>
   <i name="HFSCREENC">      0.00000000</i>
   <i type="int" name="NBANDSGWLOW">     0</i>
  </separator>
  <separator name="vdW DFT" >
   <i type="logical" name="LUSE_VDW"> F  </i>
   <i name="Zab_VDW">     -0.84910000</i>
   <i name="PARAM1">      0.12340000</i>
   <i name="PARAM2">      1.00000000</i>
   <i name="PARAM3">      0.00000000</i>
  </separator>
  <separator name="model GW" >
   <i type="int" name="MODEL_GW">     0</i>
   <i name="MODEL_EPS0">     19.20000000</i>
   <i name="MODEL_ALPHA">      1.00000000</i>
  </separator>
  <separator name="linear response parameters" >
   <i type="logical" name="LEPSILON"> F  </i>
   <i type="logical" name="LRPA"> F  </i>
   <i type="logical" name="LNABLA"> F  </i>
   <i type="logical" name="LVEL"> F  </i>
   <i type="int" name="KINTER">     0</i>
   <i name="CSHIFT">      0.10000000</i>
   <i name="OMEGAMAX">     -1.00000000</i>
   <i name="DEG_THRESHOLD">      0.00200000</i>
  </separator>
  <separator name="orbital magnetization" >
   <i type="logical" name="NUCIND"> F  </i>
   <v name="MAGPOS">      0.00000000      0.00000000      0.00000000</v>
   <i type="logical" name="LNICSALL"> T  </i>
   <i type="logical" name="ORBITALMAG"> F  </i>
   <i type="logical" name="LMAGBLOCH"> F  </i>
   <i type="logical" name="LCHIMAG"> F  </i>
   <i type="logical" name="LGAUGE"> T  </i>
   <i type="int" name="MAGATOM">     0</i>
   <v name="MAGDIPOL">      0.00000000      0.00000000      0.00000000</v>
   <v name="AVECCONST">      0.00000000      0.00000000      0.00000000</v>
  </separator>
  <separator name="response functions" >
   <i type="logical" name="LADDER"> F  </i>
   <i type="logical" name="LFXC"> F  </i>
   <i type="logical" name="LHARTREE"> T  </i>
   <i type="int" name="IBSE">     0</i>
   <v type="int" name="KPOINT">    -1     0     0     0</v>
   <i type="logical" name="LTCTE"> F  </i>
   <i type="logical" name="LTETE"> F  </i>
   <i type="logical" name="LTRIPLET"> F  </i>
   <i type="logical" name="LFXCEPS"> F  </i>
   <i type="logical" name="LFXHEG"> F  </i>
   <i type="int" name="NATURALO">     0</i>
   <i type="logical" name="L2ORDER"> F  </i>
   <i type="logical" name="LUSEW"> F  </i>
   <i name="ENCUTGW">     -2.00000000</i>
   <i name="ENCUTGWSOFT">     -2.00000000</i>
   <i name="ENCUTLF">     -1.00000000</i>
   <i type="int" name="LMAXMP2">    -1</i>
   <i name="SCISSOR">      0.00000000</i>
   <i type="int" name="NOMEGA">     0</i>
   <i type="int" name="NOMEGAR">     0</i>
   <i type="int" name="NBANDSGW">    -1</i>
   <i type="int" name="NBANDSO">    -1</i>
   <i type="int" name="NBANDSV">    -1</i>
   <i type="int" name="NELM">     1</i>
   <i type="int" name="NELMHF">     1</i>
   <i type="int" name="DIM">     3</i>
   <i type="int" name="ANTIRES">     0</i>
   <i name="OMEGAMAX">    -30.00000000</i>
   <i name="OMEGAMIN">    -30.00000000</i>
   <i name="OMEGATL">   -200.00000000</i>
   <i type="int" name="OMEGAGRID">     0</i>
   <i name="CSHIFT">     -0.10000000</i>
   <i type="logical" name="SELFENERGY"> F  </i>
   <i type="logical" name="LSPECTRAL"> F  </i>
   <i type="logical" name="LSPECTRALGW"> F  </i>
   <i type="logical" name="LSINGLES"> F  </i>
   <i type="logical" name="LFERMIGW"> F  </i>
   <i type="logical" name="ODDONLYGW"> F  </i>
   <i type="logical" name="EVENONLYGW"> F  </i>
   <i type="int" name="NKREDLFX">     1</i>
   <i type="int" name="NKREDLFY">     1</i>
   <i type="int" name="NKREDLFZ">     1</i>
   <i type="int" name="MAXMEM">  1800</i>
   <i type="int" name="TELESCOPE">     0</i>
   <i type="int" name="TAUPAR">     1</i>
   <i type="int" name="OMEGAPAR">    -1</i>
   <i name="LAMBDA">      1.00000000</i>
  </separator>
  <separator name="External order field" >
   <i name="OFIELD_KAPPA">      0.00000000</i>
   <v name="OFIELD_K">      0.00000000      0.00000000      0.00000000</v>
   <i name="OFIELD_Q6_NEAR">      0.00000000</i>
   <i name="OFIELD_Q6_FAR">      0.00000000</i>
   <i name="OFIELD_A">      0.00000000</i>
  </separator>
 </parameters>
 <atominfo>
  <atoms>       2 </atoms>
  <types>       2 </types>
  <array name="atoms" >
   <dimension dim="1">ion</dimension>
   <field type="string">element</field>
   <field type="int">atomtype</field>
   <set>
    <rc><c>C </c><c>   1</c></rc>
    <rc><c>O </c><c>   2</c></rc>
   </set>
  </array>
  <array name="atomtypes" >
   <dimension dim="1">type</dimension>
   <field type="int">atomspertype</field>
   <field type="string">element</field>
   <field>mass</field>
   <field>valence</field>
   <field type="string">pseudopotential</field>
   <set>
    <rc><c>   1</c><c>C </c><c>     12.01100000</c><c>      4.00000000</c><c>  PAW_PBE C 08Apr2002                   </c></rc>
    <rc><c>   1</c><c>O </c><c>     16.00000000</c><c>      6.00000000</c><c>  PAW_PBE O 08Apr2002                   </c></rc>
   </set>
  </array>
 </atominfo>
 <structure name="initialpos" >
  <crystal>
   <varray name="basis" >
    <v>       4.00000000       0.00000000       0.00000000 </v>
    <v>       0.00000000       4.00000000       0.00000000 </v>
    <v>       0.00000000       0.00000000       4.00000000 </v>
   </varray>
   <i name="volume">     64.00000000 </i>
   <varray name="rec_basis" >
    <v>       0.25000000       0.00000000       0.00000000 </v>
    <v>       0.00000000       0.25000000       0.00000000 </v>
    <v>       0.00000000       0.00000000       0.25000000 </v>
   </varray>
  </crystal>
  <varray name="positions" >
   <v>       0.35000000       0.50000000       0.50000000 </v>
   <v>       0.65000000       0.50000000       0.50000000 </v>
  </varray>
 </structure>
 <calculation>
  <scstep>
   <time name="dav">    0.02    0.02</time>
   <time name="total">    0.04    0.04</time>
   <energy>
    <i name="alphaZ">      6.82746172 </i>
    <i name="ewald">   -204.19401249 </i>
    <i name="hartreedc">   -295.23937174 </i>
    <i name="XCdc">     39.02636438 </i>
    <i name="pawpsdc">    455.07152327 </i>
    <i name="pawaedc">   -457.43959975 </i>
    <i name="eentropy">      0.00579791 </i>
    <i name="bandstr">    -88.59181501 </i>
    <i name="atom">    579.07123046 </i>
    <i name="e_fr_energy">     34.53757875 </i>
    <i name="e_wo_entrp">     34.53178085 </i>
    <i name="e_0_energy">     34.53564612 </i>
   </energy>
  </scstep>
  <scstep>
   <time name="dav">    0.02    0.02</time>
   <time name="total">    0.02    0.03</time>
   <energy>
    <i name="e_fr_energy">    -13.97444710 </i>
    <i name="e_wo_entrp">    -13.98024501 </i>
    <i name="e_0_energy">    -13.97637974 </i>
   </energy>
  </scstep>
  <scstep>
   <time name="dav">    0.02    0.02</time>
   <time name="total">    0.03    0.03</time>
   <energy>
    <i name="e_fr_energy">    -15.90644945 </i>
    <i name="e_wo_entrp">    -15.91224736 </i>
    <i name="e_0_energy">    -15.90838209 </i>
   </energy>
  </scstep>
  <scstep>
   <time name="dav">    0.01    0.01</time>
   <time name="total">    0.02    0.02</time>
   <energy>
    <i name="e_fr_energy">    -15.91732527 </i>
    <i name="e_wo_entrp">    -15.92312318 </i>
    <i name="e_0_energy">    -15.91925791 </i>
   </energy>
  </scstep>
  <scstep>
   <time name="dav">    0.02    0.02</time>
   <time name="total">    0.03    0.03</time>
   <energy>
    <i name="e_fr_energy">    -15.91738796 </i>
    <i name="e_wo_entrp">    -15.92318586 </i>
    <i name="e_0_energy">    -15.91932059 </i>
   </energy>
  </scstep>
  <scstep>
   <time name="dav">    0.02    0.02</time>
   <time name="total">    0.04    0.04</time>
   <energy>
    <i name="e_fr_energy">    -15.48934787 </i>
    <i name="e_wo_entrp">    -15.49514578 </i>
    <i name="e_0_energy">    -15.49128051 </i>
   </energy>
  </scstep>
  <scstep>
   <time name="dav">    0.02    0.02</time>
   <time name="total">    0.04    0.04</time>
   <energy>
    <i name="e_fr_energy">    -15.39145216 </i>
    <i name="e_wo_entrp">    -15.39725007 </i>
    <i name="e_0_energy">    -15.39338480 </i>
   </energy>
  </scstep>
  <scstep>
   <time name="dav">    0.02    0.02</time>
   <time name="total">    0.04    0.04</time>
   <energy>
    <i name="e_fr_energy">    -15.35803803 </i>
    <i name="e_wo_entrp">    -15.36383593 </i>
    <i name="e_0_energy">    -15.35997066 </i>
   </energy>
  </scstep>
  <scstep>
   <time name="dav">    0.01    0.01</time>
   <time name="total">    0.04    0.04</time>
   <energy>
    <i name="e_fr_energy">    -15.35746828 </i>
    <i name="e_wo_entrp">    -15.36326618 </i>
    <i name="e_0_energy">    -15.35940091 </i>
   </energy>
  </scstep>
  <scstep>
   <time name="dav">    0.02    0.02</time>
   <time name="total">    0.04    0.04</time>
   <energy>
    <i name="e_fr_energy">    -15.35747544 </i>
    <i name="e_wo_entrp">    -15.36327334 </i>
    <i name="e_0_energy">    -15.35940807 </i>
   </energy>
  </scstep>
  <scstep>
   <time name="dav">    0.02    0.02</time>
   <time name="total">    0.04    0.04</time>
   <energy>
    <i name="alphaZ">      6.82746172 </i>
    <i name="ewald">   -204.19401249 </i>
    <i name="hartreedc">   -309.47014023 </i>
    <i name="XCdc">     39.88416144 </i>
    <i name="pawpsdc">    773.71090267 </i>
    <i name="pawaedc">   -775.91087825 </i>
    <i name="eentropy">      0.00579791 </i>
    <i name="bandstr">   -125.28202481 </i>
    <i name="atom">    579.07123046 </i>
    <i name="e_fr_energy">    -15.35750157 </i>
    <i name="e_wo_entrp">    -15.36329948 </i>
    <i name="e_0_energy">    -15.35943421 </i>
   </energy>
  </scstep>
  <structure>
   <crystal>
    <varray name="basis" >
     <v>       4.00000000       0.00000000       0.00000000 </v>
     <v>       0.00000000       4.00000000       0.00000000 </v>
     <v>       0.00000000       0.00000000       4.00000000 </v>
    </varray>
    <i name="volume">     64.00000000 </i>
    <varray name="rec_basis" >
     <v>       0.25000000       0.00000000       0.00000000 </v>
     <v>       0.00000000       0.25000000       0.00000000 </v>
     <v>       0.00000000       0.00000000       0.25000000 </v>
    </varray>
   </crystal>
   <varray name="positions" >
    <v>       0.35000000       0.50000000       0.50000000 </v>
    <v>       0.65000000       0.50000000       0.50000000 </v>
   </varray>
  </structure>
  <varray name="forces" >
   <v>       4.11923855       0.00000000      -0.00000000 </v>
   <v>      -4.11923855      -0.00000000       0.00000000 </v>
  </varray>
  <varray name="stress" >
   <v>    -261.25768273       0.00000000       0.00000000 </v>
   <v>       0.00000000     -53.25202347       0.00000000 </v>
   <v>      -0.00000000       0.00000000     -53.25202347 </v>
  </varray>
  <energy>
   <i name="e_fr_energy">    -15.35750157 </i>
   <i name="e_wo_entrp">    -15.35943421 </i>
   <i name="e_0_energy">      0.00579791 </i>
  </energy>
  <time name="totalsc">    0.42    0.45</time>
  <eigenvalues>
   <array>
    <dimension dim="1">band</dimension>
    <dimension dim="2">kpoint</dimension>
    <dimension dim="3">spin</dimension>
    <field>eigene</field>
    <field>occ</field>
    <set>
     <set comment="spin 1">
      <set comment="kpoint 1">
       <r>  -26.0572    1.0000 </r>
       <r>  -11.4552    1.0000 </r>
       <r>   -8.7762    1.0000 </r>
       <r>   -8.7762    1.0000 </r>
       <r>   -7.5762    1.0000 </r>
       <r>    0.3335    0.0000 </r>
       <r>    0.3335    0.0000 </r>
       <r>    2.0476    0.0000 </r>
       <r>    7.0001    0.0000 </r>
       <r>    8.3804    0.0000 </r>
       <r>   10.3593    0.0000 </r>
       <r>   10.3593    0.0000 </r>
       <r>   10.5462    0.0000 </r>
       <r>   14.0375    0.0000 </r>
       <r>   14.1402    0.0000 </r>
       <r>   15.7740    0.0000 </r>
      </set>
     </set>
    </set>
   </array>
  </eigenvalues>
  <separator name="orbital magnetization" >
   <v name="MAGDIPOLOUT">      0.00000000      0.00000000      0.00000000</v>
  </separator>
  <dos>
   <i name="efermi">     -7.49204540 </i>
   <total>
    <array>
     <dimension dim="1">gridpoints</dimension>
     <dimension dim="2">spin</dimension>
     <field>energy</field>
     <field>total</field>
     <field>integrated</field>
     <set>
      <set comment="spin 1">
       <r>   -28.1487     0.0000     0.0000 </r>
       <r>   -27.9953     0.0000     0.0000 </r>
       <r>   -27.8419     0.0000     0.0000 </r>
       <r>   -27.6886     0.0000     0.0000 </r>
       <r>   -27.5352     0.0000     0.0000 </r>
       <r>   -27.3818     0.0000     0.0000 </r>
       <r>   -27.2284     0.0000     0.0000 </r>
       <r>   -27.0750     0.0000     0.0000 </r>
       <r>   -26.9217    -0.0000    -0.0000 </r>
       <r>   -26.7683    -0.0000    -0.0000 </r>
       <r>   -26.6149    -0.0000    -0.0000 </r>
       <r>   -26.4615    -0.0000    -0.0000 </r>
       <r>   -26.3081    -0.0144    -0.0022 </r>
       <r>   -26.1548    -0.2784    -0.0449 </r>
       <r>   -26.0014    12.0304     1.8003 </r>
       <r>   -25.8480     1.3786     2.0118 </r>
       <r>   -25.6946    -0.0767     2.0000 </r>
       <r>   -25.5412    -0.0000     2.0000 </r>
       <r>   -25.3879    -0.0000     2.0000 </r>
       <r>   -25.2345     0.0000     2.0000 </r>
       <r>   -25.0811     0.0000     2.0000 </r>
       <r>   -24.9277     0.0000     2.0000 </r>
       <r>   -24.7743     0.0000     2.0000 </r>
       <r>   -24.6209     0.0000     2.0000 </r>
       <r>   -24.4676     0.0000     2.0000 </r>
       <r>   -24.3142     0.0000     2.0000 </r>
       <r>   -24.1608     0.0000     2.0000 </r>
       <r>   -24.0074     0.0000     2.0000 </r>
       <r>   -23.8540     0.0000     2.0000 </r>
       <r>   -23.7007     0.0000     2.0000 </r>
       <r>   -23.5473     0.0000     2.0000 </r>
       <r>   -23.3939     0.0000     2.0000 </r>
       <r>   -23.2405     0.0000     2.0000 </r>
       <r>   -23.0871     0.0000     2.0000 </r>
       <r>   -22.9338     0.0000     2.0000 </r>
       <r>   -22.7804     0.0000     2.0000 </r>
       <r>   -22.6270     0.0000     2.0000 </r>
       <r>   -22.4736     0.0000     2.0000 </r>
       <r>   -22.3202     0.0000     2.0000 </r>
       <r>   -22.1669     0.0000     2.0000 </r>
       <r>   -22.0135     0.0000     2.0000 </r>
       <r>   -21.8601     0.0000     2.0000 </r>
       <r>   -21.7067     0.0000     2.0000 </r>
       <r>   -21.5533     0.0000     2.0000 </r>
       <r>   -21.4000     0.0000     2.0000 </r>
       <r>   -21.2466     0.0000     2.0000 </r>
       <r>   -21.0932     0.0000     2.0000 </r>
       <r>   -20.9398     0.0000     2.0000 </r>
       <r>   -20.7864     0.0000     2.0000 </r>
       <r>   -20.6330     0.0000     2.0000 </r>
       <r>   -20.4797     0.0000     2.0000 </r>
       <r>   -20.3263     0.0000     2.0000 </r>
       <r>   -20.1729     0.0000     2.0000 </r>
       <r>   -20.0195     0.0000     2.0000 </r>
       <r>   -19.8661     0.0000     2.0000 </r>
       <r>   -19.7128     0.0000     2.0000 </r>
       <r>   -19.5594     0.0000     2.0000 </r>
       <r>   -19.4060     0.0000     2.0000 </r>
       <r>   -19.2526     0.0000     2.0000 </r>
       <r>   -19.0992     0.0000     2.0000 </r>
       <r>   -18.9459     0.0000     2.0000 </r>
       <r>   -18.7925     0.0000     2.0000 </r>
       <r>   -18.6391     0.0000     2.0000 </r>
       <r>   -18.4857     0.0000     2.0000 </r>
       <r>   -18.3323     0.0000     2.0000 </r>
       <r>   -18.1790     0.0000     2.0000 </r>
       <r>   -18.0256     0.0000     2.0000 </r>
       <r>   -17.8722     0.0000     2.0000 </r>
       <r>   -17.7188     0.0000     2.0000 </r>
       <r>   -17.5654     0.0000     2.0000 </r>
       <r>   -17.4120     0.0000     2.0000 </r>
       <r>   -17.2587     0.0000     2.0000 </r>
       <r>   -17.1053     0.0000     2.0000 </r>
       <r>   -16.9519     0.0000     2.0000 </r>
       <r>   -16.7985     0.0000     2.0000 </r>
       <r>   -16.6451     0.0000     2.0000 </r>
       <r>   -16.4918     0.0000     2.0000 </r>
       <r>   -16.3384     0.0000     2.0000 </r>
       <r>   -16.1850     0.0000     2.0000 </r>
       <r>   -16.0316     0.0000     2.0000 </r>
       <r>   -15.8782     0.0000     2.0000 </r>
       <r>   -15.7249     0.0000     2.0000 </r>
       <r>   -15.5715     0.0000     2.0000 </r>
       <r>   -15.4181     0.0000     2.0000 </r>
       <r>   -15.2647     0.0000     2.0000 </r>
       <r>   -15.1113     0.0000     2.0000 </r>
       <r>   -14.9580     0.0000     2.0000 </r>
       <r>   -14.8046     0.0000     2.0000 </r>
       <r>   -14.6512     0.0000     2.0000 </r>
       <r>   -14.4978     0.0000     2.0000 </r>
       <r>   -14.3444     0.0000     2.0000 </r>
       <r>   -14.1911     0.0000     2.0000 </r>
       <r>   -14.0377     0.0000     2.0000 </r>
       <r>   -13.8843     0.0000     2.0000 </r>
       <r>   -13.7309     0.0000     2.0000 </r>
       <r>   -13.5775     0.0000     2.0000 </r>
       <r>   -13.4241     0.0000     2.0000 </r>
       <r>   -13.2708     0.0000     2.0000 </r>
       <r>   -13.1174     0.0000     2.0000 </r>
       <r>   -12.9640     0.0000     2.0000 </r>
       <r>   -12.8106     0.0000     2.0000 </r>
       <r>   -12.6572     0.0000     2.0000 </r>
       <r>   -12.5039     0.0000     2.0000 </r>
       <r>   -12.3505    -0.0000     2.0000 </r>
       <r>   -12.1971    -0.0000     2.0000 </r>
       <r>   -12.0437    -0.0000     2.0000 </r>
       <r>   -11.8903    -0.0000     2.0000 </r>
       <r>   -11.7370    -0.0033     1.9995 </r>
       <r>   -11.5836    -0.4527     1.9301 </r>
       <r>   -11.4302     9.6439     3.4092 </r>
       <r>   -11.2768     4.0478     4.0301 </r>
       <r>   -11.1234    -0.1961     4.0000 </r>
       <r>   -10.9701    -0.0002     4.0000 </r>
       <r>   -10.8167    -0.0000     4.0000 </r>
       <r>   -10.6633     0.0000     4.0000 </r>
       <r>   -10.5099     0.0000     4.0000 </r>
       <r>   -10.3565     0.0000     4.0000 </r>
       <r>   -10.2032     0.0000     4.0000 </r>
       <r>   -10.0498     0.0000     4.0000 </r>
       <r>    -9.8964     0.0000     4.0000 </r>
       <r>    -9.7430     0.0000     4.0000 </r>
       <r>    -9.5896    -0.0000     4.0000 </r>
       <r>    -9.4362    -0.0000     4.0000 </r>
       <r>    -9.2829    -0.0000     4.0000 </r>
       <r>    -9.1295    -0.0001     4.0000 </r>
       <r>    -8.9761    -0.2091     3.9679 </r>
       <r>    -8.8227     4.1107     4.5984 </r>
       <r>    -8.6693    22.9822     8.1234 </r>
       <r>    -8.5160    -0.7859     8.0029 </r>
       <r>    -8.3626    -0.0189     8.0000 </r>
       <r>    -8.2092    -0.0000     8.0000 </r>
       <r>    -8.0558    -0.0000     8.0000 </r>
       <r>    -7.9024    -0.0003     8.0000 </r>
       <r>    -7.7491    -0.2258     7.9653 </r>
       <r>    -7.5957     4.6446     8.6777 </r>
       <r>    -7.4423     9.0607    10.0675 </r>
       <r>    -7.2889    -0.4374    10.0004 </r>
       <r>    -7.1355    -0.0024    10.0000 </r>
       <r>    -6.9822    -0.0000    10.0000 </r>
       <r>    -6.8288    -0.0000    10.0000 </r>
       <r>    -6.6754     0.0000    10.0000 </r>
       <r>    -6.5220     0.0000    10.0000 </r>
       <r>    -6.3686     0.0000    10.0000 </r>
       <r>    -6.2152     0.0000    10.0000 </r>
       <r>    -6.0619     0.0000    10.0000 </r>
       <r>    -5.9085     0.0000    10.0000 </r>
       <r>    -5.7551     0.0000    10.0000 </r>
       <r>    -5.6017     0.0000    10.0000 </r>
       <r>    -5.4483     0.0000    10.0000 </r>
       <r>    -5.2950     0.0000    10.0000 </r>
       <r>    -5.1416     0.0000    10.0000 </r>
       <r>    -4.9882     0.0000    10.0000 </r>
       <r>    -4.8348     0.0000    10.0000 </r>
       <r>    -4.6814     0.0000    10.0000 </r>
       <r>    -4.5281     0.0000    10.0000 </r>
       <r>    -4.3747     0.0000    10.0000 </r>
       <r>    -4.2213     0.0000    10.0000 </r>
       <r>    -4.0679     0.0000    10.0000 </r>
       <r>    -3.9145     0.0000    10.0000 </r>
       <r>    -3.7612     0.0000    10.0000 </r>
       <r>    -3.6078     0.0000    10.0000 </r>
       <r>    -3.4544     0.0000    10.0000 </r>
       <r>    -3.3010     0.0000    10.0000 </r>
       <r>    -3.1476     0.0000    10.0000 </r>
       <r>    -2.9943     0.0000    10.0000 </r>
       <r>    -2.8409     0.0000    10.0000 </r>
       <r>    -2.6875     0.0000    10.0000 </r>
       <r>    -2.5341     0.0000    10.0000 </r>
       <r>    -2.3807     0.0000    10.0000 </r>
       <r>    -2.2273     0.0000    10.0000 </r>
       <r>    -2.0740     0.0000    10.0000 </r>
       <r>    -1.9206     0.0000    10.0000 </r>
       <r>    -1.7672     0.0000    10.0000 </r>
       <r>    -1.6138     0.0000    10.0000 </r>
       <r>    -1.4604     0.0000    10.0000 </r>
       <r>    -1.3071     0.0000    10.0000 </r>
       <r>    -1.1537     0.0000    10.0000 </r>
       <r>    -1.0003     0.0000    10.0000 </r>
       <r>    -0.8469     0.0000    10.0000 </r>
       <r>    -0.6935     0.0000    10.0000 </r>
       <r>    -0.5402    -0.0000    10.0000 </r>
       <r>    -0.3868    -0.0000    10.0000 </r>
       <r>    -0.2334    -0.0000    10.0000 </r>
       <r>    -0.0800    -0.0000    10.0000 </r>
       <r>     0.0734    -0.0190     9.9971 </r>
       <r>     0.2267    -0.7831     9.8770 </r>
       <r>     0.3801    23.0030    13.4052 </r>
       <r>     0.5335     4.0861    14.0319 </r>
       <r>     0.6869    -0.2080    14.0000 </r>
       <r>     0.8403    -0.0001    14.0000 </r>
       <r>     0.9937    -0.0000    14.0000 </r>
       <r>     1.1470    -0.0000    14.0000 </r>
       <r>     1.3004    -0.0000    14.0000 </r>
       <r>     1.4538    -0.0000    14.0000 </r>
       <r>     1.6072    -0.0000    14.0000 </r>
       <r>     1.7606    -0.0025    13.9996 </r>
       <r>     1.9139    -0.4382    13.9324 </r>
       <r>     2.0673     9.0855    15.3259 </r>
       <r>     2.2207     4.6194    16.0345 </r>
       <r>     2.3741    -0.2245    16.0000 </r>
       <r>     2.5275    -0.0003    16.0000 </r>
       <r>     2.6808    -0.0000    16.0000 </r>
       <r>     2.8342     0.0000    16.0000 </r>
       <r>     2.9876     0.0000    16.0000 </r>
       <r>     3.1410     0.0000    16.0000 </r>
       <r>     3.2944     0.0000    16.0000 </r>
       <r>     3.4477     0.0000    16.0000 </r>
       <r>     3.6011     0.0000    16.0000 </r>
       <r>     3.7545     0.0000    16.0000 </r>
       <r>     3.9079     0.0000    16.0000 </r>
       <r>     4.0613     0.0000    16.0000 </r>
       <r>     4.2146     0.0000    16.0000 </r>
       <r>     4.3680     0.0000    16.0000 </r>
       <r>     4.5214     0.0000    16.0000 </r>
       <r>     4.6748     0.0000    16.0000 </r>
       <r>     4.8282     0.0000    16.0000 </r>
       <r>     4.9816     0.0000    16.0000 </r>
       <r>     5.1349     0.0000    16.0000 </r>
       <r>     5.2883     0.0000    16.0000 </r>
       <r>     5.4417     0.0000    16.0000 </r>
       <r>     5.5951     0.0000    16.0000 </r>
       <r>     5.7485     0.0000    16.0000 </r>
       <r>     5.9018     0.0000    16.0000 </r>
       <r>     6.0552    -0.0000    16.0000 </r>
       <r>     6.2086    -0.0000    16.0000 </r>
       <r>     6.3620    -0.0000    16.0000 </r>
       <r>     6.5154    -0.0000    16.0000 </r>
       <r>     6.6687    -0.0002    16.0000 </r>
       <r>     6.8221    -0.1983    15.9696 </r>
       <r>     6.9755     4.0930    16.5973 </r>
       <r>     7.1289     9.5999    18.0698 </r>
       <r>     7.2823    -0.4518    18.0005 </r>
       <r>     7.4356    -0.0032    18.0000 </r>
       <r>     7.5890    -0.0000    18.0000 </r>
       <r>     7.7424    -0.0000    18.0000 </r>
       <r>     7.8958    -0.0000    18.0000 </r>
       <r>     8.0492    -0.0002    18.0000 </r>
       <r>     8.2025    -0.1987    17.9695 </r>
       <r>     8.3559     4.1012    18.5985 </r>
       <r>     8.5093     9.5920    20.0698 </r>
       <r>     8.6627    -0.4517    20.0005 </r>
       <r>     8.8161    -0.0032    20.0000 </r>
       <r>     8.9695    -0.0000    20.0000 </r>
       <r>     9.1228    -0.0000    20.0000 </r>
       <r>     9.2762     0.0000    20.0000 </r>
       <r>     9.4296    -0.0000    20.0000 </r>
       <r>     9.5830    -0.0000    20.0000 </r>
       <r>     9.7364    -0.0000    20.0000 </r>
       <r>     9.8897    -0.0000    20.0000 </r>
       <r>    10.0431    -0.0010    19.9999 </r>
       <r>    10.1965    -0.5673    19.9128 </r>
       <r>    10.3499    11.4278    21.6656 </r>
       <r>    10.5033    18.2375    24.4629 </r>
       <r>    10.6566    10.4523    26.0661 </r>
       <r>    10.8100    -0.4230    26.0012 </r>
       <r>    10.9634    -0.0080    26.0000 </r>
       <r>    11.1168    -0.0000    26.0000 </r>
       <r>    11.2702    -0.0000    26.0000 </r>
       <r>    11.4235     0.0000    26.0000 </r>
       <r>    11.5769     0.0000    26.0000 </r>
       <r>    11.7303     0.0000    26.0000 </r>
       <r>    11.8837     0.0000    26.0000 </r>
       <r>    12.0371     0.0000    26.0000 </r>
       <r>    12.1905     0.0000    26.0000 </r>
       <r>    12.3438     0.0000    26.0000 </r>
       <r>    12.4972     0.0000    26.0000 </r>
       <r>    12.6506     0.0000    26.0000 </r>
       <r>    12.8040     0.0000    26.0000 </r>
       <r>    12.9574     0.0000    26.0000 </r>
       <r>    13.1107    -0.0000    26.0000 </r>
       <r>    13.2641    -0.0000    26.0000 </r>
       <r>    13.4175    -0.0000    26.0000 </r>
       <r>    13.5709    -0.0000    26.0000 </r>
       <r>    13.7243    -0.0006    25.9999 </r>
       <r>    13.8776    -0.3097    25.9524 </r>
       <r>    14.0310     5.7002    26.8267 </r>
       <r>    14.1844    18.9370    29.7313 </r>
       <r>    14.3378     1.8657    30.0175 </r>
       <r>    14.4912    -0.1137    30.0000 </r>
       <r>    14.6445    -0.0001    30.0000 </r>
       <r>    14.7979    -0.0000    30.0000 </r>
       <r>    14.9513    -0.0000    30.0000 </r>
       <r>    15.1047    -0.0000    30.0000 </r>
       <r>    15.2581    -0.0000    30.0000 </r>
       <r>    15.4114    -0.0000    30.0000 </r>
       <r>    15.5648    -0.0767    29.9882 </r>
       <r>    15.7182     1.3786    30.1997 </r>
       <r>    15.8716    12.0304    32.0449 </r>
       <r>    16.0250    -0.2784    32.0022 </r>
       <r>    16.1784    -0.0144    32.0000 </r>
       <r>    16.3317    -0.0000    32.0000 </r>
       <r>    16.4851    -0.0000    32.0000 </r>
       <r>    16.6385     0.0000    32.0000 </r>
       <r>    16.7919     0.0000    32.0000 </r>
       <r>    16.9453     0.0000    32.0000 </r>
       <r>    17.0986     0.0000    32.0000 </r>
       <r>    17.2520     0.0000    32.0000 </r>
       <r>    17.4054     0.0000    32.0000 </r>
       <r>    17.5588     0.0000    32.0000 </r>
       <r>    17.7122     0.0000    32.0000 </r>
       <r>    17.8655     0.0000    32.0000 </r>
      </set>
     </set>
    </array>
   </total>
  </dos>
 </calculation>
 <structure name="finalpos" >
  <crystal>
   <varray name="basis" >
    <v>       4.00000000       0.00000000       0.00000000 </v>
    <v>       0.00000000       4.00000000       0.00000000 </v>
    <v>       0.00000000       0.00000000       4.00000000 </v>
   </varray>
   <i name="volume">     64.00000000 </i>
   <varray name="rec_basis" >
    <v>       0.25000000       0.00000000       0.00000000 </v>
    <v>       0.00000000       0.25000000       0.00000000 </v>
    <v>       0.00000000       0.00000000       0.25000000 </v>
   </varray>
  </crystal>
  <varray name="positions" >
   <v>       0.35000000       0.50000000       0.50000000 </v>
   <v>       0.65000000       0.50000000       0.50000000 </v>
  </varray>
 </structure>
</modeling>
