unknown system                          
           1
     4.000000    0.000000    0.000000
     0.000000    4.000000    0.000000
     0.000000    0.000000    4.000000
   C    O 
   1   1
Direct configuration=     1
   0.35000000  0.50000000  0.50000000
   0.65000000  0.50000000  0.50000000
