----- GAMESS execution script 'rungms' -----
This job is running on host dftfe.crc.nd.edu
under operating system Linux at Thu Feb 26 01:21:16 EST 2015
Available scratch disk space (Kbyte units) at beginning of the job is
Filesystem     1K-blocks     Used Available Use% Mounted on
/dev/sda2      147771864 22820364 117445068  17% /
GAMESS temporary binary files will be written to /tmp
GAMESS supplementary output files will be written to /tmp
Copying input file SO2-opt.inp to your run's scratch directory...

 Distributed Data Interface kickoff program.
 Initiating 1 compute processes on 1 nodes to run the following command:
 /opt/crc/gamess/2012R1/gamess/gamess.00.x SO2-opt 

          ******************************************************
          *         GAMESS VERSION =  1 MAY 2012 (R1)          *
          *             FROM IOWA STATE UNIVERSITY             *
          * M.W.SCHMIDT, K.K.BALDRIDGE, J.A.BOATZ, S.T.ELBERT, *
          *   M.S.GORDON, J.H.JENSEN, S.KOSEKI, N.MATSUNAGA,   *
          *          K.A.NGUYEN, S.J.SU, T.L.WINDUS,           *
          *       TOGETHER WITH M.DUPUIS, J.A.MONTGOMERY       *
          *         J.COMPUT.CHEM.  14, 1347-1363(1993)        *
          **************** 64 BIT LINUX VERSION ****************

  SINCE 1993, STUDENTS AND POSTDOCS WORKING AT IOWA STATE UNIVERSITY
  AND ALSO IN THEIR VARIOUS JOBS AFTER LEAVING ISU HAVE MADE IMPORTANT
  CONTRIBUTIONS TO THE CODE:
     IVANA ADAMOVIC, CHRISTINE AIKENS, YURI ALEXEEV, POOJA ARORA,
     ANDREY ASADCHEV, ROB BELL, PRADIPTA BANDYOPADHYAY, JONATHAN BENTZ,
     BRETT BODE, GALINA CHABAN, WEI CHEN, CHEOL HO CHOI, PAUL DAY,
     ALBERT DEFUSCO, TIM DUDLEY, DMITRI FEDOROV, GRAHAM FLETCHER,
     MARK FREITAG, KURT GLAESEMANN, DAN KEMP, GRANT MERRILL,
     NORIYUKI MINEZAWA, JONATHAN MULLIN, TAKESHI NAGATA,
     SEAN NEDD, HEATHER NETZLOFF, BOSILJKA NJEGIC, RYAN OLSON, MIKE PAK,
     JIM SHOEMAKER, LYUDMILA SLIPCHENKO, SAROM SOK, JIE SONG,
     TETSUYA TAKETSUGU, SIMON WEBB, SOOHAENG YOO, FEDERICO ZAHARIEV

  ADDITIONAL CODE HAS BEEN PROVIDED BY COLLABORATORS IN OTHER GROUPS:
     IOWA STATE UNIVERSITY:
          JOE IVANIC, LAIMUTIS BYTAUTAS, KLAUS RUEDENBERG
     UNIVERSITY OF TOKYO: KIMIHIKO HIRAO, TAKAHITO NAKAJIMA,
          TAKAO TSUNEDA, MUNEAKI KAMIYA, SUSUMU YANAGISAWA,
          KIYOSHI YAGI, MAHITO CHIBA, SEIKEN TOKURA, NAOAKI KAWAKAMI
     UNIVERSITY OF AARHUS: FRANK JENSEN
     UNIVERSITY OF IOWA: VISVALDAS KAIRYS, HUI LI
     NATIONAL INST. OF STANDARDS AND TECHNOLOGY: WALT STEVENS, DAVID GARMER
     UNIVERSITY OF PISA: BENEDETTA MENNUCCI, JACOPO TOMASI
     UNIVERSITY OF MEMPHIS: HENRY KURTZ, PRAKASHAN KORAMBATH
     UNIVERSITY OF ALBERTA: TOBY ZENG, MARIUSZ KLOBUKOWSKI
     UNIVERSITY OF NEW ENGLAND: MARK SPACKMAN
     MIE UNIVERSITY: HIROAKI UMEDA
     MICHIGAN STATE UNIVERSITY:
          KAROL KOWALSKI, MARTA WLOCH, JEFFREY GOUR, JESSE LUTZ, PIOTR PIECUCH
     UNIVERSITY OF SILESIA: MONIKA MUSIAL, STANISLAW KUCHARSKI
     FACULTES UNIVERSITAIRES NOTRE-DAME DE LA PAIX:
          OLIVIER QUINET, BENOIT CHAMPAGNE
     UNIVERSITY OF CALIFORNIA - SANTA BARBARA: BERNARD KIRTMAN
     INSTITUTE FOR MOLECULAR SCIENCE:
          KAZUYA ISHIMURA, MICHIO KATOUDA, AND SHIGERU NAGASE
     UNIVERSITY OF NOTRE DAME: DAN CHIPMAN
     KYUSHU UNIVERSITY:
          HARUYUKI NAKANO,
          FENG LONG GU, JACEK KORCHOWIEC, MARCIN MAKOWSKI, AND YURIKO AOKI,
          HIROTOSHI MORI AND EISAKU MIYOSHI
     PENNSYLVANIA STATE UNIVERSITY:
          TZVETELIN IORDANOV, CHET SWALINA, JONATHAN SKONE,
          SHARON HAMMES-SCHIFFER
     WASEDA UNIVERSITY:
          MASATO KOBAYASHI, TOMOKO AKAMA, TSUGUKI TOUMA,
          TAKESHI YOSHIKAWA, YASUHIRO IKABATA, HIROMI NAKAI
     UNIVERSITY OF NEBRASKA:
          PEIFENG SU, DEJUN SI, NANDUN THELLAMUREGE, YALI WANG, HUI LI
     UNIVERSITY OF ZURICH:
          ROBERTO PEVERATI, KIM BALDRIDGE
     N. COPERNICUS UNIVERSITY AND JACKSON STATE UNIVERSITY:
          MARIA BARYSZ

 EXECUTION OF GAMESS BEGUN Thu Feb 26 01:21:16 2015

            ECHO OF THE FIRST FEW INPUT CARDS -
 INPUT CARD>!   File created by the GAMESS Input Deck Generator Plugin for Avogadro         
 INPUT CARD> $BASIS GBASIS=PC1 $END                                                         
 INPUT CARD> $CONTRL COORD=ZMT ISPHER=1 RUNTYP=OPTIMIZE DFTTYP=PBE $END                     
 INPUT CARD>                                                                                
 INPUT CARD> $DATA                                                                          
 INPUT CARD>Title                                                                           
 INPUT CARD>Cnv 2                                                                           
 INPUT CARD>                                                                                
 INPUT CARD>S                                                                               
 INPUT CARD>O 1 rso                                                                         
 INPUT CARD>O 1 rso 2 ang                                                                   
 INPUT CARD>                                                                                
 INPUT CARD>rso = 1.50                                                                      
 INPUT CARD>ang = 120                                                                       
 INPUT CARD> $END                                                                           
 INPUT CARD>                                                                                
    1000000 WORDS OF MEMORY AVAILABLE

     BASIS OPTIONS
     -------------
     GBASIS=PC1          IGAUSS=       0      POLAR=NONE    
     NDFUNC=       0     NFFUNC=       0     DIFFSP=       F
     NPFUNC=       0      DIFFS=       F     BASNAM=        


     RUN TITLE
     ---------
 Title                                                                           

 THE POINT GROUP OF THE MOLECULE IS CNV     
 THE ORDER OF THE PRINCIPAL AXIS IS     2

 YOUR FULLY SUBSTITUTED Z-MATRIX IS
 S   
 O      1   1.5000000
 O      1   1.5000000  2  120.0000

 THE MOMENTS OF INERTIA ARE (AMU-ANGSTROM**2)
 IXX=     8.995   IYY=    53.983   IZZ=    62.977

 ATOM      ATOMIC                      COORDINATES (BOHR)
           CHARGE         X                   Y                   Z
 S          16.0     0.0000000000        0.0000000000       -0.7088439014
 O           8.0    -2.4548260673        0.0000000000        0.7084505894
 O           8.0     2.4548260673        0.0000000000        0.7084505894

          INTERNUCLEAR DISTANCES (ANGS.)
          ------------------------------

                1 S          2 O          3 O     

   1 S       0.0000000    1.5000000 *  1.5000000 *
   2 O       1.5000000 *  0.0000000    2.5980762 *
   3 O       1.5000000 *  2.5980762 *  0.0000000  

  * ... LESS THAN  3.000


     ATOMIC BASIS SET
     ----------------
 THE CONTRACTED PRIMITIVE FUNCTIONS HAVE BEEN UNNORMALIZED
 THE CONTRACTED BASIS FUNCTIONS ARE NOW NORMALIZED TO UNITY

  SHELL TYPE  PRIMITIVE        EXPONENT          CONTRACTION COEFFICIENT(S)

 S         

      1   S       1         55510.0000000    0.000587229760
      1   S       2          8326.7000000    0.004532413947
      1   S       3          1895.6000000    0.023265261648
      1   S       4           536.7700000    0.089696133027
      1   S       5           174.6700000    0.254098332277
      1   S       6            62.5780000    0.438665087637
      1   S       7            23.5730000    0.314547135094
      1   S       8             5.8908000    0.032727897102

      2   S       9          8326.7000000   -0.000019755715
      2   S      10          1895.6000000   -0.000043822381
      2   S      11           536.7700000   -0.001730264906
      2   S      12           174.6700000   -0.009381263460
      2   S      13            62.5780000   -0.064050766303
      2   S      14            23.5730000   -0.082478179196
      2   S      15             5.8908000    0.478342956889
      2   S      16             2.1852000    0.626896670208

      3   S      17          1895.6000000    0.000016227260
      3   S      18           536.7700000    0.000191135619
      3   S      19           174.6700000    0.001952069674
      3   S      20            62.5780000    0.010578701087
      3   S      21            23.5730000    0.022164934551
      3   S      22             5.8908000   -0.184968323118
      3   S      23             2.1852000   -0.480920750976
      3   S      24             0.4528200    1.243822243872

      4   S      25             0.1620200    1.000000000000

      5   P      26           395.4500000    0.004642761329
      5   P      27            92.8340000    0.036023396489
      5   P      28            29.2660000    0.149058869978
      5   P      29            10.5950000    0.360033266263
      5   P      30             4.0272000    0.455756476221
      5   P      31             1.5484000    0.206167664178

      6   P      32            92.8340000    0.000169901442
      6   P      33            29.2660000   -0.002541839934
      6   P      34            10.5950000   -0.007867614595
      6   P      35             4.0272000   -0.037231009184
      6   P      36             1.5484000    0.161417246830
      6   P      37             0.4613400    0.902230419976

      7   P      38             0.1313100    1.000000000000

      8   D      39             0.5500000    1.000000000000

 O         

     15   S      40          2306.7000000    0.005424388755
     15   S      41           347.1500000    0.040474749465
     15   S      42            78.8900000    0.180219634554
     15   S      43            21.8760000    0.462370311787
     15   S      44             6.6646000    0.454888396263

     16   S      45           347.1500000   -0.000655003786
     16   S      46            78.8900000   -0.005362052952
     16   S      47            21.8760000   -0.074902158894
     16   S      48             6.6646000   -0.181442579655
     16   S      49             1.0669000    1.102006874042

     17   S      50             0.3070000    1.000000000000

     18   P      51            17.0220000    0.068979967443
     18   P      52             3.6838000    0.351985516325
     18   P      53             0.9923400    0.724036547822

     19   P      54             0.2448700    1.000000000000

     20   D      55             1.0000000    1.000000000000

 TOTAL NUMBER OF BASIS SET SHELLS             =   20
 NUMBER OF CARTESIAN GAUSSIAN BASIS FUNCTIONS =   49
 NOTE: THIS RUN WILL RESTRICT THE MO VARIATION SPACE TO SPHERICAL HARMONICS.
 THE NUMBER OF ORBITALS KEPT IN THE VARIATIONAL SPACE WILL BE PRINTED LATER.
 NUMBER OF ELECTRONS                          =   32
 CHARGE OF MOLECULE                           =    0
 SPIN MULTIPLICITY                            =    1
 NUMBER OF OCCUPIED ORBITALS (ALPHA)          =   16
 NUMBER OF OCCUPIED ORBITALS (BETA )          =   16
 TOTAL NUMBER OF ATOMS                        =    3
 THE NUCLEAR REPULSION ENERGY IS      103.3484639683

     LEBEDEV GRID-BASED DFT OPTIONS
     ------------------------------
     DFTTYP=PBE     
     NRAD  =      96     NLEB  =     302
     NRAD0 =      24     NLEB0 =     110
     SWOFF =    5.00E-03 (PURE SCF -> DFT)
     SWITCH=    3.00E-04 (COARSE -> TIGHT GRID)
     THRESH=    0.00E+00 GTHRE=    1.00E+00

 GRIMME'S EMPIRICAL DISPERSION CORRECTION= F

     $CONTRL OPTIONS
     ---------------
 SCFTYP=RHF          RUNTYP=OPTIMIZE     EXETYP=RUN     
 MPLEVL=       0     CITYP =NONE         CCTYP =NONE         VBTYP =NONE    
 DFTTYP=PBE          TDDFT =NONE    
 MULT  =       1     ICHARG=       0     NZVAR =       0     COORD =ZMT     
 PP    =NONE         RELWFN=NONE         LOCAL =NONE         NUMGRD=       F
 ISPHER=       1     NOSYM =       0     MAXIT =      30     UNITS =ANGS    
 PLTORB=       F     MOLPLT=       F     AIMPAC=       F     FRIEND=        
 NPRINT=       7     IREST =       0     GEOM  =INPUT   
 NORMF =       0     NORMP =       0     ITOL  =      20     ICUT  =       9
 INTTYP=BEST         GRDTYP=BEST         QMTTOL= 1.0E-06

     $SYSTEM OPTIONS
     ---------------
  REPLICATED MEMORY=     1000000 WORDS (ON EVERY NODE).
 DISTRIBUTED MEMDDI=           0 MILLION WORDS IN AGGREGATE,
 MEMDDI DISTRIBUTED OVER   1 PROCESSORS IS           0 WORDS/PROCESSOR.
 TOTAL MEMORY REQUESTED ON EACH PROCESSOR=     1000000 WORDS.
 TIMLIM=      525600.00 MINUTES, OR     365.0 DAYS.
 PARALL= F  BALTYP=  DLB     KDIAG=    0  COREFL= F
 MXSEQ2=     300 MXSEQ3=     150

          ----------------
          PROPERTIES INPUT
          ----------------

     MOMENTS            FIELD           POTENTIAL          DENSITY
 IEMOM =       1   IEFLD =       0   IEPOT =       0   IEDEN =       0
 WHERE =COMASS     WHERE =NUCLEI     WHERE =NUCLEI     WHERE =NUCLEI  
 OUTPUT=BOTH       OUTPUT=BOTH       OUTPUT=BOTH       OUTPUT=BOTH    
 IEMINT=       0   IEFINT=       0                     IEDINT=       0
                                                       MORB  =       0
          EXTRAPOLATION IN EFFECT
          DIIS IN EFFECT
 ORBITAL PRINTING OPTION: NPREO=     1    49     2     1

     -------------------------------
     INTEGRAL TRANSFORMATION OPTIONS
     -------------------------------
     NWORD  =            0
     CUTOFF = 1.0E-09     MPTRAN =       0
     DIRTRF =       F     AOINTS =DUP     

          ----------------------
          INTEGRAL INPUT OPTIONS
          ----------------------
 NOPK  =       1 NORDER=       0 SCHWRZ=       F

   --- ENCODED Z MATRIX ---
 COORD  TYPE   I   J   K   L   M   N
    1      1    3   1
    2      1    2   1
    3      2    2   1   3

 THE DETERMINANT OF THE G MATRIX IS 10**(    -4)

 THE DETERMINANT OF THE G MATRIX IS 10**(    -4)
 * * * WARNING * * *
 YOUR B MATRIX HAS A SMALL DETERMINANT.
 THIS SUGGESTS YOU MAY HAVE BADLY CHOSEN COORDINATES.

     ------------------------------------------
     THE POINT GROUP IS CNV, NAXIS= 2, ORDER= 4
     ------------------------------------------

 -- VARIATIONAL SPACE WILL BE RESTRICTED TO PURE SPHERICAL HARMONICS ONLY --
 AFTER EXCLUDING CONTAMINANT COMBINATIONS FROM THE CARTESIAN GAUSSIAN BASIS
 SET, THE NUMBER OF SPHERICAL HARMONICS KEPT IN THE VARIATION SPACE IS   46

     DIMENSIONS OF THE SYMMETRY SUBSPACES ARE
 A1  =   19     A2  =    5     B1  =   14     B2  =    8

 ..... DONE SETTING UP THE RUN .....
 STEP CPU TIME =     0.02 TOTAL CPU TIME =        0.0 (    0.0 MIN)
 TOTAL WALL CLOCK TIME=        0.0 SECONDS, CPU UTILIZATION IS 100.00%


          -----------------------------
          STATIONARY POINT LOCATION RUN
          -----------------------------

 OBTAINING INITIAL HESSIAN, HESS=GUESS   
 CARTESIAN COORDINATE OPTIMIZATION USING BADGER'S RULE FORCE CONSTANT GUESS

          PARAMETERS CONTROLLING GEOMETRY SEARCH ARE
          METHOD =QA                  UPHESS =BFGS    
          NNEG   =         0          NFRZ   =         0
          NSTEP  =        50          IFOLOW =         1
          HESS   =GUESS               RESTAR =         F
          IHREP  =         0          HSSEND =         F
          NPRT   =         0          NPUN   =         0
          OPTTOL = 1.000E-04          RMIN   = 1.500E-03
          RMAX   = 1.000E-01          RLIM   = 7.000E-02
          DXMAX  = 3.000E-01          PURIFY =         F
          MOVIE  =         F          TRUPD  =         T
          TRMAX  = 5.000E-01          TRMIN  = 5.000E-02
          ITBMAT =         5          STPT   =         F
          STSTEP = 1.000E-02          PROJCT=          T

 BEGINNING GEOMETRY SEARCH POINT NSERCH=   0 ...

 COORDINATES OF SYMMETRY UNIQUE ATOMS (ANGS)
   ATOM   CHARGE       X              Y              Z
 ------------------------------------------------------------
 S          16.0   0.0000000000   0.0000000000  -0.3751040659
 O           8.0   1.2990381057   0.0000000000   0.3748959341
 COORDINATES OF ALL ATOMS ARE (ANGS)
   ATOM   CHARGE       X              Y              Z
 ------------------------------------------------------------
 S          16.0   0.0000000000   0.0000000000  -0.3751040659
 O           8.0  -1.2990381057   0.0000000000   0.3748959341
 O           8.0   1.2990381057   0.0000000000   0.3748959341

 THE CURRENT FULLY SUBSTITUTED Z-MATRIX IS
 S   
 O      1   1.5000000
 O      1   1.5000000  2   120.0000000

          ********************
          1 ELECTRON INTEGRALS
          ********************
 ...... END OF ONE-ELECTRON INTEGRALS ......
 STEP CPU TIME =     0.00 TOTAL CPU TIME =        0.0 (    0.0 MIN)
 TOTAL WALL CLOCK TIME=        0.0 SECONDS, CPU UTILIZATION IS  66.67%

          -------------
          GUESS OPTIONS
          -------------
          GUESS =HUCKEL            NORB  =       0          NORDER=       0
          MIX   =       F          PRTMO =       F          PUNMO =       F
          TOLZ  = 1.0E-08          TOLE  = 1.0E-05
          SYMDEN=       F          PURIFY=       F

 INITIAL GUESS ORBITALS GENERATED BY HUCKEL   ROUTINE.
 HUCKEL GUESS REQUIRES     21583 WORDS.

 STATISTICS FOR GENERATION OF SYMMETRY ORBITAL -Q- MATRIX
 NUMBER OF CARTESIAN ATOMIC ORBITALS=         49
 NUMBER OF SPHERICAL CONTAMINANTS DROPPED=     3
 NUMBER OF LINEARLY DEPENDENT MOS DROPPED=     0
 TOTAL NUMBER OF MOS IN VARIATION SPACE=      46

 SYMMETRIES FOR INITIAL GUESS ORBITALS FOLLOW.   BOTH SET(S).
    16 ORBITALS ARE OCCUPIED (    7 CORE ORBITALS).
     8=A1       9=B1      10=A1      11=B2      12=A1      13=B1      14=A2  
    15=B1      16=A1      17=B2      18=A1      19=B1      20=A1      21=A1  
    22=A1      23=A1      24=A1      25=A1      26=A1  
 ...... END OF INITIAL ORBITAL SELECTION ......
 STEP CPU TIME =     0.00 TOTAL CPU TIME =        0.0 (    0.0 MIN)
 TOTAL WALL CLOCK TIME=        0.0 SECONDS, CPU UTILIZATION IS  66.67%

                    ----------------------
                    AO INTEGRAL TECHNOLOGY
                    ----------------------
     S,P,L SHELL ROTATED AXIS INTEGRALS, REPROGRAMMED BY
        KAZUYA ISHIMURA (IMS) AND JOSE SIERRA (SYNSTAR).
     S,P,D,L SHELL ROTATED AXIS INTEGRALS PROGRAMMED BY
        KAZUYA ISHIMURA (INSTITUTE FOR MOLECULAR SCIENCE).
     S,P,D,F,G SHELL TO TOTAL QUARTET ANGULAR MOMENTUM SUM 5,
        ERIC PROGRAM BY GRAHAM FLETCHER (ELORET AND NASA ADVANCED
        SUPERCOMPUTING DIVISION, AMES RESEARCH CENTER).
     S,P,D,F,G,L SHELL GENERAL RYS QUADRATURE PROGRAMMED BY
        MICHEL DUPUIS (PACIFIC NORTHWEST NATIONAL LABORATORY).

          --------------------
          2 ELECTRON INTEGRALS
          --------------------

 THE -PK- OPTION IS OFF, THE INTEGRALS ARE NOT IN SUPERMATRIX FORM.
 STORING   15000 INTEGRALS/RECORD ON DISK, USING 12 BYTES/INTEGRAL.
 TWO ELECTRON INTEGRAL EVALUATION REQUIRES   90606 WORDS OF MEMORY.
 II,JST,KST,LST =  1  1  1  1 NREC =         1 INTLOC =    1
 II,JST,KST,LST =  2  1  1  1 NREC =         1 INTLOC =    2
 II,JST,KST,LST =  3  1  1  1 NREC =         1 INTLOC =    7
 II,JST,KST,LST =  4  1  1  1 NREC =         1 INTLOC =   22
 II,JST,KST,LST =  5  1  1  1 NREC =         1 INTLOC =   56
 II,JST,KST,LST =  6  1  1  1 NREC =         1 INTLOC =  125
 II,JST,KST,LST =  7  1  1  1 NREC =         1 INTLOC =  329
 II,JST,KST,LST =  8  1  1  1 NREC =         1 INTLOC =  776
 II,JST,KST,LST =  9  1  1  1 NREC =         1 INTLOC = 2864
 II,JST,KST,LST = 10  1  1  1 NREC =         1 INTLOC = 2864
 II,JST,KST,LST = 11  1  1  1 NREC =         1 INTLOC = 2864
 II,JST,KST,LST = 12  1  1  1 NREC =         1 INTLOC = 2864
 II,JST,KST,LST = 13  1  1  1 NREC =         1 INTLOC = 2864
 II,JST,KST,LST = 14  1  1  1 NREC =         1 INTLOC = 2864
 II,JST,KST,LST = 15  1  1  1 NREC =         1 INTLOC = 2864
 II,JST,KST,LST = 16  1  1  1 NREC =         1 INTLOC = 5111
 II,JST,KST,LST = 17  1  1  1 NREC =         1 INTLOC = 8277
 II,JST,KST,LST = 18  1  1  1 NREC =         1 INTLOC =12707
 II,JST,KST,LST = 19  1  1  1 NREC =         3 INTLOC =  387
 II,JST,KST,LST = 20  1  1  1 NREC =         5 INTLOC = 1491
 TOTAL NUMBER OF NONZERO TWO-ELECTRON INTEGRALS =              176769
         12 INTEGRAL RECORDS WERE STORED ON DISK FILE  8.
  ...... END OF TWO-ELECTRON INTEGRALS .....
 STEP CPU TIME =     0.16 TOTAL CPU TIME =        0.2 (    0.0 MIN)
 TOTAL WALL CLOCK TIME=        0.2 SECONDS, CPU UTILIZATION IS  94.74%

          --------------------------
               R-PBE SCF CALCULATION
          --------------------------

     NUCLEAR ENERGY =       103.3484639683
     MAXIT =   30     NPUNCH=    2
     EXTRAP=T  DAMP=F  SHIFT=F  RSTRCT=F  DIIS=T  DEM=F  SOSCF=F
         DENSITY MATRIX CONVERGENCE THRESHOLD=  1.00E-05
     COARSE -> FINE DFT GRID SWITCH THRESHOLD=  3.00E-04 (SWITCH IN $DFT)
                   HF -> DFT SWITCH THRESHOLD=  5.00E-03 (SWOFF IN $DFT)
     MEMORY REQUIRED FOR RHF ITERS=    183117 WORDS.

 DFT CODE IS SWITCHING FROM THE FINE GRID NRAD= 96,  NLEB=  302
                      TO THE COARSE GRID NRAD0= 24, NLEB0=  110

     EXCHANGE FUNCTIONAL   =PBE       
     CORRELATION FUNCTIONAL=PBE       
     DFT THRESHOLD         =.460E-07
     GRID CHANGE THRESHOLD =.300E-03
 FOR AN EULER-MACLAURIN QUADRATURE USING  96 RADIAL POINTS:
 SMALLEST GAUSSIAN PRIMITIVE EXPONENT=        0.1313100000 OF TYPE -P-
 ON ATOM NUMBER   1 HAS RADIAL NORMALIZATION=  1.000000
  LARGEST GAUSSIAN PRIMITIVE EXPONENT=    55510.0000000000 OF TYPE -S-
 ON ATOM NUMBER   1 HAS RADIAL NORMALIZATION=  0.999999
 DFT IS SWITCHED OFF, PERFORMING PURE SCF UNTIL SWOFF THRESHOLD IS REACHED.

 ITER EX DEM     TOTAL ENERGY        E CHANGE  DENSITY CHANGE    DIIS ERROR
   1  0  0     -546.0989669855  -546.0989669855   0.378475559   1.425498258
          * * *   INITIATING DIIS PROCEDURE   * * *
   2  1  0     -546.8546024496    -0.7556354641   0.380631628   0.256416196
   3  2  0     -546.9456028831    -0.0910004334   0.142439861   0.275492472
   4  3  0     -547.1070701349    -0.1614672519   0.014320860   0.013282675
   5  4  0     -547.1078106118    -0.0007404769   0.011789105   0.004296448
   6  5  0     -547.1079080513    -0.0000974395   0.003298469   0.001441835
 CONVERGED TO SWOFF, SO DFT CALCULATION IS NOW SWITCHED ON.
          * * *   INITIATING DIIS PROCEDURE   * * *
   7  6  0     -548.2485214409    -1.1406133896   0.253112554   0.105351409
   8  7  0     -548.2558300496    -0.0073086087   0.213552957   0.097112954
   9  8  0     -548.2551675555     0.0006624942   0.077421980   0.119234153
  10  9  0     -548.2854309638    -0.0302634084   0.015297743   0.015265786
  11 10  0     -548.2859431884    -0.0005122245   0.000657102   0.001065988
  12 11  0     -548.2859452204    -0.0000020320   0.000491262   0.000272249
  13 12  0     -548.2859454262    -0.0000002058   0.000035653   0.000032824
 DFT CODE IS SWITCHING BACK TO THE FINE GRID
          * * *   INITIATING DIIS PROCEDURE   * * *
  14 13  0     -548.2645253362     0.0214200900   0.007571109   0.014183661
  15 14  0     -548.2648497419    -0.0003244057   0.005394609   0.002677281
  16 15  0     -548.2648267122     0.0000230297   0.004005590   0.003677435
  17 16  0     -548.2648623497    -0.0000356375   0.000558600   0.001118139
  18 17  0     -548.2648646672    -0.0000023175   0.000121729   0.000080553
  19 18  0     -548.2648646920    -0.0000000248   0.000036411   0.000012036
  20 19  0     -548.2648646924    -0.0000000004   0.000004758   0.000002505
  21 20  0     -548.2648646925     0.0000000000   0.000000176   0.000000191

          -----------------
          DENSITY CONVERGED
          -----------------
     TIME TO FORM FOCK OPERATORS=       4.3 SECONDS (       0.2 SEC/ITER)
     TIME TO SOLVE SCF EQUATIONS=       0.0 SECONDS (       0.0 SEC/ITER)

 FINAL R-PBE ENERGY IS     -548.2648646925 AFTER  21 ITERATIONS
 DFT EXCHANGE + CORRELATION ENERGY =       -42.4805191766
 TOTAL ELECTRON NUMBER             =        31.9999964810

          ------------
          EIGENVECTORS
          ------------

                      1          2          3          4          5
                  -88.2146   -18.8049   -18.8048    -7.8380    -5.8590
                     A1         A1         B1         A1         B1  
    1  S  1  S    1.002982  -0.000061   0.000000  -0.274048   0.000000
    2  S  1  S   -0.010279  -0.000619   0.000000   1.039455   0.000000
    3  S  1  S    0.001837  -0.001253   0.000000   0.041134   0.000000
    4  S  1  S   -0.000712   0.011207   0.000000  -0.010946   0.000000
    5  S  1  X    0.000000   0.000000  -0.000032   0.000000   0.996601
    6  S  1  Y    0.000000   0.000000   0.000000   0.000000   0.000000
    7  S  1  Z    0.000057  -0.000079   0.000000   0.011442   0.000000
    8  S  1  X    0.000000   0.000000  -0.001367   0.000000   0.009526
    9  S  1  Y    0.000000   0.000000   0.000000   0.000000   0.000000
   10  S  1  Z    0.000107   0.001294   0.000000   0.001627   0.000000
   11  S  1  X    0.000000   0.000000  -0.005263   0.000000  -0.000244
   12  S  1  Y    0.000000   0.000000   0.000000   0.000000   0.000000
   13  S  1  Z   -0.000005   0.004448   0.000000  -0.000474   0.000000
   14  S  1 XX    0.000107   0.000787   0.000000   0.001143   0.000000
   15  S  1 YY   -0.000077  -0.000968   0.000000  -0.000687   0.000000
   16  S  1 ZZ   -0.000030   0.000180   0.000000  -0.000457   0.000000
   17  S  1 XY    0.000000   0.000000   0.000000   0.000000   0.000000
   18  S  1 XZ    0.000000   0.000000  -0.000443   0.000000   0.001026
   19  S  1 YZ    0.000000   0.000000   0.000000   0.000000   0.000000
   20  O  2  S    0.000012   0.703310   0.703251  -0.000028   0.000344
   21  O  2  S    0.000040   0.026195   0.025669  -0.000043  -0.000218
   22  O  2  S   -0.000103  -0.013982  -0.012138  -0.000236  -0.000119
   23  O  2  X   -0.000040   0.000934   0.000890  -0.000389  -0.000497
   24  O  2  Y    0.000000   0.000000   0.000000   0.000000   0.000000
   25  O  2  Z    0.000020  -0.000352  -0.000611   0.000190   0.000327
   26  O  2  X   -0.000139  -0.004029  -0.002141  -0.001108  -0.000041
   27  O  2  Y    0.000000   0.000000   0.000000   0.000000   0.000000
   28  O  2  Z    0.000102   0.001176   0.002065   0.000921   0.000111
   29  O  2 XX   -0.000083  -0.000453  -0.000130  -0.000356  -0.000282
   30  O  2 YY    0.000073   0.000270   0.000197   0.000345   0.000316
   31  O  2 ZZ    0.000010   0.000183  -0.000067   0.000012  -0.000034
   32  O  2 XY    0.000000   0.000000   0.000000   0.000000   0.000000
   33  O  2 XZ    0.000113   0.000322   0.000292   0.000545   0.000524
   34  O  2 YZ    0.000000   0.000000   0.000000   0.000000   0.000000
   35  O  3  S    0.000012   0.703310  -0.703251  -0.000028  -0.000344
   36  O  3  S    0.000040   0.026195  -0.025669  -0.000043   0.000218
   37  O  3  S   -0.000103  -0.013982   0.012138  -0.000236   0.000119
   38  O  3  X    0.000040  -0.000934   0.000890   0.000389  -0.000497
   39  O  3  Y    0.000000   0.000000   0.000000   0.000000   0.000000
   40  O  3  Z    0.000020  -0.000352   0.000611   0.000190  -0.000327
   41  O  3  X    0.000139   0.004029  -0.002141   0.001108  -0.000041
   42  O  3  Y    0.000000   0.000000   0.000000   0.000000   0.000000
   43  O  3  Z    0.000102   0.001176  -0.002065   0.000921  -0.000111
   44  O  3 XX   -0.000083  -0.000453   0.000130  -0.000356   0.000282
   45  O  3 YY    0.000073   0.000270  -0.000197   0.000345  -0.000316
   46  O  3 ZZ    0.000010   0.000183   0.000067   0.000012   0.000034
   47  O  3 XY    0.000000   0.000000   0.000000   0.000000   0.000000
   48  O  3 XZ   -0.000113  -0.000322   0.000292  -0.000545   0.000524
   49  O  3 YZ    0.000000   0.000000   0.000000   0.000000   0.000000

                      6          7          8          9         10
                   -5.8580    -5.8526    -1.0365    -0.9550    -0.5914
                     B2         A1         A1         B1         A1  
    1  S  1  S    0.000000   0.003221   0.050720   0.000000   0.066347
    2  S  1  S    0.000000  -0.012312  -0.144494   0.000000  -0.182253
    3  S  1  S    0.000000  -0.000046   0.299356   0.000000   0.427178
    4  S  1  S    0.000000  -0.000785   0.132964   0.000000   0.383388
    5  S  1  X    0.000000   0.000000   0.000000   0.125815   0.000000
    6  S  1  Y    0.996836   0.000000   0.000000   0.000000   0.000000
    7  S  1  Z    0.000000   0.996818  -0.060171   0.000000   0.042882
    8  S  1  X    0.000000   0.000000   0.000000  -0.246257   0.000000
    9  S  1  Y    0.009101   0.000000   0.000000   0.000000   0.000000
   10  S  1  Z    0.000000   0.008761   0.115213   0.000000  -0.084898
   11  S  1  X    0.000000   0.000000   0.000000  -0.024373   0.000000
   12  S  1  Y   -0.000220   0.000000   0.000000   0.000000   0.000000
   13  S  1  Z    0.000000  -0.000333  -0.003007   0.000000  -0.069684
   14  S  1 XX    0.000000  -0.000553   0.041849   0.000000  -0.014503
   15  S  1 YY    0.000000  -0.000305  -0.032781   0.000000   0.020518
   16  S  1 ZZ    0.000000   0.000859  -0.009067   0.000000  -0.006015
   17  S  1 XY    0.000000   0.000000   0.000000   0.000000   0.000000
   18  S  1 XZ    0.000000   0.000000   0.000000  -0.072965   0.000000
   19  S  1 YZ    0.000681   0.000000   0.000000   0.000000   0.000000
   20  O  2  S    0.000000  -0.000218  -0.122378  -0.145559   0.102849
   21  O  2  S    0.000000   0.000014   0.241334   0.294425  -0.212040
   22  O  2  S    0.000000   0.000650   0.278826   0.339522  -0.340310
   23  O  2  X    0.000000   0.000413   0.104902   0.091245   0.126913
   24  O  2  Y    0.000062   0.000000   0.000000   0.000000   0.000000
   25  O  2  Z    0.000000  -0.000181  -0.054483  -0.058323  -0.095646
   26  O  2  X    0.000000   0.000281   0.043670   0.030291   0.061098
   27  O  2  Y   -0.000070   0.000000   0.000000   0.000000   0.000000
   28  O  2  Z    0.000000  -0.000278  -0.019339  -0.022544  -0.040665
   29  O  2 XX    0.000000   0.000334   0.010789   0.003481   0.004817
   30  O  2 YY    0.000000  -0.000229  -0.006096  -0.002678  -0.006019
   31  O  2 ZZ    0.000000  -0.000104  -0.004693  -0.000803   0.001202
   32  O  2 XY    0.000079   0.000000   0.000000   0.000000   0.000000
   33  O  2 XZ    0.000000  -0.000352  -0.010448  -0.008021  -0.008495
   34  O  2 YZ   -0.000066   0.000000   0.000000   0.000000   0.000000
   35  O  3  S    0.000000  -0.000218  -0.122378   0.145559   0.102849
   36  O  3  S    0.000000   0.000014   0.241334  -0.294425  -0.212040
   37  O  3  S    0.000000   0.000650   0.278826  -0.339522  -0.340310
   38  O  3  X    0.000000  -0.000413  -0.104902   0.091245  -0.126913
   39  O  3  Y    0.000062   0.000000   0.000000   0.000000   0.000000
   40  O  3  Z    0.000000  -0.000181  -0.054483   0.058323  -0.095646
   41  O  3  X    0.000000  -0.000281  -0.043670   0.030291  -0.061098
   42  O  3  Y   -0.000070   0.000000   0.000000   0.000000   0.000000
   43  O  3  Z    0.000000  -0.000278  -0.019339   0.022544  -0.040665
   44  O  3 XX    0.000000   0.000334   0.010789  -0.003481   0.004817
   45  O  3 YY    0.000000  -0.000229  -0.006096   0.002678  -0.006019
   46  O  3 ZZ    0.000000  -0.000104  -0.004693   0.000803   0.001202
   47  O  3 XY   -0.000079   0.000000   0.000000   0.000000   0.000000
   48  O  3 XZ    0.000000   0.000352   0.010448  -0.008021   0.008495
   49  O  3 YZ   -0.000066   0.000000   0.000000   0.000000   0.000000

                     11         12         13         14         15
                   -0.4384    -0.4380    -0.4307    -0.3292    -0.3061
                     B1         B2         A1         A2         B1  
    1  S  1  S    0.000000   0.000000  -0.007263   0.000000   0.000000
    2  S  1  S    0.000000   0.000000   0.042589   0.000000   0.000000
    3  S  1  S    0.000000   0.000000  -0.016684   0.000000   0.000000
    4  S  1  S    0.000000   0.000000  -0.221160   0.000000   0.000000
    5  S  1  X   -0.169733   0.000000   0.000000   0.000000  -0.012955
    6  S  1  Y    0.000000  -0.205200   0.000000   0.000000   0.000000
    7  S  1  Z    0.000000   0.000000  -0.195781   0.000000   0.000000
    8  S  1  X    0.404296   0.000000   0.000000   0.000000   0.022823
    9  S  1  Y    0.000000   0.479240   0.000000   0.000000   0.000000
   10  S  1  Z    0.000000   0.000000   0.455236   0.000000   0.000000
   11  S  1  X    0.061151   0.000000   0.000000   0.000000   0.125084
   12  S  1  Y    0.000000   0.256378   0.000000   0.000000   0.000000
   13  S  1  Z    0.000000   0.000000   0.193883   0.000000   0.000000
   14  S  1 XX    0.000000   0.000000  -0.046221   0.000000   0.000000
   15  S  1 YY    0.000000   0.000000  -0.016048   0.000000   0.000000
   16  S  1 ZZ    0.000000   0.000000   0.062269   0.000000   0.000000
   17  S  1 XY    0.000000   0.000000   0.000000  -0.123991   0.000000
   18  S  1 XZ    0.040409   0.000000   0.000000   0.000000  -0.113019
   19  S  1 YZ    0.000000   0.050572   0.000000   0.000000   0.000000
   20  O  2  S   -0.066992   0.000000   0.029515   0.000000  -0.000610
   21  O  2  S    0.133792   0.000000  -0.060075   0.000000   0.000682
   22  O  2  S    0.254560   0.000000  -0.105288   0.000000   0.031718
   23  O  2  X   -0.278505   0.000000   0.285886   0.000000   0.337824
   24  O  2  Y    0.000000   0.304042   0.000000   0.464655   0.000000
   25  O  2  Z    0.246328   0.000000   0.142748   0.000000   0.329079
   26  O  2  X   -0.151602   0.000000   0.181352   0.000000   0.226546
   27  O  2  Y    0.000000   0.179134   0.000000   0.328625   0.000000
   28  O  2  Z    0.145407   0.000000   0.086148   0.000000   0.228108
   29  O  2 XX   -0.003483   0.000000   0.020336   0.000000   0.015837
   30  O  2 YY    0.007985   0.000000  -0.005591   0.000000   0.000496
   31  O  2 ZZ   -0.004502   0.000000  -0.014745   0.000000  -0.016332
   32  O  2 XY    0.000000   0.019928   0.000000   0.017735   0.000000
   33  O  2 XZ    0.013901   0.000000   0.002757   0.000000   0.009231
   34  O  2 YZ    0.000000  -0.010788   0.000000  -0.011215   0.000000
   35  O  3  S    0.066992   0.000000   0.029515   0.000000   0.000610
   36  O  3  S   -0.133792   0.000000  -0.060075   0.000000  -0.000682
   37  O  3  S   -0.254560   0.000000  -0.105288   0.000000  -0.031718
   38  O  3  X   -0.278505   0.000000  -0.285886   0.000000   0.337824
   39  O  3  Y    0.000000   0.304042   0.000000  -0.464655   0.000000
   40  O  3  Z   -0.246328   0.000000   0.142748   0.000000  -0.329079
   41  O  3  X   -0.151602   0.000000  -0.181352   0.000000   0.226546
   42  O  3  Y    0.000000   0.179134   0.000000  -0.328625   0.000000
   43  O  3  Z   -0.145407   0.000000   0.086148   0.000000  -0.228108
   44  O  3 XX    0.003483   0.000000   0.020336   0.000000  -0.015837
   45  O  3 YY   -0.007985   0.000000  -0.005591   0.000000  -0.000496
   46  O  3 ZZ    0.004502   0.000000  -0.014745   0.000000   0.016332
   47  O  3 XY    0.000000  -0.019928   0.000000   0.017735   0.000000
   48  O  3 XZ    0.013901   0.000000  -0.002757   0.000000   0.009231
   49  O  3 YZ    0.000000  -0.010788   0.000000   0.011215   0.000000

                     16         17         18         19         20
                   -0.2846    -0.1730    -0.0064     0.0352     0.3489
                     A1         B2         A1         B1         B2  
    1  S  1  S    0.019020   0.000000   0.026047   0.000000   0.000000
    2  S  1  S   -0.096440   0.000000  -0.123452   0.000000   0.000000
    3  S  1  S    0.068654   0.000000   0.116721   0.000000   0.000000
    4  S  1  S    0.515687   0.000000   0.868364   0.000000   0.000000
    5  S  1  X    0.000000   0.000000   0.000000  -0.167838   0.000000
    6  S  1  Y    0.000000  -0.209821   0.000000   0.000000   0.283552
    7  S  1  Z    0.104063   0.000000  -0.163130   0.000000   0.000000
    8  S  1  X    0.000000   0.000000   0.000000   0.430356   0.000000
    9  S  1  Y    0.000000   0.531899   0.000000   0.000000  -1.097815
   10  S  1  Z   -0.249746   0.000000   0.433460   0.000000   0.000000
   11  S  1  X    0.000000   0.000000   0.000000   1.141943   0.000000
   12  S  1  Y    0.000000   0.474927   0.000000   0.000000   1.242216
   13  S  1  Z   -0.087088   0.000000   0.790349   0.000000   0.000000
   14  S  1 XX   -0.146630   0.000000  -0.148549   0.000000   0.000000
   15  S  1 YY    0.059688   0.000000   0.193630   0.000000   0.000000
   16  S  1 ZZ    0.086942   0.000000  -0.045081   0.000000   0.000000
   17  S  1 XY    0.000000   0.000000   0.000000   0.000000   0.000000
   18  S  1 XZ    0.000000   0.000000   0.000000  -0.218835   0.000000
   19  S  1 YZ    0.000000  -0.065845   0.000000   0.000000  -0.224746
   20  O  2  S    0.000656   0.000000   0.050777  -0.052997   0.000000
   21  O  2  S   -0.002944   0.000000  -0.095097   0.084815   0.000000
   22  O  2  S   -0.041226   0.000000  -0.457246   0.573188   0.000000
   23  O  2  X   -0.074043   0.000000  -0.359070   0.081274   0.000000
   24  O  2  Y    0.000000  -0.385976   0.000000   0.000000  -0.027174
   25  O  2  Z    0.425512   0.000000  -0.035633  -0.279090   0.000000
   26  O  2  X   -0.053929   0.000000  -0.408707   0.138261   0.000000
   27  O  2  Y    0.000000  -0.330633   0.000000   0.000000  -0.113680
   28  O  2  Z    0.314190   0.000000  -0.032092  -0.302544   0.000000
   29  O  2 XX    0.002510   0.000000   0.000909   0.004333   0.000000
   30  O  2 YY    0.003961   0.000000   0.005482   0.001877   0.000000
   31  O  2 ZZ   -0.006471   0.000000  -0.006391  -0.006210   0.000000
   32  O  2 XY    0.000000  -0.002977   0.000000   0.000000  -0.029881
   33  O  2 XZ    0.011458   0.000000   0.003951   0.001300   0.000000
   34  O  2 YZ    0.000000   0.000064   0.000000   0.000000   0.010374
   35  O  3  S    0.000656   0.000000   0.050777   0.052997   0.000000
   36  O  3  S   -0.002944   0.000000  -0.095097  -0.084815   0.000000
   37  O  3  S   -0.041226   0.000000  -0.457246  -0.573188   0.000000
   38  O  3  X    0.074043   0.000000   0.359070   0.081274   0.000000
   39  O  3  Y    0.000000  -0.385976   0.000000   0.000000  -0.027174
   40  O  3  Z    0.425512   0.000000  -0.035633   0.279090   0.000000
   41  O  3  X    0.053929   0.000000   0.408707   0.138261   0.000000
   42  O  3  Y    0.000000  -0.330633   0.000000   0.000000  -0.113680
   43  O  3  Z    0.314190   0.000000  -0.032092   0.302544   0.000000
   44  O  3 XX    0.002510   0.000000   0.000909  -0.004333   0.000000
   45  O  3 YY    0.003961   0.000000   0.005482  -0.001877   0.000000
   46  O  3 ZZ   -0.006471   0.000000  -0.006391   0.006210   0.000000
   47  O  3 XY    0.000000   0.002977   0.000000   0.000000   0.029881
   48  O  3 XZ   -0.011458   0.000000  -0.003951   0.001300   0.000000
   49  O  3 YZ    0.000000   0.000064   0.000000   0.000000   0.010374

                     21         22         23         24         25
                    0.3553     0.3967     0.4016     0.5211     0.5339
                     A1         B1         A1         B2         A2  
    1  S  1  S    0.003441   0.000000  -0.116522   0.000000   0.000000
    2  S  1  S   -0.021436   0.000000  -0.408779   0.000000   0.000000
    3  S  1  S    0.015037   0.000000  -1.778634   0.000000   0.000000
    4  S  1  S    0.307144   0.000000   2.328571   0.000000   0.000000
    5  S  1  X    0.000000   0.290395   0.000000   0.000000   0.000000
    6  S  1  Y    0.000000   0.000000   0.000000   0.065801   0.000000
    7  S  1  Z    0.279483   0.000000  -0.010151   0.000000   0.000000
    8  S  1  X    0.000000  -1.060137   0.000000   0.000000   0.000000
    9  S  1  Y    0.000000   0.000000   0.000000  -0.267284   0.000000
   10  S  1  Z   -1.052076   0.000000   0.059723   0.000000   0.000000
   11  S  1  X    0.000000   1.498624   0.000000   0.000000   0.000000
   12  S  1  Y    0.000000   0.000000   0.000000   0.273967   0.000000
   13  S  1  Z    1.330344   0.000000   0.239982   0.000000   0.000000
   14  S  1 XX    0.254967   0.000000  -0.021347   0.000000   0.000000
   15  S  1 YY   -0.003780   0.000000   0.103973   0.000000   0.000000
   16  S  1 ZZ   -0.251187   0.000000  -0.082626   0.000000   0.000000
   17  S  1 XY    0.000000   0.000000   0.000000   0.000000   0.896517
   18  S  1 XZ    0.000000   0.283002   0.000000   0.000000   0.000000
   19  S  1 YZ    0.000000   0.000000   0.000000   0.915078   0.000000
   20  O  2  S    0.010327  -0.012422   0.017776   0.000000   0.000000
   21  O  2  S    0.031744  -0.043509  -0.030294   0.000000   0.000000
   22  O  2  S   -0.364377   0.552502  -0.417469   0.000000   0.000000
   23  O  2  X    0.146237  -0.247797   0.144790   0.000000   0.000000
   24  O  2  Y    0.000000   0.000000   0.000000  -0.260217   0.344533
   25  O  2  Z   -0.046124   0.118183  -0.121814   0.000000   0.000000
   26  O  2  X   -0.155106   0.079895  -0.186629   0.000000   0.000000
   27  O  2  Y    0.000000   0.000000   0.000000   0.064751  -0.080518
   28  O  2  Z   -0.033881  -0.105320   0.088266   0.000000   0.000000
   29  O  2 XX   -0.042536   0.019386  -0.036397   0.000000   0.000000
   30  O  2 YY    0.016835  -0.028949   0.033993   0.000000   0.000000
   31  O  2 ZZ    0.025701   0.009563   0.002404   0.000000   0.000000
   32  O  2 XY    0.000000   0.000000   0.000000   0.037062  -0.042301
   33  O  2 XZ    0.001286  -0.048583   0.042895   0.000000   0.000000
   34  O  2 YZ    0.000000   0.000000   0.000000   0.011906   0.043720
   35  O  3  S    0.010327   0.012422   0.017776   0.000000   0.000000
   36  O  3  S    0.031744   0.043509  -0.030294   0.000000   0.000000
   37  O  3  S   -0.364377  -0.552502  -0.417469   0.000000   0.000000
   38  O  3  X   -0.146237  -0.247797  -0.144790   0.000000   0.000000
   39  O  3  Y    0.000000   0.000000   0.000000  -0.260217  -0.344533
   40  O  3  Z   -0.046124  -0.118183  -0.121814   0.000000   0.000000
   41  O  3  X    0.155106   0.079895   0.186629   0.000000   0.000000
   42  O  3  Y    0.000000   0.000000   0.000000   0.064751   0.080518
   43  O  3  Z   -0.033881   0.105320   0.088266   0.000000   0.000000
   44  O  3 XX   -0.042536  -0.019386  -0.036397   0.000000   0.000000
   45  O  3 YY    0.016835   0.028949   0.033993   0.000000   0.000000
   46  O  3 ZZ    0.025701  -0.009563   0.002404   0.000000   0.000000
   47  O  3 XY    0.000000   0.000000   0.000000  -0.037062  -0.042301
   48  O  3 XZ   -0.001286  -0.048583  -0.042895   0.000000   0.000000
   49  O  3 YZ    0.000000   0.000000   0.000000   0.011906  -0.043720

                     26         27         28         29         30
                    0.5373     0.6525     0.6655     0.7834     0.8023
                     A1         A1         B1         A2         A1  
    1  S  1  S   -0.006042   0.012770   0.000000   0.000000   0.010416
    2  S  1  S   -0.049077  -0.018253   0.000000   0.000000   0.057295
    3  S  1  S   -0.126383   0.132386   0.000000   0.000000   0.190221
    4  S  1  S    0.382462   1.298428   0.000000   0.000000  -0.062911
    5  S  1  X    0.000000   0.000000  -0.150435   0.000000   0.000000
    6  S  1  Y    0.000000   0.000000   0.000000   0.000000   0.000000
    7  S  1  Z    0.053834  -0.102427   0.000000   0.000000  -0.039345
    8  S  1  X    0.000000   0.000000   0.777405   0.000000   0.000000
    9  S  1  Y    0.000000   0.000000   0.000000   0.000000   0.000000
   10  S  1  Z   -0.215244   0.513094   0.000000   0.000000   0.190008
   11  S  1  X    0.000000   0.000000   0.324516   0.000000   0.000000
   12  S  1  Y    0.000000   0.000000   0.000000   0.000000   0.000000
   13  S  1  Z    0.358580   0.243653   0.000000   0.000000  -0.650977
   14  S  1 XX   -0.161420   0.619950   0.000000   0.000000   0.376153
   15  S  1 YY   -0.666560  -0.530686   0.000000   0.000000   0.111841
   16  S  1 ZZ    0.827979  -0.089264   0.000000   0.000000  -0.487994
   17  S  1 XY    0.000000   0.000000   0.000000   0.470663   0.000000
   18  S  1 XZ    0.000000   0.000000   0.646773   0.000000   0.000000
   19  S  1 YZ    0.000000   0.000000   0.000000   0.000000   0.000000
   20  O  2  S    0.012740   0.062114  -0.061101   0.000000   0.000131
   21  O  2  S   -0.045185  -0.173495   0.178776   0.000000   0.050379
   22  O  2  S   -0.146148  -0.512449   0.413230   0.000000   0.016644
   23  O  2  X   -0.128677   0.324428  -0.158358   0.000000  -0.229996
   24  O  2  Y    0.000000   0.000000   0.000000  -0.559290   0.000000
   25  O  2  Z   -0.295523   0.021929   0.219746   0.000000  -0.476785
   26  O  2  X   -0.057156  -0.964017   0.830813   0.000000   0.276252
   27  O  2  Y    0.000000   0.000000   0.000000   0.796865   0.000000
   28  O  2  Z    0.138809   0.380965  -0.568708   0.000000   0.838276
   29  O  2 XX    0.022077  -0.004639  -0.024377   0.000000  -0.028852
   30  O  2 YY   -0.014760  -0.011870   0.006963   0.000000  -0.008330
   31  O  2 ZZ   -0.007316   0.016510   0.017414   0.000000   0.037182
   32  O  2 XY    0.000000   0.000000   0.000000  -0.046269   0.000000
   33  O  2 XZ    0.040998  -0.011555   0.011751   0.000000  -0.046753
   34  O  2 YZ    0.000000   0.000000   0.000000   0.033609   0.000000
   35  O  3  S    0.012740   0.062114   0.061101   0.000000   0.000131
   36  O  3  S   -0.045185  -0.173495  -0.178776   0.000000   0.050379
   37  O  3  S   -0.146148  -0.512449  -0.413230   0.000000   0.016644
   38  O  3  X    0.128677  -0.324428  -0.158358   0.000000   0.229996
   39  O  3  Y    0.000000   0.000000   0.000000   0.559290   0.000000
   40  O  3  Z   -0.295523   0.021929  -0.219746   0.000000  -0.476785
   41  O  3  X    0.057156   0.964017   0.830813   0.000000  -0.276252
   42  O  3  Y    0.000000   0.000000   0.000000  -0.796865   0.000000
   43  O  3  Z    0.138809   0.380965   0.568708   0.000000   0.838276
   44  O  3 XX    0.022077  -0.004639   0.024377   0.000000  -0.028852
   45  O  3 YY   -0.014760  -0.011870  -0.006963   0.000000  -0.008330
   46  O  3 ZZ   -0.007316   0.016510  -0.017414   0.000000   0.037182
   47  O  3 XY    0.000000   0.000000   0.000000  -0.046269   0.000000
   48  O  3 XZ   -0.040998   0.011555   0.011751   0.000000   0.046753
   49  O  3 YZ    0.000000   0.000000   0.000000  -0.033609   0.000000

                     31         32         33         34         35
                    0.8436     0.8511     0.9158     1.0184     1.5906
                     B2         B1         A1         B1         B1  
    1  S  1  S    0.000000   0.000000  -0.023471   0.000000   0.000000
    2  S  1  S    0.000000   0.000000  -0.225792   0.000000   0.000000
    3  S  1  S    0.000000   0.000000  -0.554330   0.000000   0.000000
    4  S  1  S    0.000000   0.000000   0.589988   0.000000   0.000000
    5  S  1  X    0.000000  -0.033542   0.000000  -0.060510  -0.024275
    6  S  1  Y   -0.027188   0.000000   0.000000   0.000000   0.000000
    7  S  1  Z    0.000000   0.000000  -0.048850   0.000000   0.000000
    8  S  1  X    0.000000   0.155604   0.000000   0.033040   0.271334
    9  S  1  Y    0.111563   0.000000   0.000000   0.000000   0.000000
   10  S  1  Z    0.000000   0.000000   0.075426   0.000000   0.000000
   11  S  1  X    0.000000  -0.407891   0.000000   0.536532   1.183192
   12  S  1  Y   -0.719471   0.000000   0.000000   0.000000   0.000000
   13  S  1  Z    0.000000   0.000000   0.136502   0.000000   0.000000
   14  S  1 XX    0.000000   0.000000   0.785393   0.000000   0.000000
   15  S  1 YY    0.000000   0.000000  -0.618149   0.000000   0.000000
   16  S  1 ZZ    0.000000   0.000000  -0.167244   0.000000   0.000000
   17  S  1 XY    0.000000   0.000000   0.000000   0.000000   0.000000
   18  S  1 XZ    0.000000   0.258189   0.000000   0.869581   0.270487
   19  S  1 YZ   -0.356429   0.000000   0.000000   0.000000   0.000000
   20  O  2  S    0.000000  -0.000026   0.025338  -0.030234   0.005925
   21  O  2  S    0.000000  -0.047659  -0.145458   0.089849  -1.213443
   22  O  2  S    0.000000  -0.014907  -0.181885   0.366267   1.919917
   23  O  2  X    0.000000  -0.267300  -0.453341   0.581545   0.013242
   24  O  2  Y   -0.589503   0.000000   0.000000   0.000000   0.000000
   25  O  2  Z    0.000000  -0.556146   0.336318  -0.193833   0.070439
   26  O  2  X    0.000000   0.500506   0.333471  -0.361741   0.351748
   27  O  2  Y    0.935540   0.000000   0.000000   0.000000   0.000000
   28  O  2  Z    0.000000   0.705111  -0.172526   0.081314  -0.441679
   29  O  2 XX    0.000000  -0.044143  -0.057665  -0.030524  -0.080686
   30  O  2 YY    0.000000   0.012924  -0.005367  -0.028833   0.095289
   31  O  2 ZZ    0.000000   0.031218   0.063032   0.059357  -0.014603
   32  O  2 XY   -0.047077   0.000000   0.000000   0.000000   0.000000
   33  O  2 XZ    0.000000  -0.011117   0.013519  -0.015941   0.152127
   34  O  2 YZ    0.014959   0.000000   0.000000   0.000000   0.000000
   35  O  3  S    0.000000   0.000026   0.025338   0.030234  -0.005925
   36  O  3  S    0.000000   0.047659  -0.145458  -0.089849   1.213443
   37  O  3  S    0.000000   0.014907  -0.181885  -0.366267  -1.919917
   38  O  3  X    0.000000  -0.267300   0.453341   0.581545   0.013242
   39  O  3  Y   -0.589503   0.000000   0.000000   0.000000   0.000000
   40  O  3  Z    0.000000   0.556146   0.336318   0.193833  -0.070439
   41  O  3  X    0.000000   0.500506  -0.333471  -0.361741   0.351748
   42  O  3  Y    0.935540   0.000000   0.000000   0.000000   0.000000
   43  O  3  Z    0.000000  -0.705111  -0.172526  -0.081314   0.441679
   44  O  3 XX    0.000000   0.044143  -0.057665   0.030524   0.080686
   45  O  3 YY    0.000000  -0.012924  -0.005367   0.028833  -0.095289
   46  O  3 ZZ    0.000000  -0.031218   0.063032  -0.059357   0.014603
   47  O  3 XY    0.047077   0.000000   0.000000   0.000000   0.000000
   48  O  3 XZ    0.000000  -0.011117  -0.013519  -0.015941   0.152127
   49  O  3 YZ    0.014959   0.000000   0.000000   0.000000   0.000000

                     36         37         38         39         40
                    1.7065     2.0648     2.0681     2.0718     2.0864
                     A1         A2         B1         B2         A1  
    1  S  1  S   -0.024101   0.000000   0.000000   0.000000  -0.001947
    2  S  1  S   -0.236977   0.000000   0.000000   0.000000  -0.011420
    3  S  1  S   -0.542811   0.000000   0.000000   0.000000  -0.037903
    4  S  1  S    2.313432   0.000000   0.000000   0.000000   0.011700
    5  S  1  X    0.000000   0.000000  -0.004065   0.000000   0.000000
    6  S  1  Y    0.000000   0.000000   0.000000  -0.018605   0.000000
    7  S  1  Z   -0.020200   0.000000   0.000000   0.000000   0.003301
    8  S  1  X    0.000000   0.000000  -0.001369   0.000000   0.000000
    9  S  1  Y    0.000000   0.000000   0.000000   0.061055   0.000000
   10  S  1  Z    0.180348   0.000000   0.000000   0.000000  -0.021099
   11  S  1  X    0.000000   0.000000   0.056257   0.000000   0.000000
   12  S  1  Y    0.000000   0.000000   0.000000   0.031057   0.000000
   13  S  1  Z    0.914073   0.000000   0.000000   0.000000   0.002023
   14  S  1 XX    0.304670   0.000000   0.000000   0.000000   0.053055
   15  S  1 YY   -0.311952   0.000000   0.000000   0.000000  -0.111315
   16  S  1 ZZ    0.007282   0.000000   0.000000   0.000000   0.058260
   17  S  1 XY    0.000000   0.030432   0.000000   0.000000   0.000000
   18  S  1 XZ    0.000000   0.000000  -0.025478   0.000000   0.000000
   19  S  1 YZ    0.000000   0.000000   0.000000  -0.020587   0.000000
   20  O  2  S    0.005001   0.000000  -0.000059   0.000000   0.002101
   21  O  2  S    1.200244   0.000000  -0.002892   0.000000  -0.033738
   22  O  2  S   -2.091259   0.000000   0.017984   0.000000   0.018825
   23  O  2  X    0.017747   0.000000   0.027220   0.000000  -0.029021
   24  O  2  Y    0.000000  -0.012498   0.000000   0.021765   0.000000
   25  O  2  Z    0.056830   0.000000   0.021570   0.000000   0.008039
   26  O  2  X   -0.683580   0.000000  -0.045740   0.000000   0.028808
   27  O  2  Y    0.000000   0.019721   0.000000  -0.036373   0.000000
   28  O  2  Z    0.134044   0.000000  -0.035122   0.000000  -0.004125
   29  O  2 XX    0.190256   0.000000  -0.322200   0.000000  -0.117792
   30  O  2 YY   -0.113702   0.000000   0.594070   0.000000   0.600080
   31  O  2 ZZ   -0.076554   0.000000  -0.271870   0.000000  -0.482288
   32  O  2 XY    0.000000   0.474631   0.000000   0.145287   0.000000
   33  O  2 XZ   -0.128532   0.000000  -0.383448   0.000000  -0.309283
   34  O  2 YZ    0.000000   0.524565   0.000000   0.692987   0.000000
   35  O  3  S    0.005001   0.000000   0.000059   0.000000   0.002101
   36  O  3  S    1.200244   0.000000   0.002892   0.000000  -0.033738
   37  O  3  S   -2.091259   0.000000  -0.017984   0.000000   0.018825
   38  O  3  X   -0.017747   0.000000   0.027220   0.000000   0.029021
   39  O  3  Y    0.000000   0.012498   0.000000   0.021765   0.000000
   40  O  3  Z    0.056830   0.000000  -0.021570   0.000000   0.008039
   41  O  3  X    0.683580   0.000000  -0.045740   0.000000  -0.028808
   42  O  3  Y    0.000000  -0.019721   0.000000  -0.036373   0.000000
   43  O  3  Z    0.134044   0.000000   0.035122   0.000000  -0.004125
   44  O  3 XX    0.190256   0.000000   0.322200   0.000000  -0.117792
   45  O  3 YY   -0.113702   0.000000  -0.594070   0.000000   0.600080
   46  O  3 ZZ   -0.076554   0.000000   0.271870   0.000000  -0.482288
   47  O  3 XY    0.000000   0.474631   0.000000  -0.145287   0.000000
   48  O  3 XZ    0.128532   0.000000  -0.383448   0.000000   0.309283
   49  O  3 YZ    0.000000  -0.524565   0.000000   0.692987   0.000000

                     41         42         43         44         45
                    2.1342     2.2062     2.2756     2.3956     2.7337
                     B1         B2         A2         A1         A1  
    1  S  1  S    0.000000   0.000000   0.000000  -0.000263  -0.039930
    2  S  1  S    0.000000   0.000000   0.000000   0.027398   0.021930
    3  S  1  S    0.000000   0.000000   0.000000   0.023241  -0.470640
    4  S  1  S    0.000000   0.000000   0.000000  -0.400375  -1.340290
    5  S  1  X   -0.035729   0.000000   0.000000   0.000000   0.000000
    6  S  1  Y    0.000000   0.055263   0.000000   0.000000   0.000000
    7  S  1  Z    0.000000   0.000000   0.000000   0.058969   0.115160
    8  S  1  X    0.164487   0.000000   0.000000   0.000000   0.000000
    9  S  1  Y    0.000000  -0.176317   0.000000   0.000000   0.000000
   10  S  1  Z    0.000000   0.000000   0.000000  -0.224298  -0.640145
   11  S  1  X    0.105093   0.000000   0.000000   0.000000   0.000000
   12  S  1  Y    0.000000  -0.159218   0.000000   0.000000   0.000000
   13  S  1  Z    0.000000   0.000000   0.000000  -0.324145  -0.322162
   14  S  1 XX    0.000000   0.000000   0.000000   0.355786  -0.604268
   15  S  1 YY    0.000000   0.000000   0.000000   0.068080   0.460097
   16  S  1 ZZ    0.000000   0.000000   0.000000  -0.423866   0.144171
   17  S  1 XY    0.000000   0.000000   0.460205   0.000000   0.000000
   18  S  1 XZ   -0.249947   0.000000   0.000000   0.000000   0.000000
   19  S  1 YZ    0.000000  -0.291116   0.000000   0.000000   0.000000
   20  O  2  S    0.002244   0.000000   0.000000  -0.001857  -0.030619
   21  O  2  S   -0.147045   0.000000   0.000000  -0.235524  -0.654259
   22  O  2  S    0.181075   0.000000   0.000000   0.404835   1.396942
   23  O  2  X   -0.023271   0.000000   0.000000  -0.064141  -0.000093
   24  O  2  Y    0.000000  -0.063690  -0.039194   0.000000   0.000000
   25  O  2  Z    0.078814   0.000000   0.000000  -0.019690  -0.010427
   26  O  2  X    0.013816   0.000000   0.000000   0.250193   0.686170
   27  O  2  Y    0.000000   0.171238   0.142962   0.000000   0.000000
   28  O  2  Z   -0.141731   0.000000   0.000000   0.126821  -0.375347
   29  O  2 XX   -0.438528   0.000000   0.000000   0.593450   0.431604
   30  O  2 YY   -0.204635   0.000000   0.000000  -0.052498  -0.420051
   31  O  2 ZZ    0.643162   0.000000   0.000000  -0.540951  -0.011553
   32  O  2 XY    0.000000   0.712367   0.551951   0.000000   0.000000
   33  O  2 XZ   -0.280540   0.000000   0.000000   0.348947  -0.631352
   34  O  2 YZ    0.000000  -0.157495  -0.490319   0.000000   0.000000
   35  O  3  S   -0.002244   0.000000   0.000000  -0.001857  -0.030619
   36  O  3  S    0.147045   0.000000   0.000000  -0.235524  -0.654259
   37  O  3  S   -0.181075   0.000000   0.000000   0.404835   1.396942
   38  O  3  X   -0.023271   0.000000   0.000000   0.064141   0.000093
   39  O  3  Y    0.000000  -0.063690   0.039194   0.000000   0.000000
   40  O  3  Z   -0.078814   0.000000   0.000000  -0.019690  -0.010427
   41  O  3  X    0.013816   0.000000   0.000000  -0.250193  -0.686170
   42  O  3  Y    0.000000   0.171238  -0.142962   0.000000   0.000000
   43  O  3  Z    0.141731   0.000000   0.000000   0.126821  -0.375347
   44  O  3 XX    0.438528   0.000000   0.000000   0.593450   0.431604
   45  O  3 YY    0.204635   0.000000   0.000000  -0.052498  -0.420051
   46  O  3 ZZ   -0.643162   0.000000   0.000000  -0.540951  -0.011553
   47  O  3 XY    0.000000  -0.712367   0.551951   0.000000   0.000000
   48  O  3 XZ   -0.280540   0.000000   0.000000  -0.348947   0.631352
   49  O  3 YZ    0.000000  -0.157495   0.490319   0.000000   0.000000

                     46
                    2.8183
                     B1  
    1  S  1  S    0.000000
    2  S  1  S    0.000000
    3  S  1  S    0.000000
    4  S  1  S    0.000000
    5  S  1  X   -0.210148
    6  S  1  Y    0.000000
    7  S  1  Z    0.000000
    8  S  1  X    1.124051
    9  S  1  Y    0.000000
   10  S  1  Z    0.000000
   11  S  1  X    0.419066
   12  S  1  Y    0.000000
   13  S  1  Z    0.000000
   14  S  1 XX    0.000000
   15  S  1 YY    0.000000
   16  S  1 ZZ    0.000000
   17  S  1 XY    0.000000
   18  S  1 XZ    0.690196
   19  S  1 YZ    0.000000
   20  O  2  S   -0.032399
   21  O  2  S   -0.534018
   22  O  2  S    1.202892
   23  O  2  X    0.052537
   24  O  2  Y    0.000000
   25  O  2  Z   -0.022391
   26  O  2  X    0.603855
   27  O  2  Y    0.000000
   28  O  2  Z   -0.359458
   29  O  2 XX    0.563164
   30  O  2 YY   -0.384468
   31  O  2 ZZ   -0.178696
   32  O  2 XY    0.000000
   33  O  2 XZ   -0.610816
   34  O  2 YZ    0.000000
   35  O  3  S    0.032399
   36  O  3  S    0.534018
   37  O  3  S   -1.202892
   38  O  3  X    0.052537
   39  O  3  Y    0.000000
   40  O  3  Z    0.022391
   41  O  3  X    0.603855
   42  O  3  Y    0.000000
   43  O  3  Z    0.359458
   44  O  3 XX   -0.563164
   45  O  3 YY    0.384468
   46  O  3 ZZ    0.178696
   47  O  3 XY    0.000000
   48  O  3 XZ   -0.610816
   49  O  3 YZ    0.000000
 ...... END OF RHF CALCULATION ......
 STEP CPU TIME =     4.39 TOTAL CPU TIME =        4.6 (    0.1 MIN)
 TOTAL WALL CLOCK TIME=        4.6 SECONDS, CPU UTILIZATION IS  99.78%

     ---------------------------------------------------------------------
     PROPERTIES FOR THE PBE      DFT FUNCTIONAL (RHF  TYPE) DENSITY MATRIX
     ---------------------------------------------------------------------

          -----------------
          ENERGY COMPONENTS
          -----------------

         WAVEFUNCTION NORMALIZATION =       1.0000000000

                ONE ELECTRON ENERGY =    -960.9765839474
                TWO ELECTRON ENERGY =     309.3632552867
           NUCLEAR REPULSION ENERGY =     103.3484639683
                                      ------------------
                       TOTAL ENERGY =    -548.2648646925

 ELECTRON-ELECTRON POTENTIAL ENERGY =     309.3632552867
  NUCLEUS-ELECTRON POTENTIAL ENERGY =   -1508.4711477414
   NUCLEUS-NUCLEUS POTENTIAL ENERGY =     103.3484639683
                                      ------------------
             TOTAL POTENTIAL ENERGY =   -1095.7594284864
               TOTAL KINETIC ENERGY =     547.4945637940
                 VIRIAL RATIO (V/T) =       2.0014069563

          ---------------------------------------
          MULLIKEN AND LOWDIN POPULATION ANALYSES
          ---------------------------------------

     ATOMIC MULLIKEN POPULATION IN EACH MOLECULAR ORBITAL

                      1          2          3          4          5

                  2.000000   2.000000   2.000000   2.000000   2.000000

    1             2.000019   0.001685   0.001120   2.001187   1.999828
    2            -0.000010   0.999158   0.999440  -0.000594   0.000086
    3            -0.000010   0.999158   0.999440  -0.000594   0.000086

                      6          7          8          9         10

                  2.000000   2.000000   2.000000   2.000000   2.000000

    1             2.000005   1.999851   0.666188   0.359842   0.983318
    2            -0.000002   0.000075   0.666906   0.820079   0.508341
    3            -0.000002   0.000075   0.666906   0.820079   0.508341

                     11         12         13         14         15

                  2.000000   2.000000   2.000000   2.000000   2.000000

    1             0.410263   1.053359   0.906066   0.093787   0.139692
    2             0.794868   0.473320   0.546967   0.953107   0.930154
    3             0.794868   0.473320   0.546967   0.953107   0.930154

                     16

                  2.000000

    1             0.561143
    2             0.719429
    3             0.719429

               ----- POPULATIONS IN EACH AO -----
                             MULLIKEN      LOWDIN
              1  S  1  S      2.00023     1.99583
              2  S  1  S      2.00998     1.96596
              3  S  1  S      0.96938     0.59045
              4  S  1  S      0.85420     0.54379
              5  S  1  X      1.99651     1.95378
              6  S  1  Y      1.99611     1.95461
              7  S  1  Z      1.99706     1.96129
              8  S  1  X      0.67592     0.60242
              9  S  1  Y      0.65702     0.61800
             10  S  1  Z      0.82047     0.79172
             11  S  1  X      0.10937     0.26072
             12  S  1  Y      0.38617     0.44101
             13  S  1  Z      0.28626     0.42146
             14  S  1 XX      0.07021     0.29555
             15  S  1 YY      0.11168     0.25737
             16  S  1 ZZ      0.09379     0.27555
             17  S  1 XY      0.12894     0.11246
             18  S  1 XZ      0.01406     0.15640
             19  S  1 YZ      0.00000     0.01358
             20  O  2  S      1.99799     1.98073
             21  O  2  S      0.83577     0.65026
             22  O  2  S      1.05823     0.56094
             23  O  2  X      0.90814     0.86569
             24  O  2  Y      0.85366     0.81603
             25  O  2  Z      1.06185     1.03128
             26  O  2  X      0.48286     0.57376
             27  O  2  Y      0.56626     0.60590
             28  O  2  Z      0.62598     0.68113
             29  O  2 XX      0.00342     0.20701
             30  O  2 YY      0.00481     0.20334
             31  O  2 ZZ      0.00487     0.19988
             32  O  2 XY      0.00586     0.00622
             33  O  2 XZ      0.00164     0.00984
             34  O  2 YZ      0.00000     0.00201
             35  O  3  S      1.99799     1.98073
             36  O  3  S      0.83577     0.65026
             37  O  3  S      1.05823     0.56094
             38  O  3  X      0.90814     0.86569
             39  O  3  Y      0.85366     0.81603
             40  O  3  Z      1.06185     1.03128
             41  O  3  X      0.48286     0.57376
             42  O  3  Y      0.56626     0.60590
             43  O  3  Z      0.62598     0.68113
             44  O  3 XX      0.00342     0.20701
             45  O  3 YY      0.00481     0.20334
             46  O  3 ZZ      0.00487     0.19988
             47  O  3 XY      0.00586     0.00622
             48  O  3 XZ      0.00164     0.00984
             49  O  3 YZ      0.00000     0.00201

          ----- MULLIKEN ATOMIC OVERLAP POPULATIONS -----
          (OFF-DIAGONAL ELEMENTS NEED TO BE MULTIPLIED BY 2)

             1           2           3

    1   14.5431545
    2    0.3170990   8.1247245
    3    0.3170990  -0.0304999   8.1247245

          TOTAL MULLIKEN AND LOWDIN ATOMIC POPULATIONS
       ATOM         MULL.POP.    CHARGE          LOW.POP.     CHARGE
    1 S            15.177353    0.822647        15.211949    0.788051
    2 O             8.411324   -0.411324         8.394026   -0.394026
    3 O             8.411324   -0.411324         8.394026   -0.394026

          MULLIKEN SPHERICAL HARMONIC POPULATIONS
       ATOM           S       P       D      F      G      H      I    TOTAL
    1 S             5.83    8.92    0.42   0.00   0.00   0.00   0.00   15.18
    2 O             3.89    4.50    0.02   0.00   0.00   0.00   0.00    8.41
    3 O             3.89    4.50    0.02   0.00   0.00   0.00   0.00    8.41

          -------------------------------
          BOND ORDER AND VALENCE ANALYSIS     BOND ORDER THRESHOLD=0.050
          -------------------------------

                   BOND                       BOND                       BOND
  ATOM PAIR DIST  ORDER      ATOM PAIR DIST  ORDER      ATOM PAIR DIST  ORDER
    1   2  1.500  1.798        1   3  1.500  1.798        2   3  2.598  0.295

                       TOTAL       BONDED        FREE
      ATOM            VALENCE     VALENCE     VALENCE
    1 S                 3.597       3.597       0.000
    2 O                 2.093       2.093       0.000
    3 O                 2.093       2.093       0.000

          ---------------------
          ELECTROSTATIC MOMENTS
          ---------------------

 POINT   1           X           Y           Z (BOHR)    CHARGE
                 0.000000    0.000000    0.000000        0.00 (A.U.)
         DX          DY          DZ         /D/  (DEBYE)
     0.000000    0.000000   -1.817466    1.817466
 ...... END OF PROPERTY EVALUATION ......
 STEP CPU TIME =     0.00 TOTAL CPU TIME =        4.6 (    0.1 MIN)
 TOTAL WALL CLOCK TIME=        4.6 SECONDS, CPU UTILIZATION IS  99.56%

 BEGINNING ONE ELECTRON GRADIENT...
 ..... END OF 1-ELECTRON GRADIENT ......
 STEP CPU TIME =     0.02 TOTAL CPU TIME =        4.6 (    0.1 MIN)
 TOTAL WALL CLOCK TIME=        4.6 SECONDS, CPU UTILIZATION IS  99.78%

          ----------------------
          GRADIENT OF THE ENERGY
          ----------------------
 MEMORY FOR GRID POINT CONTRIBUTIONS TO THE DFT GRADIENT=    146145 WORDS.
 STEP CPU TIME =     0.66 TOTAL CPU TIME =        5.3 (    0.1 MIN)
 TOTAL WALL CLOCK TIME=        5.3 SECONDS, CPU UTILIZATION IS  99.81%

 THE MINIMUM MEMORY REQUIRED FOR THIS RUN IS     110046 WORDS.
 USING     988014 WORDS FOR 2E- DERIVATIVE INTEGRAL CONTRIBUTIONS.
 THE COARSE/FINE SCHWARZ SCREENINGS SKIPPED            0/           0 BLOCKS.
 THE NUMBER OF GRADIENT INTEGRAL BLOCKS COMPUTED WAS     10605
 ...... END OF 2-ELECTRON GRADIENT ......
 STEP CPU TIME =     0.39 TOTAL CPU TIME =        5.6 (    0.1 MIN)
 TOTAL WALL CLOCK TIME=        5.6 SECONDS, CPU UTILIZATION IS  99.82%

          NSERCH=  0     ENERGY=    -548.2648647

                                 -----------------------
                                 GRADIENT (HARTREE/BOHR)
                                 -----------------------
        ATOM     ZNUC       DE/DX         DE/DY         DE/DZ
 --------------------------------------------------------------
    1  S           16.0     0.0000000     0.0000000    -0.0036089
    2  O            8.0    -0.0102054     0.0000000     0.0018045
    3  O            8.0     0.0102054     0.0000000     0.0018045

          MAXIMUM GRADIENT = 0.0102054    RMS GRADIENT = 0.0050314

 NSERCH:   0  E=     -548.2648646925  GRAD. MAX=  0.0102054  R.M.S.=  0.0050314

          FORCE CONSTANT MATRIX NOT UPDATED --- TAKING FIRST STEP
          MIN SEARCH, CORRECT HESSIAN, TRYING PURE NR STEP
               NR STEP HAS LENGTH         =   0.228148
          RADIUS OF STEP TAKEN=   0.22815  CURRENT TRUST RADIUS=   0.30000

 THE DETERMINANT OF THE G MATRIX IS 10**(    -4)
 * * * WARNING * * *
 YOUR B MATRIX HAS A SMALL DETERMINANT.
 THIS SUGGESTS YOU MAY HAVE BADLY CHOSEN COORDINATES.

 BEGINNING GEOMETRY SEARCH POINT NSERCH=   1 ...

 COORDINATES OF SYMMETRY UNIQUE ATOMS (ANGS)
   ATOM   CHARGE       X              Y              Z
 ------------------------------------------------------------
 S          16.0   0.0000000000   0.0000000000  -0.4423699954
 O           8.0   1.2366328947   0.0000000000   0.4085288989
 COORDINATES OF ALL ATOMS ARE (ANGS)
   ATOM   CHARGE       X              Y              Z
 ------------------------------------------------------------
 S          16.0   0.0000000000   0.0000000000  -0.4423699954
 O           8.0  -1.2366328947   0.0000000000   0.4085288989
 O           8.0   1.2366328947   0.0000000000   0.4085288989

 THE CURRENT FULLY SUBSTITUTED Z-MATRIX IS
 S   
 O      1   1.5010962
 O      1   1.5010962  2   110.9380529

          INTERNUCLEAR DISTANCES (ANGS.)
          ------------------------------

                1 S          2 O          3 O     

   1 S       0.0000000    1.5010962 *  1.5010962 *
   2 O       1.5010962 *  0.0000000    2.4732658 *
   3 O       1.5010962 *  2.4732658 *  0.0000000  

  * ... LESS THAN  3.000

 ...... END OF ONE-ELECTRON INTEGRALS ......
 STEP CPU TIME =     0.00 TOTAL CPU TIME =        5.6 (    0.1 MIN)
 TOTAL WALL CLOCK TIME=        5.6 SECONDS, CPU UTILIZATION IS  99.82%
 TOTAL NUMBER OF NONZERO TWO-ELECTRON INTEGRALS =              178086
         12 INTEGRAL RECORDS WERE STORED ON DISK FILE  8.
  ...... END OF TWO-ELECTRON INTEGRALS .....
 STEP CPU TIME =     0.12 TOTAL CPU TIME =        5.8 (    0.1 MIN)
 TOTAL WALL CLOCK TIME=        5.8 SECONDS, CPU UTILIZATION IS  99.83%

          --------------------------
               R-PBE SCF CALCULATION
          --------------------------
         DENSITY MATRIX CONVERGENCE THRESHOLD=  5.00E-05
     COARSE -> FINE DFT GRID SWITCH THRESHOLD=  1.50E-03 (SWITCH IN $DFT)
                   HF -> DFT SWITCH THRESHOLD=  5.00E-03 (SWOFF IN $DFT)

 DFT CODE IS SWITCHING FROM THE FINE GRID NRAD= 96,  NLEB=  302
                      TO THE COARSE GRID NRAD0= 24, NLEB0=  110

 ITER EX DEM     TOTAL ENERGY        E CHANGE  DENSITY CHANGE    DIIS ERROR
          * * *   INITIATING DIIS PROCEDURE   * * *
   1  0  0     -548.2775617924  -548.2775617924   0.064648155   0.040929837
   2  1  0     -548.2850325914    -0.0074707990   0.049545387   0.022746385
   3  2  0     -548.2824170314     0.0026155600   0.032274812   0.042764862
   4  3  0     -548.2862582765    -0.0038412451   0.000534031   0.001688025
 DFT CODE IS SWITCHING BACK TO THE FINE GRID
          * * *   INITIATING DIIS PROCEDURE   * * *
   5  4  0     -548.2617984727     0.0244598039   0.007229141   0.014133815
   6  5  0     -548.2621078831    -0.0003094105   0.002221920   0.002326927
   7  6  0     -548.2621143896    -0.0000065065   0.001939534   0.001305900
   8  7  0     -548.2621162663    -0.0000018767   0.000860005   0.001008259
   9  8  0     -548.2621184405    -0.0000021743   0.000088686   0.000178203
  10  9  0     -548.2621184942    -0.0000000537   0.000032548   0.000010691
  11 10  0     -548.2621184945    -0.0000000004   0.000004217   0.000002864
  12 11  0     -548.2621184946     0.0000000000   0.000000203   0.000000214

          -----------------
          DENSITY CONVERGED
          -----------------
     TIME TO FORM FOCK OPERATORS=       4.2 SECONDS (       0.4 SEC/ITER)
     TIME TO SOLVE SCF EQUATIONS=       0.0 SECONDS (       0.0 SEC/ITER)

 FINAL R-PBE ENERGY IS     -548.2621184946 AFTER  12 ITERATIONS
 DFT EXCHANGE + CORRELATION ENERGY =       -42.4842602706
 TOTAL ELECTRON NUMBER             =        31.9999382304
 ...... END OF RHF CALCULATION ......
 STEP CPU TIME =     4.25 TOTAL CPU TIME =       10.0 (    0.2 MIN)
 TOTAL WALL CLOCK TIME=       10.0 SECONDS, CPU UTILIZATION IS  99.90%
 ..... END OF 1-ELECTRON GRADIENT ......
 STEP CPU TIME =     0.01 TOTAL CPU TIME =       10.0 (    0.2 MIN)
 TOTAL WALL CLOCK TIME=       10.0 SECONDS, CPU UTILIZATION IS  99.90%
 MEMORY FOR GRID POINT CONTRIBUTIONS TO THE DFT GRADIENT=    146145 WORDS.
 STEP CPU TIME =     0.67 TOTAL CPU TIME =       10.7 (    0.2 MIN)
 TOTAL WALL CLOCK TIME=       10.7 SECONDS, CPU UTILIZATION IS  99.91%
 ...... END OF 2-ELECTRON GRADIENT ......
 STEP CPU TIME =     0.39 TOTAL CPU TIME =       11.1 (    0.2 MIN)
 TOTAL WALL CLOCK TIME=       11.1 SECONDS, CPU UTILIZATION IS  99.91%

          NSERCH=  1     ENERGY=    -548.2621185

                                 -----------------------
                                 GRADIENT (HARTREE/BOHR)
                                 -----------------------
        ATOM     ZNUC       DE/DX         DE/DY         DE/DZ
 --------------------------------------------------------------
    1  S           16.0     0.0000000     0.0000000    -0.0342342
    2  O            8.0     0.0037644     0.0000000     0.0171171
    3  O            8.0    -0.0037644     0.0000000     0.0171171

          MAXIMUM GRADIENT = 0.0342342    RMS GRADIENT = 0.0140883

 NSERCH:   1  E=     -548.2621184946  GRAD. MAX=  0.0342342  R.M.S.=  0.0140883

          HESSIAN UPDATED USING THE BFGS FORMULA
             ACTUAL ENERGY CHANGE WAS   0.0027461979
          PREDICTED ENERGY CHANGE WAS  -0.0008594537 RATIO= -3.195
          MIN SEARCH, CORRECT HESSIAN, TRYING PURE NR STEP
               NR STEP HAS LENGTH         =   0.178985
          TRIM/QA LAMBDA FOR NON-TS MODES =  -0.10281747
          TRIM/QA STEP HAS LENGTH         =   0.114074
          RADIUS OF STEP TAKEN=   0.11407  CURRENT TRUST RADIUS=   0.11407

 THE DETERMINANT OF THE G MATRIX IS 10**(    -4)
 * * * WARNING * * *
 YOUR B MATRIX HAS A SMALL DETERMINANT.
 THIS SUGGESTS YOU MAY HAVE BADLY CHOSEN COORDINATES.

 BEGINNING GEOMETRY SEARCH POINT NSERCH=   2 ...

 COORDINATES OF SYMMETRY UNIQUE ATOMS (ANGS)
   ATOM   CHARGE       X              Y              Z
 ------------------------------------------------------------
 S          16.0   0.0000000000   0.0000000000  -0.4019571923
 O           8.0   1.2610682960   0.0000000000   0.3883224973
 COORDINATES OF ALL ATOMS ARE (ANGS)
   ATOM   CHARGE       X              Y              Z
 ------------------------------------------------------------
 S          16.0   0.0000000000   0.0000000000  -0.4019571923
 O           8.0  -1.2610682960   0.0000000000   0.3883224973
 O           8.0   1.2610682960   0.0000000000   0.3883224973

 THE CURRENT FULLY SUBSTITUTED Z-MATRIX IS
 S   
 O      1   1.4882323
 O      1   1.4882323  2   115.8513312

          INTERNUCLEAR DISTANCES (ANGS.)
          ------------------------------

                1 S          2 O          3 O     

   1 S       0.0000000    1.4882323 *  1.4882323 *
   2 O       1.4882323 *  0.0000000    2.5221366 *
   3 O       1.4882323 *  2.5221366 *  0.0000000  

  * ... LESS THAN  3.000

 ...... END OF ONE-ELECTRON INTEGRALS ......
 STEP CPU TIME =     0.00 TOTAL CPU TIME =       11.1 (    0.2 MIN)
 TOTAL WALL CLOCK TIME=       11.1 SECONDS, CPU UTILIZATION IS  99.91%
 TOTAL NUMBER OF NONZERO TWO-ELECTRON INTEGRALS =              177671
         12 INTEGRAL RECORDS WERE STORED ON DISK FILE  8.
  ...... END OF TWO-ELECTRON INTEGRALS .....
 STEP CPU TIME =     0.12 TOTAL CPU TIME =       11.2 (    0.2 MIN)
 TOTAL WALL CLOCK TIME=       11.2 SECONDS, CPU UTILIZATION IS  99.91%

          --------------------------
               R-PBE SCF CALCULATION
          --------------------------
         DENSITY MATRIX CONVERGENCE THRESHOLD=  5.00E-05
     COARSE -> FINE DFT GRID SWITCH THRESHOLD=  1.50E-03 (SWITCH IN $DFT)
                   HF -> DFT SWITCH THRESHOLD=  5.00E-03 (SWOFF IN $DFT)

 DFT CODE IS SWITCHING FROM THE FINE GRID NRAD= 96,  NLEB=  302
                      TO THE COARSE GRID NRAD0= 24, NLEB0=  110

 ITER EX DEM     TOTAL ENERGY        E CHANGE  DENSITY CHANGE    DIIS ERROR
          * * *   INITIATING DIIS PROCEDURE   * * *
   1  0  0     -548.2852708232  -548.2852708232   0.050707876   0.029355269
   2  1  0     -548.2879975755    -0.0027267523   0.025374639   0.015168808
   3  2  0     -548.2872564120     0.0007411635   0.018932174   0.023904727
   4  3  0     -548.2884365858    -0.0011801738   0.002247333   0.002132884
   5  4  0     -548.2884473203    -0.0000107346   0.000444675   0.000248826
 DFT CODE IS SWITCHING BACK TO THE FINE GRID
          * * *   INITIATING DIIS PROCEDURE   * * *
   6  5  0     -548.2645133489     0.0239339714   0.008181546   0.013292894
   7  6  0     -548.2648264732    -0.0003131243   0.002119060   0.002307511
   8  7  0     -548.2648328375    -0.0000063643   0.001921969   0.001274248
   9  8  0     -548.2648343274    -0.0000014900   0.000868047   0.001051982
  10  9  0     -548.2648366977    -0.0000023703   0.000088149   0.000166878
  11 10  0     -548.2648367454    -0.0000000477   0.000033291   0.000010690
  12 11  0     -548.2648367457    -0.0000000003   0.000004807   0.000002635

          -----------------
          DENSITY CONVERGED
          -----------------
     TIME TO FORM FOCK OPERATORS=       3.7 SECONDS (       0.3 SEC/ITER)
     TIME TO SOLVE SCF EQUATIONS=       0.0 SECONDS (       0.0 SEC/ITER)

 FINAL R-PBE ENERGY IS     -548.2648367457 AFTER  12 ITERATIONS
 DFT EXCHANGE + CORRELATION ENERGY =       -42.4991976187
 TOTAL ELECTRON NUMBER             =        31.9999631567
 ...... END OF RHF CALCULATION ......
 STEP CPU TIME =     3.79 TOTAL CPU TIME =       15.0 (    0.2 MIN)
 TOTAL WALL CLOCK TIME=       15.0 SECONDS, CPU UTILIZATION IS 100.00%
 ..... END OF 1-ELECTRON GRADIENT ......
 STEP CPU TIME =     0.01 TOTAL CPU TIME =       15.0 (    0.3 MIN)
 TOTAL WALL CLOCK TIME=       15.0 SECONDS, CPU UTILIZATION IS 100.00%
 MEMORY FOR GRID POINT CONTRIBUTIONS TO THE DFT GRADIENT=    146145 WORDS.
 STEP CPU TIME =     0.67 TOTAL CPU TIME =       15.7 (    0.3 MIN)
 TOTAL WALL CLOCK TIME=       15.7 SECONDS, CPU UTILIZATION IS 100.00%
 ...... END OF 2-ELECTRON GRADIENT ......
 STEP CPU TIME =     0.39 TOTAL CPU TIME =       16.1 (    0.3 MIN)
 TOTAL WALL CLOCK TIME=       16.1 SECONDS, CPU UTILIZATION IS 100.00%

          NSERCH=  2     ENERGY=    -548.2648367

                                 -----------------------
                                 GRADIENT (HARTREE/BOHR)
                                 -----------------------
        ATOM     ZNUC       DE/DX         DE/DY         DE/DZ
 --------------------------------------------------------------
    1  S           16.0     0.0000000     0.0000000    -0.0058504
    2  O            8.0     0.0057390     0.0000000     0.0029252
    3  O            8.0    -0.0057390     0.0000000     0.0029252

          MAXIMUM GRADIENT = 0.0058504    RMS GRADIENT = 0.0036088

 NSERCH:   2  E=     -548.2648367457  GRAD. MAX=  0.0058504  R.M.S.=  0.0036088

          HESSIAN UPDATED USING THE BFGS FORMULA
             ACTUAL ENERGY CHANGE WAS  -0.0027182512
          PREDICTED ENERGY CHANGE WAS  -0.0028036254 RATIO=  0.970
          MIN SEARCH, CORRECT HESSIAN, TRYING PURE NR STEP
               NR STEP HAS LENGTH         =   0.064188
          RADIUS OF STEP TAKEN=   0.06419  CURRENT TRUST RADIUS=   0.22815

 THE DETERMINANT OF THE G MATRIX IS 10**(    -4)
 * * * WARNING * * *
 YOUR B MATRIX HAS A SMALL DETERMINANT.
 THIS SUGGESTS YOU MAY HAVE BADLY CHOSEN COORDINATES.

 BEGINNING GEOMETRY SEARCH POINT NSERCH=   3 ...

 COORDINATES OF SYMMETRY UNIQUE ATOMS (ANGS)
   ATOM   CHARGE       X              Y              Z
 ------------------------------------------------------------
 S          16.0   0.0000000000   0.0000000000  -0.3852609270
 O           8.0   1.2802465579   0.0000000000   0.3799743647
 COORDINATES OF ALL ATOMS ARE (ANGS)
   ATOM   CHARGE       X              Y              Z
 ------------------------------------------------------------
 S          16.0   0.0000000000   0.0000000000  -0.3852609270
 O           8.0  -1.2802465579   0.0000000000   0.3799743647
 O           8.0   1.2802465579   0.0000000000   0.3799743647

 THE CURRENT FULLY SUBSTITUTED Z-MATRIX IS
 S   
[...]
   12  S  1  Y   -0.253862   0.000000   0.000000   0.000000   0.000000
   13  S  1  Z    0.000000   0.000000   0.187316   0.000000   0.000000
   14  S  1 XX    0.000000   0.000000  -0.048146   0.000000   0.000000
   15  S  1 YY    0.000000   0.000000  -0.015739   0.000000   0.000000
   16  S  1 ZZ    0.000000   0.000000   0.063885   0.000000   0.000000
   17  S  1 XY    0.000000   0.000000   0.000000  -0.125258   0.000000
   18  S  1 XZ    0.000000  -0.040551   0.000000   0.000000  -0.113902
   19  S  1 YZ   -0.051953   0.000000   0.000000   0.000000   0.000000
   20  O  2  S    0.000000   0.067272   0.031154   0.000000  -0.000771
   21  O  2  S    0.000000  -0.134137  -0.063325   0.000000   0.001159
   22  O  2  S    0.000000  -0.257399  -0.110729   0.000000   0.032243
   23  O  2  X    0.000000   0.271923   0.291487   0.000000   0.347011
   24  O  2  Y   -0.304189   0.000000   0.000000   0.464674   0.000000
   25  O  2  Z    0.000000  -0.253424   0.135558   0.000000   0.320630
   26  O  2  X    0.000000   0.147434   0.184079   0.000000   0.232062
   27  O  2  Y   -0.178590   0.000000   0.000000   0.328490   0.000000
   28  O  2  Z    0.000000  -0.148569   0.081596   0.000000   0.222396
   29  O  2 XX    0.000000   0.002967   0.020438   0.000000   0.016487
   30  O  2 YY    0.000000  -0.008053  -0.005665   0.000000   0.000414
   31  O  2 ZZ    0.000000   0.005086  -0.014773   0.000000  -0.016901
   32  O  2 XY   -0.019965   0.000000   0.000000   0.017739   0.000000
   33  O  2 XZ    0.000000  -0.013962   0.002003   0.000000   0.008478
   34  O  2 YZ    0.011202   0.000000   0.000000  -0.011700   0.000000
   35  O  3  S    0.000000  -0.067272   0.031154   0.000000   0.000771
   36  O  3  S    0.000000   0.134137  -0.063325   0.000000  -0.001159
   37  O  3  S    0.000000   0.257399  -0.110729   0.000000  -0.032243
   38  O  3  X    0.000000   0.271923  -0.291487   0.000000   0.347011
   39  O  3  Y   -0.304189   0.000000   0.000000  -0.464674   0.000000
   40  O  3  Z    0.000000   0.253424   0.135558   0.000000  -0.320630
   41  O  3  X    0.000000   0.147434  -0.184079   0.000000   0.232062
   42  O  3  Y   -0.178590   0.000000   0.000000  -0.328490   0.000000
   43  O  3  Z    0.000000   0.148569   0.081596   0.000000  -0.222396
   44  O  3 XX    0.000000  -0.002967   0.020438   0.000000  -0.016487
   45  O  3 YY    0.000000   0.008053  -0.005665   0.000000  -0.000414
   46  O  3 ZZ    0.000000  -0.005086  -0.014773   0.000000   0.016901
   47  O  3 XY    0.019965   0.000000   0.000000   0.017739   0.000000
   48  O  3 XZ    0.000000  -0.013962  -0.002003   0.000000   0.008478
   49  O  3 YZ    0.011202   0.000000   0.000000   0.011700   0.000000

                     16         17         18         19         20
                   -0.2857    -0.1708     0.0038     0.0334     0.3476
                     A1         B2         A1         B1         B2  
    1  S  1  S    0.018738   0.000000   0.025918   0.000000   0.000000
    2  S  1  S   -0.095764   0.000000  -0.126792   0.000000   0.000000
    3  S  1  S    0.066729   0.000000   0.111626   0.000000   0.000000
    4  S  1  S    0.515629   0.000000   0.909041   0.000000   0.000000
    5  S  1  X    0.000000   0.000000   0.000000  -0.166015   0.000000
    6  S  1  Y    0.000000  -0.209695   0.000000   0.000000  -0.283492
    7  S  1  Z    0.105229   0.000000  -0.159047   0.000000   0.000000
    8  S  1  X    0.000000   0.000000   0.000000   0.425171   0.000000
    9  S  1  Y    0.000000   0.531887   0.000000   0.000000   1.096927
   10  S  1  Z   -0.252057   0.000000   0.423372   0.000000   0.000000
   11  S  1  X    0.000000   0.000000   0.000000   1.136730   0.000000
   12  S  1  Y    0.000000   0.480553   0.000000   0.000000  -1.241302
   13  S  1  Z   -0.088230   0.000000   0.827047   0.000000   0.000000
   14  S  1 XX   -0.146749   0.000000  -0.148455   0.000000   0.000000
   15  S  1 YY    0.058940   0.000000   0.203717   0.000000   0.000000
   16  S  1 ZZ    0.087809   0.000000  -0.055262   0.000000   0.000000
   17  S  1 XY    0.000000   0.000000   0.000000   0.000000   0.000000
   18  S  1 XZ    0.000000   0.000000   0.000000  -0.221542   0.000000
   19  S  1 YZ    0.000000  -0.069762   0.000000   0.000000   0.225444
   20  O  2  S    0.000514   0.000000   0.052524  -0.052238   0.000000
   21  O  2  S   -0.002654   0.000000  -0.096484   0.083328   0.000000
   22  O  2  S   -0.040315   0.000000  -0.485437   0.567220   0.000000
   23  O  2  X   -0.063706   0.000000  -0.351725   0.072274   0.000000
   24  O  2  Y    0.000000  -0.384698   0.000000   0.000000   0.023212
   25  O  2  Z    0.425778   0.000000  -0.025809  -0.281147   0.000000
   26  O  2  X   -0.045934   0.000000  -0.415053   0.123723   0.000000
   27  O  2  Y    0.000000  -0.332396   0.000000   0.000000   0.113175
   28  O  2  Z    0.314761   0.000000  -0.023396  -0.305389   0.000000
   29  O  2 XX    0.002865   0.000000   0.000673   0.003836   0.000000
   30  O  2 YY    0.004059   0.000000   0.006063   0.002055   0.000000
   31  O  2 ZZ   -0.006924   0.000000  -0.006736  -0.005890   0.000000
   32  O  2 XY    0.000000  -0.003163   0.000000   0.000000   0.030293
   33  O  2 XZ    0.011623   0.000000   0.003698   0.001057   0.000000
   34  O  2 YZ    0.000000   0.000093   0.000000   0.000000  -0.011006
   35  O  3  S    0.000514   0.000000   0.052524   0.052238   0.000000
   36  O  3  S   -0.002654   0.000000  -0.096484  -0.083328   0.000000
   37  O  3  S   -0.040315   0.000000  -0.485437  -0.567220   0.000000
   38  O  3  X    0.063706   0.000000   0.351725   0.072274   0.000000
   39  O  3  Y    0.000000  -0.384698   0.000000   0.000000   0.023212
   40  O  3  Z    0.425778   0.000000  -0.025809   0.281147   0.000000
   41  O  3  X    0.045934   0.000000   0.415053   0.123723   0.000000
   42  O  3  Y    0.000000  -0.332396   0.000000   0.000000   0.113175
   43  O  3  Z    0.314761   0.000000  -0.023396   0.305389   0.000000
   44  O  3 XX    0.002865   0.000000   0.000673  -0.003836   0.000000
   45  O  3 YY    0.004059   0.000000   0.006063  -0.002055   0.000000
   46  O  3 ZZ   -0.006924   0.000000  -0.006736   0.005890   0.000000
   47  O  3 XY    0.000000   0.003163   0.000000   0.000000  -0.030293
   48  O  3 XZ   -0.011623   0.000000  -0.003698   0.001057   0.000000
   49  O  3 YZ    0.000000   0.000093   0.000000   0.000000  -0.011006

                     21         22         23         24         25
                    0.3557     0.3988     0.4030     0.5236     0.5369
                     A1         B1         A1         B2         A2  
    1  S  1  S   -0.005577   0.000000   0.116569   0.000000   0.000000
    2  S  1  S    0.011704   0.000000   0.408666   0.000000   0.000000
    3  S  1  S   -0.050713   0.000000   1.778626   0.000000   0.000000
    4  S  1  S   -0.259549   0.000000  -2.346825   0.000000   0.000000
    5  S  1  X    0.000000   0.288976   0.000000   0.000000   0.000000
    6  S  1  Y    0.000000   0.000000   0.000000   0.065656   0.000000
    7  S  1  Z   -0.280691   0.000000   0.004864   0.000000   0.000000
    8  S  1  X    0.000000  -1.052867   0.000000   0.000000   0.000000
    9  S  1  Y    0.000000   0.000000   0.000000  -0.268116   0.000000
   10  S  1  Z    1.053318   0.000000  -0.042729   0.000000   0.000000
   11  S  1  X    0.000000   1.493738   0.000000   0.000000   0.000000
   12  S  1  Y    0.000000   0.000000   0.000000   0.279351   0.000000
   13  S  1  Z   -1.321426   0.000000  -0.273869   0.000000   0.000000
   14  S  1 XX   -0.267005   0.000000   0.003601   0.000000   0.000000
   15  S  1 YY    0.024683   0.000000  -0.097755   0.000000   0.000000
   16  S  1 ZZ    0.242322   0.000000   0.094154   0.000000   0.000000
   17  S  1 XY    0.000000   0.000000   0.000000   0.000000   0.901505
   18  S  1 XZ    0.000000   0.298254   0.000000   0.000000   0.000000
   19  S  1 YZ    0.000000   0.000000   0.000000   0.912594   0.000000
   20  O  2  S   -0.009395  -0.012606  -0.018096   0.000000   0.000000
   21  O  2  S   -0.036785  -0.043577   0.028513   0.000000   0.000000
   22  O  2  S    0.363779   0.553728   0.435797   0.000000   0.000000
   23  O  2  X   -0.152776  -0.244481  -0.152445   0.000000   0.000000
   24  O  2  Y    0.000000   0.000000   0.000000  -0.267238   0.341628
   25  O  2  Z    0.042998   0.120737   0.122649   0.000000   0.000000
   26  O  2  X    0.147317   0.080002   0.190726   0.000000   0.000000
   27  O  2  Y    0.000000   0.000000   0.000000   0.063630  -0.072716
   28  O  2  Z    0.032072  -0.107735  -0.090633   0.000000   0.000000
   29  O  2 XX    0.042629   0.017653   0.036936   0.000000   0.000000
   30  O  2 YY   -0.016166  -0.029154  -0.034601   0.000000   0.000000
   31  O  2 ZZ   -0.026463   0.011502  -0.002335   0.000000   0.000000
   32  O  2 XY    0.000000   0.000000   0.000000   0.037670  -0.040586
   33  O  2 XZ   -0.001682  -0.049192  -0.043138   0.000000   0.000000
   34  O  2 YZ    0.000000   0.000000   0.000000   0.011554   0.044772
   35  O  3  S   -0.009395   0.012606  -0.018096   0.000000   0.000000
   36  O  3  S   -0.036785   0.043577   0.028513   0.000000   0.000000
   37  O  3  S    0.363779  -0.553728   0.435797   0.000000   0.000000
   38  O  3  X    0.152776  -0.244481   0.152445   0.000000   0.000000
   39  O  3  Y    0.000000   0.000000   0.000000  -0.267238  -0.341628
   40  O  3  Z    0.042998  -0.120737   0.122649   0.000000   0.000000
   41  O  3  X   -0.147317   0.080002  -0.190726   0.000000   0.000000
   42  O  3  Y    0.000000   0.000000   0.000000   0.063630   0.072716
   43  O  3  Z    0.032072   0.107735  -0.090633   0.000000   0.000000
   44  O  3 XX    0.042629  -0.017653   0.036936   0.000000   0.000000
   45  O  3 YY   -0.016166   0.029154  -0.034601   0.000000   0.000000
   46  O  3 ZZ   -0.026463  -0.011502  -0.002335   0.000000   0.000000
   47  O  3 XY    0.000000   0.000000   0.000000  -0.037670  -0.040586
   48  O  3 XZ    0.001682  -0.049192   0.043138   0.000000   0.000000
   49  O  3 YZ    0.000000   0.000000   0.000000   0.011554  -0.044772

                     26
                    0.5423
                     A1  
    1  S  1  S   -0.006159
    2  S  1  S   -0.051551
    3  S  1  S   -0.130490
    4  S  1  S    0.420479
    5  S  1  X    0.000000
    6  S  1  Y    0.000000
    7  S  1  Z    0.050027
    8  S  1  X    0.000000
    9  S  1  Y    0.000000
   10  S  1  Z   -0.199826
   11  S  1  X    0.000000
   12  S  1  Y    0.000000
   13  S  1  Z    0.368575
   14  S  1 XX   -0.169109
   15  S  1 YY   -0.657629
   16  S  1 ZZ    0.826738
   17  S  1 XY    0.000000
   18  S  1 XZ    0.000000
   19  S  1 YZ    0.000000
   20  O  2  S    0.014300
   21  O  2  S   -0.050712
   22  O  2  S   -0.161182
   23  O  2  X   -0.134654
   24  O  2  Y    0.000000
   25  O  2  Z   -0.303819
   26  O  2  X   -0.070606
   27  O  2  Y    0.000000
   28  O  2  Z    0.148505
   29  O  2 XX    0.023709
   30  O  2 YY   -0.014487
   31  O  2 ZZ   -0.009222
   32  O  2 XY    0.000000
   33  O  2 XZ    0.041609
   34  O  2 YZ    0.000000
   35  O  3  S    0.014300
   36  O  3  S   -0.050712
   37  O  3  S   -0.161182
   38  O  3  X    0.134654
   39  O  3  Y    0.000000
   40  O  3  Z   -0.303819
   41  O  3  X    0.070606
   42  O  3  Y    0.000000
   43  O  3  Z    0.148505
   44  O  3 XX    0.023709
   45  O  3 YY   -0.014487
   46  O  3 ZZ   -0.009222
   47  O  3 XY    0.000000
   48  O  3 XZ   -0.041609
   49  O  3 YZ    0.000000

     ---------------------------------------------------------------------
     PROPERTIES FOR THE PBE      DFT FUNCTIONAL (RHF  TYPE) DENSITY MATRIX
     ---------------------------------------------------------------------

          -----------------
          ENERGY COMPONENTS
          -----------------

         WAVEFUNCTION NORMALIZATION =       1.0000000000

                ONE ELECTRON ENERGY =    -962.5052936970
                TWO ELECTRON ENERGY =     310.1241575804
           NUCLEAR REPULSION ENERGY =     104.1159490050
                                      ------------------
                       TOTAL ENERGY =    -548.2651871115

 ELECTRON-ELECTRON POTENTIAL ENERGY =     310.1241575804
  NUCLEUS-ELECTRON POTENTIAL ENERGY =   -1510.0517342948
   NUCLEUS-NUCLEUS POTENTIAL ENERGY =     104.1159490050
                                      ------------------
             TOTAL POTENTIAL ENERGY =   -1095.8116277093
               TOTAL KINETIC ENERGY =     547.5464405978
                 VIRIAL RATIO (V/T) =       2.0013126677

          ---------------------------------------
          MULLIKEN AND LOWDIN POPULATION ANALYSES
          ---------------------------------------

     ATOMIC MULLIKEN POPULATION IN EACH MOLECULAR ORBITAL

                      1          2          3          4          5

                  2.000000   2.000000   2.000000   2.000000   2.000000

    1             2.000020   0.001761   0.001092   2.001212   1.999826
    2            -0.000010   0.999120   0.999454  -0.000606   0.000087
    3            -0.000010   0.999120   0.999454  -0.000606   0.000087

                      6          7          8          9         10

                  2.000000   2.000000   2.000000   2.000000   2.000000

    1             2.000004   1.999841   0.668993   0.368255   0.988211
    2            -0.000002   0.000079   0.665504   0.815872   0.505894
    3            -0.000002   0.000079   0.665504   0.815872   0.505894

                     11         12         13         14         15

                  2.000000   2.000000   2.000000   2.000000   2.000000

    1             1.050937   0.407241   0.887137   0.095706   0.143673
    2             0.474532   0.796379   0.556432   0.952147   0.928163
    3             0.474532   0.796379   0.556432   0.952147   0.928163

                     16

                  2.000000

    1             0.565233
    2             0.717384
    3             0.717384

               ----- POPULATIONS IN EACH AO -----
                             MULLIKEN      LOWDIN
              1  S  1  S      2.00023     1.99582
              2  S  1  S      2.00999     1.96529
              3  S  1  S      0.96736     0.58809
              4  S  1  S      0.85205     0.54338
              5  S  1  X      1.99651     1.95390
              6  S  1  Y      1.99611     1.95462
              7  S  1  Z      1.99708     1.96144
              8  S  1  X      0.67790     0.60360
              9  S  1  Y      0.65785     0.61783
             10  S  1  Z      0.82409     0.79494
             11  S  1  X      0.11308     0.26118
             12  S  1  Y      0.38200     0.43710
             13  S  1  Z      0.27807     0.41706
             14  S  1 XX      0.07245     0.29579
             15  S  1 YY      0.11110     0.25535
             16  S  1 ZZ      0.09571     0.27602
             17  S  1 XY      0.13261     0.11489
             18  S  1 XZ      0.01498     0.16063
             19  S  1 YZ      0.00000     0.01450
             20  O  2  S      1.99798     1.98071
             21  O  2  S      0.83457     0.64879
             22  O  2  S      1.05506     0.55928
             23  O  2  X      0.91875     0.87649
             24  O  2  Y      0.85461     0.81680
             25  O  2  Z      1.05735     1.02687
             26  O  2  X      0.48562     0.57532
             27  O  2  Y      0.56538     0.60522
             28  O  2  Z      0.62011     0.67714
             29  O  2 XX      0.00355     0.20655
             30  O  2 YY      0.00477     0.20283
             31  O  2 ZZ      0.00491     0.19959
             32  O  2 XY      0.00599     0.00632
             33  O  2 XZ      0.00178     0.01018
             34  O  2 YZ      0.00000     0.00219
             35  O  3  S      1.99798     1.98071
             36  O  3  S      0.83457     0.64879
             37  O  3  S      1.05506     0.55928
             38  O  3  X      0.91875     0.87649
             39  O  3  Y      0.85461     0.81680
             40  O  3  Z      1.05735     1.02687
             41  O  3  X      0.48562     0.57532
             42  O  3  Y      0.56538     0.60522
             43  O  3  Z      0.62011     0.67714
             44  O  3 XX      0.00355     0.20655
             45  O  3 YY      0.00477     0.20283
             46  O  3 ZZ      0.00491     0.19959
             47  O  3 XY      0.00599     0.00632
             48  O  3 XZ      0.00178     0.01018
             49  O  3 YZ      0.00000     0.00219

          ----- MULLIKEN ATOMIC OVERLAP POPULATIONS -----
          (OFF-DIAGONAL ELEMENTS NEED TO BE MULTIPLIED BY 2)

             1           2           3

    1   14.5297063
    2    0.3247179   8.1201893
    3    0.3247179  -0.0344782   8.1201893

          TOTAL MULLIKEN AND LOWDIN ATOMIC POPULATIONS
       ATOM         MULL.POP.    CHARGE          LOW.POP.     CHARGE
    1 S            15.179142    0.820858        15.211431    0.788569
    2 O             8.410429   -0.410429         8.394285   -0.394285
    3 O             8.410429   -0.410429         8.394285   -0.394285

          MULLIKEN SPHERICAL HARMONIC POPULATIONS
       ATOM           S       P       D      F      G      H      I    TOTAL
    1 S             5.83    8.92    0.43   0.00   0.00   0.00   0.00   15.18
    2 O             3.89    4.50    0.02   0.00   0.00   0.00   0.00    8.41
    3 O             3.89    4.50    0.02   0.00   0.00   0.00   0.00    8.41

          -------------------------------
          BOND ORDER AND VALENCE ANALYSIS     BOND ORDER THRESHOLD=0.050
          -------------------------------

                   BOND                       BOND                       BOND
  ATOM PAIR DIST  ORDER      ATOM PAIR DIST  ORDER      ATOM PAIR DIST  ORDER
    1   2  1.491  1.806        1   3  1.491  1.806        2   3  2.560  0.287

                       TOTAL       BONDED        FREE
      ATOM            VALENCE     VALENCE     VALENCE
    1 S                 3.611       3.611       0.000
    2 O                 2.092       2.092       0.000
    3 O                 2.092       2.092       0.000

          ---------------------
          ELECTROSTATIC MOMENTS
          ---------------------

 POINT   1           X           Y           Z (BOHR)    CHARGE
                 0.000000    0.000000   -0.004314        0.00 (A.U.)
         DX          DY          DZ         /D/  (DEBYE)
     0.000000    0.000000   -1.877682    1.877682
 ...... END OF PROPERTY EVALUATION ......
 STEP CPU TIME =     0.02 TOTAL CPU TIME =       32.4 (    0.5 MIN)
 TOTAL WALL CLOCK TIME=       32.4 SECONDS, CPU UTILIZATION IS 100.06%
  $VIB   
          IVIB=   0 IATOM=   0 ICOORD=   0 E=     -548.2651871115
  0.000000000E+00 0.000000000E+00-2.522125477E-07-8.047559774E-08 0.000000000E+00
  1.261062739E-07 8.047559774E-08 0.000000000E+00 1.261062739E-07
 -1.806033367E-14-2.539735297E-16-1.877682379E+00
 ......END OF GEOMETRY SEARCH......
 STEP CPU TIME =     0.00 TOTAL CPU TIME =       32.4 (    0.5 MIN)
 TOTAL WALL CLOCK TIME=       32.4 SECONDS, CPU UTILIZATION IS 100.06%
               988086  WORDS OF DYNAMIC MEMORY USED
 EXECUTION OF GAMESS TERMINATED NORMALLY Thu Feb 26 01:21:49 2015
 DDI: 263624 bytes (0.3 MB / 0 MWords) used by master data server.

 ----------------------------------------
 CPU timing information for all processes
 ========================================
 0: 32.351 + 0.71 = 32.423
 ----------------------------------------
 ddikick.x: exited gracefully.
----- accounting info -----
Files used on the master node dftfe.crc.nd.edu were:
-rw-r--r-- 1 pmehta1 campus  145561 Feb 26 01:21 /tmp/SO2-opt.dat
-rw-r--r-- 1 pmehta1 campus     236 Feb 26 01:21 /tmp/SO2-opt.F05
-rw-r--r-- 1 pmehta1 campus 2160288 Feb 26 01:21 /tmp/SO2-opt.F08
-rw-r--r-- 1 pmehta1 campus 1374488 Feb 26 01:21 /tmp/SO2-opt.F10
-rw-r--r-- 1 pmehta1 campus 1069888 Feb 26 01:21 /tmp/SO2-opt.F22
Thu Feb 26 01:21:52 EST 2015
0.259u 0.197s 0:35.90 1.2%	0+0k 0+312io 0pf+0w
