----- GAMESS execution script 'rungms' -----
This job is running on host dftfe.crc.nd.edu
under operating system Linux at Sun Feb 15 21:54:01 EST 2015
Available scratch disk space (Kbyte units) at beginning of the job is
Filesystem     1K-blocks     Used Available Use% Mounted on
/dev/sda2      147771864 22481160 117784272  17% /
GAMESS temporary binary files will be written to /tmp
GAMESS supplementary output files will be written to /tmp
Copying input file SO2.inp to your run's scratch directory...

 Distributed Data Interface kickoff program.
 Initiating 1 compute processes on 1 nodes to run the following command:
 /opt/crc/gamess/2012R1/gamess/gamess.00.x SO2 

          ******************************************************
          *         GAMESS VERSION =  1 MAY 2012 (R1)          *
          *             FROM IOWA STATE UNIVERSITY             *
          * M.W.SCHMIDT, K.K.BALDRIDGE, J.A.BOATZ, S.T.ELBERT, *
          *   M.S.GORDON, J.H.JENSEN, S.KOSEKI, N.MATSUNAGA,   *
          *          K.A.NGUYEN, S.J.SU, T.L.WINDUS,           *
          *       TOGETHER WITH M.DUPUIS, J.A.MONTGOMERY       *
          *         J.COMPUT.CHEM.  14, 1347-1363(1993)        *
          **************** 64 BIT LINUX VERSION ****************

  SINCE 1993, STUDENTS AND POSTDOCS WORKING AT IOWA STATE UNIVERSITY
  AND ALSO IN THEIR VARIOUS JOBS AFTER LEAVING ISU HAVE MADE IMPORTANT
  CONTRIBUTIONS TO THE CODE:
     IVANA ADAMOVIC, CHRISTINE AIKENS, YURI ALEXEEV, POOJA ARORA,
     ANDREY ASADCHEV, ROB BELL, PRADIPTA BANDYOPADHYAY, JONATHAN BENTZ,
     BRETT BODE, GALINA CHABAN, WEI CHEN, CHEOL HO CHOI, PAUL DAY,
     ALBERT DEFUSCO, TIM DUDLEY, DMITRI FEDOROV, GRAHAM FLETCHER,
     MARK FREITAG, KURT GLAESEMANN, DAN KEMP, GRANT MERRILL,
     NORIYUKI MINEZAWA, JONATHAN MULLIN, TAKESHI NAGATA,
     SEAN NEDD, HEATHER NETZLOFF, BOSILJKA NJEGIC, RYAN OLSON, MIKE PAK,
     JIM SHOEMAKER, LYUDMILA SLIPCHENKO, SAROM SOK, JIE SONG,
     TETSUYA TAKETSUGU, SIMON WEBB, SOOHAENG YOO, FEDERICO ZAHARIEV

  ADDITIONAL CODE HAS BEEN PROVIDED BY COLLABORATORS IN OTHER GROUPS:
     IOWA STATE UNIVERSITY:
          JOE IVANIC, LAIMUTIS BYTAUTAS, KLAUS RUEDENBERG
     UNIVERSITY OF TOKYO: KIMIHIKO HIRAO, TAKAHITO NAKAJIMA,
          TAKAO TSUNEDA, MUNEAKI KAMIYA, SUSUMU YANAGISAWA,
          KIYOSHI YAGI, MAHITO CHIBA, SEIKEN TOKURA, NAOAKI KAWAKAMI
     UNIVERSITY OF AARHUS: FRANK JENSEN
     UNIVERSITY OF IOWA: VISVALDAS KAIRYS, HUI LI
     NATIONAL INST. OF STANDARDS AND TECHNOLOGY: WALT STEVENS, DAVID GARMER
     UNIVERSITY OF PISA: BENEDETTA MENNUCCI, JACOPO TOMASI
     UNIVERSITY OF MEMPHIS: HENRY KURTZ, PRAKASHAN KORAMBATH
     UNIVERSITY OF ALBERTA: TOBY ZENG, MARIUSZ KLOBUKOWSKI
     UNIVERSITY OF NEW ENGLAND: MARK SPACKMAN
     MIE UNIVERSITY: HIROAKI UMEDA
     MICHIGAN STATE UNIVERSITY:
          KAROL KOWALSKI, MARTA WLOCH, JEFFREY GOUR, JESSE LUTZ, PIOTR PIECUCH
     UNIVERSITY OF SILESIA: MONIKA MUSIAL, STANISLAW KUCHARSKI
     FACULTES UNIVERSITAIRES NOTRE-DAME DE LA PAIX:
          OLIVIER QUINET, BENOIT CHAMPAGNE
     UNIVERSITY OF CALIFORNIA - SANTA BARBARA: BERNARD KIRTMAN
     INSTITUTE FOR MOLECULAR SCIENCE:
          KAZUYA ISHIMURA, MICHIO KATOUDA, AND SHIGERU NAGASE
     UNIVERSITY OF NOTRE DAME: DAN CHIPMAN
     KYUSHU UNIVERSITY:
          HARUYUKI NAKANO,
          FENG LONG GU, JACEK KORCHOWIEC, MARCIN MAKOWSKI, AND YURIKO AOKI,
          HIROTOSHI MORI AND EISAKU MIYOSHI
     PENNSYLVANIA STATE UNIVERSITY:
          TZVETELIN IORDANOV, CHET SWALINA, JONATHAN SKONE,
          SHARON HAMMES-SCHIFFER
     WASEDA UNIVERSITY:
          MASATO KOBAYASHI, TOMOKO AKAMA, TSUGUKI TOUMA,
          TAKESHI YOSHIKAWA, YASUHIRO IKABATA, HIROMI NAKAI
     UNIVERSITY OF NEBRASKA:
          PEIFENG SU, DEJUN SI, NANDUN THELLAMUREGE, YALI WANG, HUI LI
     UNIVERSITY OF ZURICH:
          ROBERTO PEVERATI, KIM BALDRIDGE
     N. COPERNICUS UNIVERSITY AND JACKSON STATE UNIVERSITY:
          MARIA BARYSZ

 EXECUTION OF GAMESS BEGUN Sun Feb 15 21:54:01 2015

            ECHO OF THE FIRST FEW INPUT CARDS -
 INPUT CARD> $BASIS GBASIS=PC1 $END                                                         
 INPUT CARD> $CONTRL ISPHER=1 RUNTYP=ENERGY DFTTYP=PBE $END                                 
 INPUT CARD>                                                                                
 INPUT CARD> $DATA                                                                          
 INPUT CARD>Title                                                                           
 INPUT CARD>C1                                                                              
 INPUT CARD>S    16.0    -0.56558     3.20901     0.00000                                   
 INPUT CARD>O     8.0    -1.74198     2.40864     0.00000                                   
 INPUT CARD>O     8.0     0.70158     2.61721     0.00075                                   
 INPUT CARD> $END                                                                           
    1000000 WORDS OF MEMORY AVAILABLE

     BASIS OPTIONS
     -------------
     GBASIS=PC1          IGAUSS=       0      POLAR=NONE    
     NDFUNC=       0     NFFUNC=       0     DIFFSP=       F
     NPFUNC=       0      DIFFS=       F     BASNAM=        


     RUN TITLE
     ---------
 Title                                                                           

 THE POINT GROUP OF THE MOLECULE IS C1      
 THE ORDER OF THE PRINCIPAL AXIS IS     0

 ATOM      ATOMIC                      COORDINATES (BOHR)
           CHARGE         X                   Y                   Z
 S          16.0    -1.0687912241        6.0641495919        0.0000000000
 O           8.0    -3.2918648761        4.5516696031        0.0000000000
 O           8.0     1.3257939585        4.9458097523        0.0014172945

          INTERNUCLEAR DISTANCES (ANGS.)
          ------------------------------

                1 S          2 O          3 O     

   1 S       0.0000000    1.4228525 *  1.3985429 *
   2 O       1.4228525 *  0.0000000    2.4524452 *
   3 O       1.3985429 *  2.4524452 *  0.0000000  

  * ... LESS THAN  3.000


     ATOMIC BASIS SET
     ----------------
 THE CONTRACTED PRIMITIVE FUNCTIONS HAVE BEEN UNNORMALIZED
 THE CONTRACTED BASIS FUNCTIONS ARE NOW NORMALIZED TO UNITY

  SHELL TYPE  PRIMITIVE        EXPONENT          CONTRACTION COEFFICIENT(S)

 S         

      1   S       1         55510.0000000    0.000587229760
      1   S       2          8326.7000000    0.004532413947
      1   S       3          1895.6000000    0.023265261648
      1   S       4           536.7700000    0.089696133027
      1   S       5           174.6700000    0.254098332277
      1   S       6            62.5780000    0.438665087637
      1   S       7            23.5730000    0.314547135094
      1   S       8             5.8908000    0.032727897102

      2   S       9          8326.7000000   -0.000019755715
      2   S      10          1895.6000000   -0.000043822381
      2   S      11           536.7700000   -0.001730264906
      2   S      12           174.6700000   -0.009381263460
      2   S      13            62.5780000   -0.064050766303
      2   S      14            23.5730000   -0.082478179196
      2   S      15             5.8908000    0.478342956889
      2   S      16             2.1852000    0.626896670208

      3   S      17          1895.6000000    0.000016227260
      3   S      18           536.7700000    0.000191135619
      3   S      19           174.6700000    0.001952069674
      3   S      20            62.5780000    0.010578701087
      3   S      21            23.5730000    0.022164934551
      3   S      22             5.8908000   -0.184968323118
      3   S      23             2.1852000   -0.480920750976
      3   S      24             0.4528200    1.243822243872

      4   S      25             0.1620200    1.000000000000

      5   P      26           395.4500000    0.004642761329
      5   P      27            92.8340000    0.036023396489
      5   P      28            29.2660000    0.149058869978
      5   P      29            10.5950000    0.360033266263
      5   P      30             4.0272000    0.455756476221
      5   P      31             1.5484000    0.206167664178

      6   P      32            92.8340000    0.000169901442
      6   P      33            29.2660000   -0.002541839934
      6   P      34            10.5950000   -0.007867614595
      6   P      35             4.0272000   -0.037231009184
      6   P      36             1.5484000    0.161417246830
      6   P      37             0.4613400    0.902230419976

      7   P      38             0.1313100    1.000000000000

      8   D      39             0.5500000    1.000000000000

 O         

      9   S      40          2306.7000000    0.005424388755
      9   S      41           347.1500000    0.040474749465
      9   S      42            78.8900000    0.180219634554
      9   S      43            21.8760000    0.462370311787
      9   S      44             6.6646000    0.454888396263

     10   S      45           347.1500000   -0.000655003786
     10   S      46            78.8900000   -0.005362052952
     10   S      47            21.8760000   -0.074902158894
     10   S      48             6.6646000   -0.181442579655
     10   S      49             1.0669000    1.102006874042

     11   S      50             0.3070000    1.000000000000

     12   P      51            17.0220000    0.068979967443
     12   P      52             3.6838000    0.351985516325
     12   P      53             0.9923400    0.724036547822

     13   P      54             0.2448700    1.000000000000

     14   D      55             1.0000000    1.000000000000

 O         

     15   S      56          2306.7000000    0.005424388755
     15   S      57           347.1500000    0.040474749465
     15   S      58            78.8900000    0.180219634554
     15   S      59            21.8760000    0.462370311787
     15   S      60             6.6646000    0.454888396263

     16   S      61           347.1500000   -0.000655003786
     16   S      62            78.8900000   -0.005362052952
     16   S      63            21.8760000   -0.074902158894
     16   S      64             6.6646000   -0.181442579655
     16   S      65             1.0669000    1.102006874042

     17   S      66             0.3070000    1.000000000000

     18   P      67            17.0220000    0.068979967443
     18   P      68             3.6838000    0.351985516325
     18   P      69             0.9923400    0.724036547822

     19   P      70             0.2448700    1.000000000000

     20   D      71             1.0000000    1.000000000000

 TOTAL NUMBER OF BASIS SET SHELLS             =   20
 NUMBER OF CARTESIAN GAUSSIAN BASIS FUNCTIONS =   49
 NOTE: THIS RUN WILL RESTRICT THE MO VARIATION SPACE TO SPHERICAL HARMONICS.
 THE NUMBER OF ORBITALS KEPT IN THE VARIATIONAL SPACE WILL BE PRINTED LATER.
 NUMBER OF ELECTRONS                          =   32
 CHARGE OF MOLECULE                           =    0
 SPIN MULTIPLICITY                            =    1
 NUMBER OF OCCUPIED ORBITALS (ALPHA)          =   16
 NUMBER OF OCCUPIED ORBITALS (BETA )          =   16
 TOTAL NUMBER OF ATOMS                        =    3
 THE NUCLEAR REPULSION ENERGY IS      109.8468077125

     LEBEDEV GRID-BASED DFT OPTIONS
     ------------------------------
     DFTTYP=PBE     
     NRAD  =      96     NLEB  =     302
     NRAD0 =      24     NLEB0 =     110
     SWOFF =    5.00E-03 (PURE SCF -> DFT)
     SWITCH=    3.00E-04 (COARSE -> TIGHT GRID)
     THRESH=    0.00E+00 GTHRE=    1.00E+00

 GRIMME'S EMPIRICAL DISPERSION CORRECTION= F

     $CONTRL OPTIONS
     ---------------
 SCFTYP=RHF          RUNTYP=ENERGY       EXETYP=RUN     
 MPLEVL=       0     CITYP =NONE         CCTYP =NONE         VBTYP =NONE    
 DFTTYP=PBE          TDDFT =NONE    
 MULT  =       1     ICHARG=       0     NZVAR =       0     COORD =UNIQUE  
 PP    =NONE         RELWFN=NONE         LOCAL =NONE         NUMGRD=       F
 ISPHER=       1     NOSYM =       0     MAXIT =      30     UNITS =ANGS    
 PLTORB=       F     MOLPLT=       F     AIMPAC=       F     FRIEND=        
 NPRINT=       7     IREST =       0     GEOM  =INPUT   
 NORMF =       0     NORMP =       0     ITOL  =      20     ICUT  =       9
 INTTYP=BEST         GRDTYP=BEST         QMTTOL= 1.0E-06

     $SYSTEM OPTIONS
     ---------------
  REPLICATED MEMORY=     1000000 WORDS (ON EVERY NODE).
 DISTRIBUTED MEMDDI=           0 MILLION WORDS IN AGGREGATE,
 MEMDDI DISTRIBUTED OVER   1 PROCESSORS IS           0 WORDS/PROCESSOR.
 TOTAL MEMORY REQUESTED ON EACH PROCESSOR=     1000000 WORDS.
 TIMLIM=      525600.00 MINUTES, OR     365.0 DAYS.
 PARALL= F  BALTYP=  DLB     KDIAG=    0  COREFL= F
 MXSEQ2=     300 MXSEQ3=     150

          ----------------
          PROPERTIES INPUT
          ----------------

     MOMENTS            FIELD           POTENTIAL          DENSITY
 IEMOM =       1   IEFLD =       0   IEPOT =       0   IEDEN =       0
 WHERE =COMASS     WHERE =NUCLEI     WHERE =NUCLEI     WHERE =NUCLEI  
 OUTPUT=BOTH       OUTPUT=BOTH       OUTPUT=BOTH       OUTPUT=BOTH    
 IEMINT=       0   IEFINT=       0                     IEDINT=       0
                                                       MORB  =       0
          EXTRAPOLATION IN EFFECT
          DIIS IN EFFECT
 ORBITAL PRINTING OPTION: NPREO=     1    49     2     1

     -------------------------------
     INTEGRAL TRANSFORMATION OPTIONS
     -------------------------------
     NWORD  =            0
     CUTOFF = 1.0E-09     MPTRAN =       0
     DIRTRF =       F     AOINTS =DUP     

          ----------------------
          INTEGRAL INPUT OPTIONS
          ----------------------
 NOPK  =       1 NORDER=       0 SCHWRZ=       F

     ------------------------------------------
     THE POINT GROUP IS C1 , NAXIS= 0, ORDER= 1
     ------------------------------------------

 -- VARIATIONAL SPACE WILL BE RESTRICTED TO PURE SPHERICAL HARMONICS ONLY --
 AFTER EXCLUDING CONTAMINANT COMBINATIONS FROM THE CARTESIAN GAUSSIAN BASIS
 SET, THE NUMBER OF SPHERICAL HARMONICS KEPT IN THE VARIATION SPACE IS   46

     DIMENSIONS OF THE SYMMETRY SUBSPACES ARE
 A   =   46

 ..... DONE SETTING UP THE RUN .....
 STEP CPU TIME =     0.01 TOTAL CPU TIME =        0.0 (    0.0 MIN)
 TOTAL WALL CLOCK TIME=        0.0 SECONDS, CPU UTILIZATION IS  50.00%

          ********************
          1 ELECTRON INTEGRALS
          ********************
 ...... END OF ONE-ELECTRON INTEGRALS ......
 STEP CPU TIME =     0.00 TOTAL CPU TIME =        0.0 (    0.0 MIN)
 TOTAL WALL CLOCK TIME=        0.0 SECONDS, CPU UTILIZATION IS  50.00%

          -------------
          GUESS OPTIONS
          -------------
          GUESS =HUCKEL            NORB  =       0          NORDER=       0
          MIX   =       F          PRTMO =       F          PUNMO =       F
          TOLZ  = 1.0E-08          TOLE  = 1.0E-05
          SYMDEN=       F          PURIFY=       F

 INITIAL GUESS ORBITALS GENERATED BY HUCKEL   ROUTINE.
 HUCKEL GUESS REQUIRES     21583 WORDS.

 STATISTICS FOR GENERATION OF SYMMETRY ORBITAL -Q- MATRIX
 NUMBER OF CARTESIAN ATOMIC ORBITALS=         49
 NUMBER OF SPHERICAL CONTAMINANTS DROPPED=     3
 NUMBER OF LINEARLY DEPENDENT MOS DROPPED=     0
 TOTAL NUMBER OF MOS IN VARIATION SPACE=      46

 SYMMETRIES FOR INITIAL GUESS ORBITALS FOLLOW.   BOTH SET(S).
    16 ORBITALS ARE OCCUPIED (    7 CORE ORBITALS).
     8=A        9=A       10=A       11=A       12=A       13=A       14=A   
    15=A       16=A       17=A       18=A       19=A       20=A       21=A   
    22=A       23=A       24=A       25=A       26=A   
 ...... END OF INITIAL ORBITAL SELECTION ......
 STEP CPU TIME =     0.01 TOTAL CPU TIME =        0.0 (    0.0 MIN)
 TOTAL WALL CLOCK TIME=        0.0 SECONDS, CPU UTILIZATION IS 100.00%

                    ----------------------
                    AO INTEGRAL TECHNOLOGY
                    ----------------------
     S,P,L SHELL ROTATED AXIS INTEGRALS, REPROGRAMMED BY
        KAZUYA ISHIMURA (IMS) AND JOSE SIERRA (SYNSTAR).
     S,P,D,L SHELL ROTATED AXIS INTEGRALS PROGRAMMED BY
        KAZUYA ISHIMURA (INSTITUTE FOR MOLECULAR SCIENCE).
     S,P,D,F,G SHELL TO TOTAL QUARTET ANGULAR MOMENTUM SUM 5,
        ERIC PROGRAM BY GRAHAM FLETCHER (ELORET AND NASA ADVANCED
        SUPERCOMPUTING DIVISION, AMES RESEARCH CENTER).
     S,P,D,F,G,L SHELL GENERAL RYS QUADRATURE PROGRAMMED BY
        MICHEL DUPUIS (PACIFIC NORTHWEST NATIONAL LABORATORY).

          --------------------
          2 ELECTRON INTEGRALS
          --------------------

 THE -PK- OPTION IS OFF, THE INTEGRALS ARE NOT IN SUPERMATRIX FORM.
 STORING   15000 INTEGRALS/RECORD ON DISK, USING 12 BYTES/INTEGRAL.
 TWO ELECTRON INTEGRAL EVALUATION REQUIRES   90606 WORDS OF MEMORY.
 II,JST,KST,LST =  1  1  1  1 NREC =         1 INTLOC =    1
 II,JST,KST,LST =  2  1  1  1 NREC =         1 INTLOC =    2
 II,JST,KST,LST =  3  1  1  1 NREC =         1 INTLOC =    7
 II,JST,KST,LST =  4  1  1  1 NREC =         1 INTLOC =   22
 II,JST,KST,LST =  5  1  1  1 NREC =         1 INTLOC =   56
 II,JST,KST,LST =  6  1  1  1 NREC =         1 INTLOC =  125
 II,JST,KST,LST =  7  1  1  1 NREC =         1 INTLOC =  329
 II,JST,KST,LST =  8  1  1  1 NREC =         1 INTLOC =  776
 II,JST,KST,LST =  9  1  1  1 NREC =         1 INTLOC = 2864
 II,JST,KST,LST = 10  1  1  1 NREC =         1 INTLOC = 5000
 II,JST,KST,LST = 11  1  1  1 NREC =         1 INTLOC = 7668
 II,JST,KST,LST = 12  1  1  1 NREC =         1 INTLOC =10786
 II,JST,KST,LST = 13  1  1  1 NREC =         2 INTLOC = 6720
 II,JST,KST,LST = 14  1  1  1 NREC =         3 INTLOC = 6995
 II,JST,KST,LST = 15  1  1  1 NREC =         6 INTLOC = 9048
 II,JST,KST,LST = 16  1  1  1 NREC =         7 INTLOC = 7040
 II,JST,KST,LST = 17  1  1  1 NREC =         8 INTLOC =11863
 II,JST,KST,LST = 18  1  1  1 NREC =        10 INTLOC = 6102
 II,JST,KST,LST = 19  1  1  1 NREC =        15 INTLOC = 7669
 II,JST,KST,LST = 20  1  1  1 NREC =        22 INTLOC = 8238
 TOTAL NUMBER OF NONZERO TWO-ELECTRON INTEGRALS =              585076
         40 INTEGRAL RECORDS WERE STORED ON DISK FILE  8.
  ...... END OF TWO-ELECTRON INTEGRALS .....
 STEP CPU TIME =     0.26 TOTAL CPU TIME =        0.3 (    0.0 MIN)
 TOTAL WALL CLOCK TIME=        1.0 SECONDS, CPU UTILIZATION IS  26.92%

          --------------------------
               R-PBE SCF CALCULATION
          --------------------------

     NUCLEAR ENERGY =       109.8468077125
     MAXIT =   30     NPUNCH=    2
     EXTRAP=T  DAMP=F  SHIFT=F  RSTRCT=F  DIIS=T  DEM=F  SOSCF=F
         DENSITY MATRIX CONVERGENCE THRESHOLD=  1.00E-05
     COARSE -> FINE DFT GRID SWITCH THRESHOLD=  3.00E-04 (SWITCH IN $DFT)
                   HF -> DFT SWITCH THRESHOLD=  5.00E-03 (SWOFF IN $DFT)
     MEMORY REQUIRED FOR RHF ITERS=    183108 WORDS.

 DFT CODE IS SWITCHING FROM THE FINE GRID NRAD= 96,  NLEB=  302
                      TO THE COARSE GRID NRAD0= 24, NLEB0=  110

     EXCHANGE FUNCTIONAL   =PBE       
     CORRELATION FUNCTIONAL=PBE       
     DFT THRESHOLD         =.460E-07
     GRID CHANGE THRESHOLD =.300E-03
 FOR AN EULER-MACLAURIN QUADRATURE USING  96 RADIAL POINTS:
 SMALLEST GAUSSIAN PRIMITIVE EXPONENT=        0.1313100000 OF TYPE -P-
 ON ATOM NUMBER   1 HAS RADIAL NORMALIZATION=  1.000000
  LARGEST GAUSSIAN PRIMITIVE EXPONENT=    55510.0000000000 OF TYPE -S-
 ON ATOM NUMBER   1 HAS RADIAL NORMALIZATION=  0.999999
 DFT IS SWITCHED OFF, PERFORMING PURE SCF UNTIL SWOFF THRESHOLD IS REACHED.

 ITER EX DEM     TOTAL ENERGY        E CHANGE  DENSITY CHANGE    DIIS ERROR
   1  0  0     -546.0786571764  -546.0786571764   0.352674021   1.315104317
          * * *   INITIATING DIIS PROCEDURE   * * *
   2  1  0     -546.9403798182    -0.8617226419   0.401543777   0.237640109
   3  2  0     -547.0351823984    -0.0948025802   0.119646242   0.150954379
   4  3  0     -547.1229993443    -0.0878169459   0.028027178   0.014607642
   5  4  0     -547.1239607905    -0.0009614462   0.016931965   0.003857239
   6  5  0     -547.1241101635    -0.0001493730   0.004695882   0.002108611
 CONVERGED TO SWOFF, SO DFT CALCULATION IS NOW SWITCHED ON.
          * * *   INITIATING DIIS PROCEDURE   * * *
   7  6  0     -548.2397240565    -1.1156138930   0.205547885   0.086908014
   8  7  0     -548.2550935851    -0.0153695286   0.166561945   0.071885002
   9  8  0     -548.2504793396     0.0046142454   0.078592857   0.079297214
  10  9  0     -548.2707307509    -0.0202514113   0.029376431   0.018651607
  11 10  0     -548.2707870710    -0.0000563201   0.016886732   0.020770382
  12 11  0     -548.2718589916    -0.0010719206   0.000677311   0.000654036
  13 12  0     -548.2718605704    -0.0000015788   0.000302255   0.000134280
  14 13  0     -548.2718606392    -0.0000000688   0.000022164   0.000016560
 DFT CODE IS SWITCHING BACK TO THE FINE GRID
          * * *   INITIATING DIIS PROCEDURE   * * *
  15 14  0     -548.2497771203     0.0220835189   0.006540632   0.007813021
  16 15  0     -548.2499226160    -0.0001454958   0.003884470   0.002337845
  17 16  0     -548.2499100539     0.0000125622   0.003553317   0.002681163
  18 17  0     -548.2499331337    -0.0000230798   0.001399003   0.001093183
  19 18  0     -548.2499346654    -0.0000015317   0.000786436   0.000875552
  20 19  0     -548.2499367252    -0.0000020598   0.000095950   0.000048836
  21 20  0     -548.2499367381    -0.0000000129   0.000013068   0.000002903
  22 21  0     -548.2499367382    -0.0000000001   0.000001546   0.000000581
  23 22  0     -548.2499367382     0.0000000000   0.000000203   0.000000062

          -----------------
          DENSITY CONVERGED
          -----------------
     TIME TO FORM FOCK OPERATORS=       7.5 SECONDS (       0.3 SEC/ITER)
     TIME TO SOLVE SCF EQUATIONS=       0.1 SECONDS (       0.0 SEC/ITER)

 FINAL R-PBE ENERGY IS     -548.2499367382 AFTER  23 ITERATIONS
 DFT EXCHANGE + CORRELATION ENERGY =       -42.6161565464
 TOTAL ELECTRON NUMBER             =        31.9999842850

          ------------
          EIGENVECTORS
          ------------

                      1          2          3          4          5
                  -88.2033   -18.7953   -18.7921    -7.8309    -5.8518
                     A          A          A          A          A   
    1  S  1  S    1.002985  -0.000045  -0.000042  -0.273999   0.000142
    2  S  1  S   -0.010259  -0.000147  -0.000206   1.039476  -0.000522
    3  S  1  S    0.001903  -0.000582  -0.000607   0.041690   0.000063
    4  S  1  S   -0.000598   0.008548   0.008458  -0.010322   0.000015
    5  S  1  X    0.000005   0.000118  -0.000101   0.001342   0.993701
    6  S  1  Y   -0.000055   0.000035   0.000031  -0.012381   0.072031
    7  S  1  Z    0.000000   0.000000   0.000000   0.000007   0.000311
    8  S  1  X    0.000026   0.000815  -0.000714   0.000283   0.010175
    9  S  1  Y   -0.000157  -0.000882  -0.001052  -0.002041   0.000704
   10  S  1  Z    0.000000   0.000001   0.000000   0.000001   0.000003
   11  S  1  X    0.000006   0.004034  -0.003535  -0.000003  -0.000227
   12  S  1  Y   -0.000015  -0.003012  -0.003613   0.000407  -0.000017
   13  S  1  Z    0.000000   0.000003   0.000001   0.000000   0.000000
   14  S  1 XX    0.000155   0.000188   0.000311   0.001468   0.000263
   15  S  1 YY   -0.000044   0.000272   0.000221  -0.000583  -0.000217
   16  S  1 ZZ   -0.000110  -0.000460  -0.000532  -0.000885  -0.000046
   17  S  1 XY    0.000013   0.000197  -0.000081   0.000145  -0.001419
   18  S  1 XZ    0.000000   0.000000   0.000000   0.000001   0.000001
   19  S  1 YZ    0.000000   0.000000   0.000000   0.000000   0.000000
   20  O  2  S    0.000015   0.001840   0.994574  -0.000134   0.000543
   21  O  2  S    0.000042   0.000424   0.036970  -0.000077  -0.000501
   22  O  2  S   -0.000190  -0.001660  -0.019169  -0.000644   0.000056
   23  O  2  X   -0.000062  -0.000046   0.001355  -0.000362  -0.000764
   24  O  2  Y   -0.000041  -0.000208   0.000840  -0.000228  -0.000615
   25  O  2  Z    0.000000   0.000000   0.000000   0.000000   0.000000
   26  O  2  X   -0.000175  -0.001514  -0.004230  -0.001300   0.000099
   27  O  2  Y   -0.000144   0.000559  -0.002603  -0.001209  -0.000065
   28  O  2  Z    0.000000  -0.000001   0.000000   0.000000   0.000000
   29  O  2 XX   -0.000070  -0.000278  -0.000296  -0.000110  -0.000230
   30  O  2 YY   -0.000010   0.000236   0.000024  -0.000097  -0.000169
   31  O  2 ZZ    0.000080   0.000041   0.000271   0.000207   0.000398
   32  O  2 XY   -0.000130  -0.000085  -0.000371  -0.000347  -0.000681
   33  O  2 XZ    0.000000   0.000000   0.000000   0.000000   0.000000
   34  O  2 YZ    0.000000   0.000000   0.000000   0.000000   0.000000
   35  O  3  S    0.000016   0.994567  -0.001744  -0.000185  -0.000636
   36  O  3  S    0.000039   0.037054   0.000285  -0.000086   0.000619
   37  O  3  S   -0.000214  -0.019301  -0.001607  -0.000786  -0.000090
   38  O  3  X    0.000077  -0.001535   0.000081   0.000373  -0.001012
   39  O  3  Y   -0.000035   0.000639  -0.000203  -0.000159   0.000575
   40  O  3  Z    0.000000  -0.000001   0.000000   0.000000  -0.000001
   41  O  3  X    0.000209   0.004579   0.001399   0.001565   0.000110
   42  O  3  Y   -0.000122  -0.001873   0.000827  -0.001039   0.000061
   43  O  3  Z    0.000000   0.000003   0.000000   0.000001   0.000000
   44  O  3 XX   -0.000105  -0.000352  -0.000272  -0.000118   0.000471
   45  O  3 YY    0.000024   0.000105   0.000235  -0.000031  -0.000030
   46  O  3 ZZ    0.000081   0.000247   0.000037   0.000149  -0.000441
   47  O  3 XY    0.000114   0.000260  -0.000020   0.000249  -0.000697
   48  O  3 XZ    0.000000   0.000000   0.000000   0.000000   0.000001
   49  O  3 YZ    0.000000   0.000000   0.000000   0.000000   0.000000

                      6          7          8          9         10
                   -5.8506    -5.8444    -1.0809    -0.9852    -0.5679
                     A          A          A          A          A   
    1  S  1  S    0.000000  -0.003563   0.053077   0.003913   0.063042
    2  S  1  S    0.000000   0.013552  -0.152301  -0.011227  -0.170623
    3  S  1  S    0.000000  -0.000157   0.308450   0.023200   0.409446
    4  S  1  S    0.000000   0.000859   0.114196   0.011775   0.353318
    5  S  1  X   -0.000349  -0.072014  -0.019556   0.143738   0.005148
    6  S  1  Y    0.000516   0.994075   0.066778   0.016012  -0.052582
    7  S  1  Z    0.996751  -0.000540  -0.000041   0.000042   0.000029
    8  S  1  X   -0.000003  -0.000683   0.035599  -0.275653  -0.010497
    9  S  1  Y    0.000005   0.009006  -0.123153  -0.030974   0.106487
   10  S  1  Z    0.009353  -0.000005   0.000076  -0.000081  -0.000059
   11  S  1  X    0.000000   0.000008   0.000477  -0.020991  -0.008226
   12  S  1  Y    0.000000  -0.000370   0.006881  -0.001589   0.083408
   13  S  1  Z   -0.000288   0.000000  -0.000003  -0.000007  -0.000046
   14  S  1 XX    0.000000   0.000589   0.047664  -0.008749  -0.011977
   15  S  1 YY   -0.000001  -0.001011  -0.011321   0.011029  -0.011001
   16  S  1 ZZ    0.000001   0.000422  -0.036343  -0.002280   0.022978
   17  S  1 XY    0.000000   0.000203  -0.002559   0.082920   0.000849
   18  S  1 XZ    0.000104   0.000000   0.000035  -0.000045  -0.000015
   19  S  1 YZ   -0.000807   0.000001  -0.000016   0.000021   0.000021
   20  O  2  S    0.000000   0.000332  -0.109012  -0.154020   0.101064
   21  O  2  S    0.000000  -0.000213   0.213273   0.308596  -0.207242
   22  O  2  S    0.000000  -0.000695   0.236990   0.339714  -0.341748
   23  O  2  X    0.000000  -0.000660   0.101111   0.103891   0.128078
   24  O  2  Y    0.000000  -0.000337   0.059958   0.076926   0.129668
   25  O  2  Z    0.000118   0.000000   0.000005  -0.000003  -0.000022
   26  O  2  X    0.000000  -0.000211   0.038892   0.028485   0.063309
   27  O  2  Y    0.000000  -0.000306   0.018340   0.024543   0.058007
   28  O  2  Z   -0.000078   0.000000   0.000004  -0.000003  -0.000008
   29  O  2 XX    0.000000  -0.000366   0.009949   0.003047   0.002982
   30  O  2 YY    0.000000   0.000100  -0.003821   0.000688   0.003234
   31  O  2 ZZ    0.000000   0.000266  -0.006128  -0.003734  -0.006215
   32  O  2 XY    0.000000  -0.000452   0.011333   0.009849   0.009925
   33  O  2 XZ    0.000126   0.000000   0.000001  -0.000002  -0.000001
   34  O  2 YZ    0.000120   0.000000   0.000003   0.000001  -0.000002
   35  O  3  S    0.000000   0.000369  -0.133174   0.133321   0.102512
   36  O  3  S    0.000000  -0.000289   0.261438  -0.267204  -0.210244
   37  O  3  S    0.000000  -0.000640   0.284046  -0.289916  -0.348117
   38  O  3  X    0.000000   0.000785  -0.131223   0.096598  -0.153978
   39  O  3  Y    0.000000  -0.000242   0.053641  -0.053151   0.113223
   40  O  3  Z    0.000143   0.000000  -0.000074   0.000061  -0.000112
   41  O  3  X    0.000000   0.000222  -0.045239   0.023555  -0.075141
   42  O  3  Y    0.000000  -0.000256   0.014432  -0.017293   0.049810
   43  O  3  Z   -0.000092   0.000000  -0.000023   0.000017  -0.000052
   44  O  3 XX    0.000000  -0.000503   0.013838  -0.003737   0.005933
   45  O  3 YY    0.000000   0.000231  -0.006935   0.000751   0.000512
   46  O  3 ZZ    0.000000   0.000272  -0.006903   0.002985  -0.006445
   47  O  3 XY    0.000000   0.000337  -0.009813   0.007867  -0.009878
   48  O  3 XZ   -0.000165   0.000000   0.000013  -0.000007   0.000010
   49  O  3 YZ    0.000109   0.000000  -0.000003   0.000004  -0.000008

                     11         12         13         14         15
                   -0.4606    -0.4479    -0.4393    -0.3410    -0.3145
                     A          A          A          A          A   
    1  S  1  S    0.000000   0.004521  -0.001192   0.000000  -0.001068
    2  S  1  S    0.000000  -0.033526   0.005749   0.000000   0.005145
    3  S  1  S    0.000000   0.001419  -0.004830   0.000000  -0.004122
    4  S  1  S   -0.000001   0.201230  -0.029936   0.000000  -0.027883
    5  S  1  X    0.000072   0.004126  -0.164484   0.000003  -0.010670
    6  S  1  Y   -0.000105  -0.187485  -0.000242  -0.000004   0.009011
    7  S  1  Z   -0.203781   0.000098  -0.000058  -0.008064  -0.000008
    8  S  1  X   -0.000166  -0.008642   0.388745  -0.000007   0.016408
    9  S  1  Y    0.000244   0.431163   0.001876   0.000010  -0.022242
   10  S  1  Z    0.472014  -0.000226   0.000136   0.019474   0.000017
   11  S  1  X   -0.000080  -0.007450   0.034619  -0.000006   0.119950
   12  S  1  Y    0.000117   0.160626  -0.007633   0.000008  -0.004176
   13  S  1  Z    0.226258  -0.000086   0.000016   0.015818   0.000044
   14  S  1 XX   -0.000007   0.063679   0.004479   0.000085  -0.012780
   15  S  1 YY   -0.000051  -0.075300  -0.002110  -0.000011   0.015803
   16  S  1 ZZ    0.000058   0.011622  -0.002369  -0.000074  -0.003023
   17  S  1 XY    0.000026   0.016129  -0.037099  -0.000068   0.128440
   18  S  1 XZ    0.011786   0.000013   0.000022  -0.140170  -0.000070
   19  S  1 YZ   -0.057097   0.000058  -0.000013  -0.012522   0.000034
   20  O  2  S    0.000000  -0.037004  -0.067799   0.000000   0.000858
   21  O  2  S    0.000000   0.075626   0.135878   0.000000  -0.002267
   22  O  2  S    0.000000   0.129005   0.263024   0.000000   0.019691
   23  O  2  X   -0.000103  -0.298792  -0.236826  -0.000167   0.379311
   24  O  2  Y    0.000151   0.118371  -0.279998   0.000245  -0.286825
   25  O  2  Z    0.292174  -0.000166   0.000061   0.474239   0.000282
   26  O  2  X   -0.000058  -0.184180  -0.121275  -0.000116   0.248058
   27  O  2  Y    0.000086   0.068233  -0.161217   0.000170  -0.200840
   28  O  2  Z    0.166849  -0.000100   0.000041   0.329428   0.000191
   29  O  2 XX   -0.000012  -0.020901  -0.000574  -0.000012   0.019857
   30  O  2 YY    0.000011   0.014580  -0.007758   0.000012  -0.019706
   31  O  2 ZZ    0.000001   0.006321   0.008332  -0.000001  -0.000151
   32  O  2 XY    0.000006  -0.001092  -0.014718   0.000005  -0.006857
   33  O  2 XZ    0.020064  -0.000010   0.000004   0.019056   0.000012
   34  O  2 YZ    0.012670  -0.000005   0.000004   0.013721   0.000009
   35  O  3  S    0.000000  -0.028600   0.069988   0.000000   0.001015
   36  O  3  S    0.000000   0.058442  -0.140439   0.000000  -0.000796
   37  O  3  S    0.000001   0.097234  -0.272560   0.000000  -0.024199
   38  O  3  X   -0.000116   0.264442  -0.317479   0.000157   0.297057
   39  O  3  Y    0.000171   0.217713   0.227827  -0.000232   0.359610
   40  O  3  Z    0.331708  -0.000020  -0.000228  -0.449177  -0.000082
   41  O  3  X   -0.000067   0.165196  -0.168519   0.000110   0.189916
   42  O  3  Y    0.000098   0.128448   0.133113  -0.000162   0.250248
   43  O  3  Z    0.190283  -0.000009  -0.000127  -0.314359  -0.000063
   44  O  3 XX    0.000015  -0.021262   0.007482  -0.000012  -0.015983
   45  O  3 YY    0.000009   0.015917   0.001937  -0.000009   0.016479
   46  O  3 ZZ   -0.000024   0.005345  -0.009419   0.000021  -0.000495
   47  O  3 XY   -0.000016  -0.008516  -0.015366   0.000014  -0.014267
   48  O  3 XZ   -0.024201  -0.000006   0.000015   0.019491   0.000001
   49  O  3 YZ    0.010477  -0.000009  -0.000012  -0.009882  -0.000015

                     16         17         18         19         20
                   -0.2791    -0.1455     0.0381     0.0739     0.3434
                     A          A          A          A          A   
    1  S  1  S    0.020385   0.000000   0.020805  -0.000078   0.000000
    2  S  1  S   -0.108049   0.000000  -0.138853  -0.006396  -0.000001
    3  S  1  S    0.068747   0.000001   0.044996  -0.008657  -0.000003
    4  S  1  S    0.611124  -0.000003   1.109155   0.060627   0.000002
    5  S  1  X    0.008294   0.000074  -0.003324  -0.138685  -0.000101
    6  S  1  Y   -0.119282  -0.000109   0.142478  -0.008191   0.000149
    7  S  1  Z    0.000064  -0.211055  -0.000075  -0.000045   0.283783
    8  S  1  X   -0.018643  -0.000190   0.011003   0.356398   0.000387
    9  S  1  Y    0.282534   0.000279  -0.386610   0.019732  -0.000572
   10  S  1  Z   -0.000152   0.539534   0.000204   0.000116  -1.094208
   11  S  1  X   -0.000614  -0.000188   0.042208   1.302216  -0.000439
   12  S  1  Y    0.108811   0.000276  -0.934589   0.072723   0.000648
   13  S  1  Z   -0.000056   0.533807   0.000497   0.000418   1.238528
   14  S  1 XX   -0.159843   0.000005  -0.160008  -0.040472   0.000008
   15  S  1 YY    0.091493   0.000070  -0.070507   0.031494   0.000190
   16  S  1 ZZ    0.068350  -0.000075   0.230515   0.008978  -0.000197
   17  S  1 XY   -0.019807  -0.000032  -0.012569   0.220984  -0.000081
   18  S  1 XZ   -0.000082  -0.008627  -0.000152  -0.000135  -0.016371
   19  S  1 YZ   -0.000021   0.078486   0.000175   0.000065   0.210602
   20  O  2  S    0.003665   0.000000   0.058684  -0.054208   0.000000
   21  O  2  S   -0.009584   0.000000  -0.104298   0.081192   0.000000
   22  O  2  S   -0.054937   0.000001  -0.589872   0.640684   0.000000
   23  O  2  X   -0.047522   0.000134  -0.327815   0.008311   0.000005
   24  O  2  Y   -0.426351  -0.000197   0.020014   0.269241  -0.000007
   25  O  2  Z    0.000203  -0.380922  -0.000126  -0.000136  -0.014580
   26  O  2  X   -0.033621   0.000122  -0.433477   0.061098   0.000037
   27  O  2  Y   -0.316732  -0.000179   0.013707   0.318042  -0.000054
   28  O  2  Z    0.000152  -0.347135  -0.000159  -0.000143  -0.103938
   29  O  2 XX    0.002690   0.000002  -0.001400   0.003872   0.000020
   30  O  2 YY   -0.007102   0.000000  -0.007169  -0.005489  -0.000013
   31  O  2 ZZ    0.004413  -0.000002   0.008569   0.001617  -0.000007
   32  O  2 XY   -0.011440  -0.000002  -0.003993   0.001750  -0.000012
   33  O  2 XZ    0.000005  -0.003453  -0.000002   0.000000  -0.031844
   34  O  2 YZ    0.000003   0.000236   0.000008   0.000005  -0.013889
   35  O  3  S    0.005827   0.000000   0.055608   0.058812   0.000000
   36  O  3  S   -0.013301   0.000000  -0.099419  -0.089197  -0.000001
   37  O  3  S   -0.067264   0.000002  -0.562728  -0.695600   0.000003
   38  O  3  X    0.125087   0.000133   0.308472   0.063860   0.000006
   39  O  3  Y   -0.377915  -0.000196   0.096397  -0.256032  -0.000007
   40  O  3  Z    0.000239  -0.379903   0.000058   0.000154  -0.013124
   41  O  3  X    0.089578   0.000121   0.411554   0.128554   0.000033
   42  O  3  Y   -0.282399  -0.000180   0.112647  -0.298453  -0.000050
   43  O  3  Z    0.000177  -0.349009   0.000087   0.000200  -0.096801
   44  O  3 XX   -0.001976  -0.000002  -0.003010  -0.004524  -0.000021
   45  O  3 YY   -0.002356   0.000001  -0.006086   0.005150  -0.000008
   46  O  3 ZZ    0.004333   0.000002   0.009096  -0.000626   0.000029
   47  O  3 XY    0.011437   0.000002   0.004993   0.001376   0.000021
   48  O  3 XZ   -0.000008   0.003564  -0.000008  -0.000002   0.034936
   49  O  3 YZ    0.000008   0.000672   0.000011  -0.000003  -0.008820

                     21         22         23         24         25
                    0.3611     0.4167     0.4301     0.5382     0.5598
                     A          A          A          A          A   
    1  S  1  S   -0.016110  -0.113387  -0.022918   0.000000   0.002493
    2  S  1  S   -0.036261  -0.384292  -0.076184   0.000001  -0.028525
    3  S  1  S   -0.225718  -1.710289  -0.343287   0.000003  -0.004568
    4  S  1  S   -0.034673   2.399837   0.522236   0.000002   0.552976
    5  S  1  X   -0.010926  -0.058233   0.265597   0.000020   0.001761
    6  S  1  Y    0.282111  -0.018187   0.010038  -0.000030  -0.014939
    7  S  1  Z   -0.000151  -0.000012   0.000089  -0.058649   0.000009
    8  S  1  X    0.040582   0.215207  -0.926876  -0.000083  -0.002042
    9  S  1  Y   -1.049520   0.021953  -0.045968   0.000126   0.048652
   10  S  1  Z    0.000564   0.000066  -0.000304   0.246393  -0.000027
   11  S  1  X   -0.050983  -0.272584   1.408159   0.000099   0.017776
   12  S  1  Y    1.248142  -0.365874  -0.002090  -0.000151  -0.359075
   13  S  1  Z   -0.000671   0.000091   0.000498  -0.290137   0.000193
   14  S  1 XX   -0.294186   0.132345   0.125239  -0.000012  -0.056969
   15  S  1 YY    0.208108  -0.100065  -0.097562   0.000831   0.809829
   16  S  1 ZZ    0.086078  -0.032280  -0.027677  -0.000819  -0.752860
   17  S  1 XY   -0.055107   0.095785  -0.434571  -0.000314  -0.076035
   18  S  1 XZ   -0.000125   0.000016   0.000284   0.020287   0.000313
   19  S  1 YZ   -0.000094   0.000075  -0.000108   0.923830  -0.000963
   20  O  2  S   -0.006108   0.021126  -0.009290   0.000000   0.024112
   21  O  2  S   -0.049842  -0.005118  -0.046223   0.000000  -0.075367
   22  O  2  S    0.339044  -0.641283   0.455418  -0.000003  -0.257314
   23  O  2  X   -0.149867   0.233329  -0.174635  -0.000106  -0.137911
   24  O  2  Y   -0.042777   0.170892  -0.135041   0.000157   0.276255
   25  O  2  Z   -0.000031  -0.000006   0.000009   0.301386  -0.000195
   26  O  2  X    0.107730  -0.226035   0.069671   0.000012  -0.194276
   27  O  2  Y   -0.010915  -0.150449   0.070850  -0.000022  -0.202168
   28  O  2  Z    0.000044  -0.000002  -0.000013  -0.040090   0.000036
   29  O  2 XX    0.040986  -0.040304   0.000719   0.000025   0.027589
   30  O  2 YY   -0.027654  -0.001117   0.024029   0.000010  -0.006433
   31  O  2 ZZ   -0.013332   0.041420  -0.024748  -0.000036  -0.021156
   32  O  2 XY    0.004333  -0.058694   0.042359  -0.000026  -0.039744
   33  O  2 XZ    0.000020  -0.000003  -0.000012  -0.041095   0.000041
   34  O  2 YZ    0.000010   0.000005  -0.000014   0.011731  -0.000022
   35  O  3  S   -0.005810   0.016089   0.018129   0.000000   0.022994
   36  O  3  S   -0.045236  -0.024177   0.044020   0.000000  -0.071520
   37  O  3  S    0.308595  -0.418251  -0.726702  -0.000002  -0.255925
   38  O  3  X    0.137679  -0.156805  -0.301816  -0.000081   0.088372
   39  O  3  Y   -0.006448   0.085914   0.147825   0.000122   0.297861
   40  O  3  Z    0.000052  -0.000099  -0.000181   0.234072  -0.000121
   41  O  3  X   -0.100729   0.209368   0.203028   0.000015   0.227591
   42  O  3  Y   -0.023523  -0.085728  -0.103844  -0.000019  -0.159344
   43  O  3  Z   -0.000023   0.000118   0.000125  -0.033769   0.000163
   44  O  3 XX    0.039255  -0.044433  -0.038688  -0.000018   0.015086
   45  O  3 YY   -0.027656   0.015802  -0.002183   0.000026   0.007847
   46  O  3 ZZ   -0.011599   0.028631   0.040871  -0.000008  -0.022933
   47  O  3 XY    0.012028   0.027497   0.060267   0.000005   0.043817
   48  O  3 XZ    0.000014  -0.000044  -0.000063   0.029888  -0.000007
   49  O  3 YZ    0.000014   0.000017   0.000047   0.029008  -0.000004

                     26         27         28         29         30
                    0.5757     0.6434     0.6589     0.7700     0.7903
                     A          A          A          A          A   
    1  S  1  S    0.000000   0.032009  -0.004811   0.000000  -0.013612
    2  S  1  S   -0.000001   0.105622  -0.007861   0.000000  -0.077332
    3  S  1  S   -0.000004   0.499417  -0.066610   0.000000  -0.249869
    4  S  1  S    0.000004   1.070995  -0.288038  -0.000002   0.108637
    5  S  1  X   -0.000001  -0.057999  -0.175003   0.000001   0.000143
    6  S  1  Y    0.000002   0.106118  -0.038850  -0.000001  -0.043934
    7  S  1  Z    0.005215  -0.000075  -0.000041  -0.002234   0.000023
    8  S  1  X    0.000004   0.309241   0.934521  -0.000002  -0.003920
    9  S  1  Y   -0.000009  -0.567219   0.206155   0.000003   0.195135
   10  S  1  Z   -0.023454   0.000401   0.000221   0.005661  -0.000102
   11  S  1  X   -0.000011   0.025873   0.149133   0.000014   0.034841
   12  S  1  Y    0.000016  -0.128099   0.057300  -0.000022  -0.736540
   13  S  1  Z    0.038176   0.000075   0.000023  -0.041280   0.000391
   14  S  1 XX   -0.000565   0.508528  -0.077321   0.000260  -0.346273
   15  S  1 YY   -0.000014  -0.193673  -0.014420  -0.000019   0.479719
   16  S  1 ZZ    0.000580  -0.314854   0.091741  -0.000241  -0.133446
   17  S  1 XY    0.000486  -0.032844  -0.488180  -0.000213  -0.096586
   18  S  1 XZ    0.926697   0.000353   0.000184  -0.427828  -0.000035
   19  S  1 YZ   -0.023833  -0.000085  -0.000109  -0.021856  -0.000398
   20  O  2  S    0.000000   0.041549  -0.071328   0.000000   0.000105
   21  O  2  S   -0.000001  -0.072751   0.170968   0.000000  -0.054527
   22  O  2  S   -0.000001  -0.458796   0.593412   0.000000  -0.023790
   23  O  2  X   -0.000112   0.309727  -0.230913  -0.000190   0.271032
   24  O  2  Y    0.000165  -0.069712  -0.209294   0.000280  -0.421903
   25  O  2  Z    0.313584   0.000146   0.000027   0.543455   0.000310
   26  O  2  X    0.000008  -0.744254   1.069379   0.000274  -0.322630
   27  O  2  Y   -0.000014  -0.312154   0.757585  -0.000401   0.820362
   28  O  2  Z   -0.023607  -0.000101  -0.000016  -0.780751  -0.000533
   29  O  2 XX    0.000020  -0.005400  -0.010335  -0.000024   0.025771
   30  O  2 YY   -0.000046   0.009633   0.000656   0.000028  -0.033431
   31  O  2 ZZ    0.000027  -0.004233   0.009679  -0.000005   0.007660
   32  O  2 XY    0.000001   0.011017  -0.019266   0.000009  -0.035597
   33  O  2 XZ   -0.031885  -0.000006   0.000002   0.039183   0.000026
   34  O  2 YZ   -0.051639  -0.000005  -0.000001   0.031793   0.000012
   35  O  3  S    0.000000   0.069630   0.043511   0.000000   0.000762
   36  O  3  S   -0.000001  -0.134509  -0.108724   0.000001  -0.054855
   37  O  3  S    0.000000  -0.707077  -0.330199   0.000000  -0.018193
   38  O  3  X    0.000132  -0.372054  -0.088172   0.000205  -0.209883
   39  O  3  Y   -0.000190  -0.030859   0.215960  -0.000301  -0.497449
   40  O  3  Z   -0.374243  -0.000118  -0.000143  -0.580437   0.000183
   41  O  3  X   -0.000008   1.258447   0.694011  -0.000304   0.226909
   42  O  3  Y    0.000008  -0.448413  -0.436809   0.000447   0.927848
   43  O  3  Z    0.014953   0.000675   0.000469   0.860599  -0.000399
   44  O  3 XX    0.000028   0.005447   0.016184  -0.000028   0.018788
   45  O  3 YY    0.000037   0.003406  -0.010084  -0.000024  -0.024664
   46  O  3 ZZ   -0.000065  -0.008853  -0.006100   0.000052   0.005876
   47  O  3 XY   -0.000038  -0.019217  -0.008397   0.000033   0.046109
   48  O  3 XZ   -0.045760   0.000015   0.000013   0.046548  -0.000019
   49  O  3 YZ    0.041230  -0.000014  -0.000001  -0.026424   0.000035

                     31         32         33         34         35
                    0.8455     0.8595     1.0058     1.1457     1.6125
                     A          A          A          A          A   
    1  S  1  S    0.000000   0.001159  -0.007707  -0.001310  -0.000068
    2  S  1  S    0.000000   0.010231  -0.214207   0.021426  -0.005307
    3  S  1  S    0.000001   0.025930  -0.358734   0.011721  -0.007082
    4  S  1  S   -0.000001  -0.017063   0.671133  -0.088875  -0.032222
    5  S  1  X    0.000010  -0.047744  -0.003967   0.130230   0.013815
    6  S  1  Y   -0.000015  -0.004536   0.088265  -0.003690   0.001846
    7  S  1  Z   -0.028994  -0.000015  -0.000047   0.000048   0.000004
    8  S  1  X   -0.000036   0.215461   0.032842  -0.353859  -0.295049
    9  S  1  Y    0.000050   0.013113  -0.253844   0.020398  -0.021637
   10  S  1  Z    0.098829   0.000070   0.000143  -0.000135  -0.000092
   11  S  1  X    0.000282  -0.484125  -0.059188  -0.582161  -1.205047
   12  S  1  Y   -0.000409  -0.018120  -0.126739  -0.031477  -0.088931
   13  S  1  Z   -0.797446  -0.000166   0.000045  -0.000189  -0.000377
   14  S  1 XX    0.000007   0.021598   0.879140  -0.238726  -0.019513
   15  S  1 YY    0.000312  -0.046089  -0.198212   0.154787   0.024113
   16  S  1 ZZ   -0.000320   0.024491  -0.680928   0.083938  -0.004600
   17  S  1 XY   -0.000127  -0.231434   0.185483   0.940711   0.176581
   18  S  1 XZ   -0.010769   0.000118   0.000537  -0.000617  -0.000097
   19  S  1 YZ    0.350317  -0.000037  -0.000223   0.000288   0.000045
   20  O  2  S    0.000000  -0.000688   0.035124   0.031409  -0.006082
   21  O  2  S    0.000001  -0.044031  -0.210508  -0.069077   1.226367
   22  O  2  S    0.000000  -0.011279  -0.306491  -0.497078  -1.973956
   23  O  2  X    0.000214  -0.295838  -0.476996  -0.542240  -0.013627
   24  O  2  Y   -0.000315   0.565336  -0.413295  -0.193763   0.066307
   25  O  2  Z   -0.606279  -0.000400   0.000046  -0.000090  -0.000039
   26  O  2  X   -0.000354   0.600522   0.254615   0.234203  -0.302355
   27  O  2  Y    0.000520  -0.705644   0.130720   0.015462  -0.470099
   28  O  2  Z    1.002050   0.000581   0.000022   0.000074   0.000136
   29  O  2 XX    0.000029  -0.051081  -0.050769   0.052675   0.045473
   30  O  2 YY   -0.000018   0.034473   0.067067  -0.087162   0.059998
   31  O  2 ZZ   -0.000011   0.016608  -0.016298   0.034487  -0.105471
   32  O  2 XY   -0.000017   0.009334  -0.017245   0.017789   0.144941
   33  O  2 XZ   -0.046941  -0.000033  -0.000005  -0.000002  -0.000014
   34  O  2 YZ   -0.020068  -0.000007  -0.000056   0.000079  -0.000048
   35  O  3  S    0.000000  -0.000734   0.029201  -0.039121   0.005624
   36  O  3  S    0.000000   0.057757  -0.198414   0.123951  -1.250605
   37  O  3  S    0.000000   0.014515  -0.231720   0.593761   2.035485
   38  O  3  X    0.000201  -0.209119   0.397566  -0.681202  -0.008750
   39  O  3  Y   -0.000288  -0.552152  -0.338449   0.169175  -0.065099
   40  O  3  Z   -0.566327   0.000208   0.000315  -0.000327   0.000031
   41  O  3  X   -0.000338   0.490171  -0.162076   0.259078  -0.380175
   42  O  3  Y    0.000485   0.723627   0.110128   0.017296   0.416706
   43  O  3  Z    0.951868  -0.000195  -0.000114   0.000083  -0.000348
   44  O  3 XX   -0.000028   0.047337  -0.052806  -0.044921  -0.088972
   45  O  3 YY   -0.000008  -0.031210   0.080565   0.072282  -0.015566
   46  O  3 ZZ    0.000036  -0.016127  -0.027759  -0.027360   0.104538
   47  O  3 XY    0.000027   0.020287  -0.007684  -0.002854   0.139865
   48  O  3 XZ    0.046063   0.000016  -0.000006  -0.000005  -0.000150
   49  O  3 YZ   -0.008787   0.000016  -0.000067  -0.000060   0.000121

                     36         37         38         39         40
                    1.7228     2.0514     2.0605     2.0660     2.0893
                     A          A          A          A          A   
    1  S  1  S   -0.019827   0.000000  -0.000348   0.000000  -0.001497
    2  S  1  S   -0.194468   0.000000  -0.002311   0.000000  -0.017276
    3  S  1  S   -0.442829   0.000000  -0.007158   0.000000  -0.041035
    4  S  1  S    2.511963   0.000000   0.003427   0.000000  -0.003465
    5  S  1  X   -0.002509  -0.000002   0.007038  -0.000008  -0.001698
    6  S  1  Y    0.025030   0.000003   0.000440   0.000012  -0.000880
    7  S  1  Z   -0.000014   0.006499   0.000003   0.023484   0.000000
    8  S  1  X    0.028485   0.000008   0.001633   0.000030   0.002189
    9  S  1  Y   -0.236994  -0.000012   0.001307  -0.000045   0.018697
   10  S  1  Z    0.000132  -0.023029  -0.000002  -0.086649  -0.000009
   11  S  1  X    0.068882   0.000002  -0.052753   0.000010   0.003860
   12  S  1  Y   -0.971579  -0.000003  -0.005406  -0.000012   0.004964
   13  S  1  Z    0.000526  -0.006479  -0.000016  -0.024071  -0.000001
   14  S  1 XX    0.290352  -0.000020   0.010945   0.000005   0.076480
   15  S  1 YY    0.020687  -0.000011   0.011286  -0.000034   0.078466
   16  S  1 ZZ   -0.311039   0.000031  -0.022231   0.000029  -0.154946
   17  S  1 XY    0.031248   0.000022  -0.012984   0.000009   0.004063
   18  S  1 XZ    0.000228   0.033809   0.000019  -0.008739   0.000091
   19  S  1 YZ   -0.000187  -0.012580  -0.000025  -0.038003  -0.000138
   20  O  2  S    0.007967   0.000000   0.001159   0.000000   0.002558
   21  O  2  S    1.235145  -0.000001  -0.033550   0.000001  -0.058977
   22  O  2  S   -2.279380   0.000001   0.017145   0.000000   0.041906
   23  O  2  X   -0.011576   0.000008  -0.050851   0.000009  -0.036682
   24  O  2  Y   -0.074541  -0.000012   0.017285  -0.000011  -0.019480
   25  O  2  Z    0.000034  -0.023872  -0.000027  -0.021204  -0.000003
   26  O  2  X   -0.687641  -0.000012   0.080263  -0.000014   0.034647
   27  O  2  Y   -0.178514   0.000019  -0.028802   0.000018   0.015443
   28  O  2  Z   -0.000149   0.037287   0.000043   0.033837   0.000004
   29  O  2 XX    0.165968  -0.000274   0.354538   0.000185  -0.208967
   30  O  2 YY   -0.068904  -0.000246   0.171190   0.000702  -0.455383
   31  O  2 ZZ   -0.097063   0.000520  -0.525728  -0.000887   0.664350
   32  O  2 XY    0.147567   0.000329  -0.330603  -0.000434   0.377641
   33  O  2 XZ    0.000031   0.455372   0.000514  -0.319246  -0.000551
   34  O  2 YZ    0.000035  -0.275676  -0.000508   0.789806   0.000801
   35  O  3  S    0.008431   0.000000  -0.000463   0.000000   0.002569
   36  O  3  S    1.219587   0.000000   0.019510   0.000000  -0.066483
   37  O  3  S   -2.284129   0.000000  -0.010663   0.000000   0.047399
   38  O  3  X    0.028590  -0.000003  -0.035848   0.000012   0.048231
   39  O  3  Y   -0.077678   0.000004  -0.028884  -0.000015  -0.006734
   40  O  3  Z    0.000050   0.009143   0.000002  -0.030578   0.000020
   41  O  3  X    0.703044   0.000006   0.065983  -0.000020  -0.052275
   42  O  3  Y   -0.055052  -0.000008   0.045205   0.000025  -0.001629
   43  O  3  Z    0.000275  -0.015986   0.000001   0.051333  -0.000017
   44  O  3 XX    0.194332  -0.000271  -0.269993   0.000031  -0.049728
   45  O  3 YY   -0.096845   0.000641  -0.389146   0.000480  -0.483776
   46  O  3 ZZ   -0.097487  -0.000370   0.659139  -0.000512   0.533504
   47  O  3 XY   -0.093081  -0.000033  -0.406571  -0.000195  -0.221687
   48  O  3 XZ    0.000166   0.439732  -0.000173  -0.039830  -0.000124
   49  O  3 YZ   -0.000033   0.724534   0.000487   0.526166   0.000526

                     41         42         43         44         45
                    2.1696     2.2606     2.3477     2.5073     2.8256
                     A          A          A          A          A   
    1  S  1  S   -0.000298   0.000000   0.000000  -0.000871  -0.051742
    2  S  1  S    0.000617   0.000000   0.000000   0.007279  -0.088927
    3  S  1  S   -0.002434   0.000000  -0.000001  -0.010787  -0.772897
    4  S  1  S    0.012654  -0.000001   0.000001  -0.394966  -1.426668
    5  S  1  X   -0.031133  -0.000025   0.000002   0.003056  -0.009709
    6  S  1  Y   -0.004270   0.000037  -0.000004  -0.071677  -0.116802
    7  S  1  Z   -0.000009   0.070878  -0.006776   0.000038   0.000057
    8  S  1  X    0.174964   0.000090  -0.000011  -0.015065   0.023187
    9  S  1  Y    0.022700  -0.000132   0.000015   0.305490   0.763824
   10  S  1  Z    0.000050  -0.256448   0.029019  -0.000163  -0.000386
   11  S  1  X    0.097798   0.000057  -0.000003  -0.027146   0.010932
   12  S  1  Y    0.000183  -0.000084   0.000005   0.331284   0.313133
   13  S  1  Z    0.000034  -0.162838   0.010081  -0.000181  -0.000158
   14  S  1 XX   -0.049732   0.000003  -0.000335   0.452632  -0.635920
   15  S  1 YY    0.048299   0.000305   0.000016  -0.502016   0.157811
   16  S  1 ZZ    0.001433  -0.000308   0.000319   0.049384   0.478109
   17  S  1 XY    0.347457  -0.000123   0.000278   0.098476  -0.138626
   18  S  1 XZ   -0.000200  -0.005353   0.551736   0.000112  -0.000380
   19  S  1 YZ    0.000094   0.341353   0.018452   0.000363   0.000142
   20  O  2  S    0.002974   0.000000   0.000000  -0.002790  -0.040286
   21  O  2  S   -0.176554   0.000000   0.000000  -0.248314  -0.690663
   22  O  2  S    0.181992   0.000000   0.000000   0.417581   1.670187
   23  O  2  X   -0.034176   0.000023   0.000010  -0.060945   0.062044
   24  O  2  Y   -0.099297  -0.000033  -0.000014  -0.006366   0.054442
   25  O  2  Z    0.000039  -0.064879  -0.027121  -0.000018  -0.000006
   26  O  2  X   -0.012860  -0.000074  -0.000058   0.275602   0.759756
   27  O  2  Y    0.175565   0.000109   0.000085  -0.136002   0.510223
   28  O  2  Z   -0.000095   0.211185   0.163950   0.000167   0.000003
   29  O  2 XX   -0.486147  -0.000449  -0.000290   0.644189   0.404970
   30  O  2 YY    0.685853   0.000216   0.000475  -0.592052   0.066355
   31  O  2 ZZ   -0.199705   0.000233  -0.000184  -0.052137  -0.471325
   32  O  2 XY    0.185338   0.000296   0.000060  -0.249544   0.754173
   33  O  2 XZ   -0.000211   0.738321   0.478203   0.000411  -0.000034
   34  O  2 YZ   -0.000462   0.241574   0.531474   0.000234  -0.000056
   35  O  3  S   -0.002589   0.000000   0.000000  -0.003263  -0.035244
   36  O  3  S    0.194769   0.000000   0.000000  -0.251260  -0.601658
   37  O  3  S   -0.207605   0.000001   0.000000   0.425837   1.489144
   38  O  3  X   -0.053541   0.000021  -0.000011   0.059030  -0.064390
   39  O  3  Y    0.092866  -0.000031   0.000016   0.002205   0.045409
   40  O  3  Z   -0.000067  -0.060610   0.031720   0.000020  -0.000046
   41  O  3  X    0.021284  -0.000071   0.000070  -0.255977  -0.730547
   42  O  3  Y   -0.179364   0.000104  -0.000103  -0.191845   0.335202
   43  O  3  Z    0.000100   0.201117  -0.198793   0.000009  -0.000429
   44  O  3 XX    0.398559   0.000428  -0.000394   0.560663   0.489006
   45  O  3 YY   -0.591094   0.000055  -0.000422  -0.507777  -0.077943
   46  O  3 ZZ    0.192535  -0.000483   0.000815  -0.052886  -0.411063
   47  O  3 XY    0.379716  -0.000385   0.000500   0.481283  -0.564655
   48  O  3 XZ   -0.000112  -0.705075   0.648601   0.000000   0.000656
   49  O  3 YZ    0.000600   0.061169  -0.471564   0.000440  -0.000396

                     46
                    2.9117
                     A   
    1  S  1  S   -0.006338
    2  S  1  S   -0.026068
    3  S  1  S   -0.116035
    4  S  1  S   -0.135607
    5  S  1  X    0.224324
    6  S  1  Y    0.007034
    7  S  1  Z    0.000075
    8  S  1  X   -1.404028
    9  S  1  Y   -0.022699
   10  S  1  Z   -0.000481
   11  S  1  X   -0.426061
   12  S  1  Y   -0.008304
   13  S  1  Z   -0.000145
   14  S  1 XX   -0.162988
   15  S  1 YY    0.117347
   16  S  1 ZZ    0.045641
   17  S  1 XY    0.728449
   18  S  1 XZ   -0.000461
   19  S  1 YZ    0.000213
   20  O  2  S    0.035307
   21  O  2  S    0.471081
   22  O  2  S   -1.240332
   23  O  2  X   -0.108803
   24  O  2  Y   -0.062938
   25  O  2  Z   -0.000006
   26  O  2  X   -0.589275
   27  O  2  Y   -0.402856
   28  O  2  Z    0.000001
   29  O  2 XX   -0.464869
   30  O  2 YY    0.102874
   31  O  2 ZZ    0.361995
   32  O  2 XY   -0.637561
   33  O  2 XZ   -0.000006
   34  O  2 YZ   -0.000070
   35  O  3  S   -0.043479
   36  O  3  S   -0.574642
   37  O  3  S    1.568114
   38  O  3  X   -0.153530
   39  O  3  Y    0.061950
   40  O  3  Z   -0.000086
   41  O  3  X   -0.804542
   42  O  3  Y    0.376630
   43  O  3  Z   -0.000476
   44  O  3 XX    0.732119
   45  O  3 YY   -0.289777
   46  O  3 ZZ   -0.442342
   47  O  3 XY   -0.615107
   48  O  3 XZ    0.000793
   49  O  3 YZ   -0.000307
 ...... END OF RHF CALCULATION ......
 STEP CPU TIME =     7.53 TOTAL CPU TIME =        7.8 (    0.1 MIN)
 TOTAL WALL CLOCK TIME=        8.7 SECONDS, CPU UTILIZATION IS  90.08%

     ---------------------------------------------------------------------
     PROPERTIES FOR THE PBE      DFT FUNCTIONAL (RHF  TYPE) DENSITY MATRIX
     ---------------------------------------------------------------------

          -----------------
          ENERGY COMPONENTS
          -----------------

         WAVEFUNCTION NORMALIZATION =       1.0000000000

                ONE ELECTRON ENERGY =    -973.7671075711
                TWO ELECTRON ENERGY =     315.6703631204
           NUCLEAR REPULSION ENERGY =     109.8468077125
                                      ------------------
                       TOTAL ENERGY =    -548.2499367382

 ELECTRON-ELECTRON POTENTIAL ENERGY =     315.6703631204
  NUCLEUS-ELECTRON POTENTIAL ENERGY =   -1521.7974854918
   NUCLEUS-NUCLEUS POTENTIAL ENERGY =     109.8468077125
                                      ------------------
             TOTAL POTENTIAL ENERGY =   -1096.2803146589
               TOTAL KINETIC ENERGY =     548.0303779208
                 VIRIAL RATIO (V/T) =       2.0004006326

          ---------------------------------------
          MULLIKEN AND LOWDIN POPULATION ANALYSES
          ---------------------------------------

     ATOMIC MULLIKEN POPULATION IN EACH MOLECULAR ORBITAL

                      1          2          3          4          5

                  2.000000   2.000000   2.000000   2.000000   2.000000

    1             2.000034   0.001597   0.001568   2.001823   1.999722
    2            -0.000016  -0.000009   1.998440  -0.000865   0.000123
    3            -0.000018   1.998412  -0.000008  -0.000958   0.000154

                      6          7          8          9         10

                  2.000000   2.000000   2.000000   2.000000   2.000000

    1             2.000000   1.999788   0.689653   0.438398   0.892107
    2             0.000000   0.000104   0.538433   0.904482   0.540070
    3             0.000000   0.000108   0.771914   0.657120   0.567823

                     11         12         13         14         15

                  2.000000   2.000000   2.000000   2.000000   2.000000

    1             1.000279   0.807155   0.349291   0.125567   0.166500
    2             0.441169   0.571982   0.784721   0.995740   0.939047
    3             0.558551   0.620863   0.865987   0.878692   0.894453

                     16

                  2.000000

    1             0.757609
    2             0.680392
    3             0.561999

               ----- POPULATIONS IN EACH AO -----
                             MULLIKEN      LOWDIN
              1  S  1  S      2.00024     1.99577
              2  S  1  S      2.01009     1.95910
              3  S  1  S      0.94340     0.56621
              4  S  1  S      0.87482     0.54970
              5  S  1  X      1.99662     1.95517
              6  S  1  Y      1.99714     1.96238
              7  S  1  Z      1.99603     1.95425
              8  S  1  X      0.69600     0.61132
              9  S  1  Y      0.83805     0.80861
             10  S  1  Z      0.65047     0.60365
             11  S  1  X      0.09787     0.25244
             12  S  1  Y      0.26092     0.40284
             13  S  1  Z      0.33652     0.39695
             14  S  1 XX      0.04559     0.31764
             15  S  1 YY      0.18255     0.28666
             16  S  1 ZZ      0.16195     0.25480
             17  S  1 XY      0.12346     0.19475
             18  S  1 XZ      0.01937     0.15037
             19  S  1 YZ      0.00000     0.01901
             20  O  2  S      1.99794     1.98056
             21  O  2  S      0.82771     0.63972
             22  O  2  S      1.02558     0.54487
             23  O  2  X      0.95247     0.90977
             24  O  2  Y      1.06238     1.03202
             25  O  2  Z      0.86555     0.82475
             26  O  2  X      0.48477     0.57376
             27  O  2  Y      0.58987     0.65492
             28  O  2  Z      0.56325     0.60295
             29  O  2 XX      0.00232     0.20467
             30  O  2 YY      0.00716     0.19702
             31  O  2 ZZ      0.00671     0.19857
             32  O  2 XY      0.00555     0.01223
             33  O  2 XZ      0.00255     0.00720
             34  O  2 YZ      0.00000     0.00316
             35  O  3  S      1.99793     1.98051
             36  O  3  S      0.82630     0.63759
             37  O  3  S      1.01439     0.53983
             38  O  3  X      0.95123     0.91005
             39  O  3  Y      1.07487     1.04349
             40  O  3  Z      0.87056     0.82886
             41  O  3  X      0.44334     0.54819
             42  O  3  Y      0.61268     0.66350
             43  O  3  Z      0.55800     0.59760
             44  O  3 XX      0.00241     0.20732
             45  O  3 YY      0.00778     0.19464
             46  O  3 ZZ      0.00692     0.19720
             47  O  3 XY      0.00713     0.01215
             48  O  3 XZ      0.00155     0.00932
             49  O  3 YZ      0.00000     0.00191

          ----- MULLIKEN ATOMIC OVERLAP POPULATIONS -----
          (OFF-DIAGONAL ELEMENTS NEED TO BE MULTIPLIED BY 2)

             1           2           3

    1   14.5226109
    2    0.3504029   8.0780083
    3    0.3580764  -0.0345950   8.0516123

          TOTAL MULLIKEN AND LOWDIN ATOMIC POPULATIONS
       ATOM         MULL.POP.    CHARGE          LOW.POP.     CHARGE
    1 S            15.231090    0.768910        15.241649    0.758351
    2 O             8.393816   -0.393816         8.386176   -0.386176
    3 O             8.375094   -0.375094         8.372175   -0.372175

          MULLIKEN SPHERICAL HARMONIC POPULATIONS
       ATOM           S       P       D      F      G      H      I    TOTAL
    1 S             5.83    8.87    0.53   0.00   0.00   0.00   0.00   15.23
    2 O             3.85    4.52    0.02   0.00   0.00   0.00   0.00    8.39
    3 O             3.84    4.51    0.03   0.00   0.00   0.00   0.00    8.38

          -------------------------------
          BOND ORDER AND VALENCE ANALYSIS     BOND ORDER THRESHOLD=0.050
          -------------------------------

                   BOND                       BOND                       BOND
  ATOM PAIR DIST  ORDER      ATOM PAIR DIST  ORDER      ATOM PAIR DIST  ORDER
    1   2  1.423  1.876        1   3  1.399  1.891        2   3  2.452  0.226

                       TOTAL       BONDED        FREE
      ATOM            VALENCE     VALENCE     VALENCE
    1 S                 3.767       3.767       0.000
    2 O                 2.101       2.101       0.000
    3 O                 2.117       2.117       0.000

          ---------------------
          ELECTROSTATIC MOMENTS
          ---------------------

 POINT   1           X           Y           Z (BOHR)    CHARGE
                -1.025901    5.406262    0.000354        0.00 (A.U.)
         DX          DY          DZ         /D/  (DEBYE)
    -0.011864    1.554453   -0.000803    1.554498
 ...... END OF PROPERTY EVALUATION ......
 STEP CPU TIME =     0.04 TOTAL CPU TIME =        7.8 (    0.1 MIN)
 TOTAL WALL CLOCK TIME=        8.7 SECONDS, CPU UTILIZATION IS  90.13%
               580000  WORDS OF DYNAMIC MEMORY USED
 EXECUTION OF GAMESS TERMINATED NORMALLY Sun Feb 15 21:54:10 2015
 DDI: 263624 bytes (0.3 MB / 0 MWords) used by master data server.

 ----------------------------------------
 CPU timing information for all processes
 ========================================
 0: 7.773 + 0.88 = 7.862
 ----------------------------------------
 ddikick.x: exited gracefully.
----- accounting info -----
Files used on the master node dftfe.crc.nd.edu were:
-rw-r--r-- 1 pmehta1 campus   37470 Feb 15 21:54 /tmp/SO2.dat
-rw-r--r-- 1 pmehta1 campus     234 Feb 15 21:54 /tmp/SO2.F05
-rw-r--r-- 1 pmehta1 campus 7200960 Feb 15 21:54 /tmp/SO2.F08
-rw-r--r-- 1 pmehta1 campus  958680 Feb 15 21:54 /tmp/SO2.F10
Sun Feb 15 21:54:13 EST 2015
0.261u 0.173s 0:12.17 3.5%	0+0k 0+96io 0pf+0w
